 Entering Gaussian System, Link 0=g09
 Initial command:
 /prod/apps/gaussian/g09d1/l1.exe "/tmp/ubafar01/1449171/Gau-104831.inp" -scrdir="/tmp/ubafar01/1449171/"
 Entering Link 1 = /prod/apps/gaussian/g09d1/l1.exe PID=    104832.
  
 Copyright (c) 1988,1990,1992,1993,1995,1998,2003,2009,2013,
            Gaussian, Inc.  All Rights Reserved.
  
 This is part of the Gaussian(R) 09 program.  It is based on
 the Gaussian(R) 03 system (copyright 2003, Gaussian, Inc.),
 the Gaussian(R) 98 system (copyright 1998, Gaussian, Inc.),
 the Gaussian(R) 94 system (copyright 1995, Gaussian, Inc.),
 the Gaussian 92(TM) system (copyright 1992, Gaussian, Inc.),
 the Gaussian 90(TM) system (copyright 1990, Gaussian, Inc.),
 the Gaussian 88(TM) system (copyright 1988, Gaussian, Inc.),
 the Gaussian 86(TM) system (copyright 1986, Carnegie Mellon
 University), and the Gaussian 82(TM) system (copyright 1983,
 Carnegie Mellon University). Gaussian is a federally registered
 trademark of Gaussian, Inc.
  
 This software contains proprietary and confidential information,
 including trade secrets, belonging to Gaussian, Inc.
  
 This software is provided under written license and may be
 used, copied, transmitted, or stored only in accord with that
 written license.
  
 The following legend is applicable only to US Government
 contracts under FAR:
  
                    RESTRICTED RIGHTS LEGEND
  
 Use, reproduction and disclosure by the US Government is
 subject to restrictions as set forth in subparagraphs (a)
 and (c) of the Commercial Computer Software - Restricted
 Rights clause in FAR 52.227-19.
  
 Gaussian, Inc.
 340 Quinnipiac St., Bldg. 40, Wallingford CT 06492
  
  
 ---------------------------------------------------------------
 Warning -- This program may not be used in any manner that
 competes with the business of Gaussian, Inc. or will provide
 assistance to any competitor of Gaussian, Inc.  The licensee
 of this program is prohibited from giving any competitor of
 Gaussian, Inc. access to this program.  By using this program,
 the user acknowledges that Gaussian, Inc. is engaged in the
 business of creating and licensing software in the field of
 computational chemistry and represents and warrants to the
 licensee that it is not a competitor of Gaussian, Inc. and that
 it will not use this program in any manner prohibited above.
 ---------------------------------------------------------------
  

 Cite this work as:
 Gaussian 09, Revision D.01,
 M. J. Frisch, G. W. Trucks, H. B. Schlegel, G. E. Scuseria, 
 M. A. Robb, J. R. Cheeseman, G. Scalmani, V. Barone, B. Mennucci, 
 G. A. Petersson, H. Nakatsuji, M. Caricato, X. Li, H. P. Hratchian, 
 A. F. Izmaylov, J. Bloino, G. Zheng, J. L. Sonnenberg, M. Hada, 
 M. Ehara, K. Toyota, R. Fukuda, J. Hasegawa, M. Ishida, T. Nakajima, 
 Y. Honda, O. Kitao, H. Nakai, T. Vreven, J. A. Montgomery, Jr., 
 J. E. Peralta, F. Ogliaro, M. Bearpark, J. J. Heyd, E. Brothers, 
 K. N. Kudin, V. N. Staroverov, T. Keith, R. Kobayashi, J. Normand, 
 K. Raghavachari, A. Rendell, J. C. Burant, S. S. Iyengar, J. Tomasi, 
 M. Cossi, N. Rega, J. M. Millam, M. Klene, J. E. Knox, J. B. Cross, 
 V. Bakken, C. Adamo, J. Jaramillo, R. Gomperts, R. E. Stratmann, 
 O. Yazyev, A. J. Austin, R. Cammi, C. Pomelli, J. W. Ochterski, 
 R. L. Martin, K. Morokuma, V. G. Zakrzewski, G. A. Voth, 
 P. Salvador, J. J. Dannenberg, S. Dapprich, A. D. Daniels, 
 O. Farkas, J. B. Foresman, J. V. Ortiz, J. Cioslowski, 
 and D. J. Fox, Gaussian, Inc., Wallingford CT, 2013.
 
 ******************************************
 Gaussian 09:  AM64L-G09RevD.01 24-Apr-2013
                 8-Aug-2020 
 ******************************************
 %nproc=1
 Will use up to    1 processors via shared memory.
 %Chk=SM37.n.13.pdb.xyz.mst.n.w.chk
 -----------------
 #p b3lyp/6-31G(d)
 -----------------
 1/38=1/1;
 2/12=2,17=6,18=5,40=1/2;
 3/5=1,6=6,7=1,11=2,16=1,25=1,30=1,74=-5/1,2,3;
 4//1;
 5/5=2,38=5/2;
 6/7=2,8=2,9=2,10=2,28=1/1;
 99/5=1,9=1/99;
 Leave Link    1 at Sat Aug  8 02:34:59 2020, MaxMem=           0 cpu:         0.0
 (Enter /prod/apps/gaussian/g09d1/l101.exe)
 -----------------
 SM37.n.13.pdb.xyz
 -----------------
 Symbolic Z-matrix:
 Charge =  0 Multiplicity = 1
 O                     5.16     -0.93     -2.449 
 S                     4.345     0.17     -1.925 
 N                     3.108    -0.554    -1.024 
 C                     2.464    -1.79     -1.547 
 C                     1.448    -2.273    -0.481 
 S                     2.297    -3.918    -0.244 
 O                     1.525    -5.023    -0.957 
 C                     3.406    -3.014    -1.442 
 C                     1.844    -1.572    -2.938 
 C                     1.11     -2.78     -3.548 
 C                     0.531    -2.451    -4.906 
 C                     1.263    -2.693    -6.076 
 C                     0.742    -2.367    -7.329 
 C                    -0.525    -1.79     -7.432 
 C                    -1.266    -1.545    -6.274 
 C                    -0.741    -1.874    -5.024 
 N                     5.272     0.994    -0.808 
 C                     4.692     2.231    -0.266 
 C                     5.94      0.153     0.197 
 O                     3.817     1.18     -2.852 
 H                     2.405     0.159    -0.809 
 H                     0.424    -2.409    -0.83 
 H                     1.457    -1.705     0.45 
 H                     3.535    -3.593    -2.356 
 H                     4.373    -2.806    -0.991 
 H                     2.642    -1.265    -3.621 
 H                     1.148    -0.729    -2.863 
 H                     0.309    -3.106    -2.878 
 H                     1.802    -3.622    -3.643 
 H                     2.248    -3.147    -6.002 
 H                     1.324    -2.566    -8.223 
 H                    -0.934    -1.539    -8.406 
 H                    -2.255    -1.103    -6.344 
 H                    -1.325    -1.686    -4.128 
 H                     4.234     2.802    -1.071 
 H                     5.508     2.816     0.162 
 H                     3.95      2.036     0.519 
 H                     6.375    -0.715    -0.294 
 H                     5.25     -0.172     0.985 
 H                     6.74      0.747     0.642 
 
 NAtoms=     40 NQM=       40 NQMF=       0 NMMI=      0 NMMIF=      0
                NMic=       0 NMicF=      0.
                    Isotopes and Nuclear Properties:
 (Nuclear quadrupole moments (NQMom) in fm**2, nuclear magnetic moments (NMagM)
  in nuclear magnetons)

  Atom         1           2           3           4           5           6           7           8           9          10
 IAtWgt=          16          32          14          12          12          32          16          12          12          12
 AtmWgt=  15.9949146  31.9720718  14.0030740  12.0000000  12.0000000  31.9720718  15.9949146  12.0000000  12.0000000  12.0000000
 NucSpn=           0           0           2           0           0           0           0           0           0           0
 AtZEff=   0.0000000   0.0000000   0.0000000   0.0000000   0.0000000   0.0000000   0.0000000   0.0000000   0.0000000   0.0000000
 NQMom=    0.0000000   0.0000000   2.0440000   0.0000000   0.0000000   0.0000000   0.0000000   0.0000000   0.0000000   0.0000000
 NMagM=    0.0000000   0.0000000   0.4037610   0.0000000   0.0000000   0.0000000   0.0000000   0.0000000   0.0000000   0.0000000
 AtZNuc=   8.0000000  16.0000000   7.0000000   6.0000000   6.0000000  16.0000000   8.0000000   6.0000000   6.0000000   6.0000000

  Atom        11          12          13          14          15          16          17          18          19          20
 IAtWgt=          12          12          12          12          12          12          14          12          12          16
 AtmWgt=  12.0000000  12.0000000  12.0000000  12.0000000  12.0000000  12.0000000  14.0030740  12.0000000  12.0000000  15.9949146
 NucSpn=           0           0           0           0           0           0           2           0           0           0
 AtZEff=   0.0000000   0.0000000   0.0000000   0.0000000   0.0000000   0.0000000   0.0000000   0.0000000   0.0000000   0.0000000
 NQMom=    0.0000000   0.0000000   0.0000000   0.0000000   0.0000000   0.0000000   2.0440000   0.0000000   0.0000000   0.0000000
 NMagM=    0.0000000   0.0000000   0.0000000   0.0000000   0.0000000   0.0000000   0.4037610   0.0000000   0.0000000   0.0000000
 AtZNuc=   6.0000000   6.0000000   6.0000000   6.0000000   6.0000000   6.0000000   7.0000000   6.0000000   6.0000000   8.0000000

  Atom        21          22          23          24          25          26          27          28          29          30
 IAtWgt=           1           1           1           1           1           1           1           1           1           1
 AtmWgt=   1.0078250   1.0078250   1.0078250   1.0078250   1.0078250   1.0078250   1.0078250   1.0078250   1.0078250   1.0078250
 NucSpn=           1           1           1           1           1           1           1           1           1           1
 AtZEff=   0.0000000   0.0000000   0.0000000   0.0000000   0.0000000   0.0000000   0.0000000   0.0000000   0.0000000   0.0000000
 NQMom=    0.0000000   0.0000000   0.0000000   0.0000000   0.0000000   0.0000000   0.0000000   0.0000000   0.0000000   0.0000000
 NMagM=    2.7928460   2.7928460   2.7928460   2.7928460   2.7928460   2.7928460   2.7928460   2.7928460   2.7928460   2.7928460
 AtZNuc=   1.0000000   1.0000000   1.0000000   1.0000000   1.0000000   1.0000000   1.0000000   1.0000000   1.0000000   1.0000000

  Atom        31          32          33          34          35          36          37          38          39          40
 IAtWgt=           1           1           1           1           1           1           1           1           1           1
 AtmWgt=   1.0078250   1.0078250   1.0078250   1.0078250   1.0078250   1.0078250   1.0078250   1.0078250   1.0078250   1.0078250
 NucSpn=           1           1           1           1           1           1           1           1           1           1
 AtZEff=   0.0000000   0.0000000   0.0000000   0.0000000   0.0000000   0.0000000   0.0000000   0.0000000   0.0000000   0.0000000
 NQMom=    0.0000000   0.0000000   0.0000000   0.0000000   0.0000000   0.0000000   0.0000000   0.0000000   0.0000000   0.0000000
 NMagM=    2.7928460   2.7928460   2.7928460   2.7928460   2.7928460   2.7928460   2.7928460   2.7928460   2.7928460   2.7928460
 AtZNuc=   1.0000000   1.0000000   1.0000000   1.0000000   1.0000000   1.0000000   1.0000000   1.0000000   1.0000000   1.0000000
 Leave Link  101 at Sat Aug  8 02:34:59 2020, MaxMem=    33554432 cpu:         0.1
 (Enter /prod/apps/gaussian/g09d1/l202.exe)
                          Input orientation:                          
 ---------------------------------------------------------------------
 Center     Atomic      Atomic             Coordinates (Angstroms)
 Number     Number       Type             X           Y           Z
 ---------------------------------------------------------------------
      1          8           0        5.160000   -0.930000   -2.449000
      2         16           0        4.345000    0.170000   -1.925000
      3          7           0        3.108000   -0.554000   -1.024000
      4          6           0        2.464000   -1.790000   -1.547000
      5          6           0        1.448000   -2.273000   -0.481000
      6         16           0        2.297000   -3.918000   -0.244000
      7          8           0        1.525000   -5.023000   -0.957000
      8          6           0        3.406000   -3.014000   -1.442000
      9          6           0        1.844000   -1.572000   -2.938000
     10          6           0        1.110000   -2.780000   -3.548000
     11          6           0        0.531000   -2.451000   -4.906000
     12          6           0        1.263000   -2.693000   -6.076000
     13          6           0        0.742000   -2.367000   -7.329000
     14          6           0       -0.525000   -1.790000   -7.432000
     15          6           0       -1.266000   -1.545000   -6.274000
     16          6           0       -0.741000   -1.874000   -5.024000
     17          7           0        5.272000    0.994000   -0.808000
     18          6           0        4.692000    2.231000   -0.266000
     19          6           0        5.940000    0.153000    0.197000
     20          8           0        3.817000    1.180000   -2.852000
     21          1           0        2.405000    0.159000   -0.809000
     22          1           0        0.424000   -2.409000   -0.830000
     23          1           0        1.457000   -1.705000    0.450000
     24          1           0        3.535000   -3.593000   -2.356000
     25          1           0        4.373000   -2.806000   -0.991000
     26          1           0        2.642000   -1.265000   -3.621000
     27          1           0        1.148000   -0.729000   -2.863000
     28          1           0        0.309000   -3.106000   -2.878000
     29          1           0        1.802000   -3.622000   -3.643000
     30          1           0        2.248000   -3.147000   -6.002000
     31          1           0        1.324000   -2.566000   -8.223000
     32          1           0       -0.934000   -1.539000   -8.406000
     33          1           0       -2.255000   -1.103000   -6.344000
     34          1           0       -1.325000   -1.686000   -4.128000
     35          1           0        4.234000    2.802000   -1.071000
     36          1           0        5.508000    2.816000    0.162000
     37          1           0        3.950000    2.036000    0.519000
     38          1           0        6.375000   -0.715000   -0.294000
     39          1           0        5.250000   -0.172000    0.985000
     40          1           0        6.740000    0.747000    0.642000
 ---------------------------------------------------------------------
                    Distance matrix (angstroms):
                    1          2          3          4          5
     1  O    0.000000
     2  S    1.465879   0.000000
     3  N    2.526402   1.692970   0.000000
     4  C    2.970121   2.742744   1.488610   0.000000
     5  C    4.410852   4.055366   2.450594   1.549807   0.000000
     6  S    4.689023   4.871530   3.547198   2.500816   1.866278
     7  O    5.673794   5.988044   4.741554   3.417910   2.791954
     8  C    2.904070   3.354529   2.512992   1.548084   2.303555
     9  C    3.412791   3.211812   2.509465   1.538442   2.585549
    10  C    4.586153   4.669246   3.913778   2.611018   3.126945
    11  C    5.456916   5.504780   5.030851   3.931449   4.522521
    12  C    5.608022   5.909847   5.788096   4.771756   5.613791
    13  C    6.737811   6.972890   6.974091   6.060506   6.884938
    14  C    7.608490   7.608255   7.469193   6.600556   7.241714
    15  C    7.503488   7.303311   6.904814   6.026396   6.438527
    16  C    6.507193   6.296756   5.705892   4.729546   5.058633
    17  N    2.531245   1.669130   2.669430   4.022641   5.040158
    18  C    3.869940   2.668410   3.292392   4.772147   5.554798
    19  C    2.963546   2.654656   3.164003   4.347340   5.150070
    20  O    2.533408   1.469086   2.617446   3.514902   4.812173
    21  H    3.386081   2.238119   1.024111   2.084880   2.634019
    22  H    5.219032   4.819181   3.268412   2.249189   1.090355
    23  H    4.766239   4.182917   2.494650   2.238143   1.090626
    24  H    3.121032   3.873245   3.345456   2.247739   3.100580
    25  H    2.502900   3.119249   2.583180   2.232862   3.016590
    26  H    2.797523   2.799259   2.732597   2.146808   3.507321
    27  H    4.038309   3.450921   2.693352   2.142296   2.854446
    28  H    5.333968   5.284854   4.217158   2.854372   2.781514
    29  H    4.466393   4.878282   4.239979   2.861413   3.455917
    30  H    5.100847   5.658783   5.678357   4.662095   5.646709
    31  H    7.122532   7.501796   7.684816   6.816946   7.748535
    32  H    8.543627   8.531816   8.473601   7.658674   8.307726
    33  H    8.377540   8.044134   7.574006   6.764033   7.032487
    34  H    6.741350   6.359783   5.528809   4.585728   4.618951
    35  H    4.084628   2.769307   3.540172   4.944284   5.819409
    36  H    4.579404   3.565032   4.303893   5.779434   6.541786
    37  H    4.366953   3.100180   3.130162   4.595087   5.082075
    38  H    2.483239   2.750325   3.351434   4.245180   5.170847
    39  H    3.517815   3.066609   2.961447   4.097651   4.584600
    40  H    3.855257   3.557871   4.202330   5.432519   6.195708
                    6          7          8          9         10
     6  S    0.000000
     7  O    1.524919   0.000000
     8  C    1.866092   2.794542   0.000000
     9  C    3.600911   3.991932   2.599466   0.000000
    10  C    3.690587   3.452036   3.124357   1.539519   0.000000
    11  C    5.196642   4.816412   4.536727   2.523813   1.512497
    12  C    6.048306   5.630427   5.115608   3.382491   2.534120
    13  C    7.417604   6.947648   6.494018   4.596445   3.821250
    14  C    8.009957   7.521995   7.268496   5.084852   4.328831
    15  C    7.395066   6.939500   6.879954   4.560891   3.821214
    16  C    6.021277   5.620627   5.597136   3.335390   2.534879
    17  N    5.770309   7.089887   4.466316   4.782514   6.250834
    18  C    6.598993   7.945306   5.526916   5.451009   6.979425
    19  C    5.480782   6.900356   4.374628   5.438848   6.779116
    20  O    5.924666   6.879062   4.443721   3.387275   4.847047
    21  H    4.117380   5.258272   3.386830   2.800665   4.221003
    22  H    2.475602   2.839247   3.103690   2.675936   2.827678
    23  H    2.466699   3.604635   3.015252   3.412624   4.154520
    24  H    2.469577   2.835877   1.089623   2.698638   2.821783
    25  H    2.470694   3.609342   1.087085   3.421901   4.145611
    26  H    4.308313   4.739952   2.896677   1.094323   2.155824
    27  H    4.283583   4.713109   3.512696   1.095760   2.162700
    28  H    3.398447   2.973850   3.414963   2.170940   1.093973
    29  H    3.447585   3.042059   2.790498   2.168246   1.094008
    30  H    5.809596   5.430850   4.706618   3.468708   2.729808
    31  H    8.151017   7.672810   7.107559   5.402746   4.684786
    32  H    9.094902   8.583271   8.337177   6.133302   5.414627
    33  H    8.115105   7.659933   7.728418   5.350009   4.685421
    34  H    5.760743   5.414177   5.600048   3.386983   2.731751
    35  H    7.042322   8.281443   5.886347   5.322562   6.859565
    36  H    7.471420   8.863767   6.401572   6.503033   8.026314
    37  H    6.226130   7.608461   5.444626   5.422522   6.913750
    38  H    5.185730   6.520808   3.926610   5.315557   6.524796
    39  H    4.925766   6.417101   4.167449   5.380592   6.670034
    40  H    6.502882   7.940146   5.440931   6.493456   7.854472
                   11         12         13         14         15
    11  C    0.000000
    12  C    1.401174   0.000000
    13  C    2.433620   1.395610   0.000000
    14  C    2.816511   2.418902   1.396004   0.000000
    15  C    2.433407   2.784412   2.412628   1.396449   0.000000
    16  C    1.401726   2.406965   2.784845   2.419127   1.395122
    17  N    7.151133   7.577458   8.622103   9.232185   8.892082
    18  C    7.795168   8.352240   9.307528   9.733298   9.265636
    19  C    7.879004   8.326138   9.487375  10.186909   9.832776
    20  O    5.310449   5.649533   6.486938   6.974974   6.706161
    21  H    5.206667   6.097488   7.187256   7.499842   6.800447
    22  H    4.077621   5.320253   6.506911   6.698520   5.765391
    23  H    5.486413   6.603216   7.839790   8.127821   7.256205
    24  H    4.102521   4.450886   5.833923   6.745382   6.526456
    25  H    5.496746   5.961719   7.317590   8.155314   7.829338
    26  H    2.741194   3.157190   4.309718   4.982894   4.731730
    27  H    2.742229   3.767478   4.774205   4.980001   4.257719
    28  H    2.142684   3.362720   4.532660   4.813141   4.055880
    29  H    2.140526   2.659521   4.035495   4.809124   4.544086
    30  H    2.152608   1.087114   2.153454   3.402334   3.871509
    31  H    3.412413   2.151618   1.085155   2.155611   3.398403
    32  H    3.902303   3.404031   2.157426   1.085798   2.157703
    33  H    3.412733   3.869916   3.398519   2.156064   1.085534
    34  H    2.152962   3.392123   3.870743   3.401063   2.151436
    35  H    7.484213   8.004492   8.836017   9.175885   8.730270
    36  H    8.842875   9.342470  10.280726  10.736906  10.311522
    37  H    7.826452   8.548534   9.553469   9.893549   9.283053
    38  H    7.644382   7.967217   9.162479   9.985823   9.738284
    39  H    7.884585   8.491721   9.708897  10.335107   9.850709
    40  H    8.919596   9.325377  10.450351  11.153747  10.824988
                   16         17         18         19         20
    16  C    0.000000
    17  N    7.883923   0.000000
    18  C    8.307050   1.469807   0.000000
    19  C    8.717989   1.470894   2.467784   0.000000
    20  O    5.900836   2.515861   2.925341   3.854641   0.000000
    21  H    5.638850   2.986120   3.133433   3.675364   2.685151
    22  H    4.385554   5.923175   6.329575   6.168049   5.336839
    23  H    5.901224   4.839565   5.144898   4.859368   4.979561
    24  H    5.325163   5.143349   6.294897   5.131700   4.806981
    25  H    6.579264   3.909180   5.098897   3.552818   4.434033
    26  H    3.712678   4.464633   5.261230   5.240673   2.819576
    27  H    3.090189   4.919261   5.297730   5.753676   3.281457
    28  H    2.688055   6.762120   7.383549   7.196170   5.538640
    29  H    3.380756   6.433163   7.349411   6.791117   5.267363
    30  H    3.392806   7.298636   8.233937   7.934007   5.577382
    31  H    3.869973   9.123734   9.882737   9.979820   7.006797
    32  H    3.404027  10.132133  10.588880  11.141201   7.798197
    33  H    2.151520   9.576034   9.814196  10.560314   7.367180
    34  H    1.085917   7.856539   8.152437   8.652616   6.023479
    35  H    7.889348   2.101304   1.088040   3.396389   2.444736
    36  H    9.377670   2.077566   1.091451   2.698040   3.823633
    37  H    8.247329   2.143450   1.097640   2.758527   3.480527
    38  H    8.622856   2.097972   3.392962   1.087994   4.083840
    39  H    8.654303   2.138899   2.766003   1.096663   4.313231
    40  H    9.743642   2.078108   2.687196   1.091266   4.575965
                   21         22         23         24         25
    21  H    0.000000
    22  H    3.243366   0.000000
    23  H    2.440959   1.789163   0.000000
    24  H    4.212792   3.661810   3.969416   0.000000
    25  H    3.563337   3.972170   3.433910   1.784611   0.000000
    26  H    3.160900   3.744054   4.262730   2.795936   3.505416
    27  H    2.566614   2.734898   3.467568   3.762621   4.268365
    28  H    4.397067   2.166411   3.788969   3.304047   4.490753
    29  H    4.763520   3.359051   4.532832   2.158819   3.782724
    30  H    6.158046   5.533643   6.658329   3.892120   5.453625
    31  H    7.972552   7.449235   8.716647   6.353341   7.852122
    32  H    8.470333   7.745763   9.174594   7.797011   9.206072
    33  H    7.344690   6.267924   7.765294   7.458441   8.688222
    34  H    5.322846   3.802438   5.357049   5.513278   6.600180
    35  H    3.224800   6.459776   5.508014   6.560172   5.610293
    36  H    4.198940   7.357428   6.077252   7.162984   5.850172
    37  H    2.770151   5.831852   4.496097   6.334311   5.089597
    38  H    4.097560   6.210582   5.071524   4.538758   2.977599
    39  H    3.379648   5.620380   4.125914   5.080034   3.407589
    40  H    4.609053   7.212418   5.827457   6.172166   4.570907
                   26         27         28         29         30
    26  H    0.000000
    27  H    1.758947   0.000000
    28  H    3.063367   2.520769   0.000000
    29  H    2.502306   3.066849   1.755144   0.000000
    30  H    3.060445   4.112183   3.677061   2.447330   0.000000
    31  H    4.960658   5.668787   5.467253   4.724407   2.474708
    32  H    5.979889   5.976259   5.878718   5.874585   4.300000
    33  H    5.605496   4.882381   4.753868   5.486348   4.957006
    34  H    4.021365   2.937993   2.499771   3.709643   4.291005
    35  H    5.057416   5.020221   7.319518   7.334684   7.978067
    36  H    6.259361   6.381791   8.446377   8.346275   9.174959
    37  H    5.454087   5.189832   7.157978   7.345006   8.501984
    38  H    5.030578   5.824215   7.013579   6.370147   7.451712
    39  H    5.404771   5.651881   6.924204   6.723808   8.165831
    40  H    6.246192   6.762697   8.282136   7.863411   8.915382
                   31         32         33         34         35
    31  H    0.000000
    32  H    2.487324   0.000000
    33  H    4.298866   2.487364   0.000000
    34  H    4.955868   4.298345   2.472943   0.000000
    35  H    9.403969   9.967684   9.228254   7.771092   0.000000
    36  H   10.806480  11.570480  10.860514   9.239155   1.773009
    37  H   10.222370  10.783770   9.770165   7.954465   1.787600
    38  H    9.581641  10.950114  10.546561   8.656350   4.190095
    39  H   10.292326  11.327022  10.531193   8.465553   3.755538
    40  H   10.904002  12.082317  11.538489   9.680734   3.665710
                   36         37         38         39         40
    36  H    0.000000
    37  H    1.778542   0.000000
    38  H    3.664367   3.756274   0.000000
    39  H    3.109990   2.604308   1.787824   0.000000
    40  H    2.455399   3.075833   1.773912   1.783903   0.000000
 Stoichiometry    C13H20N2O3S2
 Framework group  C1[X(C13H20N2O3S2)]
 Deg. of freedom   114
 Full point group                 C1      NOp   1
 Largest Abelian subgroup         C1      NOp   1
 Largest concise Abelian subgroup C1      NOp   1
                         Standard orientation:                         
 ---------------------------------------------------------------------
 Center     Atomic      Atomic             Coordinates (Angstroms)
 Number     Number       Type             X           Y           Z
 ---------------------------------------------------------------------
      1          8           0       -1.919089   -0.902033   -1.664535
      2         16           0       -2.137931   -1.331139   -0.280058
      3          7           0       -1.750607    0.002338    0.688427
      4          6           0       -0.567719    0.832783    0.331919
      5          6           0       -0.515430    2.020532    1.326112
      6         16           0       -0.671494    3.306977   -0.016906
      7          8           0        0.682011    3.951315   -0.296606
      8          6           0       -0.829341    1.688121   -0.931614
      9          6           0        0.727218    0.003153    0.291184
     10          6           0        2.018621    0.780382   -0.022366
     11          6           0        3.227744   -0.128278   -0.024613
     12          6           0        3.667869   -0.734212   -1.208852
     13          6           0        4.767722   -1.593309   -1.209796
     14          6           0        5.447330   -1.862104   -0.020381
     15          6           0        5.020307   -1.263499    1.166798
     16          6           0        3.921033   -0.404465    1.161940
     17          7           0       -3.779551   -1.554385   -0.076984
     18          6           0       -4.204583   -2.130571    1.206639
     19          6           0       -4.627215   -0.449039   -0.549433
     20          8           0       -1.489303   -2.556777    0.205028
     21          1           0       -1.694821   -0.310629    1.661948
     22          1           0        0.420105    2.139226    1.873432
     23          1           0       -1.362959    2.082529    2.009719
     24          1           0       -0.077083    1.616923   -1.716674
     25          1           0       -1.824420    1.579938   -1.355723
     26          1           0        0.601852   -0.785233   -0.457329
     27          1           0        0.833759   -0.494107    1.261788
     28          1           0        2.161303    1.577382    0.713304
     29          1           0        1.928309    1.266450   -0.998293
     30          1           0        3.145586   -0.524277   -2.138887
     31          1           0        5.094400   -2.049500   -2.138630
     32          1           0        6.305611   -2.527169   -0.019295
     33          1           0        5.546282   -1.460743    2.095684
     34          1           0        3.597860    0.062093    2.087736
     35          1           0       -3.540153   -2.948765    1.476679
     36          1           0       -5.213343   -2.524765    1.071441
     37          1           0       -4.223252   -1.386419    2.013301
     38          1           0       -4.268938   -0.112234   -1.519964
     39          1           0       -4.637662    0.390993    0.155483
     40          1           0       -5.640808   -0.837770   -0.660698
 ---------------------------------------------------------------------
 Rotational constants (GHZ):      0.3776651      0.1718794      0.1319987
 Leave Link  202 at Sat Aug  8 02:34:59 2020, MaxMem=    33554432 cpu:         0.0
 (Enter /prod/apps/gaussian/g09d1/l301.exe)
 Standard basis: 6-31G(d) (6D, 7F)
 Ernie: Thresh=  0.10000D-02 Tol=  0.10000D-05 Strict=F.
 There are   348 symmetry adapted cartesian basis functions of A   symmetry.
 There are   348 symmetry adapted basis functions of A   symmetry.
   348 basis functions,   688 primitive gaussians,   348 cartesian basis functions
    84 alpha electrons       84 beta electrons
       nuclear repulsion energy      1962.9941887663 Hartrees.
 IExCor=  402 DFT=T Ex+Corr=B3LYP ExCW=0 ScaHFX=  0.200000
 ScaDFX=  0.800000  0.720000  1.000000  0.810000 ScalE2=  1.000000  1.000000
 IRadAn=      0 IRanWt=     -1 IRanGd=            0 ICorTp=0 IEmpDi=  4
 NAtoms=   40 NActive=   40 NUniq=   40 SFac= 1.00D+00 NAtFMM=   60 NAOKFM=F Big=F
 Integral buffers will be    131072 words long.
 Raffenetti 2 integral format.
 Two-electron integral symmetry is turned on.
 Leave Link  301 at Sat Aug  8 02:34:59 2020, MaxMem=    33554432 cpu:         0.0
 (Enter /prod/apps/gaussian/g09d1/l302.exe)
 NPDir=0 NMtPBC=     1 NCelOv=     1 NCel=       1 NClECP=     1 NCelD=      1
         NCelK=      1 NCelE2=     1 NClLst=     1 CellRange=     0.0.
 One-electron integrals computed using PRISM.
 NBasis=   348 RedAO= T EigKep=  4.65D-04  NBF=   348
 NBsUse=   348 1.00D-06 EigRej= -1.00D+00 NBFU=   348
 Precomputing XC quadrature grid using
 IXCGrd= 4 IRadAn=           0 IRanWt=          -1 IRanGd=           0 AccXCQ= 0.00D+00.
 Generated NRdTot=       0 NPtTot=           0 NUsed=           0 NTot=          32
 NSgBfM=   344   344   344   344   344 MxSgAt=    40 MxSgA2=    40.
 Leave Link  302 at Sat Aug  8 02:35:00 2020, MaxMem=    33554432 cpu:         1.2
 (Enter /prod/apps/gaussian/g09d1/l303.exe)
 DipDrv:  MaxL=1.
 Leave Link  303 at Sat Aug  8 02:35:00 2020, MaxMem=    33554432 cpu:         0.0
 (Enter /prod/apps/gaussian/g09d1/l401.exe)
 ExpMin= 1.17D-01 ExpMax= 2.19D+04 ExpMxC= 3.30D+03 IAcc=1 IRadAn=         1 AccDes= 0.00D+00
 Harris functional with IExCor=  402 and IRadAn=       1 diagonalized for initial guess.
 HarFok:  IExCor=  402 AccDes= 0.00D+00 IRadAn=         1 IDoV= 1 UseB2=F ITyADJ=14
 ICtDFT=  3500011 ScaDFX=  1.000000  1.000000  1.000000  1.000000
 FoFCou: FMM=F IPFlag=           0 FMFlag=      100000 FMFlg1=           0
         NFxFlg=           0 DoJE=T BraDBF=F KetDBF=T FulRan=T
         wScrn=  0.000000 ICntrl=     500 IOpCl=  0 I1Cent=   200000004 NGrid=           0
         NMat0=    1 NMatS0=      1 NMatT0=    0 NMatD0=    1 NMtDS0=    0 NMtDT0=    0
 Petite list used in FoFCou.
 Harris En= -1638.91523105304    
 JPrj=0 DoOrth=F DoCkMO=F.
 Leave Link  401 at Sat Aug  8 02:35:05 2020, MaxMem=    33554432 cpu:         4.6
 (Enter /prod/apps/gaussian/g09d1/l502.exe)
 Closed shell SCF:
 Using DIIS extrapolation, IDIIS=  1040.
 Integral symmetry usage will be decided dynamically.
 IVT=      386588 IEndB=      386588 NGot=    33554432 MDV=    33305937
 LenX=    33305937 LenY=    33184392
 Requested convergence on RMS density matrix=1.00D-08 within 128 cycles.
 Requested convergence on MAX density matrix=1.00D-06.
 Requested convergence on             energy=1.00D-06.
 No special actions if energy rises.
 Fock matrices will be formed incrementally for  20 cycles.
 Integral accuracy reduced to 1.0D-05 until final iterations.

 Cycle   1  Pass 0  IDiag  1:
 FoFJK:  IHMeth= 1 ICntrl=       0 DoSepK=F KAlg= 0 I1Cent=   0 FoldK=F
 IRaf= 740000000 NMat=   1 IRICut=       1 DoRegI=T DoRafI=F ISym2E= 0.
 FoFCou: FMM=F IPFlag=           0 FMFlag=      100000 FMFlg1=           0
         NFxFlg=           0 DoJE=F BraDBF=F KetDBF=F FulRan=T
         wScrn=  0.000000 ICntrl=       0 IOpCl=  0 I1Cent=           0 NGrid=           0
         NMat0=    1 NMatS0=      1 NMatT0=    0 NMatD0=    1 NMtDS0=    0 NMtDT0=    0
 Symmetry not used in FoFCou.
 E= -1638.03603144472    
 DIIS: error= 3.84D-02 at cycle   1 NSaved=   1.
 NSaved= 1 IEnMin= 1 EnMin= -1638.03603144472     IErMin= 1 ErrMin= 3.84D-02
 ErrMax= 3.84D-02  0.00D+00 EMaxC= 1.00D-01 BMatC= 8.96D-01 BMatP= 8.96D-01
 IDIUse=3 WtCom= 6.16D-01 WtEn= 3.84D-01
 Coeff-Com:  0.100D+01
 Coeff-En:   0.100D+01
 Coeff:      0.100D+01
 Gap=     0.348 Goal=   None    Shift=    0.000
 GapD=    0.348 DampG=1.000 DampE=0.500 DampFc=0.5000 IDamp=-1.
 Damping current iteration by 5.00D-01
 RMSDP=8.22D-03 MaxDP=6.10D-01              OVMax= 3.78D-01

 Cycle   2  Pass 0  IDiag  1:
 RMSU=  4.11D-03    CP:  1.00D+00
 E= -1638.13908674186     Delta-E=       -0.103055297137 Rises=F Damp=T
 DIIS: error= 2.07D-02 at cycle   2 NSaved=   2.
 NSaved= 2 IEnMin= 2 EnMin= -1638.13908674186     IErMin= 2 ErrMin= 2.07D-02
 ErrMax= 2.07D-02  0.00D+00 EMaxC= 1.00D-01 BMatC= 2.02D-01 BMatP= 8.96D-01
 IDIUse=3 WtCom= 7.93D-01 WtEn= 2.07D-01
 Coeff-Com:  0.279D+00 0.721D+00
 Coeff-En:   0.441D+00 0.559D+00
 Coeff:      0.312D+00 0.688D+00
 Gap=     0.312 Goal=   None    Shift=    0.000
 RMSDP=3.09D-03 MaxDP=1.69D-01 DE=-1.03D-01 OVMax= 2.45D-01

 Cycle   3  Pass 0  IDiag  1:
 RMSU=  2.20D-03    CP:  9.86D-01  4.78D-01
 E= -1638.67601373540     Delta-E=       -0.536926993542 Rises=F Damp=F
 DIIS: error= 1.89D-02 at cycle   3 NSaved=   3.
 NSaved= 3 IEnMin= 3 EnMin= -1638.67601373540     IErMin= 3 ErrMin= 1.89D-02
 ErrMax= 1.89D-02  0.00D+00 EMaxC= 1.00D-01 BMatC= 1.62D-01 BMatP= 2.02D-01
 IDIUse=3 WtCom= 8.11D-01 WtEn= 1.89D-01
 Coeff-Com:  0.132D+00 0.460D+00 0.407D+00
 Coeff-En:   0.000D+00 0.000D+00 0.100D+01
 Coeff:      0.107D+00 0.373D+00 0.519D+00
 Gap=     0.246 Goal=   None    Shift=    0.000
 RMSDP=2.15D-03 MaxDP=9.69D-02 DE=-5.37D-01 OVMax= 1.92D-01

 Cycle   4  Pass 0  IDiag  1:
 RMSU=  1.07D-03    CP:  9.96D-01  6.78D-01  2.45D-01
 E= -1638.78304146950     Delta-E=       -0.107027734101 Rises=F Damp=F
 DIIS: error= 1.35D-02 at cycle   4 NSaved=   4.
 NSaved= 4 IEnMin= 4 EnMin= -1638.78304146950     IErMin= 4 ErrMin= 1.35D-02
 ErrMax= 1.35D-02  0.00D+00 EMaxC= 1.00D-01 BMatC= 5.20D-02 BMatP= 1.62D-01
 IDIUse=3 WtCom= 8.65D-01 WtEn= 1.35D-01
 Coeff-Com:  0.327D-01 0.106D+00 0.351D+00 0.510D+00
 Coeff-En:   0.000D+00 0.000D+00 0.276D+00 0.724D+00
 Coeff:      0.283D-01 0.915D-01 0.341D+00 0.539D+00
 Gap=     0.236 Goal=   None    Shift=    0.000
 RMSDP=9.95D-04 MaxDP=5.25D-02 DE=-1.07D-01 OVMax= 9.48D-02

 Cycle   5  Pass 0  IDiag  1:
 RMSU=  3.90D-04    CP:  9.93D-01  5.84D-01  5.43D-01  5.31D-01
 E= -1638.82448576242     Delta-E=       -0.041444292920 Rises=F Damp=F
 DIIS: error= 4.02D-03 at cycle   5 NSaved=   5.
 NSaved= 5 IEnMin= 5 EnMin= -1638.82448576242     IErMin= 5 ErrMin= 4.02D-03
 ErrMax= 4.02D-03  0.00D+00 EMaxC= 1.00D-01 BMatC= 5.23D-03 BMatP= 5.20D-02
 IDIUse=3 WtCom= 9.60D-01 WtEn= 4.02D-02
 Coeff-Com:  0.308D-02 0.951D-02 0.163D+00 0.356D+00 0.469D+00
 Coeff-En:   0.000D+00 0.000D+00 0.000D+00 0.701D-01 0.930D+00
 Coeff:      0.296D-02 0.913D-02 0.156D+00 0.344D+00 0.487D+00
 Gap=     0.228 Goal=   None    Shift=    0.000
 RMSDP=2.91D-04 MaxDP=1.37D-02 DE=-4.14D-02 OVMax= 2.34D-02

 Cycle   6  Pass 0  IDiag  1:
 RMSU=  1.26D-04    CP:  9.93D-01  6.04D-01  5.03D-01  6.33D-01  4.77D-01
 E= -1638.82852061511     Delta-E=       -0.004034852686 Rises=F Damp=F
 DIIS: error= 9.82D-04 at cycle   6 NSaved=   6.
 NSaved= 6 IEnMin= 6 EnMin= -1638.82852061511     IErMin= 6 ErrMin= 9.82D-04
 ErrMax= 9.82D-04  0.00D+00 EMaxC= 1.00D-01 BMatC= 5.23D-04 BMatP= 5.23D-03
 IDIUse=3 WtCom= 9.90D-01 WtEn= 9.82D-03
 Coeff-Com: -0.129D-02-0.478D-02 0.424D-01 0.119D+00 0.293D+00 0.552D+00
 Coeff-En:   0.000D+00 0.000D+00 0.000D+00 0.000D+00 0.714D-01 0.929D+00
 Coeff:     -0.127D-02-0.473D-02 0.420D-01 0.117D+00 0.291D+00 0.556D+00
 Gap=     0.229 Goal=   None    Shift=    0.000
 RMSDP=7.63D-05 MaxDP=3.81D-03 DE=-4.03D-03 OVMax= 3.52D-03

 Cycle   7  Pass 0  IDiag  1:
 RMSU=  4.07D-05    CP:  9.93D-01  6.01D-01  5.08D-01  6.33D-01  5.64D-01
                    CP:  5.84D-01
 E= -1638.82890835085     Delta-E=       -0.000387735740 Rises=F Damp=F
 DIIS: error= 1.87D-04 at cycle   7 NSaved=   7.
 NSaved= 7 IEnMin= 7 EnMin= -1638.82890835085     IErMin= 7 ErrMin= 1.87D-04
 ErrMax= 1.87D-04  0.00D+00 EMaxC= 1.00D-01 BMatC= 3.57D-05 BMatP= 5.23D-04
 IDIUse=3 WtCom= 9.98D-01 WtEn= 1.87D-03
 Coeff-Com: -0.615D-03-0.299D-02 0.455D-02 0.200D-01 0.101D+00 0.292D+00
 Coeff-Com:  0.586D+00
 Coeff-En:   0.000D+00 0.000D+00 0.000D+00 0.000D+00 0.000D+00 0.000D+00
 Coeff-En:   0.100D+01
 Coeff:     -0.613D-03-0.299D-02 0.454D-02 0.200D-01 0.101D+00 0.291D+00
 Coeff:      0.587D+00
 Gap=     0.228 Goal=   None    Shift=    0.000
 RMSDP=2.12D-05 MaxDP=7.44D-04 DE=-3.88D-04 OVMax= 9.09D-04

 Cycle   8  Pass 0  IDiag  1:
 RMSU=  1.11D-05    CP:  9.93D-01  6.01D-01  5.09D-01  6.30D-01  5.70D-01
                    CP:  6.48D-01  6.21D-01
 E= -1638.82894105082     Delta-E=       -0.000032699968 Rises=F Damp=F
 DIIS: error= 3.68D-05 at cycle   8 NSaved=   8.
 NSaved= 8 IEnMin= 8 EnMin= -1638.82894105082     IErMin= 8 ErrMin= 3.68D-05
 ErrMax= 3.68D-05  0.00D+00 EMaxC= 1.00D-01 BMatC= 1.24D-06 BMatP= 3.57D-05
 IDIUse=1 WtCom= 1.00D+00 WtEn= 0.00D+00
 Coeff-Com: -0.701D-04-0.787D-03-0.693D-03 0.350D-03 0.229D-01 0.834D-01
 Coeff-Com:  0.241D+00 0.654D+00
 Coeff:     -0.701D-04-0.787D-03-0.693D-03 0.350D-03 0.229D-01 0.834D-01
 Coeff:      0.241D+00 0.654D+00
 Gap=     0.228 Goal=   None    Shift=    0.000
 RMSDP=5.15D-06 MaxDP=2.49D-04 DE=-3.27D-05 OVMax= 2.33D-04

 Initial convergence to 1.0D-05 achieved.  Increase integral accuracy.
 Cycle   9  Pass 1  IDiag  1:
 E= -1638.82906819885     Delta-E=       -0.000127148037 Rises=F Damp=F
 DIIS: error= 6.87D-05 at cycle   1 NSaved=   1.
 NSaved= 1 IEnMin= 1 EnMin= -1638.82906819885     IErMin= 1 ErrMin= 6.87D-05
 ErrMax= 6.87D-05  0.00D+00 EMaxC= 1.00D-01 BMatC= 9.71D-07 BMatP= 9.71D-07
 IDIUse=1 WtCom= 1.00D+00 WtEn= 0.00D+00
 Coeff-Com:  0.100D+01
 Coeff:      0.100D+01
 Gap=     0.228 Goal=   None    Shift=    0.000
 RMSDP=5.15D-06 MaxDP=2.49D-04 DE=-1.27D-04 OVMax= 2.90D-04

 Cycle  10  Pass 1  IDiag  1:
 RMSU=  3.50D-05    CP:  1.00D+00
 E= -1638.82906856214     Delta-E=       -0.000000363288 Rises=F Damp=F
 DIIS: error= 3.27D-05 at cycle   2 NSaved=   2.
 NSaved= 2 IEnMin= 2 EnMin= -1638.82906856214     IErMin= 2 ErrMin= 3.27D-05
 ErrMax= 3.27D-05  0.00D+00 EMaxC= 1.00D-01 BMatC= 6.26D-07 BMatP= 9.71D-07
 IDIUse=1 WtCom= 1.00D+00 WtEn= 0.00D+00
 Coeff-Com:  0.425D+00 0.575D+00
 Coeff:      0.425D+00 0.575D+00
 Gap=     0.228 Goal=   None    Shift=    0.000
 RMSDP=4.05D-06 MaxDP=1.67D-04 DE=-3.63D-07 OVMax= 3.12D-04

 Cycle  11  Pass 1  IDiag  1:
 RMSU=  4.04D-06    CP:  1.00D+00  9.95D-01
 E= -1638.82906892186     Delta-E=       -0.000000359722 Rises=F Damp=F
 DIIS: error= 2.46D-05 at cycle   3 NSaved=   3.
 NSaved= 3 IEnMin= 3 EnMin= -1638.82906892186     IErMin= 3 ErrMin= 2.46D-05
 ErrMax= 2.46D-05  0.00D+00 EMaxC= 1.00D-01 BMatC= 2.53D-07 BMatP= 6.26D-07
 IDIUse=1 WtCom= 1.00D+00 WtEn= 0.00D+00
 Coeff-Com:  0.112D-01 0.387D+00 0.602D+00
 Coeff:      0.112D-01 0.387D+00 0.602D+00
 Gap=     0.228 Goal=   None    Shift=    0.000
 RMSDP=1.66D-06 MaxDP=5.43D-05 DE=-3.60D-07 OVMax= 1.55D-04

 Cycle  12  Pass 1  IDiag  1:
 RMSU=  6.04D-07    CP:  1.00D+00  1.00D+00  6.26D-01
 E= -1638.82906915828     Delta-E=       -0.000000236416 Rises=F Damp=F
 DIIS: error= 4.92D-06 at cycle   4 NSaved=   4.
 NSaved= 4 IEnMin= 4 EnMin= -1638.82906915828     IErMin= 4 ErrMin= 4.92D-06
 ErrMax= 4.92D-06  0.00D+00 EMaxC= 1.00D-01 BMatC= 1.08D-08 BMatP= 2.53D-07
 IDIUse=1 WtCom= 1.00D+00 WtEn= 0.00D+00
 Coeff-Com: -0.547D-02 0.213D+00 0.356D+00 0.437D+00
 Coeff:     -0.547D-02 0.213D+00 0.356D+00 0.437D+00
 Gap=     0.228 Goal=   None    Shift=    0.000
 RMSDP=3.52D-07 MaxDP=1.56D-05 DE=-2.36D-07 OVMax= 2.57D-05

 Cycle  13  Pass 1  IDiag  1:
 RMSU=  1.72D-07    CP:  1.00D+00  1.00D+00  6.31D-01  4.93D-01
 E= -1638.82906916810     Delta-E=       -0.000000009824 Rises=F Damp=F
 DIIS: error= 9.70D-07 at cycle   5 NSaved=   5.
 NSaved= 5 IEnMin= 5 EnMin= -1638.82906916810     IErMin= 5 ErrMin= 9.70D-07
 ErrMax= 9.70D-07  0.00D+00 EMaxC= 1.00D-01 BMatC= 5.14D-10 BMatP= 1.08D-08
 IDIUse=1 WtCom= 1.00D+00 WtEn= 0.00D+00
 Coeff-Com: -0.369D-02 0.107D+00 0.182D+00 0.260D+00 0.454D+00
 Coeff:     -0.369D-02 0.107D+00 0.182D+00 0.260D+00 0.454D+00
 Gap=     0.228 Goal=   None    Shift=    0.000
 RMSDP=7.87D-08 MaxDP=3.50D-06 DE=-9.82D-09 OVMax= 4.64D-06

 Cycle  14  Pass 1  IDiag  1:
 RMSU=  5.73D-08    CP:  1.00D+00  1.00D+00  6.30D-01  5.06D-01  6.92D-01
 E= -1638.82906916853     Delta-E=       -0.000000000431 Rises=F Damp=F
 DIIS: error= 2.30D-07 at cycle   6 NSaved=   6.
 NSaved= 6 IEnMin= 6 EnMin= -1638.82906916853     IErMin= 6 ErrMin= 2.30D-07
 ErrMax= 2.30D-07  0.00D+00 EMaxC= 1.00D-01 BMatC= 3.72D-11 BMatP= 5.14D-10
 IDIUse=1 WtCom= 1.00D+00 WtEn= 0.00D+00
 Coeff-Com: -0.117D-02 0.274D-01 0.466D-01 0.767D-01 0.242D+00 0.609D+00
 Coeff:     -0.117D-02 0.274D-01 0.466D-01 0.767D-01 0.242D+00 0.609D+00
 Gap=     0.228 Goal=   None    Shift=    0.000
 RMSDP=2.48D-08 MaxDP=9.01D-07 DE=-4.31D-10 OVMax= 1.22D-06

 Cycle  15  Pass 1  IDiag  1:
 RMSU=  2.03D-08    CP:  1.00D+00  1.00D+00  6.31D-01  5.11D-01  7.40D-01
                    CP:  8.12D-01
 E= -1638.82906916855     Delta-E=       -0.000000000021 Rises=F Damp=F
 DIIS: error= 1.03D-07 at cycle   7 NSaved=   7.
 NSaved= 7 IEnMin= 7 EnMin= -1638.82906916855     IErMin= 7 ErrMin= 1.03D-07
 ErrMax= 1.03D-07  0.00D+00 EMaxC= 1.00D-01 BMatC= 7.52D-12 BMatP= 3.72D-11
 IDIUse=1 WtCom= 1.00D+00 WtEn= 0.00D+00
 Coeff-Com: -0.291D-03 0.425D-02 0.735D-02 0.165D-01 0.942D-01 0.370D+00
 Coeff-Com:  0.508D+00
 Coeff:     -0.291D-03 0.425D-02 0.735D-02 0.165D-01 0.942D-01 0.370D+00
 Coeff:      0.508D+00
 Gap=     0.228 Goal=   None    Shift=    0.000
 RMSDP=1.17D-08 MaxDP=5.10D-07 DE=-2.09D-11 OVMax= 8.90D-07

 Cycle  16  Pass 1  IDiag  1:
 RMSU=  6.35D-09    CP:  1.00D+00  1.00D+00  6.31D-01  5.12D-01  7.50D-01
                    CP:  8.48D-01  5.37D-01
 E= -1638.82906916848     Delta-E=        0.000000000078 Rises=F Damp=F
 DIIS: error= 5.75D-08 at cycle   8 NSaved=   8.
 NSaved= 8 IEnMin= 7 EnMin= -1638.82906916855     IErMin= 8 ErrMin= 5.75D-08
 ErrMax= 5.75D-08  0.00D+00 EMaxC= 1.00D-01 BMatC= 1.21D-12 BMatP= 7.52D-12
 IDIUse=1 WtCom= 1.00D+00 WtEn= 0.00D+00
 Coeff-Com: -0.339D-05-0.172D-02-0.291D-02-0.171D-02 0.240D-01 0.150D+00
 Coeff-Com:  0.327D+00 0.506D+00
 Coeff:     -0.339D-05-0.172D-02-0.291D-02-0.171D-02 0.240D-01 0.150D+00
 Coeff:      0.327D+00 0.506D+00
 Gap=     0.228 Goal=   None    Shift=    0.000
 RMSDP=4.58D-09 MaxDP=2.07D-07 DE= 7.82D-11 OVMax= 3.83D-07

 SCF Done:  E(RB3LYP) =  -1638.82906917     A.U. after   16 cycles
            NFock= 16  Conv=0.46D-08     -V/T= 2.0066
 KE= 1.628109457562D+03 PE=-7.776334845948D+03 EE= 2.546402130451D+03
 Leave Link  502 at Sat Aug  8 02:40:57 2020, MaxMem=    33554432 cpu:       352.2
 (Enter /prod/apps/gaussian/g09d1/l601.exe)
 Copying SCF densities to generalized density rwf, IOpCl= 0 IROHF=0.

 **********************************************************************

            Population analysis using the SCF density.

 **********************************************************************

 Orbital symmetries:
       Occupied  (A) (A) (A) (A) (A) (A) (A) (A) (A) (A) (A) (A)
                 (A) (A) (A) (A) (A) (A) (A) (A) (A) (A) (A) (A)
                 (A) (A) (A) (A) (A) (A) (A) (A) (A) (A) (A) (A)
                 (A) (A) (A) (A) (A) (A) (A) (A) (A) (A) (A) (A)
                 (A) (A) (A) (A) (A) (A) (A) (A) (A) (A) (A) (A)
                 (A) (A) (A) (A) (A) (A) (A) (A) (A) (A) (A) (A)
                 (A) (A) (A) (A) (A) (A) (A) (A) (A) (A) (A) (A)
       Virtual   (A) (A) (A) (A) (A) (A) (A) (A) (A) (A) (A) (A)
                 (A) (A) (A) (A) (A) (A) (A) (A) (A) (A) (A) (A)
                 (A) (A) (A) (A) (A) (A) (A) (A) (A) (A) (A) (A)
                 (A) (A) (A) (A) (A) (A) (A) (A) (A) (A) (A) (A)
                 (A) (A) (A) (A) (A) (A) (A) (A) (A) (A) (A) (A)
                 (A) (A) (A) (A) (A) (A) (A) (A) (A) (A) (A) (A)
                 (A) (A) (A) (A) (A) (A) (A) (A) (A) (A) (A) (A)
                 (A) (A) (A) (A) (A) (A) (A) (A) (A) (A) (A) (A)
                 (A) (A) (A) (A) (A) (A) (A) (A) (A) (A) (A) (A)
                 (A) (A) (A) (A) (A) (A) (A) (A) (A) (A) (A) (A)
                 (A) (A) (A) (A) (A) (A) (A) (A) (A) (A) (A) (A)
                 (A) (A) (A) (A) (A) (A) (A) (A) (A) (A) (A) (A)
                 (A) (A) (A) (A) (A) (A) (A) (A) (A) (A) (A) (A)
                 (A) (A) (A) (A) (A) (A) (A) (A) (A) (A) (A) (A)
                 (A) (A) (A) (A) (A) (A) (A) (A) (A) (A) (A) (A)
                 (A) (A) (A) (A) (A) (A) (A) (A) (A) (A) (A) (A)
                 (A) (A) (A) (A) (A) (A) (A) (A) (A) (A) (A) (A)
                 (A) (A) (A) (A) (A) (A) (A) (A) (A) (A) (A) (A)
                 (A) (A) (A) (A) (A) (A) (A) (A) (A) (A) (A) (A)
                 (A) (A) (A) (A) (A) (A) (A) (A) (A) (A) (A) (A)
                 (A) (A) (A) (A) (A) (A) (A) (A) (A) (A) (A) (A)
                 (A) (A) (A) (A) (A) (A) (A) (A) (A) (A) (A) (A)
 The electronic state is 1-A.
 Alpha  occ. eigenvalues --  -89.13516 -88.98482 -19.15069 -19.14970 -19.11231
 Alpha  occ. eigenvalues --  -14.38584 -14.38350 -10.26926 -10.23742 -10.23345
 Alpha  occ. eigenvalues --  -10.22532 -10.21651 -10.19670 -10.19259 -10.18983
 Alpha  occ. eigenvalues --  -10.18588 -10.18513 -10.18438 -10.18405 -10.18329
 Alpha  occ. eigenvalues --   -8.15778  -8.03295  -6.12250  -6.12203  -6.12174
 Alpha  occ. eigenvalues --   -5.99698  -5.99543  -5.99065  -1.12770  -1.00828
 Alpha  occ. eigenvalues --   -0.99990  -0.95437  -0.94402  -0.85319  -0.84411
 Alpha  occ. eigenvalues --   -0.78897  -0.74076  -0.73864  -0.73754  -0.71889
 Alpha  occ. eigenvalues --   -0.71080  -0.67236  -0.62935  -0.60672  -0.60066
 Alpha  occ. eigenvalues --   -0.57958  -0.56433  -0.55461  -0.52550  -0.51124
 Alpha  occ. eigenvalues --   -0.50415  -0.49210  -0.48470  -0.47875  -0.47462
 Alpha  occ. eigenvalues --   -0.45118  -0.44735  -0.44254  -0.43637  -0.42946
 Alpha  occ. eigenvalues --   -0.42418  -0.41891  -0.41517  -0.40832  -0.40332
 Alpha  occ. eigenvalues --   -0.40240  -0.40089  -0.37833  -0.37336  -0.35807
 Alpha  occ. eigenvalues --   -0.34968  -0.34749  -0.34620  -0.33787  -0.33288
 Alpha  occ. eigenvalues --   -0.32833  -0.32300  -0.30798  -0.28997  -0.26856
 Alpha  occ. eigenvalues --   -0.26141  -0.24473  -0.23825  -0.22531
 Alpha virt. eigenvalues --    0.00313   0.00407   0.00647   0.02138   0.03769
 Alpha virt. eigenvalues --    0.04855   0.06517   0.07437   0.08774   0.09339
 Alpha virt. eigenvalues --    0.09650   0.10324   0.10542   0.11121   0.11528
 Alpha virt. eigenvalues --    0.12492   0.13296   0.14309   0.14692   0.15236
 Alpha virt. eigenvalues --    0.15661   0.15826   0.16745   0.17256   0.17981
 Alpha virt. eigenvalues --    0.18560   0.19191   0.19222   0.19686   0.19949
 Alpha virt. eigenvalues --    0.20444   0.21925   0.22044   0.22525   0.23443
 Alpha virt. eigenvalues --    0.26462   0.28245   0.29451   0.31029   0.32845
 Alpha virt. eigenvalues --    0.33656   0.34588   0.34740   0.35009   0.35524
 Alpha virt. eigenvalues --    0.39820   0.42120   0.43376   0.44855   0.46359
 Alpha virt. eigenvalues --    0.46709   0.47955   0.48717   0.51152   0.51442
 Alpha virt. eigenvalues --    0.52741   0.53291   0.53845   0.54097   0.55474
 Alpha virt. eigenvalues --    0.56119   0.56931   0.57621   0.58586   0.59208
 Alpha virt. eigenvalues --    0.60020   0.60730   0.60874   0.61130   0.61839
 Alpha virt. eigenvalues --    0.62044   0.63074   0.63878   0.64531   0.65967
 Alpha virt. eigenvalues --    0.66371   0.67089   0.68117   0.70575   0.71659
 Alpha virt. eigenvalues --    0.71880   0.72355   0.75102   0.75480   0.75802
 Alpha virt. eigenvalues --    0.77672   0.78682   0.80186   0.81176   0.81782
 Alpha virt. eigenvalues --    0.82079   0.82690   0.83381   0.83837   0.84420
 Alpha virt. eigenvalues --    0.84501   0.85479   0.86467   0.86874   0.87215
 Alpha virt. eigenvalues --    0.87583   0.88766   0.88811   0.88954   0.90431
 Alpha virt. eigenvalues --    0.90776   0.91983   0.92256   0.93002   0.94378
 Alpha virt. eigenvalues --    0.94858   0.95342   0.95558   0.96407   0.97608
 Alpha virt. eigenvalues --    0.99907   1.00427   1.00932   1.02220   1.03722
 Alpha virt. eigenvalues --    1.04013   1.05859   1.06144   1.07521   1.08159
 Alpha virt. eigenvalues --    1.10145   1.11356   1.11856   1.12942   1.13449
 Alpha virt. eigenvalues --    1.14461   1.15165   1.16482   1.18142   1.19016
 Alpha virt. eigenvalues --    1.21342   1.21946   1.24889   1.25413   1.26520
 Alpha virt. eigenvalues --    1.29912   1.32001   1.34199   1.37218   1.38896
 Alpha virt. eigenvalues --    1.40024   1.41093   1.43016   1.43792   1.45260
 Alpha virt. eigenvalues --    1.47461   1.48909   1.49712   1.51160   1.51520
 Alpha virt. eigenvalues --    1.51925   1.57222   1.58479   1.61075   1.63662
 Alpha virt. eigenvalues --    1.70303   1.71257   1.73096   1.74562   1.75064
 Alpha virt. eigenvalues --    1.77565   1.79461   1.80544   1.80926   1.81482
 Alpha virt. eigenvalues --    1.81875   1.82791   1.83783   1.85001   1.86358
 Alpha virt. eigenvalues --    1.87274   1.87786   1.89350   1.90398   1.91285
 Alpha virt. eigenvalues --    1.92301   1.93756   1.94487   1.95841   1.96222
 Alpha virt. eigenvalues --    1.97097   1.97664   1.98414   1.99536   2.00829
 Alpha virt. eigenvalues --    2.02315   2.03852   2.05866   2.06299   2.06469
 Alpha virt. eigenvalues --    2.08684   2.09398   2.10865   2.12191   2.13828
 Alpha virt. eigenvalues --    2.14478   2.14665   2.15516   2.16532   2.18848
 Alpha virt. eigenvalues --    2.21738   2.21913   2.22898   2.24586   2.25361
 Alpha virt. eigenvalues --    2.27177   2.30077   2.31192   2.31469   2.31959
 Alpha virt. eigenvalues --    2.35243   2.36490   2.39772   2.40779   2.41410
 Alpha virt. eigenvalues --    2.41920   2.46674   2.49248   2.52898   2.55494
 Alpha virt. eigenvalues --    2.57490   2.58315   2.58576   2.66705   2.69107
 Alpha virt. eigenvalues --    2.70606   2.72155   2.72989   2.73772   2.74364
 Alpha virt. eigenvalues --    2.75074   2.76612   2.77357   2.78087   2.85560
 Alpha virt. eigenvalues --    2.88282   2.94797   3.05465   3.41555   3.80735
 Alpha virt. eigenvalues --    3.83461   3.92717   3.93737   4.00531   4.04771
 Alpha virt. eigenvalues --    4.08651   4.09677   4.12151   4.15499   4.20480
 Alpha virt. eigenvalues --    4.24161   4.27408   4.29148   4.33468   4.34781
 Alpha virt. eigenvalues --    4.41674   4.51729   4.70636   4.72982
          Condensed to atoms (all electrons):
               1          2          3          4          5          6
     1  O    8.279247   0.418811  -0.051924   0.006135   0.000190   0.000291
     2  S    0.418811  13.564386   0.106822  -0.010922   0.000571   0.000467
     3  N   -0.051924   0.106822   7.426185   0.228966  -0.046718   0.001276
     4  C    0.006135  -0.010922   0.228966   4.840121   0.324390  -0.066103
     5  C    0.000190   0.000571  -0.046718   0.324390   5.739567   0.031574
     6  S    0.000291   0.000467   0.001276  -0.066103   0.031574  14.956280
     7  O    0.000000  -0.000001  -0.000036   0.000565  -0.038037   0.312881
     8  C    0.001457  -0.006741  -0.051203   0.344238  -0.125345   0.058389
     9  C   -0.006359   0.001175  -0.056596   0.350489  -0.052092   0.004431
    10  C   -0.000065   0.000084   0.004291  -0.027790  -0.006412  -0.000074
    11  C    0.000000  -0.000050  -0.000136   0.003524   0.000097   0.000215
    12  C    0.000000  -0.000024  -0.000001   0.000078  -0.000002  -0.000005
    13  C    0.000000   0.000000   0.000000   0.000002   0.000000   0.000000
    14  C    0.000000   0.000000   0.000000   0.000000   0.000000   0.000000
    15  C    0.000000   0.000000   0.000000   0.000002   0.000000   0.000000
    16  C    0.000000  -0.000001  -0.000002   0.000105  -0.000016  -0.000006
    17  N   -0.051933   0.161940  -0.056338   0.002258  -0.000120  -0.000005
    18  C    0.001472  -0.008368  -0.000243  -0.000003  -0.000005  -0.000001
    19  C   -0.006934  -0.012405   0.000199  -0.000079   0.000008  -0.000010
    20  O   -0.043034   0.437469  -0.052815  -0.004712  -0.000107   0.000003
    21  H    0.001962  -0.007361   0.280742  -0.026890  -0.005804   0.000252
    22  H    0.000000  -0.000012   0.002086  -0.026461   0.346721  -0.016666
    23  H    0.000000   0.000099  -0.002513  -0.029413   0.324479  -0.007743
    24  H   -0.000139   0.000044   0.002032  -0.026245   0.007832  -0.020806
    25  H    0.003103   0.001093  -0.003200  -0.024597   0.007328  -0.010644
    26  H    0.003774   0.011507  -0.006776  -0.028096   0.005602  -0.000374
    27  H    0.000102  -0.000337  -0.002547  -0.034460  -0.005813  -0.000250
    28  H   -0.000001   0.000016  -0.000035  -0.004891   0.001781  -0.000336
    29  H   -0.000003  -0.000051  -0.000022  -0.005583  -0.000619  -0.000129
    30  H    0.000000  -0.000004   0.000000  -0.000042   0.000001  -0.000002
    31  H    0.000000   0.000000   0.000000   0.000000   0.000000   0.000000
    32  H    0.000000   0.000000   0.000000   0.000000   0.000000   0.000000
    33  H    0.000000   0.000000   0.000000   0.000000   0.000000   0.000000
    34  H    0.000000   0.000000   0.000000  -0.000064  -0.000004  -0.000002
    35  H    0.000052   0.000413  -0.000324   0.000008   0.000000   0.000000
    36  H   -0.000044   0.002040  -0.000102   0.000003   0.000000   0.000000
    37  H   -0.000062  -0.009114   0.003776  -0.000118   0.000015   0.000001
    38  H    0.011166   0.000195  -0.001267  -0.000025  -0.000002  -0.000005
    39  H   -0.000242  -0.008904   0.008339  -0.000389   0.000041   0.000054
    40  H    0.000077   0.002362   0.000037   0.000004   0.000000   0.000000
               7          8          9         10         11         12
     1  O    0.000000   0.001457  -0.006359  -0.000065   0.000000   0.000000
     2  S   -0.000001  -0.006741   0.001175   0.000084  -0.000050  -0.000024
     3  N   -0.000036  -0.051203  -0.056596   0.004291  -0.000136  -0.000001
     4  C    0.000565   0.344238   0.350489  -0.027790   0.003524   0.000078
     5  C   -0.038037  -0.125345  -0.052092  -0.006412   0.000097  -0.000002
     6  S    0.312881   0.058389   0.004431  -0.000074   0.000215  -0.000005
     7  O    8.370660  -0.037468  -0.000240  -0.000062   0.000234  -0.000002
     8  C   -0.037468   5.640223  -0.050059  -0.006981   0.000077  -0.000016
     9  C   -0.000240  -0.050059   5.169226   0.324543  -0.034219  -0.004445
    10  C   -0.000062  -0.006981   0.324543   5.256292   0.318574  -0.054913
    11  C    0.000234   0.000077  -0.034219   0.318574   4.658464   0.549136
    12  C   -0.000002  -0.000016  -0.004445  -0.054913   0.549136   4.953429
    13  C    0.000000   0.000000  -0.000091   0.007065  -0.018958   0.522331
    14  C    0.000000   0.000000   0.000024   0.000327  -0.034976  -0.035246
    15  C    0.000000   0.000000  -0.000033   0.006892  -0.017698  -0.047646
    16  C   -0.000002  -0.000002  -0.004460  -0.058014   0.544197  -0.036293
    17  N    0.000000   0.000100  -0.000183   0.000001   0.000000   0.000000
    18  C    0.000000  -0.000004   0.000010   0.000000   0.000000   0.000000
    19  C    0.000000  -0.000154   0.000002   0.000000   0.000000   0.000000
    20  O    0.000000  -0.000125   0.003915   0.000080   0.000001   0.000000
    21  H    0.000002   0.005454  -0.001470  -0.000110   0.000003   0.000000
    22  H   -0.000390   0.007583  -0.005960  -0.000172  -0.000118   0.000000
    23  H    0.001270   0.007010   0.003393   0.000161   0.000006   0.000000
    24  H   -0.000065   0.352560  -0.005615  -0.000436  -0.000023  -0.000005
    25  H    0.001236   0.330726   0.002801   0.000191   0.000005   0.000000
    26  H    0.000003  -0.005065   0.362977  -0.036320  -0.000925   0.003887
    27  H    0.000006   0.006025   0.358064  -0.038745  -0.002300  -0.000033
    28  H    0.004406  -0.000657  -0.039424   0.353693  -0.026474   0.003403
    29  H    0.003155   0.002299  -0.038280   0.356557  -0.026879  -0.004091
    30  H    0.000001  -0.000006   0.000185  -0.009754  -0.046192   0.354933
    31  H    0.000000   0.000000  -0.000001  -0.000183   0.003751  -0.039104
    32  H    0.000000   0.000000   0.000000   0.000006   0.000725   0.004690
    33  H    0.000000   0.000000  -0.000002  -0.000183   0.003765   0.000864
    34  H    0.000001   0.000001   0.000242  -0.009573  -0.048703   0.006254
    35  H    0.000000   0.000000  -0.000003   0.000000   0.000000   0.000000
    36  H    0.000000   0.000000   0.000000   0.000000   0.000000   0.000000
    37  H    0.000000  -0.000004   0.000008   0.000000   0.000000   0.000000
    38  H    0.000000  -0.000046   0.000002   0.000000   0.000000   0.000000
    39  H    0.000000  -0.000097   0.000013   0.000000   0.000000   0.000000
    40  H    0.000000   0.000002   0.000000   0.000000   0.000000   0.000000
              13         14         15         16         17         18
     1  O    0.000000   0.000000   0.000000   0.000000  -0.051933   0.001472
     2  S    0.000000   0.000000   0.000000  -0.000001   0.161940  -0.008368
     3  N    0.000000   0.000000   0.000000  -0.000002  -0.056338  -0.000243
     4  C    0.000002   0.000000   0.000002   0.000105   0.002258  -0.000003
     5  C    0.000000   0.000000   0.000000  -0.000016  -0.000120  -0.000005
     6  S    0.000000   0.000000   0.000000  -0.000006  -0.000005  -0.000001
     7  O    0.000000   0.000000   0.000000  -0.000002   0.000000   0.000000
     8  C    0.000000   0.000000   0.000000  -0.000002   0.000100  -0.000004
     9  C   -0.000091   0.000024  -0.000033  -0.004460  -0.000183   0.000010
    10  C    0.007065   0.000327   0.006892  -0.058014   0.000001   0.000000
    11  C   -0.018958  -0.034976  -0.017698   0.544197   0.000000   0.000000
    12  C    0.522331  -0.035246  -0.047646  -0.036293   0.000000   0.000000
    13  C    4.866860   0.550523  -0.025718  -0.047688   0.000000   0.000000
    14  C    0.550523   4.853098   0.550085  -0.035411   0.000000   0.000000
    15  C   -0.025718   0.550085   4.866447   0.524179   0.000000   0.000000
    16  C   -0.047688  -0.035411   0.524179   4.960928   0.000000   0.000000
    17  N    0.000000   0.000000   0.000000   0.000000   7.171169   0.279782
    18  C    0.000000   0.000000   0.000000   0.000000   0.279782   5.005849
    19  C    0.000000   0.000000   0.000000   0.000000   0.276911  -0.052762
    20  O    0.000000   0.000000   0.000000   0.000000  -0.055325  -0.007660
    21  H    0.000000   0.000000   0.000000   0.000000  -0.000217   0.000484
    22  H    0.000000   0.000000   0.000000   0.000005   0.000000   0.000000
    23  H    0.000000   0.000000   0.000000   0.000000  -0.000025  -0.000003
    24  H    0.000000   0.000000   0.000000   0.000000  -0.000001   0.000000
    25  H    0.000000   0.000000   0.000000   0.000000  -0.000410   0.000004
    26  H   -0.000120  -0.000005  -0.000020   0.000014   0.000024  -0.000002
    27  H   -0.000010  -0.000004  -0.000159   0.004022   0.000009  -0.000003
    28  H   -0.000213   0.000015   0.000081  -0.003886   0.000000   0.000000
    29  H    0.000098   0.000012  -0.000207   0.003762   0.000000   0.000000
    30  H   -0.045364   0.004834   0.000374   0.006175   0.000000   0.000000
    31  H    0.356441  -0.043490   0.004553   0.000885   0.000000   0.000000
    32  H   -0.043054   0.358606  -0.043253   0.004710   0.000000   0.000000
    33  H    0.004579  -0.043337   0.356079  -0.039978   0.000000   0.000000
    34  H    0.000358   0.004976  -0.046281   0.353803   0.000000   0.000000
    35  H    0.000000   0.000000   0.000000   0.000000  -0.031690   0.375158
    36  H    0.000000   0.000000   0.000000   0.000000  -0.036522   0.377901
    37  H    0.000000   0.000000   0.000000   0.000000  -0.049151   0.365328
    38  H    0.000000   0.000000   0.000000   0.000000  -0.031969   0.004649
    39  H    0.000000   0.000000   0.000000   0.000000  -0.047669  -0.002377
    40  H    0.000000   0.000000   0.000000   0.000000  -0.035402  -0.003739
              19         20         21         22         23         24
     1  O   -0.006934  -0.043034   0.001962   0.000000   0.000000  -0.000139
     2  S   -0.012405   0.437469  -0.007361  -0.000012   0.000099   0.000044
     3  N    0.000199  -0.052815   0.280742   0.002086  -0.002513   0.002032
     4  C   -0.000079  -0.004712  -0.026890  -0.026461  -0.029413  -0.026245
     5  C    0.000008  -0.000107  -0.005804   0.346721   0.324479   0.007832
     6  S   -0.000010   0.000003   0.000252  -0.016666  -0.007743  -0.020806
     7  O    0.000000   0.000000   0.000002  -0.000390   0.001270  -0.000065
     8  C   -0.000154  -0.000125   0.005454   0.007583   0.007010   0.352560
     9  C    0.000002   0.003915  -0.001470  -0.005960   0.003393  -0.005615
    10  C    0.000000   0.000080  -0.000110  -0.000172   0.000161  -0.000436
    11  C    0.000000   0.000001   0.000003  -0.000118   0.000006  -0.000023
    12  C    0.000000   0.000000   0.000000   0.000000   0.000000  -0.000005
    13  C    0.000000   0.000000   0.000000   0.000000   0.000000   0.000000
    14  C    0.000000   0.000000   0.000000   0.000000   0.000000   0.000000
    15  C    0.000000   0.000000   0.000000   0.000000   0.000000   0.000000
    16  C    0.000000   0.000000   0.000000   0.000005   0.000000   0.000000
    17  N    0.276911  -0.055325  -0.000217   0.000000  -0.000025  -0.000001
    18  C   -0.052762  -0.007660   0.000484   0.000000  -0.000003   0.000000
    19  C    5.001986   0.001662   0.000165   0.000000  -0.000006   0.000002
    20  O    0.001662   8.245771   0.001130   0.000002   0.000001   0.000000
    21  H    0.000165   0.001130   0.403860   0.000329   0.002383  -0.000119
    22  H    0.000000   0.000002   0.000329   0.500146  -0.021278  -0.000375
    23  H   -0.000006   0.000001   0.002383  -0.021278   0.539967  -0.000295
    24  H    0.000002   0.000000  -0.000119  -0.000375  -0.000295   0.489835
    25  H    0.000418   0.000018   0.000073  -0.000297  -0.000380  -0.017092
    26  H    0.000000  -0.000495  -0.000313   0.000180  -0.000114   0.001972
    27  H    0.000000   0.000174   0.004377   0.002430   0.000000   0.000146
    28  H    0.000000  -0.000001  -0.000005   0.006030   0.000061   0.000191
    29  H    0.000000   0.000000   0.000011   0.000146  -0.000019   0.006152
    30  H    0.000000   0.000000   0.000000   0.000000   0.000000   0.000079
    31  H    0.000000   0.000000   0.000000   0.000000   0.000000   0.000000
    32  H    0.000000   0.000000   0.000000   0.000000   0.000000   0.000000
    33  H    0.000000   0.000000   0.000000   0.000000   0.000000   0.000000
    34  H    0.000000   0.000000   0.000000   0.000131   0.000000   0.000000
    35  H    0.004514   0.011177   0.000039   0.000000   0.000000   0.000000
    36  H   -0.003002   0.000149  -0.000027   0.000000   0.000000   0.000000
    37  H   -0.002379   0.000077   0.001205   0.000000   0.000027   0.000000
    38  H    0.376205   0.000025  -0.000010   0.000000  -0.000002  -0.000002
    39  H    0.367354  -0.000027   0.000036   0.000000   0.000087   0.000001
    40  H    0.375614  -0.000046  -0.000010   0.000000   0.000000   0.000000
              25         26         27         28         29         30
     1  O    0.003103   0.003774   0.000102  -0.000001  -0.000003   0.000000
     2  S    0.001093   0.011507  -0.000337   0.000016  -0.000051  -0.000004
     3  N   -0.003200  -0.006776  -0.002547  -0.000035  -0.000022   0.000000
     4  C   -0.024597  -0.028096  -0.034460  -0.004891  -0.005583  -0.000042
     5  C    0.007328   0.005602  -0.005813   0.001781  -0.000619   0.000001
     6  S   -0.010644  -0.000374  -0.000250  -0.000336  -0.000129  -0.000002
     7  O    0.001236   0.000003   0.000006   0.004406   0.003155   0.000001
     8  C    0.330726  -0.005065   0.006025  -0.000657   0.002299  -0.000006
     9  C    0.002801   0.362977   0.358064  -0.039424  -0.038280   0.000185
    10  C    0.000191  -0.036320  -0.038745   0.353693   0.356557  -0.009754
    11  C    0.000005  -0.000925  -0.002300  -0.026474  -0.026879  -0.046192
    12  C    0.000000   0.003887  -0.000033   0.003403  -0.004091   0.354933
    13  C    0.000000  -0.000120  -0.000010  -0.000213   0.000098  -0.045364
    14  C    0.000000  -0.000005  -0.000004   0.000015   0.000012   0.004834
    15  C    0.000000  -0.000020  -0.000159   0.000081  -0.000207   0.000374
    16  C    0.000000   0.000014   0.004022  -0.003886   0.003762   0.006175
    17  N   -0.000410   0.000024   0.000009   0.000000   0.000000   0.000000
    18  C    0.000004  -0.000002  -0.000003   0.000000   0.000000   0.000000
    19  C    0.000418   0.000000   0.000000   0.000000   0.000000   0.000000
    20  O    0.000018  -0.000495   0.000174  -0.000001   0.000000   0.000000
    21  H    0.000073  -0.000313   0.004377  -0.000005   0.000011   0.000000
    22  H   -0.000297   0.000180   0.002430   0.006030   0.000146   0.000000
    23  H   -0.000380  -0.000114   0.000000   0.000061  -0.000019   0.000000
    24  H   -0.017092   0.001972   0.000146   0.000191   0.006152   0.000079
    25  H    0.504157   0.000044  -0.000117  -0.000014   0.000050   0.000000
    26  H    0.000044   0.523325  -0.030380   0.005074  -0.003960   0.000699
    27  H   -0.000117  -0.030380   0.596360  -0.004178   0.005632   0.000036
    28  H   -0.000014   0.005074  -0.004178   0.570240  -0.030595   0.000087
    29  H    0.000050  -0.003960   0.005632  -0.030595   0.563086   0.005720
    30  H    0.000000   0.000699   0.000036   0.000087   0.005720   0.607881
    31  H    0.000000   0.000003   0.000000   0.000003  -0.000007  -0.005623
    32  H    0.000000   0.000000   0.000000   0.000000   0.000000  -0.000182
    33  H    0.000000   0.000000   0.000004  -0.000006   0.000003   0.000018
    34  H    0.000000   0.000054   0.001014   0.005070   0.000076  -0.000185
    35  H    0.000000   0.000001   0.000000   0.000000   0.000000   0.000000
    36  H    0.000000   0.000000   0.000000   0.000000   0.000000   0.000000
    37  H    0.000003   0.000001  -0.000001   0.000000   0.000000   0.000000
    38  H    0.000817  -0.000001   0.000000   0.000000   0.000000   0.000000
    39  H    0.000369   0.000001   0.000000   0.000000   0.000000   0.000000
    40  H   -0.000007   0.000000   0.000000   0.000000   0.000000   0.000000
              31         32         33         34         35         36
     1  O    0.000000   0.000000   0.000000   0.000000   0.000052  -0.000044
     2  S    0.000000   0.000000   0.000000   0.000000   0.000413   0.002040
     3  N    0.000000   0.000000   0.000000   0.000000  -0.000324  -0.000102
     4  C    0.000000   0.000000   0.000000  -0.000064   0.000008   0.000003
     5  C    0.000000   0.000000   0.000000  -0.000004   0.000000   0.000000
     6  S    0.000000   0.000000   0.000000  -0.000002   0.000000   0.000000
     7  O    0.000000   0.000000   0.000000   0.000001   0.000000   0.000000
     8  C    0.000000   0.000000   0.000000   0.000001   0.000000   0.000000
     9  C   -0.000001   0.000000  -0.000002   0.000242  -0.000003   0.000000
    10  C   -0.000183   0.000006  -0.000183  -0.009573   0.000000   0.000000
    11  C    0.003751   0.000725   0.003765  -0.048703   0.000000   0.000000
    12  C   -0.039104   0.004690   0.000864   0.006254   0.000000   0.000000
    13  C    0.356441  -0.043054   0.004579   0.000358   0.000000   0.000000
    14  C   -0.043490   0.358606  -0.043337   0.004976   0.000000   0.000000
    15  C    0.004553  -0.043253   0.356079  -0.046281   0.000000   0.000000
    16  C    0.000885   0.004710  -0.039978   0.353803   0.000000   0.000000
    17  N    0.000000   0.000000   0.000000   0.000000  -0.031690  -0.036522
    18  C    0.000000   0.000000   0.000000   0.000000   0.375158   0.377901
    19  C    0.000000   0.000000   0.000000   0.000000   0.004514  -0.003002
    20  O    0.000000   0.000000   0.000000   0.000000   0.011177   0.000149
    21  H    0.000000   0.000000   0.000000   0.000000   0.000039  -0.000027
    22  H    0.000000   0.000000   0.000000   0.000131   0.000000   0.000000
    23  H    0.000000   0.000000   0.000000   0.000000   0.000000   0.000000
    24  H    0.000000   0.000000   0.000000   0.000000   0.000000   0.000000
    25  H    0.000000   0.000000   0.000000   0.000000   0.000000   0.000000
    26  H    0.000003   0.000000   0.000000   0.000054   0.000001   0.000000
    27  H    0.000000   0.000000   0.000004   0.001014   0.000000   0.000000
    28  H    0.000003   0.000000  -0.000006   0.005070   0.000000   0.000000
    29  H   -0.000007   0.000000   0.000003   0.000076   0.000000   0.000000
    30  H   -0.005623  -0.000182   0.000018  -0.000185   0.000000   0.000000
    31  H    0.598275  -0.005553  -0.000192   0.000019   0.000000   0.000000
    32  H   -0.005553   0.601041  -0.005564  -0.000186   0.000000   0.000000
    33  H   -0.000192  -0.005564   0.602450  -0.005815   0.000000   0.000000
    34  H    0.000019  -0.000186  -0.005815   0.622942   0.000000   0.000000
    35  H    0.000000   0.000000   0.000000   0.000000   0.481667  -0.019529
    36  H    0.000000   0.000000   0.000000   0.000000  -0.019529   0.539460
    37  H    0.000000   0.000000   0.000000   0.000000  -0.031456  -0.040755
    38  H    0.000000   0.000000   0.000000   0.000000  -0.000191  -0.000021
    39  H    0.000000   0.000000   0.000000   0.000000  -0.000163  -0.001667
    40  H    0.000000   0.000000   0.000000   0.000000  -0.000020   0.005413
              37         38         39         40
     1  O   -0.000062   0.011166  -0.000242   0.000077
     2  S   -0.009114   0.000195  -0.008904   0.002362
     3  N    0.003776  -0.001267   0.008339   0.000037
     4  C   -0.000118  -0.000025  -0.000389   0.000004
     5  C    0.000015  -0.000002   0.000041   0.000000
     6  S    0.000001  -0.000005   0.000054   0.000000
     7  O    0.000000   0.000000   0.000000   0.000000
     8  C   -0.000004  -0.000046  -0.000097   0.000002
     9  C    0.000008   0.000002   0.000013   0.000000
    10  C    0.000000   0.000000   0.000000   0.000000
    11  C    0.000000   0.000000   0.000000   0.000000
    12  C    0.000000   0.000000   0.000000   0.000000
    13  C    0.000000   0.000000   0.000000   0.000000
    14  C    0.000000   0.000000   0.000000   0.000000
    15  C    0.000000   0.000000   0.000000   0.000000
    16  C    0.000000   0.000000   0.000000   0.000000
    17  N   -0.049151  -0.031969  -0.047669  -0.035402
    18  C    0.365328   0.004649  -0.002377  -0.003739
    19  C   -0.002379   0.376205   0.367354   0.375614
    20  O    0.000077   0.000025  -0.000027  -0.000046
    21  H    0.001205  -0.000010   0.000036  -0.000010
    22  H    0.000000   0.000000   0.000000   0.000000
    23  H    0.000027  -0.000002   0.000087   0.000000
    24  H    0.000000  -0.000002   0.000001   0.000000
    25  H    0.000003   0.000817   0.000369  -0.000007
    26  H    0.000001  -0.000001   0.000001   0.000000
    27  H   -0.000001   0.000000   0.000000   0.000000
    28  H    0.000000   0.000000   0.000000   0.000000
    29  H    0.000000   0.000000   0.000000   0.000000
    30  H    0.000000   0.000000   0.000000   0.000000
    31  H    0.000000   0.000000   0.000000   0.000000
    32  H    0.000000   0.000000   0.000000   0.000000
    33  H    0.000000   0.000000   0.000000   0.000000
    34  H    0.000000   0.000000   0.000000   0.000000
    35  H   -0.031456  -0.000191  -0.000163  -0.000020
    36  H   -0.040755  -0.000021  -0.001667   0.005413
    37  H    0.610807  -0.000187   0.009379  -0.001513
    38  H   -0.000187   0.489952  -0.030564  -0.021352
    39  H    0.009379  -0.030564   0.589702  -0.038470
    40  H   -0.001513  -0.021352  -0.038470   0.545216
 Mulliken charges:
               1
     1  O   -0.567099
     2  S    1.354800
     3  N   -0.731951
     4  C    0.215996
     5  C   -0.509100
     6  S    0.757048
     7  O   -0.618115
     8  C   -0.472172
     9  C   -0.281967
    10  C   -0.378971
    11  C    0.174880
    12  C   -0.177178
    13  C   -0.127042
    14  C   -0.130032
    15  C   -0.127677
    16  C   -0.177024
    17  N   -0.495234
    18  C   -0.335468
    19  C   -0.327310
    20  O   -0.537306
    21  H    0.339831
    22  H    0.205942
    23  H    0.182849
    24  H    0.210373
    25  H    0.204324
    26  H    0.193824
    27  H    0.140940
    28  H    0.160565
    29  H    0.163685
    30  H    0.126331
    31  H    0.130223
    32  H    0.128014
    33  H    0.127315
    34  H    0.115875
    35  H    0.210349
    36  H    0.176704
    37  H    0.144116
    38  H    0.202633
    39  H    0.155194
    40  H    0.171835
 Sum of Mulliken charges =   0.00000
 Mulliken charges with hydrogens summed into heavy atoms:
               1
     1  O   -0.567099
     2  S    1.354800
     3  N   -0.392120
     4  C    0.215996
     5  C   -0.120309
     6  S    0.757048
     7  O   -0.618115
     8  C   -0.057475
     9  C    0.052797
    10  C   -0.054720
    11  C    0.174880
    12  C   -0.050847
    13  C    0.003181
    14  C   -0.002018
    15  C   -0.000362
    16  C   -0.061149
    17  N   -0.495234
    18  C    0.195700
    19  C    0.202352
    20  O   -0.537306
 Electronic spatial extent (au):  <R**2>=           8175.3664
 Charge=              0.0000 electrons
 Dipole moment (field-independent basis, Debye):
    X=             -4.1899    Y=             -0.8929    Z=              3.7432  Tot=              5.6889
 Quadrupole moment (field-independent basis, Debye-Ang):
   XX=           -112.9416   YY=           -157.3053   ZZ=           -125.1745
   XY=             -8.8866   XZ=             -5.7323   YZ=             -0.4580
 Traceless Quadrupole moment (field-independent basis, Debye-Ang):
   XX=             18.8655   YY=            -25.4981   ZZ=              6.6326
   XY=             -8.8866   XZ=             -5.7323   YZ=             -0.4580
 Octapole moment (field-independent basis, Debye-Ang**2):
  XXX=           -123.5599  YYY=            -63.2581  ZZZ=              8.3328  XYY=            -32.9673
  XXY=            -52.4177  XXZ=             17.3354  XZZ=             -1.2535  YZZ=              7.2559
  YYZ=             13.5812  XYZ=             20.6331
 Hexadecapole moment (field-independent basis, Debye-Ang**3):
 XXXX=          -6727.2912 YYYY=          -3214.0601 ZZZZ=           -728.3648 XXXY=            -30.1590
 XXXZ=             13.9709 YYYX=            -60.4158 YYYZ=             34.7215 ZZZX=            -16.9502
 ZZZY=             -6.4366 XXYY=          -1616.4874 XXZZ=          -1266.7362 YYZZ=           -560.4942
 XXYZ=            -35.4037 YYXZ=            -25.4219 ZZXY=             -6.2887
 N-N= 1.962994188766D+03 E-N=-7.776334853054D+03  KE= 1.628109457562D+03
 No NMR shielding tensors so no spin-rotation constants.
 Leave Link  601 at Sat Aug  8 02:40:57 2020, MaxMem=    33554432 cpu:         0.3
 (Enter /prod/apps/gaussian/g09d1/l9999.exe)
 1\1\GINC-PIRINEUS30\SP\RB3LYP\6-31G(d)\C13H20N2O3S2\UBAFAR01\08-Aug-20
 20\0\\#p b3lyp/6-31G(d)\\SM37.n.13.pdb.xyz\\0,1\O,0,5.16,-0.93,-2.449\
 S,0,4.345,0.17,-1.925\N,0,3.108,-0.554,-1.024\C,0,2.464,-1.79,-1.547\C
 ,0,1.448,-2.273,-0.481\S,0,2.297,-3.918,-0.244\O,0,1.525,-5.023,-0.957
 \C,0,3.406,-3.014,-1.442\C,0,1.844,-1.572,-2.938\C,0,1.11,-2.78,-3.548
 \C,0,0.531,-2.451,-4.906\C,0,1.263,-2.693,-6.076\C,0,0.742,-2.367,-7.3
 29\C,0,-0.525,-1.79,-7.432\C,0,-1.266,-1.545,-6.274\C,0,-0.741,-1.874,
 -5.024\N,0,5.272,0.994,-0.808\C,0,4.692,2.231,-0.266\C,0,5.94,0.153,0.
 197\O,0,3.817,1.18,-2.852\H,0,2.405,0.159,-0.809\H,0,0.424,-2.409,-0.8
 3\H,0,1.457,-1.705,0.45\H,0,3.535,-3.593,-2.356\H,0,4.373,-2.806,-0.99
 1\H,0,2.642,-1.265,-3.621\H,0,1.148,-0.729,-2.863\H,0,0.309,-3.106,-2.
 878\H,0,1.802,-3.622,-3.643\H,0,2.248,-3.147,-6.002\H,0,1.324,-2.566,-
 8.223\H,0,-0.934,-1.539,-8.406\H,0,-2.255,-1.103,-6.344\H,0,-1.325,-1.
 686,-4.128\H,0,4.234,2.802,-1.071\H,0,5.508,2.816,0.162\H,0,3.95,2.036
 ,0.519\H,0,6.375,-0.715,-0.294\H,0,5.25,-0.172,0.985\H,0,6.74,0.747,0.
 642\\Version=AM64L-G09RevD.01\State=1-A\HF=-1638.8290692\RMSD=4.577e-0
 9\Dipole=0.0044029,1.5548837,1.609915\Quadrupole=1.7960459,-11.3927821
 ,9.5967362,-5.6334976,7.2088353,12.4851802\PG=C01 [X(C13H20N2O3S2)]\\@


      HUMANKIND PERIODICALLY GOES THROUGH A SPEEDUP OF ITS AFFAIRS, 
      THEREBY EXPERIENCING THE RACE BETWEEN THE RENEWABLE VITALITY
      OF THE LIVING, AND THE BECKONING VITIATION OF DECADENCE.
      IN THIS PERIODIC RACE, ANY PAUSE BECOMES A LUXURY.
      ONLY THEN CAN ONE REFLECT THAT ALL IS PERMITTED;
      ALL IS POSSIBLE.

                              -- THE APOCRYPHA OF MUAD'DIB
                                 CHILDREN OF DUNE, BY FRANK HERBERT
 Job cpu time:       0 days  0 hours  5 minutes 58.7 seconds.
 File lengths (MBytes):  RWF=     67 Int=      0 D2E=      0 Chk=      5 Scr=      1
 Normal termination of Gaussian 09 at Sat Aug  8 02:40:57 2020.
 Initial command:
 /prod/apps/gaussian/g09d1/l1.exe "/tmp/ubafar01/1449171/Gau-104831.inp" -scrdir="/tmp/ubafar01/1449171/"
 Entering Link 1 = /prod/apps/gaussian/g09d1/l1.exe PID=    104937.
  
 Copyright (c) 1988,1990,1992,1993,1995,1998,2003,2009,2013,
            Gaussian, Inc.  All Rights Reserved.
  
 This is part of the Gaussian(R) 09 program.  It is based on
 the Gaussian(R) 03 system (copyright 2003, Gaussian, Inc.),
 the Gaussian(R) 98 system (copyright 1998, Gaussian, Inc.),
 the Gaussian(R) 94 system (copyright 1995, Gaussian, Inc.),
 the Gaussian 92(TM) system (copyright 1992, Gaussian, Inc.),
 the Gaussian 90(TM) system (copyright 1990, Gaussian, Inc.),
 the Gaussian 88(TM) system (copyright 1988, Gaussian, Inc.),
 the Gaussian 86(TM) system (copyright 1986, Carnegie Mellon
 University), and the Gaussian 82(TM) system (copyright 1983,
 Carnegie Mellon University). Gaussian is a federally registered
 trademark of Gaussian, Inc.
  
 This software contains proprietary and confidential information,
 including trade secrets, belonging to Gaussian, Inc.
  
 This software is provided under written license and may be
 used, copied, transmitted, or stored only in accord with that
 written license.
  
 The following legend is applicable only to US Government
 contracts under FAR:
  
                    RESTRICTED RIGHTS LEGEND
  
 Use, reproduction and disclosure by the US Government is
 subject to restrictions as set forth in subparagraphs (a)
 and (c) of the Commercial Computer Software - Restricted
 Rights clause in FAR 52.227-19.
  
 Gaussian, Inc.
 340 Quinnipiac St., Bldg. 40, Wallingford CT 06492
  
  
 ---------------------------------------------------------------
 Warning -- This program may not be used in any manner that
[...]
    38  H    0.000000  -0.000043   0.000002   0.000000   0.000000   0.000000
    39  H    0.000000  -0.000089   0.000012   0.000000   0.000000   0.000000
    40  H    0.000000   0.000002   0.000000   0.000000   0.000000   0.000000
              13         14         15         16         17         18
     1  O    0.000000   0.000000   0.000000   0.000000  -0.052401   0.001359
     2  S    0.000000   0.000000   0.000000  -0.000001   0.187117  -0.011943
     3  N    0.000000   0.000000   0.000000  -0.000002  -0.059494  -0.000049
     4  C    0.000002   0.000000   0.000002   0.000098   0.002299  -0.000012
     5  C    0.000000   0.000000   0.000000  -0.000016  -0.000123  -0.000003
     6  S    0.000000   0.000000   0.000000  -0.000005  -0.000003  -0.000001
     7  O    0.000000   0.000000   0.000000  -0.000002   0.000000   0.000000
     8  C    0.000000   0.000000   0.000000  -0.000002   0.000088  -0.000004
     9  C   -0.000097   0.000025  -0.000046  -0.004078  -0.000189   0.000009
    10  C    0.007071   0.000264   0.006878  -0.058829   0.000000   0.000000
    11  C   -0.021456  -0.034788  -0.020649   0.542115   0.000000   0.000000
    12  C    0.517209  -0.037985  -0.047503  -0.038408   0.000000   0.000000
    13  C    4.899182   0.545414  -0.028619  -0.047584   0.000000   0.000000
    14  C    0.545414   4.884629   0.544488  -0.037976   0.000000   0.000000
    15  C   -0.028619   0.544488   4.897969   0.518904   0.000000   0.000000
    16  C   -0.047584  -0.037976   0.518904   4.985872   0.000000   0.000000
    17  N    0.000000   0.000000   0.000000   0.000000   7.184247   0.270983
    18  C    0.000000   0.000000   0.000000   0.000000   0.270983   5.005547
    19  C    0.000000   0.000000   0.000000   0.000000   0.269356  -0.050434
    20  O    0.000000   0.000000   0.000000   0.000000  -0.056598  -0.007588
    21  H    0.000000   0.000000   0.000000   0.000000  -0.000522   0.000491
    22  H    0.000000   0.000000   0.000000   0.000004   0.000000   0.000000
    23  H    0.000000   0.000000   0.000000   0.000000  -0.000024  -0.000002
    24  H    0.000000   0.000000   0.000000   0.000000  -0.000001   0.000000
    25  H    0.000000   0.000000   0.000000   0.000000  -0.000408   0.000004
    26  H   -0.000127  -0.000005  -0.000019  -0.000033   0.000026  -0.000001
    27  H   -0.000007  -0.000003  -0.000148   0.003969   0.000008  -0.000003
    28  H   -0.000218   0.000016   0.000075  -0.004350   0.000000   0.000000
    29  H    0.000108   0.000013  -0.000211   0.003944   0.000000   0.000000
    30  H   -0.044584   0.004769   0.000272   0.006068   0.000000   0.000000
    31  H    0.360565  -0.042343   0.004498   0.000762   0.000000   0.000000
    32  H   -0.042126   0.362902  -0.042125   0.004630   0.000000   0.000000
    33  H    0.004497  -0.042270   0.360606  -0.038657   0.000000   0.000000
    34  H    0.000272   0.004794  -0.044580   0.359737   0.000000   0.000000
    35  H    0.000000   0.000000   0.000000   0.000000  -0.033080   0.374677
    36  H    0.000000   0.000000   0.000000   0.000000  -0.035428   0.379004
    37  H    0.000000   0.000000   0.000000   0.000000  -0.046719   0.373808
    38  H    0.000000   0.000000   0.000000   0.000000  -0.033220   0.004529
    39  H    0.000000   0.000000   0.000000   0.000000  -0.046545  -0.001651
    40  H    0.000000   0.000000   0.000000   0.000000  -0.034246  -0.003742
              19         20         21         22         23         24
     1  O   -0.006964  -0.041900   0.001563   0.000000   0.000000  -0.000114
     2  S   -0.014743   0.433416  -0.006239  -0.000019   0.000096   0.000046
     3  N    0.000409  -0.053637   0.288055   0.001933  -0.002067   0.002102
     4  C   -0.000109  -0.004526  -0.023211  -0.027001  -0.027637  -0.027002
     5  C    0.000009  -0.000107  -0.005378   0.349376   0.335250   0.007614
     6  S   -0.000006   0.000004   0.000075  -0.018131  -0.010083  -0.020117
     7  O    0.000000   0.000000   0.000001  -0.000554   0.001191  -0.000291
     8  C   -0.000172  -0.000132   0.004565   0.007433   0.006432   0.351155
     9  C    0.000004   0.003655  -0.000960  -0.005618   0.003164  -0.005611
    10  C    0.000000   0.000078  -0.000080  -0.000661   0.000136  -0.000693
    11  C    0.000000   0.000001   0.000003  -0.000074   0.000005  -0.000021
    12  C    0.000000   0.000000   0.000000   0.000000   0.000000  -0.000003
    13  C    0.000000   0.000000   0.000000   0.000000   0.000000   0.000000
    14  C    0.000000   0.000000   0.000000   0.000000   0.000000   0.000000
    15  C    0.000000   0.000000   0.000000   0.000000   0.000000   0.000000
    16  C    0.000000   0.000000   0.000000   0.000004   0.000000   0.000000
    17  N    0.269356  -0.056598  -0.000522   0.000000  -0.000024  -0.000001
    18  C   -0.050434  -0.007588   0.000491   0.000000  -0.000002   0.000000
    19  C    5.003741   0.001560   0.000148   0.000000  -0.000003   0.000002
    20  O    0.001560   8.290389   0.000766   0.000001   0.000001   0.000000
    21  H    0.000148   0.000766   0.332538   0.000274   0.001782  -0.000097
    22  H    0.000000   0.000001   0.000274   0.482186  -0.016948  -0.000385
    23  H   -0.000003   0.000001   0.001782  -0.016948   0.491513  -0.000265
    24  H    0.000002   0.000000  -0.000097  -0.000385  -0.000265   0.486305
    25  H    0.000442   0.000017   0.000073  -0.000270  -0.000351  -0.016143
    26  H    0.000001  -0.000309  -0.000290   0.000166  -0.000107   0.002069
    27  H    0.000000   0.000168   0.003438   0.002279   0.000012   0.000129
    28  H    0.000000  -0.000001  -0.000006   0.005600   0.000049   0.000187
    29  H    0.000000   0.000000   0.000008   0.000155  -0.000018   0.005802
    30  H    0.000000   0.000000   0.000000   0.000000   0.000000   0.000072
    31  H    0.000000   0.000000   0.000000   0.000000   0.000000   0.000000
    32  H    0.000000   0.000000   0.000000   0.000000   0.000000   0.000000
    33  H    0.000000   0.000000   0.000000   0.000000   0.000000   0.000000
    34  H    0.000000   0.000000   0.000000   0.000111   0.000000   0.000000
    35  H    0.004445   0.010574   0.000003   0.000000   0.000000   0.000000
    36  H   -0.003069   0.000128  -0.000027   0.000000   0.000000   0.000000
    37  H   -0.001862   0.000027   0.001062   0.000000   0.000023   0.000000
    38  H    0.375393   0.000026  -0.000006   0.000000  -0.000002  -0.000002
    39  H    0.372763  -0.000030   0.000077   0.000000   0.000075   0.000001
    40  H    0.378115  -0.000044  -0.000009   0.000000   0.000000   0.000000
              25         26         27         28         29         30
     1  O    0.002868   0.003608   0.000106  -0.000001  -0.000002   0.000000
     2  S    0.001215   0.012380  -0.000110   0.000021  -0.000049  -0.000004
     3  N   -0.002805  -0.007169  -0.001946  -0.000032  -0.000021   0.000000
     4  C   -0.024632  -0.029472  -0.031501  -0.004655  -0.005161  -0.000040
     5  C    0.006721   0.005608  -0.005755   0.002332  -0.000586   0.000001
     6  S   -0.011021  -0.000443  -0.000333  -0.000444  -0.000214  -0.000002
     7  O    0.001183   0.000002   0.000004   0.004544   0.003245   0.000001
     8  C    0.335406  -0.005195   0.005753  -0.000639   0.002510  -0.000004
     9  C    0.002908   0.360170   0.363039  -0.037364  -0.037105   0.000206
    10  C    0.000174  -0.038294  -0.037853   0.352253   0.354573  -0.009467
    11  C    0.000004  -0.000867  -0.002374  -0.024888  -0.026583  -0.045194
    12  C    0.000000   0.003997  -0.000047   0.003623  -0.004376   0.359286
    13  C    0.000000  -0.000127  -0.000007  -0.000218   0.000108  -0.044584
    14  C    0.000000  -0.000005  -0.000003   0.000016   0.000013   0.004769
    15  C    0.000000  -0.000019  -0.000148   0.000075  -0.000211   0.000272
    16  C    0.000000  -0.000033   0.003969  -0.004350   0.003944   0.006068
    17  N   -0.000408   0.000026   0.000008   0.000000   0.000000   0.000000
    18  C    0.000004  -0.000001  -0.000003   0.000000   0.000000   0.000000
    19  C    0.000442   0.000001   0.000000   0.000000   0.000000   0.000000
    20  O    0.000017  -0.000309   0.000168  -0.000001   0.000000   0.000000
    21  H    0.000073  -0.000290   0.003438  -0.000006   0.000008   0.000000
    22  H   -0.000270   0.000166   0.002279   0.005600   0.000155   0.000000
    23  H   -0.000351  -0.000107   0.000012   0.000049  -0.000018   0.000000
    24  H   -0.016143   0.002069   0.000129   0.000187   0.005802   0.000072
    25  H    0.484583   0.000042  -0.000110  -0.000015   0.000044   0.000000
    26  H    0.000042   0.549089  -0.031746   0.005245  -0.004356   0.000701
    27  H   -0.000110  -0.031746   0.569053  -0.004308   0.005449   0.000031
    28  H   -0.000015   0.005245  -0.004308   0.567823  -0.032472   0.000093
    29  H    0.000044  -0.004356   0.005449  -0.032472   0.567665   0.005376
    30  H    0.000000   0.000701   0.000031   0.000093   0.005376   0.584356
    31  H    0.000000   0.000003   0.000000   0.000003  -0.000007  -0.005300
    32  H    0.000000   0.000000   0.000000   0.000000   0.000000  -0.000167
    33  H    0.000000   0.000000   0.000003  -0.000005   0.000003   0.000017
    34  H    0.000000   0.000047   0.000911   0.004632   0.000080  -0.000167
    35  H    0.000000   0.000001   0.000000   0.000000   0.000000   0.000000
    36  H    0.000000   0.000000   0.000000   0.000000   0.000000   0.000000
    37  H    0.000003   0.000001  -0.000001   0.000000   0.000000   0.000000
    38  H    0.000753  -0.000001   0.000000   0.000000   0.000000   0.000000
    39  H    0.000359   0.000001   0.000000   0.000000   0.000000   0.000000
    40  H   -0.000008   0.000000   0.000000   0.000000   0.000000   0.000000
              31         32         33         34         35         36
     1  O    0.000000   0.000000   0.000000   0.000000   0.000053  -0.000043
     2  S    0.000000   0.000000   0.000000   0.000000  -0.000128   0.001870
     3  N    0.000000   0.000000   0.000000   0.000000  -0.000351  -0.000102
     4  C    0.000000   0.000000   0.000000  -0.000058   0.000007   0.000003
     5  C    0.000000   0.000000   0.000000  -0.000002   0.000000   0.000000
     6  S    0.000000   0.000000   0.000000  -0.000003   0.000000   0.000000
     7  O    0.000000   0.000000   0.000000   0.000001   0.000000   0.000000
     8  C    0.000000   0.000000   0.000000   0.000001   0.000000   0.000000
     9  C   -0.000001   0.000000  -0.000001   0.000303  -0.000003   0.000000
    10  C   -0.000173   0.000006  -0.000173  -0.009155   0.000000   0.000000
    11  C    0.003691   0.000618   0.003658  -0.045785   0.000000   0.000000
    12  C   -0.038511   0.004627   0.000764   0.006041   0.000000   0.000000
    13  C    0.360565  -0.042126   0.004497   0.000272   0.000000   0.000000
    14  C   -0.042343   0.362902  -0.042270   0.004794   0.000000   0.000000
    15  C    0.004498  -0.042125   0.360606  -0.044580   0.000000   0.000000
    16  C    0.000762   0.004630  -0.038657   0.359737   0.000000   0.000000
    17  N    0.000000   0.000000   0.000000   0.000000  -0.033080  -0.035428
    18  C    0.000000   0.000000   0.000000   0.000000   0.374677   0.379004
    19  C    0.000000   0.000000   0.000000   0.000000   0.004445  -0.003069
    20  O    0.000000   0.000000   0.000000   0.000000   0.010574   0.000128
    21  H    0.000000   0.000000   0.000000   0.000000   0.000003  -0.000027
    22  H    0.000000   0.000000   0.000000   0.000111   0.000000   0.000000
    23  H    0.000000   0.000000   0.000000   0.000000   0.000000   0.000000
    24  H    0.000000   0.000000   0.000000   0.000000   0.000000   0.000000
    25  H    0.000000   0.000000   0.000000   0.000000   0.000000   0.000000
    26  H    0.000003   0.000000   0.000000   0.000047   0.000001   0.000000
    27  H    0.000000   0.000000   0.000003   0.000911   0.000000   0.000000
    28  H    0.000003   0.000000  -0.000005   0.004632   0.000000   0.000000
    29  H   -0.000007   0.000000   0.000003   0.000080   0.000000   0.000000
    30  H   -0.005300  -0.000167   0.000017  -0.000167   0.000000   0.000000
    31  H    0.573305  -0.005236  -0.000176   0.000017   0.000000   0.000000
    32  H   -0.005236   0.574440  -0.005220  -0.000168   0.000000   0.000000
    33  H   -0.000176  -0.005220   0.573554  -0.005322   0.000000   0.000000
    34  H    0.000017  -0.000168  -0.005322   0.584778   0.000000   0.000000
    35  H    0.000000   0.000000   0.000000   0.000000   0.495845  -0.020635
    36  H    0.000000   0.000000   0.000000   0.000000  -0.020635   0.521073
    37  H    0.000000   0.000000   0.000000   0.000000  -0.029503  -0.036573
    38  H    0.000000   0.000000   0.000000   0.000000  -0.000200  -0.000010
    39  H    0.000000   0.000000   0.000000   0.000000  -0.000143  -0.001534
    40  H    0.000000   0.000000   0.000000   0.000000  -0.000011   0.004997
              37         38         39         40
     1  O   -0.000062   0.010482  -0.000261   0.000066
     2  S   -0.007955  -0.000067  -0.008062   0.002265
     3  N    0.003614  -0.001392   0.007964   0.000043
     4  C   -0.000107  -0.000019  -0.000376   0.000004
     5  C    0.000014  -0.000001   0.000046   0.000000
     6  S    0.000001  -0.000006   0.000045   0.000000
     7  O    0.000000   0.000000   0.000000   0.000000
     8  C   -0.000003  -0.000043  -0.000089   0.000002
     9  C    0.000008   0.000002   0.000012   0.000000
    10  C    0.000000   0.000000   0.000000   0.000000
    11  C    0.000000   0.000000   0.000000   0.000000
    12  C    0.000000   0.000000   0.000000   0.000000
    13  C    0.000000   0.000000   0.000000   0.000000
    14  C    0.000000   0.000000   0.000000   0.000000
    15  C    0.000000   0.000000   0.000000   0.000000
    16  C    0.000000   0.000000   0.000000   0.000000
    17  N   -0.046719  -0.033220  -0.046545  -0.034246
    18  C    0.373808   0.004529  -0.001651  -0.003742
    19  C   -0.001862   0.375393   0.372763   0.378115
    20  O    0.000027   0.000026  -0.000030  -0.000044
    21  H    0.001062  -0.000006   0.000077  -0.000009
    22  H    0.000000   0.000000   0.000000   0.000000
    23  H    0.000023  -0.000002   0.000075   0.000000
    24  H    0.000000  -0.000002   0.000001   0.000000
    25  H    0.000003   0.000753   0.000359  -0.000008
    26  H    0.000001  -0.000001   0.000001   0.000000
    27  H   -0.000001   0.000000   0.000000   0.000000
    28  H    0.000000   0.000000   0.000000   0.000000
    29  H    0.000000   0.000000   0.000000   0.000000
    30  H    0.000000   0.000000   0.000000   0.000000
    31  H    0.000000   0.000000   0.000000   0.000000
    32  H    0.000000   0.000000   0.000000   0.000000
    33  H    0.000000   0.000000   0.000000   0.000000
    34  H    0.000000   0.000000   0.000000   0.000000
    35  H   -0.029503  -0.000200  -0.000143  -0.000011
    36  H   -0.036573  -0.000010  -0.001534   0.004997
    37  H    0.566066  -0.000161   0.008278  -0.001340
    38  H   -0.000161   0.500339  -0.029693  -0.021827
    39  H    0.008278  -0.029693   0.561053  -0.034552
    40  H   -0.001340  -0.021827  -0.034552   0.522091
 Mulliken charges:
               1
     1  O   -0.597185
     2  S    1.347091
     3  N   -0.739375
     4  C    0.214718
     5  C   -0.500418
     6  S    0.763167
     7  O   -0.691397
     8  C   -0.477804
     9  C   -0.286482
    10  C   -0.376702
    11  C    0.159926
    12  C   -0.197808
    13  C   -0.149499
    14  C   -0.151942
    15  C   -0.149792
    16  C   -0.196159
    17  N   -0.515124
    18  C   -0.334977
    19  C   -0.329024
    20  O   -0.575938
    21  H    0.401904
    22  H    0.220145
    23  H    0.217780
    24  H    0.215263
    25  H    0.218966
    26  H    0.175281
    27  H    0.161895
    28  H    0.162902
    29  H    0.162188
    30  H    0.143680
    31  H    0.148903
    32  H    0.147820
    33  H    0.148721
    34  H    0.143513
    35  H    0.198452
    36  H    0.190345
    37  H    0.171382
    38  H    0.195126
    39  H    0.172261
    40  H    0.188196
 Sum of Mulliken charges =   0.00000
 Mulliken charges with hydrogens summed into heavy atoms:
               1
     1  O   -0.597185
     2  S    1.347091
     3  N   -0.337472
     4  C    0.214718
     5  C   -0.062494
     6  S    0.763167
     7  O   -0.691397
     8  C   -0.043575
     9  C    0.050695
    10  C   -0.051613
    11  C    0.159926
    12  C   -0.054127
    13  C   -0.000596
    14  C   -0.004122
    15  C   -0.001071
    16  C   -0.052646
    17  N   -0.515124
    18  C    0.225203
    19  C    0.226560
    20  O   -0.575938
 Electronic spatial extent (au):  <R**2>=           8174.4964
 Charge=              0.0000 electrons
 Dipole moment (field-independent basis, Debye):
    X=             -5.7154    Y=             -0.8854    Z=              5.5588  Tot=              8.0219
 Quadrupole moment (field-independent basis, Debye-Ang):
   XX=           -108.3053   YY=           -163.2338   ZZ=           -122.7121
   XY=            -11.7312   XZ=             -7.8182   YZ=             -0.0318
 Traceless Quadrupole moment (field-independent basis, Debye-Ang):
   XX=             23.1118   YY=            -31.8168   ZZ=              8.7050
   XY=            -11.7312   XZ=             -7.8182   YZ=             -0.0318
 Octapole moment (field-independent basis, Debye-Ang**2):
  XXX=           -149.3478  YYY=            -78.7853  ZZZ=             16.3627  XYY=            -36.8559
  XXY=            -56.5770  XXZ=             28.8657  XZZ=             -1.4432  YZZ=              8.4368
  YYZ=             19.3436  XYZ=             23.3841
 Hexadecapole moment (field-independent basis, Debye-Ang**3):
 XXXX=          -6540.9332 YYYY=          -3331.4085 ZZZZ=           -711.2376 XXXY=            -43.5558
 XXXZ=             -2.6550 YYYX=            -97.8781 YYYZ=             47.2353 ZZZX=            -27.4607
 ZZZY=             -5.2298 XXYY=          -1606.3179 XXZZ=          -1238.4218 YYZZ=           -556.7839
 XXYZ=            -44.2809 YYXZ=            -30.6691 ZZXY=            -10.9731
 N-N= 1.962997335951D+03 E-N=-7.776677130731D+03  KE= 1.628122398524D+03
 No NMR shielding tensors so no spin-rotation constants.
 Leave Link  601 at Sat Aug  8 02:45:38 2020, MaxMem=    33554432 cpu:         0.3
 (Enter /prod/apps/gaussian/g09d1/l9999.exe)
 1\1\GINC-PIRINEUS30\SP\RB3LYP\6-31G(d)\C13H20N2O3S2\UBAFAR01\08-Aug-20
 20\0\\#p b3lyp/6-31G(d) scrf=(iefpcm,read,solvent=Water) geom=allcheck
  guess=read\\SM37.n.13.pdb.xyz\\0,1\O,0,5.16,-0.93,-2.449\S,0,4.345,0.
 17,-1.925\N,0,3.108,-0.554,-1.024\C,0,2.464,-1.79,-1.547\C,0,1.448,-2.
 273,-0.481\S,0,2.297,-3.918,-0.244\O,0,1.525,-5.023,-0.957\C,0,3.406,-
 3.014,-1.442\C,0,1.844,-1.572,-2.938\C,0,1.11,-2.78,-3.548\C,0,0.531,-
 2.451,-4.906\C,0,1.263,-2.693,-6.076\C,0,0.742,-2.367,-7.329\C,0,-0.52
 5,-1.79,-7.432\C,0,-1.266,-1.545,-6.274\C,0,-0.741,-1.874,-5.024\N,0,5
 .272,0.994,-0.808\C,0,4.692,2.231,-0.266\C,0,5.94,0.153,0.197\O,0,3.81
 7,1.18,-2.852\H,0,2.405,0.159,-0.809\H,0,0.424,-2.409,-0.83\H,0,1.457,
 -1.705,0.45\H,0,3.535,-3.593,-2.356\H,0,4.373,-2.806,-0.991\H,0,2.642,
 -1.265,-3.621\H,0,1.148,-0.729,-2.863\H,0,0.309,-3.106,-2.878\H,0,1.80
 2,-3.622,-3.643\H,0,2.248,-3.147,-6.002\H,0,1.324,-2.566,-8.223\H,0,-0
 .934,-1.539,-8.406\H,0,-2.255,-1.103,-6.344\H,0,-1.325,-1.686,-4.128\H
 ,0,4.234,2.802,-1.071\H,0,5.508,2.816,0.162\H,0,3.95,2.036,0.519\H,0,6
 .375,-0.715,-0.294\H,0,5.25,-0.172,0.985\H,0,6.74,0.747,0.642\\Version
 =AM64L-G09RevD.01\State=1-A\HF=-1638.855007\RMSD=7.726e-09\Dipole=-0.1
 537616,2.1035039,2.3478293\Quadrupole=1.8259724,-14.5849673,12.758995,
 -7.2545179,8.523437,15.604735\PG=C01 [X(C13H20N2O3S2)]\\@


 THE POLHOLDE ROLLS WITHOUT SLIPPING ON THE HERPOLHOLDE LYING IN
 THE INVARIABLE PLANE.
 H.GOLDSTEIN, "CLASSICAL MECHANICS", PG 161
 Job cpu time:       0 days  0 hours  4 minutes 40.8 seconds.
 File lengths (MBytes):  RWF=    270 Int=      0 D2E=      0 Chk=      7 Scr=      1
 Normal termination of Gaussian 09 at Sat Aug  8 02:45:38 2020.
