 Entering Gaussian System, Link 0=g09
 Initial command:
 /prod/apps/gaussian/g09d1/l1.exe "/tmp/ubafar01/1449206/Gau-64032.inp" -scrdir="/tmp/ubafar01/1449206/"
 Entering Link 1 = /prod/apps/gaussian/g09d1/l1.exe PID=     64033.
  
 Copyright (c) 1988,1990,1992,1993,1995,1998,2003,2009,2013,
            Gaussian, Inc.  All Rights Reserved.
  
 This is part of the Gaussian(R) 09 program.  It is based on
 the Gaussian(R) 03 system (copyright 2003, Gaussian, Inc.),
 the Gaussian(R) 98 system (copyright 1998, Gaussian, Inc.),
 the Gaussian(R) 94 system (copyright 1995, Gaussian, Inc.),
 the Gaussian 92(TM) system (copyright 1992, Gaussian, Inc.),
 the Gaussian 90(TM) system (copyright 1990, Gaussian, Inc.),
 the Gaussian 88(TM) system (copyright 1988, Gaussian, Inc.),
 the Gaussian 86(TM) system (copyright 1986, Carnegie Mellon
 University), and the Gaussian 82(TM) system (copyright 1983,
 Carnegie Mellon University). Gaussian is a federally registered
 trademark of Gaussian, Inc.
  
 This software contains proprietary and confidential information,
 including trade secrets, belonging to Gaussian, Inc.
  
 This software is provided under written license and may be
 used, copied, transmitted, or stored only in accord with that
 written license.
  
 The following legend is applicable only to US Government
 contracts under FAR:
  
                    RESTRICTED RIGHTS LEGEND
  
 Use, reproduction and disclosure by the US Government is
 subject to restrictions as set forth in subparagraphs (a)
 and (c) of the Commercial Computer Software - Restricted
 Rights clause in FAR 52.227-19.
  
 Gaussian, Inc.
 340 Quinnipiac St., Bldg. 40, Wallingford CT 06492
  
  
 ---------------------------------------------------------------
 Warning -- This program may not be used in any manner that
 competes with the business of Gaussian, Inc. or will provide
 assistance to any competitor of Gaussian, Inc.  The licensee
 of this program is prohibited from giving any competitor of
 Gaussian, Inc. access to this program.  By using this program,
 the user acknowledges that Gaussian, Inc. is engaged in the
 business of creating and licensing software in the field of
 computational chemistry and represents and warrants to the
 licensee that it is not a competitor of Gaussian, Inc. and that
 it will not use this program in any manner prohibited above.
 ---------------------------------------------------------------
  

 Cite this work as:
 Gaussian 09, Revision D.01,
 M. J. Frisch, G. W. Trucks, H. B. Schlegel, G. E. Scuseria, 
 M. A. Robb, J. R. Cheeseman, G. Scalmani, V. Barone, B. Mennucci, 
 G. A. Petersson, H. Nakatsuji, M. Caricato, X. Li, H. P. Hratchian, 
 A. F. Izmaylov, J. Bloino, G. Zheng, J. L. Sonnenberg, M. Hada, 
 M. Ehara, K. Toyota, R. Fukuda, J. Hasegawa, M. Ishida, T. Nakajima, 
 Y. Honda, O. Kitao, H. Nakai, T. Vreven, J. A. Montgomery, Jr., 
 J. E. Peralta, F. Ogliaro, M. Bearpark, J. J. Heyd, E. Brothers, 
 K. N. Kudin, V. N. Staroverov, T. Keith, R. Kobayashi, J. Normand, 
 K. Raghavachari, A. Rendell, J. C. Burant, S. S. Iyengar, J. Tomasi, 
 M. Cossi, N. Rega, J. M. Millam, M. Klene, J. E. Knox, J. B. Cross, 
 V. Bakken, C. Adamo, J. Jaramillo, R. Gomperts, R. E. Stratmann, 
 O. Yazyev, A. J. Austin, R. Cammi, C. Pomelli, J. W. Ochterski, 
 R. L. Martin, K. Morokuma, V. G. Zakrzewski, G. A. Voth, 
 P. Salvador, J. J. Dannenberg, S. Dapprich, A. D. Daniels, 
 O. Farkas, J. B. Foresman, J. V. Ortiz, J. Cioslowski, 
 and D. J. Fox, Gaussian, Inc., Wallingford CT, 2013.
 
 ******************************************
 Gaussian 09:  AM64L-G09RevD.01 24-Apr-2013
                 8-Aug-2020 
 ******************************************
 %nproc=1
 Will use up to    1 processors via shared memory.
 %Chk=SM37.n.4.pdb.xyz.mst.n.o.chk
 -----------------
 #p b3lyp/6-31G(d)
 -----------------
 1/38=1/1;
 2/12=2,17=6,18=5,40=1/2;
 3/5=1,6=6,7=1,11=2,16=1,25=1,30=1,74=-5/1,2,3;
 4//1;
 5/5=2,38=5/2;
 6/7=2,8=2,9=2,10=2,28=1/1;
 99/5=1,9=1/99;
 Leave Link    1 at Sat Aug  8 07:02:33 2020, MaxMem=           0 cpu:         0.0
 (Enter /prod/apps/gaussian/g09d1/l101.exe)
 ----------------
 SM37.n.4.pdb.xyz
 ----------------
 Symbolic Z-matrix:
 Charge =  0 Multiplicity = 1
 O                     4.483    -1.822     0.891 
 S                     4.94     -0.73      0.029 
 N                     3.858    -0.638    -1.265 
 C                     2.912    -1.711    -1.612 
 C                     1.829    -1.99     -0.55 
 S                     1.823    -3.822    -0.957 
 O                     0.848    -4.095    -2.092 
 C                     3.432    -3.17     -1.655 
 C                     2.238    -1.319    -2.938 
 C                     3.169    -1.244    -4.16 
 C                     2.404    -1.012    -5.445 
 C                     2.446     0.231    -6.088 
 C                     1.73      0.455    -7.265 
 C                     0.958    -0.567    -7.818 
 C                     0.907    -1.811    -7.186 
 C                     1.624    -2.03     -6.01 
 N                     4.754     0.685     0.908 
 C                     5.19      1.904     0.215 
 C                     3.462     0.822     1.595 
 O                     6.299    -0.702    -0.513 
 H                     4.35     -0.259    -2.071 
 H                     0.859    -1.509    -0.682 
 H                     2.196    -1.889     0.47 
 H                     3.686    -3.596    -2.626 
 H                     4.212    -3.364    -0.919 
 H                     1.733    -0.358    -2.795 
 H                     1.464    -2.07     -3.122 
 H                     3.741    -2.176    -4.235 
 H                     3.9      -0.436    -4.046 
 H                     3.051     1.027    -5.662 
 H                     1.779     1.424    -7.749 
 H                     0.402    -0.397    -8.734 
 H                     0.312    -2.613    -7.611 
 H                     1.579    -3.002    -5.525 
 H                     6.168     1.738    -0.232 
 H                     5.275     2.696     0.96 
 H                     4.477     2.222    -0.557 
 H                     3.249    -0.096     2.14 
 H                     2.643     1.044     0.898 
 H                     3.556     1.644     2.306 
 
 NAtoms=     40 NQM=       40 NQMF=       0 NMMI=      0 NMMIF=      0
                NMic=       0 NMicF=      0.
                    Isotopes and Nuclear Properties:
 (Nuclear quadrupole moments (NQMom) in fm**2, nuclear magnetic moments (NMagM)
  in nuclear magnetons)

  Atom         1           2           3           4           5           6           7           8           9          10
 IAtWgt=          16          32          14          12          12          32          16          12          12          12
 AtmWgt=  15.9949146  31.9720718  14.0030740  12.0000000  12.0000000  31.9720718  15.9949146  12.0000000  12.0000000  12.0000000
 NucSpn=           0           0           2           0           0           0           0           0           0           0
 AtZEff=   0.0000000   0.0000000   0.0000000   0.0000000   0.0000000   0.0000000   0.0000000   0.0000000   0.0000000   0.0000000
 NQMom=    0.0000000   0.0000000   2.0440000   0.0000000   0.0000000   0.0000000   0.0000000   0.0000000   0.0000000   0.0000000
 NMagM=    0.0000000   0.0000000   0.4037610   0.0000000   0.0000000   0.0000000   0.0000000   0.0000000   0.0000000   0.0000000
 AtZNuc=   8.0000000  16.0000000   7.0000000   6.0000000   6.0000000  16.0000000   8.0000000   6.0000000   6.0000000   6.0000000

  Atom        11          12          13          14          15          16          17          18          19          20
 IAtWgt=          12          12          12          12          12          12          14          12          12          16
 AtmWgt=  12.0000000  12.0000000  12.0000000  12.0000000  12.0000000  12.0000000  14.0030740  12.0000000  12.0000000  15.9949146
 NucSpn=           0           0           0           0           0           0           2           0           0           0
 AtZEff=   0.0000000   0.0000000   0.0000000   0.0000000   0.0000000   0.0000000   0.0000000   0.0000000   0.0000000   0.0000000
 NQMom=    0.0000000   0.0000000   0.0000000   0.0000000   0.0000000   0.0000000   2.0440000   0.0000000   0.0000000   0.0000000
 NMagM=    0.0000000   0.0000000   0.0000000   0.0000000   0.0000000   0.0000000   0.4037610   0.0000000   0.0000000   0.0000000
 AtZNuc=   6.0000000   6.0000000   6.0000000   6.0000000   6.0000000   6.0000000   7.0000000   6.0000000   6.0000000   8.0000000

  Atom        21          22          23          24          25          26          27          28          29          30
 IAtWgt=           1           1           1           1           1           1           1           1           1           1
 AtmWgt=   1.0078250   1.0078250   1.0078250   1.0078250   1.0078250   1.0078250   1.0078250   1.0078250   1.0078250   1.0078250
 NucSpn=           1           1           1           1           1           1           1           1           1           1
 AtZEff=   0.0000000   0.0000000   0.0000000   0.0000000   0.0000000   0.0000000   0.0000000   0.0000000   0.0000000   0.0000000
 NQMom=    0.0000000   0.0000000   0.0000000   0.0000000   0.0000000   0.0000000   0.0000000   0.0000000   0.0000000   0.0000000
 NMagM=    2.7928460   2.7928460   2.7928460   2.7928460   2.7928460   2.7928460   2.7928460   2.7928460   2.7928460   2.7928460
 AtZNuc=   1.0000000   1.0000000   1.0000000   1.0000000   1.0000000   1.0000000   1.0000000   1.0000000   1.0000000   1.0000000

  Atom        31          32          33          34          35          36          37          38          39          40
 IAtWgt=           1           1           1           1           1           1           1           1           1           1
 AtmWgt=   1.0078250   1.0078250   1.0078250   1.0078250   1.0078250   1.0078250   1.0078250   1.0078250   1.0078250   1.0078250
 NucSpn=           1           1           1           1           1           1           1           1           1           1
 AtZEff=   0.0000000   0.0000000   0.0000000   0.0000000   0.0000000   0.0000000   0.0000000   0.0000000   0.0000000   0.0000000
 NQMom=    0.0000000   0.0000000   0.0000000   0.0000000   0.0000000   0.0000000   0.0000000   0.0000000   0.0000000   0.0000000
 NMagM=    2.7928460   2.7928460   2.7928460   2.7928460   2.7928460   2.7928460   2.7928460   2.7928460   2.7928460   2.7928460
 AtZNuc=   1.0000000   1.0000000   1.0000000   1.0000000   1.0000000   1.0000000   1.0000000   1.0000000   1.0000000   1.0000000
 Leave Link  101 at Sat Aug  8 07:02:33 2020, MaxMem=    33554432 cpu:         0.1
 (Enter /prod/apps/gaussian/g09d1/l202.exe)
                          Input orientation:                          
 ---------------------------------------------------------------------
 Center     Atomic      Atomic             Coordinates (Angstroms)
 Number     Number       Type             X           Y           Z
 ---------------------------------------------------------------------
      1          8           0        4.483000   -1.822000    0.891000
      2         16           0        4.940000   -0.730000    0.029000
      3          7           0        3.858000   -0.638000   -1.265000
      4          6           0        2.912000   -1.711000   -1.612000
      5          6           0        1.829000   -1.990000   -0.550000
      6         16           0        1.823000   -3.822000   -0.957000
      7          8           0        0.848000   -4.095000   -2.092000
      8          6           0        3.432000   -3.170000   -1.655000
      9          6           0        2.238000   -1.319000   -2.938000
     10          6           0        3.169000   -1.244000   -4.160000
     11          6           0        2.404000   -1.012000   -5.445000
     12          6           0        2.446000    0.231000   -6.088000
     13          6           0        1.730000    0.455000   -7.265000
     14          6           0        0.958000   -0.567000   -7.818000
     15          6           0        0.907000   -1.811000   -7.186000
     16          6           0        1.624000   -2.030000   -6.010000
     17          7           0        4.754000    0.685000    0.908000
     18          6           0        5.190000    1.904000    0.215000
     19          6           0        3.462000    0.822000    1.595000
     20          8           0        6.299000   -0.702000   -0.513000
     21          1           0        4.350000   -0.259000   -2.071000
     22          1           0        0.859000   -1.509000   -0.682000
     23          1           0        2.196000   -1.889000    0.470000
     24          1           0        3.686000   -3.596000   -2.626000
     25          1           0        4.212000   -3.364000   -0.919000
     26          1           0        1.733000   -0.358000   -2.795000
     27          1           0        1.464000   -2.070000   -3.122000
     28          1           0        3.741000   -2.176000   -4.235000
     29          1           0        3.900000   -0.436000   -4.046000
     30          1           0        3.051000    1.027000   -5.662000
     31          1           0        1.779000    1.424000   -7.749000
     32          1           0        0.402000   -0.397000   -8.734000
     33          1           0        0.312000   -2.613000   -7.611000
     34          1           0        1.579000   -3.002000   -5.525000
     35          1           0        6.168000    1.738000   -0.232000
     36          1           0        5.275000    2.696000    0.960000
     37          1           0        4.477000    2.222000   -0.557000
     38          1           0        3.249000   -0.096000    2.140000
     39          1           0        2.643000    1.044000    0.898000
     40          1           0        3.556000    1.644000    2.306000
 ---------------------------------------------------------------------
                    Distance matrix (angstroms):
                    1          2          3          4          5
     1  O    0.000000
     2  S    1.464362   0.000000
     3  N    2.537876   1.689267   0.000000
     4  C    2.957257   2.787118   1.471956   0.000000
     5  C    3.024636   3.406048   2.540860   1.542263   0.000000
     6  S    3.806666   4.499817   3.791299   2.463994   1.876675
     7  O    5.222839   5.706692   4.657776   3.189663   2.787678
     8  C    3.066565   3.326187   2.597037   1.549493   2.276628
     9  C    4.467021   4.055960   2.426333   1.538251   2.513974
    10  C    5.251027   4.576938   3.036936   2.603160   3.922272
    11  C    6.717383   6.039495   4.441440   3.929193   5.024752
    12  C    7.554510   6.675421   5.100023   4.901336   5.998581
    13  C    8.904160   8.056721   6.459337   6.168070   7.146961
    14  C    9.478783   8.801040   7.166369   6.606155   7.457037
    15  C    8.833223   8.336059   6.718822   5.924483   6.702136
    16  C    7.472680   7.011090   5.426181   4.593812   5.463994
    17  N    2.521662   1.676145   2.697235   3.934994   4.223389
    18  C    3.852259   2.652367   3.228992   4.647089   5.200460
    19  C    2.920410   2.654344   3.235431   4.123523   3.895518
    20  O    2.554109   1.463362   2.555011   3.701034   4.652012
    21  H    3.351731   2.231578   1.017517   2.094476   3.415442
    22  H    3.963038   4.215083   3.176874   2.262855   1.090727
    23  H    2.326392   3.011195   2.708776   2.208860   1.088710
    24  H    4.018902   4.103108   3.260624   2.276071   3.215192
    25  H    2.393179   2.892515   2.770579   2.214195   2.775379
    26  H    4.826219   4.289313   2.633425   2.149451   2.777169
    27  H    5.027925   4.879239   3.351165   2.122660   2.599002
    28  H    5.191508   4.659422   3.346645   2.789909   4.155667
    29  H    5.160897   4.215882   2.788643   2.919953   4.350399
    30  H    7.287608   6.248428   4.770438   4.890651   6.060373
    31  H    9.617574   8.667694   7.114516   6.983887   7.967653
    32  H   10.551105   9.873930   8.233345   7.664827   8.458832
    33  H    9.502996   9.128728   7.533024   6.600122   7.248941
    34  H    7.140775   6.877879   5.378656   4.330720   5.083037
    35  H    4.095602   2.768958   3.471104   4.939791   5.729400
    36  H    4.587412   3.566015   4.251361   5.623220   6.009460
    37  H    4.295425   3.045007   3.010652   4.362424   4.975228
    38  H    2.462079   2.778085   3.501238   4.098695   3.583258
    39  H    3.405819   3.029595   2.997318   3.736641   3.458967
    40  H    3.856775   3.568762   4.248620   5.198219   4.934088
                    6          7          8          9         10
     6  S    0.000000
     7  O    1.520980   0.000000
     8  C    1.871146   2.779146   0.000000
     9  C    3.218943   3.217762   2.549103   0.000000
    10  C    4.326316   4.218041   3.170752   1.538073   0.000000
    11  C    5.326894   4.813381   4.480831   2.531176   1.513365
    12  C    6.568265   6.102122   5.673666   3.516854   2.532891
    13  C    7.621827   6.945528   6.892716   4.704048   3.820778
    14  C    7.643073   6.726512   7.132941   5.100814   4.327564
    15  C    6.609358   5.582918   6.230126   4.478742   3.820315
    16  C    5.365042   4.496346   4.851236   3.212429   2.535216
    17  N    5.690522   6.863325   4.814320   5.013780   5.649592
    18  C    6.745172   7.756495   5.686206   5.389197   5.756298
    19  C    5.546689   6.678612   5.147763   5.160440   6.121620
    20  O    5.474131   6.612041   3.951566   4.770014   4.836453
    21  H    4.507959   5.194164   3.080536   2.517108   2.594014
    22  H    2.520891   2.945440   3.213406   2.650901   4.183636
    23  H    2.431450   3.639696   2.772054   3.455594   4.774898
    24  H    2.511455   2.930597   1.090336   2.716390   2.855232
    25  H    2.432803   3.636865   1.089831   3.486411   4.010777
    26  H    3.922453   3.904178   3.477577   1.094986   2.170326
    27  H    2.808133   2.353929   2.689817   1.094044   2.160265
    28  H    4.139242   4.079762   2.782071   2.162329   1.096099
    29  H    5.031982   5.149864   3.662057   2.183941   1.095546
    30  H    6.867154   6.620649   5.815154   3.685765   2.725320
    31  H    8.582174   7.957875   7.808590   5.557018   4.683081
    32  H    8.615776   7.615135   8.184294   6.149357   5.412502
    33  H    6.929684   5.739598   6.746746   5.217360   4.684657
    34  H    4.647425   3.676207   4.294035   3.155842   2.735304
    35  H    7.093536   8.110850   5.796472   5.666797   5.771959
    36  H    7.620729   8.662027   6.681679   6.366946   6.795089
    37  H    6.613142   7.445156   5.601008   4.818813   5.167749
    38  H    5.050541   6.298145   4.887227   5.320144   6.404241
    39  H    5.271753   6.210591   4.989802   4.523570   5.576288
    40  H    6.597546   7.720867   6.235342   6.165714   7.092212
                   11         12         13         14         15
    11  C    0.000000
    12  C    1.400094   0.000000
    13  C    2.432851   1.395765   0.000000
    14  C    2.814262   2.417405   1.395090   0.000000
    15  C    2.431150   2.782784   2.412121   1.396267   0.000000
    16  C    1.401410   2.407050   2.785944   2.419254   1.394642
    17  N    6.983045   7.380853   8.717534   9.597927   9.302809
    18  C    6.949853   7.075046   8.367891   9.409822   9.323096
    19  C    7.351498   7.772389   9.035160   9.838898   9.516653
    20  O    6.292197   6.840813   8.234313   9.050278   8.650577
    21  H    3.967090   4.472315   5.861044   6.680459   6.358158
    22  H    5.031918   5.896694   6.924726   7.198587   6.511185
    23  H    5.983278   6.896685   8.095784   8.483588   7.764145
    24  H    4.033279   5.307445   6.461955   6.601037   5.630512
    25  H    5.411603   6.539216   7.811325   8.124526   7.253284
    26  H    2.810775   3.420400   4.543333   5.086731   4.698337
    27  H    2.720164   3.880217   4.859098   4.956557   4.110161
    28  H    2.146291   3.302163   4.488561   4.813716   4.107698
    29  H    2.127673   2.593987   3.983057   4.785448   4.550634
    30  H    2.150167   1.086792   2.154492   3.401444   3.869568
    31  H    3.410738   2.151060   1.084259   2.154735   3.397437
    32  H    3.899199   3.402005   2.155794   1.084939   2.156554
    33  H    3.410458   3.868051   3.397508   2.155523   1.085290
    34  H    2.155719   3.394252   3.873145   3.401869   2.151508
    35  H    6.993251   7.100498   8.414572   9.487071   9.414438
    36  H    7.938257   7.984596   9.232537  10.311981  10.283472
    37  H    6.216802   6.219405   7.460936   8.537213   8.541290
    38  H    7.686697   8.273556   9.542798  10.228992   9.767316
    39  H    6.672174   7.035906   8.234990   9.022372   8.747330
    40  H    8.274022   8.584166   9.815907  10.683328  10.442810
                   16         17         18         19         20
    16  C    0.000000
    17  N    8.063923   0.000000
    18  C    8.181891   1.468437   0.000000
    19  C    8.327555   1.469695   2.461932   0.000000
    20  O    7.337317   2.515956   2.924227   3.849001   0.000000
    21  H    5.107175   3.150999   3.257294   3.923858   2.534209
    22  H    5.407795   4.744761   5.586657   4.170599   5.502128
    23  H    6.506725   3.655227   4.838999   3.196545   4.382906
    24  H    4.260945   5.653029   6.370502   6.114388   4.434836
    25  H    5.864775   4.475052   5.476702   4.940171   3.406853
    26  H    3.625423   4.891472   5.111516   4.863532   5.116074
    27  H    2.892705   5.886852   6.388374   5.882666   5.661760
    28  H    2.766519   5.971762   6.208744   6.561611   4.750718
    29  H    3.402691   5.150541   5.029495   5.796144   4.278790
    30  H    3.391560   6.795739   6.315345   7.271519   6.328597
    31  H    3.870176   9.183703   8.677017   9.513424   8.792609
    32  H    3.402962  10.633851  10.406928  10.841485  10.121881
    33  H    2.150450  10.157831  10.268615  10.318535   9.480385
    34  H    1.087214   8.065859   8.369932   8.298377   7.258687
    35  H    8.260208   2.099477   1.088048   3.391080   2.459618
    36  H    9.178550   2.078044   1.090648   2.683667   3.842487
    37  H    7.480262   2.141337   1.097942   2.760675   3.445489
    38  H    8.532496   2.095903   3.387197   1.088631   4.087560
    39  H    7.629436   2.141332   2.773680   1.098114   4.290195
    40  H    9.294448   2.075883   2.666428   1.090890   4.579795
                   21         22         23         24         25
    21  H    0.000000
    22  H    3.959659   0.000000
    23  H    3.708544   1.805290   0.000000
    24  H    3.447389   4.015798   3.836556   0.000000
    25  H    3.314690   3.839245   2.858182   1.801208   0.000000
    26  H    2.717106   2.559970   3.635733   3.785157   4.324448
    27  H    3.565574   2.575722   3.670293   2.740798   3.752219
    28  H    2.954432   4.623270   4.960486   2.146697   3.553736
    29  H    2.033336   4.659990   5.040742   3.470994   4.295190
    30  H    4.029451   6.003046   6.843647   5.567104   6.566951
    31  H    6.456176   7.706580   8.871405   7.421737   8.688690
    32  H    7.746052   8.141259   9.495163   7.637141   9.186589
    33  H    7.248335   7.037689   8.329237   6.099212   7.781829
    34  H    5.208897   5.118798   6.128579   3.632697   5.317797
    35  H    3.267270   6.239470   5.424455   6.351623   5.507114
    36  H    4.332968   6.315002   5.544598   7.414417   6.433056
    37  H    2.909241   5.198645   4.812277   6.225397   5.603987
    38  H    4.355605   3.958832   2.666938   5.929226   4.578720
    39  H    3.664235   3.492401   2.997579   5.919124   5.019334
    40  H    4.838385   5.113058   4.207444   7.197161   5.992581
                   26         27         28         29         30
    26  H    0.000000
    27  H    1.763586   0.000000
    28  H    3.067701   2.536678   0.000000
    29  H    2.503392   3.075358   1.757442   0.000000
    30  H    3.446018   4.308315   3.573743   2.339364   0.000000
    31  H    5.264955   5.806582   5.399781   4.655153   2.476118
    32  H    6.086444   5.951581   5.878330   5.849348   4.299088
    33  H    5.504373   4.666163   4.831810   5.506569   4.954828
    34  H    3.803597   2.579972   2.649645   3.762823   4.291666
    35  H    5.534565   6.706756   6.101945   4.941325   6.301278
    36  H    5.997725   7.341744   7.285435   6.063010   7.182104
    37  H    4.381162   5.837693   5.780293   4.423914   5.433464
    38  H    5.169248   5.896740   6.723770   6.229446   7.884893
    39  H    4.053635   5.219908   6.158059   5.311646   6.572698
    40  H    5.775079   6.901699   7.577025   6.692730   8.007792
                   31         32         33         34         35
    31  H    0.000000
    32  H    2.486442   0.000000
    33  H    4.297500   2.485937   0.000000
    34  H    4.957384   4.297562   2.471438   0.000000
    35  H    8.710178  10.492330  10.376588   8.458272   0.000000
    36  H    9.470305  11.282128  11.237388   9.390572   1.770897
    37  H    7.722750   9.504110   9.512274   7.769788   1.788676
    38  H   10.112548  11.244549  10.490151   8.365761   4.184555
    39  H    8.698362   9.993697   9.550408   7.665321   3.766187
    40  H   10.213185  11.661689  11.269094   9.317640   3.643189
                   36         37         38         39         40
    36  H    0.000000
    37  H    1.778418   0.000000
    38  H    3.645866   3.762302   0.000000
    39  H    3.108114   2.620737   1.791480   0.000000
    40  H    2.423506   3.062531   1.774656   1.782143   0.000000
 Stoichiometry    C13H20N2O3S2
 Framework group  C1[X(C13H20N2O3S2)]
 Deg. of freedom   114
 Full point group                 C1      NOp   1
 Largest Abelian subgroup         C1      NOp   1
 Largest concise Abelian subgroup C1      NOp   1
                         Standard orientation:                         
 ---------------------------------------------------------------------
 Center     Atomic      Atomic             Coordinates (Angstroms)
 Number     Number       Type             X           Y           Z
 ---------------------------------------------------------------------
      1          8           0       -3.352964    0.776287   -0.529666
      2         16           0       -2.849336   -0.595238   -0.627838
      3          7           0       -1.250234   -0.572983   -0.083777
      4          6           0       -0.457959    0.658920    0.062400
      5          6           0       -0.977837    1.641997    1.130979
      6         16           0       -0.425731    3.122080    0.117843
      7          8           0        1.021311    3.459035    0.443281
      8          6           0       -0.481209    1.694240   -1.090207
      9          6           0        0.981390    0.241699    0.409412
     10          6           0        1.726994   -0.544321   -0.682338
     11          6           0        3.180011   -0.773654   -0.326780
     12          6           0        3.631388   -2.042982    0.054437
     13          6           0        4.967167   -2.256605    0.398266
     14          6           0        5.874732   -1.197591    0.365194
     15          6           0        5.437044    0.073388   -0.012432
     16          6           0        4.101302    0.281988   -0.354934
     17          7           0       -3.717568   -1.505531    0.479863
     18          6           0       -3.372610   -2.932522    0.511609
     19          6           0       -3.852733   -0.897238    1.810919
     20          8           0       -2.889069   -1.335275   -1.889660
     21          1           0       -0.742507   -1.325962   -0.542664
     22          1           0       -0.523338    1.595277    2.121399
     23          1           0       -2.064627    1.677420    1.185048
     24          1           0        0.348742    1.693888   -1.797324
     25          1           0       -1.441554    1.735495   -1.603788
     26          1           0        0.955507   -0.341130    1.336038
     27          1           0        1.525926    1.166709    0.621002
     28          1           0        1.661591    0.003767   -1.629309
     29          1           0        1.257834   -1.519720   -0.851769
     30          1           0        2.927372   -2.870644    0.075741
     31          1           0        5.296880   -3.248255    0.687297
     32          1           0        6.914240   -1.360605    0.629657
     33          1           0        6.136805    0.902337   -0.044564
     34          1           0        3.769397    1.274834   -0.648410
     35          1           0       -3.331076   -3.319180   -0.504570
     36          1           0       -4.164178   -3.452576    1.052422
     37          1           0       -2.417610   -3.119061    1.020190
     38          1           0       -4.178886    0.135388    1.699445
     39          1           0       -2.915485   -0.935865    2.381821
     40          1           0       -4.619631   -1.456281    2.348859
 ---------------------------------------------------------------------
 Rotational constants (GHZ):      0.4237934      0.1592786      0.1275840
 Leave Link  202 at Sat Aug  8 07:02:33 2020, MaxMem=    33554432 cpu:         0.0
 (Enter /prod/apps/gaussian/g09d1/l301.exe)
 Standard basis: 6-31G(d) (6D, 7F)
 Ernie: Thresh=  0.10000D-02 Tol=  0.10000D-05 Strict=F.
 There are   348 symmetry adapted cartesian basis functions of A   symmetry.
 There are   348 symmetry adapted basis functions of A   symmetry.
   348 basis functions,   688 primitive gaussians,   348 cartesian basis functions
    84 alpha electrons       84 beta electrons
       nuclear repulsion energy      1965.2731315380 Hartrees.
 IExCor=  402 DFT=T Ex+Corr=B3LYP ExCW=0 ScaHFX=  0.200000
 ScaDFX=  0.800000  0.720000  1.000000  0.810000 ScalE2=  1.000000  1.000000
 IRadAn=      0 IRanWt=     -1 IRanGd=            0 ICorTp=0 IEmpDi=  4
 NAtoms=   40 NActive=   40 NUniq=   40 SFac= 1.00D+00 NAtFMM=   60 NAOKFM=F Big=F
 Integral buffers will be    131072 words long.
 Raffenetti 2 integral format.
 Two-electron integral symmetry is turned on.
 Leave Link  301 at Sat Aug  8 07:02:33 2020, MaxMem=    33554432 cpu:         0.1
 (Enter /prod/apps/gaussian/g09d1/l302.exe)
 NPDir=0 NMtPBC=     1 NCelOv=     1 NCel=       1 NClECP=     1 NCelD=      1
         NCelK=      1 NCelE2=     1 NClLst=     1 CellRange=     0.0.
 One-electron integrals computed using PRISM.
 NBasis=   348 RedAO= T EigKep=  4.64D-04  NBF=   348
 NBsUse=   348 1.00D-06 EigRej= -1.00D+00 NBFU=   348
 Precomputing XC quadrature grid using
 IXCGrd= 4 IRadAn=           0 IRanWt=          -1 IRanGd=           0 AccXCQ= 0.00D+00.
 Generated NRdTot=       0 NPtTot=           0 NUsed=           0 NTot=          32
 NSgBfM=   343   343   343   343   343 MxSgAt=    40 MxSgA2=    40.
 Leave Link  302 at Sat Aug  8 07:02:34 2020, MaxMem=    33554432 cpu:         1.2
 (Enter /prod/apps/gaussian/g09d1/l303.exe)
 DipDrv:  MaxL=1.
 Leave Link  303 at Sat Aug  8 07:02:34 2020, MaxMem=    33554432 cpu:         0.0
 (Enter /prod/apps/gaussian/g09d1/l401.exe)
 ExpMin= 1.17D-01 ExpMax= 2.19D+04 ExpMxC= 3.30D+03 IAcc=1 IRadAn=         1 AccDes= 0.00D+00
 Harris functional with IExCor=  402 and IRadAn=       1 diagonalized for initial guess.
 HarFok:  IExCor=  402 AccDes= 0.00D+00 IRadAn=         1 IDoV= 1 UseB2=F ITyADJ=14
 ICtDFT=  3500011 ScaDFX=  1.000000  1.000000  1.000000  1.000000
 FoFCou: FMM=F IPFlag=           0 FMFlag=      100000 FMFlg1=           0
         NFxFlg=           0 DoJE=T BraDBF=F KetDBF=T FulRan=T
         wScrn=  0.000000 ICntrl=     500 IOpCl=  0 I1Cent=   200000004 NGrid=           0
         NMat0=    1 NMatS0=      1 NMatT0=    0 NMatD0=    1 NMtDS0=    0 NMtDT0=    0
 Petite list used in FoFCou.
 Harris En= -1638.91328486755    
 JPrj=0 DoOrth=F DoCkMO=F.
 Leave Link  401 at Sat Aug  8 07:02:39 2020, MaxMem=    33554432 cpu:         4.7
 (Enter /prod/apps/gaussian/g09d1/l502.exe)
 Closed shell SCF:
 Using DIIS extrapolation, IDIIS=  1040.
 Integral symmetry usage will be decided dynamically.
 IVT=      386588 IEndB=      386588 NGot=    33554432 MDV=    33305937
 LenX=    33305937 LenY=    33184392
 Requested convergence on RMS density matrix=1.00D-08 within 128 cycles.
 Requested convergence on MAX density matrix=1.00D-06.
 Requested convergence on             energy=1.00D-06.
 No special actions if energy rises.
 Fock matrices will be formed incrementally for  20 cycles.
 Integral accuracy reduced to 1.0D-05 until final iterations.

 Cycle   1  Pass 0  IDiag  1:
 FoFJK:  IHMeth= 1 ICntrl=       0 DoSepK=F KAlg= 0 I1Cent=   0 FoldK=F
 IRaf= 740000000 NMat=   1 IRICut=       1 DoRegI=T DoRafI=F ISym2E= 0.
 FoFCou: FMM=F IPFlag=           0 FMFlag=      100000 FMFlg1=           0
         NFxFlg=           0 DoJE=F BraDBF=F KetDBF=F FulRan=T
         wScrn=  0.000000 ICntrl=       0 IOpCl=  0 I1Cent=           0 NGrid=           0
         NMat0=    1 NMatS0=      1 NMatT0=    0 NMatD0=    1 NMtDS0=    0 NMtDT0=    0
 Symmetry not used in FoFCou.
 E= -1638.05163642479    
 DIIS: error= 3.64D-02 at cycle   1 NSaved=   1.
 NSaved= 1 IEnMin= 1 EnMin= -1638.05163642479     IErMin= 1 ErrMin= 3.64D-02
 ErrMax= 3.64D-02  0.00D+00 EMaxC= 1.00D-01 BMatC= 8.86D-01 BMatP= 8.86D-01
 IDIUse=3 WtCom= 6.36D-01 WtEn= 3.64D-01
 Coeff-Com:  0.100D+01
 Coeff-En:   0.100D+01
 Coeff:      0.100D+01
 Gap=     0.340 Goal=   None    Shift=    0.000
 GapD=    0.340 DampG=1.000 DampE=0.500 DampFc=0.5000 IDamp=-1.
 Damping current iteration by 5.00D-01
 RMSDP=7.55D-03 MaxDP=5.97D-01              OVMax= 3.33D-01

 Cycle   2  Pass 0  IDiag  1:
 RMSU=  3.77D-03    CP:  9.99D-01
 E= -1638.19591177668     Delta-E=       -0.144275351891 Rises=F Damp=T
 DIIS: error= 1.45D-02 at cycle   2 NSaved=   2.
 NSaved= 2 IEnMin= 2 EnMin= -1638.19591177668     IErMin= 2 ErrMin= 1.45D-02
 ErrMax= 1.45D-02  0.00D+00 EMaxC= 1.00D-01 BMatC= 1.70D-01 BMatP= 8.86D-01
 IDIUse=3 WtCom= 8.55D-01 WtEn= 1.45D-01
 Coeff-Com:  0.258D+00 0.742D+00
 Coeff-En:   0.410D+00 0.590D+00
 Coeff:      0.280D+00 0.720D+00
 Gap=     0.339 Goal=   None    Shift=    0.000
 RMSDP=2.73D-03 MaxDP=1.26D-01 DE=-1.44D-01 OVMax= 2.37D-01

 Cycle   3  Pass 0  IDiag  1:
 RMSU=  2.05D-03    CP:  9.86D-01  5.28D-01
 E= -1638.69905343916     Delta-E=       -0.503141662483 Rises=F Damp=F
 DIIS: error= 1.73D-02 at cycle   3 NSaved=   3.
 NSaved= 3 IEnMin= 3 EnMin= -1638.69905343916     IErMin= 2 ErrMin= 1.45D-02
 ErrMax= 1.73D-02  0.00D+00 EMaxC= 1.00D-01 BMatC= 1.45D-01 BMatP= 1.70D-01
 IDIUse=3 WtCom= 8.27D-01 WtEn= 1.73D-01
 Coeff-Com:  0.115D+00 0.476D+00 0.409D+00
 Coeff-En:   0.000D+00 0.000D+00 0.100D+01
 Coeff:      0.954D-01 0.393D+00 0.511D+00
 Gap=     0.247 Goal=   None    Shift=    0.000
 RMSDP=1.95D-03 MaxDP=9.20D-02 DE=-5.03D-01 OVMax= 1.82D-01

 Cycle   4  Pass 0  IDiag  1:
 RMSU=  9.86D-04    CP:  9.95D-01  7.06D-01  2.52D-01
 E= -1638.79580839784     Delta-E=       -0.096754958679 Rises=F Damp=F
 DIIS: error= 8.89D-03 at cycle   4 NSaved=   4.
 NSaved= 4 IEnMin= 4 EnMin= -1638.79580839784     IErMin= 4 ErrMin= 8.89D-03
 ErrMax= 8.89D-03  0.00D+00 EMaxC= 1.00D-01 BMatC= 4.32D-02 BMatP= 1.45D-01
 IDIUse=3 WtCom= 9.11D-01 WtEn= 8.89D-02
 Coeff-Com:  0.240D-01 0.108D+00 0.346D+00 0.522D+00
 Coeff-En:   0.000D+00 0.000D+00 0.267D+00 0.733D+00
 Coeff:      0.219D-01 0.983D-01 0.339D+00 0.541D+00
 Gap=     0.229 Goal=   None    Shift=    0.000
 RMSDP=8.64D-04 MaxDP=4.39D-02 DE=-9.68D-02 OVMax= 7.24D-02

 Cycle   5  Pass 0  IDiag  1:
 RMSU=  3.36D-04    CP:  9.92D-01  6.30D-01  5.37D-01  5.39D-01
 E= -1638.83085760483     Delta-E=       -0.035049206988 Rises=F Damp=F
 DIIS: error= 2.30D-03 at cycle   5 NSaved=   5.
 NSaved= 5 IEnMin= 5 EnMin= -1638.83085760483     IErMin= 5 ErrMin= 2.30D-03
 ErrMax= 2.30D-03  0.00D+00 EMaxC= 1.00D-01 BMatC= 3.64D-03 BMatP= 4.32D-02
 IDIUse=3 WtCom= 9.77D-01 WtEn= 2.30D-02
 Coeff-Com:  0.139D-02 0.127D-01 0.157D+00 0.343D+00 0.486D+00
 Coeff-En:   0.000D+00 0.000D+00 0.000D+00 0.415D-01 0.959D+00
 Coeff:      0.136D-02 0.124D-01 0.153D+00 0.336D+00 0.497D+00
 Gap=     0.224 Goal=   None    Shift=    0.000
 RMSDP=2.34D-04 MaxDP=1.04D-02 DE=-3.50D-02 OVMax= 1.54D-02

 Cycle   6  Pass 0  IDiag  1:
 RMSU=  1.17D-04    CP:  9.92D-01  6.46D-01  5.04D-01  6.23D-01  5.20D-01
 E= -1638.83364608262     Delta-E=       -0.002788477788 Rises=F Damp=F
 DIIS: error= 7.58D-04 at cycle   6 NSaved=   6.
 NSaved= 6 IEnMin= 6 EnMin= -1638.83364608262     IErMin= 6 ErrMin= 7.58D-04
 ErrMax= 7.58D-04  0.00D+00 EMaxC= 1.00D-01 BMatC= 3.90D-04 BMatP= 3.64D-03
 IDIUse=3 WtCom= 9.92D-01 WtEn= 7.58D-03
 Coeff-Com: -0.133D-02-0.318D-02 0.436D-01 0.120D+00 0.299D+00 0.542D+00
 Coeff-En:   0.000D+00 0.000D+00 0.000D+00 0.000D+00 0.689D-01 0.931D+00
 Coeff:     -0.132D-02-0.316D-02 0.433D-01 0.119D+00 0.297D+00 0.545D+00
 Gap=     0.225 Goal=   None    Shift=    0.000
 RMSDP=7.00D-05 MaxDP=3.57D-03 DE=-2.79D-03 OVMax= 3.28D-03

 Cycle   7  Pass 0  IDiag  1:
 RMSU=  3.89D-05    CP:  9.92D-01  6.43D-01  5.08D-01  6.30D-01  5.90D-01
                    CP:  5.62D-01
 E= -1638.83393584176     Delta-E=       -0.000289759143 Rises=F Damp=F
 DIIS: error= 1.58D-04 at cycle   7 NSaved=   7.
 NSaved= 7 IEnMin= 7 EnMin= -1638.83393584176     IErMin= 7 ErrMin= 1.58D-04
 ErrMax= 1.58D-04  0.00D+00 EMaxC= 1.00D-01 BMatC= 3.22D-05 BMatP= 3.90D-04
 IDIUse=3 WtCom= 9.98D-01 WtEn= 1.58D-03
 Coeff-Com: -0.608D-03-0.273D-02 0.594D-02 0.238D-01 0.106D+00 0.298D+00
 Coeff-Com:  0.570D+00
 Coeff-En:   0.000D+00 0.000D+00 0.000D+00 0.000D+00 0.000D+00 0.152D-01
 Coeff-En:   0.985D+00
 Coeff:     -0.607D-03-0.273D-02 0.593D-02 0.238D-01 0.106D+00 0.297D+00
 Coeff:      0.570D+00
 Gap=     0.224 Goal=   None    Shift=    0.000
 RMSDP=2.06D-05 MaxDP=8.61D-04 DE=-2.90D-04 OVMax= 9.66D-04

 Cycle   8  Pass 0  IDiag  1:
 RMSU=  1.01D-05    CP:  9.92D-01  6.43D-01  5.09D-01  6.26D-01  5.99D-01
                    CP:  6.30D-01  6.08D-01
 E= -1638.83396495915     Delta-E=       -0.000029117391 Rises=F Damp=F
 DIIS: error= 3.04D-05 at cycle   8 NSaved=   8.
 NSaved= 8 IEnMin= 8 EnMin= -1638.83396495915     IErMin= 8 ErrMin= 3.04D-05
 ErrMax= 3.04D-05  0.00D+00 EMaxC= 1.00D-01 BMatC= 1.28D-06 BMatP= 3.22D-05
 IDIUse=1 WtCom= 1.00D+00 WtEn= 0.00D+00
 Coeff-Com: -0.945D-04-0.830D-03-0.403D-03 0.159D-02 0.253D-01 0.917D-01
 Coeff-Com:  0.247D+00 0.636D+00
 Coeff:     -0.945D-04-0.830D-03-0.403D-03 0.159D-02 0.253D-01 0.917D-01
 Coeff:      0.247D+00 0.636D+00
 Gap=     0.224 Goal=   None    Shift=    0.000
 RMSDP=5.19D-06 MaxDP=2.57D-04 DE=-2.91D-05 OVMax= 2.39D-04

 Initial convergence to 1.0D-05 achieved.  Increase integral accuracy.
 Cycle   9  Pass 1  IDiag  1:
 E= -1638.83396286060     Delta-E=        0.000002098549 Rises=F Damp=F
 DIIS: error= 4.94D-05 at cycle   1 NSaved=   1.
 NSaved= 1 IEnMin= 1 EnMin= -1638.83396286060     IErMin= 1 ErrMin= 4.94D-05
 ErrMax= 4.94D-05  0.00D+00 EMaxC= 1.00D-01 BMatC= 9.14D-07 BMatP= 9.14D-07
 IDIUse=1 WtCom= 1.00D+00 WtEn= 0.00D+00
 Coeff-Com:  0.100D+01
 Coeff:      0.100D+01
 Gap=     0.224 Goal=   None    Shift=    0.000
 RMSDP=5.19D-06 MaxDP=2.57D-04 DE= 2.10D-06 OVMax= 2.57D-04

 Cycle  10  Pass 1  IDiag  1:
 RMSU=  2.74D-05    CP:  1.00D+00
 E= -1638.83396309591     Delta-E=       -0.000000235307 Rises=F Damp=F
 DIIS: error= 3.46D-05 at cycle   2 NSaved=   2.
 NSaved= 2 IEnMin= 2 EnMin= -1638.83396309591     IErMin= 2 ErrMin= 3.46D-05
 ErrMax= 3.46D-05  0.00D+00 EMaxC= 1.00D-01 BMatC= 7.72D-07 BMatP= 9.14D-07
 IDIUse=1 WtCom= 1.00D+00 WtEn= 0.00D+00
 Coeff-Com:  0.472D+00 0.528D+00
 Coeff:      0.472D+00 0.528D+00
 Gap=     0.224 Goal=   None    Shift=    0.000
 RMSDP=4.09D-06 MaxDP=2.12D-04 DE=-2.35D-07 OVMax= 2.33D-04

 Cycle  11  Pass 1  IDiag  1:
 RMSU=  4.06D-06    CP:  1.00D+00  9.84D-01
 E= -1638.83396362367     Delta-E=       -0.000000527763 Rises=F Damp=F
 DIIS: error= 1.79D-05 at cycle   3 NSaved=   3.
 NSaved= 3 IEnMin= 3 EnMin= -1638.83396362367     IErMin= 3 ErrMin= 1.79D-05
 ErrMax= 1.79D-05  0.00D+00 EMaxC= 1.00D-01 BMatC= 1.93D-07 BMatP= 7.72D-07
 IDIUse=1 WtCom= 1.00D+00 WtEn= 0.00D+00
 Coeff-Com:  0.111D-01 0.331D+00 0.658D+00
 Coeff:      0.111D-01 0.331D+00 0.658D+00
 Gap=     0.224 Goal=   None    Shift=    0.000
 RMSDP=1.42D-06 MaxDP=6.58D-05 DE=-5.28D-07 OVMax= 8.19D-05

 Cycle  12  Pass 1  IDiag  1:
 RMSU=  5.57D-07    CP:  1.00D+00  9.97D-01  6.91D-01
 E= -1638.83396378753     Delta-E=       -0.000000163858 Rises=F Damp=F
 DIIS: error= 3.59D-06 at cycle   4 NSaved=   4.
 NSaved= 4 IEnMin= 4 EnMin= -1638.83396378753     IErMin= 4 ErrMin= 3.59D-06
 ErrMax= 3.59D-06  0.00D+00 EMaxC= 1.00D-01 BMatC= 9.84D-09 BMatP= 1.93D-07
 IDIUse=1 WtCom= 1.00D+00 WtEn= 0.00D+00
 Coeff-Com: -0.626D-02 0.182D+00 0.387D+00 0.438D+00
 Coeff:     -0.626D-02 0.182D+00 0.387D+00 0.438D+00
 Gap=     0.224 Goal=   None    Shift=    0.000
 RMSDP=3.20D-07 MaxDP=1.73D-05 DE=-1.64D-07 OVMax= 1.81D-05

 Cycle  13  Pass 1  IDiag  1:
 RMSU=  1.67D-07    CP:  1.00D+00  9.98D-01  6.89D-01  5.12D-01
 E= -1638.83396379539     Delta-E=       -0.000000007862 Rises=F Damp=F
 DIIS: error= 1.18D-06 at cycle   5 NSaved=   5.
 NSaved= 5 IEnMin= 5 EnMin= -1638.83396379539     IErMin= 5 ErrMin= 1.18D-06
 ErrMax= 1.18D-06  0.00D+00 EMaxC= 1.00D-01 BMatC= 5.61D-10 BMatP= 9.84D-09
 IDIUse=1 WtCom= 1.00D+00 WtEn= 0.00D+00
 Coeff-Com: -0.416D-02 0.919D-01 0.199D+00 0.268D+00 0.446D+00
 Coeff:     -0.416D-02 0.919D-01 0.199D+00 0.268D+00 0.446D+00
 Gap=     0.224 Goal=   None    Shift=    0.000
 RMSDP=8.18D-08 MaxDP=3.65D-06 DE=-7.86D-09 OVMax= 4.63D-06

 Cycle  14  Pass 1  IDiag  1:
 RMSU=  6.07D-08    CP:  1.00D+00  9.98D-01  6.88D-01  5.32D-01  6.79D-01
 E= -1638.83396379593     Delta-E=       -0.000000000540 Rises=F Damp=F
 DIIS: error= 2.04D-07 at cycle   6 NSaved=   6.
 NSaved= 6 IEnMin= 6 EnMin= -1638.83396379593     IErMin= 6 ErrMin= 2.04D-07
 ErrMax= 2.04D-07  0.00D+00 EMaxC= 1.00D-01 BMatC= 3.12D-11 BMatP= 5.61D-10
 IDIUse=1 WtCom= 1.00D+00 WtEn= 0.00D+00
 Coeff-Com: -0.120D-02 0.194D-01 0.428D-01 0.713D-01 0.220D+00 0.647D+00
 Coeff:     -0.120D-02 0.194D-01 0.428D-01 0.713D-01 0.220D+00 0.647D+00
 Gap=     0.224 Goal=   None    Shift=    0.000
 RMSDP=2.37D-08 MaxDP=9.37D-07 DE=-5.40D-10 OVMax= 1.68D-06

 Cycle  15  Pass 1  IDiag  1:
 RMSU=  1.98D-08    CP:  1.00D+00  9.98D-01  6.89D-01  5.34D-01  7.23D-01
                    CP:  8.23D-01
 E= -1638.83396379588     Delta-E=        0.000000000049 Rises=F Damp=F
 DIIS: error= 1.04D-07 at cycle   7 NSaved=   7.
 NSaved= 7 IEnMin= 6 EnMin= -1638.83396379593     IErMin= 7 ErrMin= 1.04D-07
 ErrMax= 1.04D-07  0.00D+00 EMaxC= 1.00D-01 BMatC= 6.24D-12 BMatP= 3.12D-11
 IDIUse=1 WtCom= 1.00D+00 WtEn= 0.00D+00
 Coeff-Com: -0.286D-03 0.224D-02 0.534D-02 0.148D-01 0.816D-01 0.378D+00
 Coeff-Com:  0.518D+00
 Coeff:     -0.286D-03 0.224D-02 0.534D-02 0.148D-01 0.816D-01 0.378D+00
 Coeff:      0.518D+00
 Gap=     0.224 Goal=   None    Shift=    0.000
 RMSDP=1.17D-08 MaxDP=4.76D-07 DE= 4.87D-11 OVMax= 8.44D-07

 Cycle  16  Pass 1  IDiag  1:
 RMSU=  6.40D-09    CP:  1.00D+00  9.98D-01  6.89D-01  5.39D-01  7.30D-01
                    CP:  8.64D-01  5.60D-01
 E= -1638.83396379590     Delta-E=       -0.000000000014 Rises=F Damp=F
 DIIS: error= 5.06D-08 at cycle   8 NSaved=   8.
 NSaved= 8 IEnMin= 6 EnMin= -1638.83396379593     IErMin= 8 ErrMin= 5.06D-08
 ErrMax= 5.06D-08  0.00D+00 EMaxC= 1.00D-01 BMatC= 1.34D-12 BMatP= 6.24D-12
 IDIUse=1 WtCom= 1.00D+00 WtEn= 0.00D+00
 Coeff-Com: -0.115D-04-0.148D-02-0.302D-02-0.802D-03 0.234D-01 0.164D+00
 Coeff-Com:  0.346D+00 0.472D+00
 Coeff:     -0.115D-04-0.148D-02-0.302D-02-0.802D-03 0.234D-01 0.164D+00
 Coeff:      0.346D+00 0.472D+00
 Gap=     0.224 Goal=   None    Shift=    0.000
 RMSDP=4.37D-09 MaxDP=2.37D-07 DE=-1.41D-11 OVMax= 3.38D-07

 SCF Done:  E(RB3LYP) =  -1638.83396380     A.U. after   16 cycles
            NFock= 16  Conv=0.44D-08     -V/T= 2.0066
 KE= 1.628146075214D+03 PE=-7.780538665656D+03 EE= 2.548285495108D+03
 Leave Link  502 at Sat Aug  8 07:08:33 2020, MaxMem=    33554432 cpu:       354.1
 (Enter /prod/apps/gaussian/g09d1/l601.exe)
 Copying SCF densities to generalized density rwf, IOpCl= 0 IROHF=0.

 **********************************************************************

            Population analysis using the SCF density.

 **********************************************************************

 Orbital symmetries:
       Occupied  (A) (A) (A) (A) (A) (A) (A) (A) (A) (A) (A) (A)
                 (A) (A) (A) (A) (A) (A) (A) (A) (A) (A) (A) (A)
                 (A) (A) (A) (A) (A) (A) (A) (A) (A) (A) (A) (A)
                 (A) (A) (A) (A) (A) (A) (A) (A) (A) (A) (A) (A)
                 (A) (A) (A) (A) (A) (A) (A) (A) (A) (A) (A) (A)
                 (A) (A) (A) (A) (A) (A) (A) (A) (A) (A) (A) (A)
                 (A) (A) (A) (A) (A) (A) (A) (A) (A) (A) (A) (A)
       Virtual   (A) (A) (A) (A) (A) (A) (A) (A) (A) (A) (A) (A)
                 (A) (A) (A) (A) (A) (A) (A) (A) (A) (A) (A) (A)
                 (A) (A) (A) (A) (A) (A) (A) (A) (A) (A) (A) (A)
                 (A) (A) (A) (A) (A) (A) (A) (A) (A) (A) (A) (A)
                 (A) (A) (A) (A) (A) (A) (A) (A) (A) (A) (A) (A)
                 (A) (A) (A) (A) (A) (A) (A) (A) (A) (A) (A) (A)
                 (A) (A) (A) (A) (A) (A) (A) (A) (A) (A) (A) (A)
                 (A) (A) (A) (A) (A) (A) (A) (A) (A) (A) (A) (A)
                 (A) (A) (A) (A) (A) (A) (A) (A) (A) (A) (A) (A)
                 (A) (A) (A) (A) (A) (A) (A) (A) (A) (A) (A) (A)
                 (A) (A) (A) (A) (A) (A) (A) (A) (A) (A) (A) (A)
                 (A) (A) (A) (A) (A) (A) (A) (A) (A) (A) (A) (A)
                 (A) (A) (A) (A) (A) (A) (A) (A) (A) (A) (A) (A)
                 (A) (A) (A) (A) (A) (A) (A) (A) (A) (A) (A) (A)
                 (A) (A) (A) (A) (A) (A) (A) (A) (A) (A) (A) (A)
                 (A) (A) (A) (A) (A) (A) (A) (A) (A) (A) (A) (A)
                 (A) (A) (A) (A) (A) (A) (A) (A) (A) (A) (A) (A)
                 (A) (A) (A) (A) (A) (A) (A) (A) (A) (A) (A) (A)
                 (A) (A) (A) (A) (A) (A) (A) (A) (A) (A) (A) (A)
                 (A) (A) (A) (A) (A) (A) (A) (A) (A) (A) (A) (A)
                 (A) (A) (A) (A) (A) (A) (A) (A) (A) (A) (A) (A)
                 (A) (A) (A) (A) (A) (A) (A) (A) (A) (A) (A) (A)
 The electronic state is 1-A.
 Alpha  occ. eigenvalues --  -89.13940 -88.98325 -19.15737 -19.15508 -19.11068
 Alpha  occ. eigenvalues --  -14.38480 -14.37928 -10.26688 -10.23467 -10.23376
 Alpha  occ. eigenvalues --  -10.21604 -10.21446 -10.20406 -10.19982 -10.19933
 Alpha  occ. eigenvalues --  -10.19135 -10.19073 -10.19030 -10.18938 -10.18832
 Alpha  occ. eigenvalues --   -8.16175  -8.03121  -6.12650  -6.12598  -6.12579
 Alpha  occ. eigenvalues --   -5.99525  -5.99352  -5.98903  -1.13373  -1.01780
 Alpha  occ. eigenvalues --   -1.00175  -0.95318  -0.94217  -0.85867  -0.84598
 Alpha  occ. eigenvalues --   -0.79623  -0.74455  -0.74192  -0.73959  -0.71668
 Alpha  occ. eigenvalues --   -0.70326  -0.67717  -0.62758  -0.61655  -0.60598
 Alpha  occ. eigenvalues --   -0.58271  -0.56379  -0.55288  -0.52510  -0.51755
 Alpha  occ. eigenvalues --   -0.51261  -0.49428  -0.48344  -0.48045  -0.46915
 Alpha  occ. eigenvalues --   -0.46219  -0.44876  -0.44656  -0.43812  -0.42762
 Alpha  occ. eigenvalues --   -0.42620  -0.42291  -0.42021  -0.41440  -0.40066
 Alpha  occ. eigenvalues --   -0.40025  -0.39466  -0.38411  -0.37397  -0.36419
 Alpha  occ. eigenvalues --   -0.35768  -0.35498  -0.34960  -0.34018  -0.33834
 Alpha  occ. eigenvalues --   -0.33313  -0.32622  -0.31399  -0.29111  -0.26820
 Alpha  occ. eigenvalues --   -0.25528  -0.25051  -0.24419  -0.22769
 Alpha virt. eigenvalues --   -0.00359  -0.00063   0.00918   0.03294   0.04438
 Alpha virt. eigenvalues --    0.05483   0.06531   0.07270   0.08191   0.08743
 Alpha virt. eigenvalues --    0.09827   0.09941   0.10354   0.11785   0.12360
 Alpha virt. eigenvalues --    0.12606   0.13534   0.14248   0.14896   0.14993
 Alpha virt. eigenvalues --    0.15751   0.15882   0.16839   0.17441   0.18176
 Alpha virt. eigenvalues --    0.18363   0.18740   0.19283   0.19905   0.20000
 Alpha virt. eigenvalues --    0.20337   0.20884   0.21978   0.23997   0.25659
 Alpha virt. eigenvalues --    0.26074   0.27599   0.28179   0.30572   0.32305
 Alpha virt. eigenvalues --    0.32782   0.33048   0.34685   0.35455   0.35961
 Alpha virt. eigenvalues --    0.38207   0.42247   0.42978   0.44576   0.45781
 Alpha virt. eigenvalues --    0.47232   0.48335   0.48781   0.49606   0.51530
 Alpha virt. eigenvalues --    0.52161   0.52693   0.53749   0.54090   0.54783
 Alpha virt. eigenvalues --    0.55664   0.56398   0.58034   0.58416   0.59077
 Alpha virt. eigenvalues --    0.59534   0.60355   0.60981   0.61331   0.61558
 Alpha virt. eigenvalues --    0.61796   0.63094   0.63659   0.65153   0.65709
 Alpha virt. eigenvalues --    0.66522   0.66950   0.67539   0.68452   0.70164
 Alpha virt. eigenvalues --    0.71351   0.73378   0.73920   0.76147   0.76818
 Alpha virt. eigenvalues --    0.78038   0.79443   0.80790   0.81318   0.81662
 Alpha virt. eigenvalues --    0.82297   0.82614   0.83301   0.83979   0.84113
 Alpha virt. eigenvalues --    0.84721   0.85405   0.86198   0.87076   0.87197
 Alpha virt. eigenvalues --    0.87672   0.88273   0.88976   0.90026   0.90839
 Alpha virt. eigenvalues --    0.91126   0.91552   0.92894   0.93455   0.94296
 Alpha virt. eigenvalues --    0.94891   0.95535   0.96437   0.97577   0.98224
 Alpha virt. eigenvalues --    0.99147   1.00066   1.01384   1.02574   1.04213
 Alpha virt. eigenvalues --    1.04532   1.05187   1.06150   1.07408   1.08622
 Alpha virt. eigenvalues --    1.10688   1.11757   1.12613   1.13683   1.13965
 Alpha virt. eigenvalues --    1.15183   1.15623   1.16780   1.17401   1.18131
 Alpha virt. eigenvalues --    1.20723   1.23825   1.24943   1.25315   1.26663
 Alpha virt. eigenvalues --    1.27467   1.31818   1.35118   1.35359   1.39166
 Alpha virt. eigenvalues --    1.41536   1.42677   1.42924   1.44119   1.45671
 Alpha virt. eigenvalues --    1.47643   1.48055   1.48741   1.49714   1.50950
 Alpha virt. eigenvalues --    1.51468   1.53320   1.58269   1.61797   1.66843
 Alpha virt. eigenvalues --    1.68792   1.71142   1.72184   1.74406   1.75699
 Alpha virt. eigenvalues --    1.78207   1.78556   1.79043   1.80292   1.80897
 Alpha virt. eigenvalues --    1.81257   1.83178   1.83843   1.85496   1.86022
 Alpha virt. eigenvalues --    1.87186   1.88740   1.89481   1.90737   1.91823
 Alpha virt. eigenvalues --    1.92505   1.92959   1.94107   1.95041   1.95661
 Alpha virt. eigenvalues --    1.96918   1.97890   1.98069   1.99932   2.01543
 Alpha virt. eigenvalues --    2.03010   2.03611   2.05355   2.05769   2.07387
 Alpha virt. eigenvalues --    2.08395   2.09424   2.10036   2.11207   2.12431
 Alpha virt. eigenvalues --    2.14073   2.14147   2.14863   2.17300   2.18870
 Alpha virt. eigenvalues --    2.20395   2.21863   2.22714   2.23782   2.26003
 Alpha virt. eigenvalues --    2.27025   2.27542   2.29138   2.30955   2.32374
 Alpha virt. eigenvalues --    2.33175   2.36119   2.37392   2.41681   2.41934
 Alpha virt. eigenvalues --    2.43253   2.45843   2.46893   2.50259   2.56697
 Alpha virt. eigenvalues --    2.57943   2.58226   2.61069   2.65915   2.68681
 Alpha virt. eigenvalues --    2.70937   2.71628   2.72329   2.73871   2.74402
 Alpha virt. eigenvalues --    2.75146   2.76290   2.77007   2.80964   2.84491
 Alpha virt. eigenvalues --    2.85057   2.94812   3.05399   3.41082   3.72868
 Alpha virt. eigenvalues --    3.84822   3.92752   3.95286   4.01961   4.03771
 Alpha virt. eigenvalues --    4.08271   4.09309   4.11490   4.14578   4.21984
 Alpha virt. eigenvalues --    4.23369   4.28801   4.29938   4.32780   4.36141
 Alpha virt. eigenvalues --    4.40474   4.51531   4.69873   4.72557
          Condensed to atoms (all electrons):
               1          2          3          4          5          6
     1  O    8.300885   0.394008  -0.051547   0.006978  -0.009311   0.000536
     2  S    0.394008  13.550586   0.122119  -0.005832  -0.005510   0.000798
     3  N   -0.051547   0.122119   7.427442   0.230304  -0.043535   0.003754
     4  C    0.006978  -0.005832   0.230304   4.838233   0.328032  -0.058693
     5  C   -0.009311  -0.005510  -0.043535   0.328032   5.685696   0.059750
     6  S    0.000536   0.000798   0.003754  -0.058693   0.059750  14.920293
     7  O    0.000000   0.000009  -0.000057  -0.000889  -0.039289   0.298346
     8  C   -0.009908  -0.002766  -0.054659   0.333323  -0.126886   0.059253
     9  C    0.000250   0.000203  -0.051724   0.338039  -0.045129   0.005794
    10  C   -0.000004  -0.000193  -0.005202  -0.028682   0.004716  -0.000493
    11  C    0.000000   0.000008   0.000227   0.003540  -0.000090   0.000053
    12  C    0.000000   0.000000   0.000001  -0.000006  -0.000001   0.000001
    13  C    0.000000   0.000000   0.000000   0.000002   0.000000   0.000000
    14  C    0.000000   0.000000   0.000000   0.000000   0.000000   0.000000
    15  C    0.000000   0.000000   0.000000   0.000003   0.000000   0.000001
    16  C    0.000000   0.000000  -0.000001   0.000301  -0.000012   0.000006
    17  N   -0.052052   0.168815  -0.059723   0.000957   0.000315  -0.000010
    18  C    0.001609  -0.011566  -0.001254   0.000110  -0.000009   0.000000
    19  C   -0.004817  -0.011115  -0.001833  -0.000256  -0.000199   0.000005
    20  O   -0.038804   0.462779  -0.059328  -0.000255  -0.000048  -0.000007
    21  H    0.001545  -0.008652   0.288399  -0.030584   0.004607  -0.000320
    22  H    0.000248   0.000320   0.001599  -0.030307   0.350614  -0.017863
    23  H    0.011358   0.002305  -0.004373  -0.025514   0.323226  -0.005128
    24  H    0.000229   0.000222   0.001826  -0.029692   0.010695  -0.017912
    25  H    0.012861   0.003548  -0.006963  -0.023743   0.002124  -0.004441
    26  H    0.000002  -0.000022  -0.002448  -0.032776  -0.006404  -0.000284
    27  H    0.000001   0.000036   0.002879  -0.030368  -0.009871   0.005700
    28  H    0.000001   0.000026  -0.000575  -0.004711   0.000067  -0.000098
    29  H    0.000001  -0.000052   0.000677  -0.005376  -0.000055  -0.000025
    30  H    0.000000   0.000000  -0.000007  -0.000019   0.000000   0.000000
    31  H    0.000000   0.000000   0.000000   0.000000   0.000000   0.000000
    32  H    0.000000   0.000000   0.000000   0.000000   0.000000   0.000000
    33  H    0.000000   0.000000   0.000000   0.000000   0.000000   0.000000
    34  H    0.000000   0.000000  -0.000001  -0.000184   0.000008  -0.000022
    35  H    0.000042   0.000209  -0.000532   0.000000   0.000000   0.000000
    36  H   -0.000049   0.002625  -0.000088   0.000002   0.000000   0.000000
    37  H   -0.000048  -0.009992   0.007332  -0.000067  -0.000020   0.000000
    38  H    0.009672  -0.002152  -0.000628  -0.000020  -0.000204  -0.000008
    39  H   -0.000294  -0.010059   0.009120  -0.000273   0.000305   0.000040
    40  H    0.000145   0.002571  -0.000086   0.000000   0.000014   0.000000
               7          8          9         10         11         12
     1  O    0.000000  -0.009908   0.000250  -0.000004   0.000000   0.000000
     2  S    0.000009  -0.002766   0.000203  -0.000193   0.000008   0.000000
     3  N   -0.000057  -0.054659  -0.051724  -0.005202   0.000227   0.000001
     4  C   -0.000889   0.333323   0.338039  -0.028682   0.003540  -0.000006
     5  C   -0.039289  -0.126886  -0.045129   0.004716  -0.000090  -0.000001
     6  S    0.298346   0.059253   0.005794  -0.000493   0.000053   0.000001
     7  O    8.381181  -0.039567  -0.009480  -0.000003   0.000057   0.000000
     8  C   -0.039567   5.711656  -0.060838  -0.010234   0.000048  -0.000004
     9  C   -0.009480  -0.060838   5.230263   0.344608  -0.042985  -0.002072
    10  C   -0.000003  -0.010234   0.344608   5.206934   0.344090  -0.052824
    11  C    0.000057   0.000048  -0.042985   0.344090   4.640584   0.554035
    12  C    0.000000  -0.000004  -0.002072  -0.052824   0.554035   4.959952
    13  C    0.000000   0.000000  -0.000102   0.007393  -0.019272   0.520550
    14  C    0.000000   0.000000  -0.000003   0.000385  -0.034980  -0.035770
    15  C   -0.000001   0.000000   0.000228   0.006472  -0.017008  -0.047453
    16  C   -0.000351   0.000006  -0.003523  -0.064789   0.540983  -0.036190
    17  N    0.000000  -0.000145  -0.000132   0.000004   0.000000   0.000000
    18  C    0.000000   0.000003  -0.000007  -0.000001   0.000000   0.000000
    19  C    0.000000  -0.000011   0.000000   0.000000   0.000000   0.000000
    20  O    0.000000   0.000530  -0.000103  -0.000027   0.000000   0.000000
    21  H    0.000002   0.001309  -0.010105   0.007521  -0.000112  -0.000030
    22  H    0.000007   0.010690  -0.006308   0.000136  -0.000009   0.000000
    23  H    0.001190   0.002157   0.004341  -0.000116   0.000001   0.000000
    24  H    0.000224   0.346733  -0.006768   0.001771  -0.000069   0.000001
    25  H    0.001196   0.323032   0.004609  -0.000009   0.000004   0.000000
    26  H    0.000311   0.006558   0.350847  -0.037555  -0.000478   0.001997
    27  H    0.028840  -0.005292   0.350484  -0.032950  -0.003146   0.000051
    28  H    0.000087   0.003839  -0.044822   0.359687  -0.025800   0.002464
    29  H   -0.000004   0.000030  -0.037580   0.348544  -0.030575  -0.004411
    30  H    0.000000   0.000000   0.000153  -0.012051  -0.045788   0.352321
    31  H    0.000000   0.000000   0.000001  -0.000189   0.003871  -0.039932
    32  H    0.000000   0.000000   0.000000   0.000007   0.000705   0.004752
    33  H    0.000000   0.000000   0.000000  -0.000189   0.003599   0.000911
    34  H    0.000997  -0.000017  -0.000448  -0.008681  -0.046356   0.005839
    35  H    0.000000  -0.000001   0.000000   0.000000   0.000000   0.000000
    36  H    0.000000   0.000000   0.000000   0.000000   0.000000   0.000000
    37  H    0.000000   0.000007   0.000032  -0.000004   0.000000   0.000000
    38  H    0.000000  -0.000003  -0.000002   0.000000   0.000000   0.000000
    39  H    0.000000   0.000045   0.000037  -0.000002   0.000000   0.000000
    40  H    0.000000   0.000000   0.000000   0.000000   0.000000   0.000000
              13         14         15         16         17         18
     1  O    0.000000   0.000000   0.000000   0.000000  -0.052052   0.001609
     2  S    0.000000   0.000000   0.000000   0.000000   0.168815  -0.011566
     3  N    0.000000   0.000000   0.000000  -0.000001  -0.059723  -0.001254
     4  C    0.000002   0.000000   0.000003   0.000301   0.000957   0.000110
     5  C    0.000000   0.000000   0.000000  -0.000012   0.000315  -0.000009
     6  S    0.000000   0.000000   0.000001   0.000006  -0.000010   0.000000
     7  O    0.000000   0.000000  -0.000001  -0.000351   0.000000   0.000000
     8  C    0.000000   0.000000   0.000000   0.000006  -0.000145   0.000003
     9  C   -0.000102  -0.000003   0.000228  -0.003523  -0.000132  -0.000007
    10  C    0.007393   0.000385   0.006472  -0.064789   0.000004  -0.000001
    11  C   -0.019272  -0.034980  -0.017008   0.540983   0.000000   0.000000
    12  C    0.520550  -0.035770  -0.047453  -0.036190   0.000000   0.000000
    13  C    4.870044   0.551892  -0.024652  -0.049198   0.000000   0.000000
    14  C    0.551892   4.853211   0.546819  -0.034520   0.000000   0.000000
    15  C   -0.024652   0.546819   4.863786   0.524793   0.000000   0.000000
    16  C   -0.049198  -0.034520   0.524793   4.970508   0.000000   0.000000
    17  N    0.000000   0.000000   0.000000   0.000000   7.157129   0.281249
    18  C    0.000000   0.000000   0.000000   0.000000   0.281249   5.011057
    19  C    0.000000   0.000000   0.000000   0.000000   0.277748  -0.052927
    20  O    0.000000   0.000000   0.000000   0.000000  -0.056776  -0.006925
    21  H   -0.000001   0.000000   0.000000   0.000005   0.000354   0.000072
    22  H    0.000000   0.000000   0.000000   0.000000   0.000001  -0.000001
    23  H    0.000000   0.000000   0.000000   0.000000  -0.000586   0.000001
    24  H    0.000000   0.000000   0.000000  -0.000009   0.000002   0.000000
    25  H    0.000000   0.000000   0.000000  -0.000001   0.000021  -0.000002
    26  H   -0.000066  -0.000005  -0.000032  -0.000200  -0.000019  -0.000002
    27  H   -0.000013   0.000006  -0.000189   0.003778   0.000001   0.000000
    28  H   -0.000218   0.000021   0.000009  -0.004405   0.000000   0.000000
    29  H    0.000126   0.000005  -0.000192   0.004654   0.000007  -0.000005
    30  H   -0.046717   0.004967   0.000304   0.006545   0.000000   0.000000
    31  H    0.356519  -0.043289   0.004626   0.000809   0.000000   0.000000
    32  H   -0.043489   0.359271  -0.043020   0.004796   0.000000   0.000000
    33  H    0.004543  -0.043253   0.357310  -0.038627   0.000000   0.000000
    34  H    0.000346   0.004736  -0.042157   0.354906   0.000000   0.000000
    35  H    0.000000   0.000000   0.000000   0.000000  -0.032629   0.376434
    36  H    0.000000   0.000000   0.000000   0.000000  -0.035047   0.376365
    37  H    0.000000   0.000000   0.000000   0.000000  -0.049223   0.365157
    38  H    0.000000   0.000000   0.000000   0.000000  -0.032333   0.004738
    39  H    0.000000   0.000000   0.000000   0.000000  -0.047580  -0.002450
    40  H    0.000000   0.000000   0.000000   0.000000  -0.034271  -0.003808
              19         20         21         22         23         24
     1  O   -0.004817  -0.038804   0.001545   0.000248   0.011358   0.000229
     2  S   -0.011115   0.462779  -0.008652   0.000320   0.002305   0.000222
     3  N   -0.001833  -0.059328   0.288399   0.001599  -0.004373   0.001826
     4  C   -0.000256  -0.000255  -0.030584  -0.030307  -0.025514  -0.029692
     5  C   -0.000199  -0.000048   0.004607   0.350614   0.323226   0.010695
     6  S    0.000005  -0.000007  -0.000320  -0.017863  -0.005128  -0.017912
     7  O    0.000000   0.000000   0.000002   0.000007   0.001190   0.000224
     8  C   -0.000011   0.000530   0.001309   0.010690   0.002157   0.346733
     9  C    0.000000  -0.000103  -0.010105  -0.006308   0.004341  -0.006768
    10  C    0.000000  -0.000027   0.007521   0.000136  -0.000116   0.001771
    11  C    0.000000   0.000000  -0.000112  -0.000009   0.000001  -0.000069
    12  C    0.000000   0.000000  -0.000030   0.000000   0.000000   0.000001
    13  C    0.000000   0.000000  -0.000001   0.000000   0.000000   0.000000
    14  C    0.000000   0.000000   0.000000   0.000000   0.000000   0.000000
    15  C    0.000000   0.000000   0.000000   0.000000   0.000000   0.000000
    16  C    0.000000   0.000000   0.000005   0.000000   0.000000  -0.000009
    17  N    0.277748  -0.056776   0.000354   0.000001  -0.000586   0.000002
    18  C   -0.052927  -0.006925   0.000072  -0.000001   0.000001   0.000000
    19  C    5.009358   0.001672   0.000138  -0.000055   0.000472   0.000000
    20  O    0.001672   8.213842   0.005625   0.000001   0.000008  -0.000017
    21  H    0.000138   0.005625   0.372404  -0.000039  -0.000016   0.000264
    22  H   -0.000055   0.000001  -0.000039   0.516358  -0.019940  -0.000344
    23  H    0.000472   0.000008  -0.000016  -0.019940   0.497298  -0.000305
    24  H    0.000000  -0.000017   0.000264  -0.000344  -0.000305   0.512956
    25  H    0.000001  -0.000671  -0.000128  -0.000322  -0.000038  -0.018316
    26  H   -0.000009   0.000002   0.000235   0.004489  -0.000012   0.000090
    27  H    0.000000   0.000001   0.000399   0.000466   0.000206  -0.000358
    28  H    0.000000   0.000001  -0.000055   0.000013  -0.000001   0.006888
    29  H    0.000000  -0.000017   0.010833  -0.000001   0.000002  -0.000009
    30  H    0.000000   0.000000   0.000032   0.000000   0.000000   0.000000
    31  H    0.000000   0.000000   0.000000   0.000000   0.000000   0.000000
    32  H    0.000000   0.000000   0.000000   0.000000   0.000000   0.000000
    33  H    0.000000   0.000000   0.000000   0.000000   0.000000   0.000000
    34  H    0.000000   0.000000   0.000001   0.000000   0.000000   0.000285
    35  H    0.004633   0.010148   0.000076   0.000000  -0.000001   0.000000
    36  H   -0.003664   0.000141  -0.000009   0.000000  -0.000001   0.000000
    37  H   -0.002582  -0.000046   0.000455   0.000001   0.000004   0.000000
    38  H    0.377343   0.000005  -0.000014  -0.000029   0.001371   0.000000
    39  H    0.364570  -0.000041   0.000030   0.000225   0.000392   0.000000
    40  H    0.375530  -0.000052   0.000000   0.000002   0.000001   0.000000
              25         26         27         28         29         30
     1  O    0.012861   0.000002   0.000001   0.000001   0.000001   0.000000
     2  S    0.003548  -0.000022   0.000036   0.000026  -0.000052   0.000000
     3  N   -0.006963  -0.002448   0.002879  -0.000575   0.000677  -0.000007
     4  C   -0.023743  -0.032776  -0.030368  -0.004711  -0.005376  -0.000019
     5  C    0.002124  -0.006404  -0.009871   0.000067  -0.000055   0.000000
     6  S   -0.004441  -0.000284   0.005700  -0.000098  -0.000025   0.000000
     7  O    0.001196   0.000311   0.028840   0.000087  -0.000004   0.000000
     8  C    0.323032   0.006558  -0.005292   0.003839   0.000030   0.000000
     9  C    0.004609   0.350847   0.350484  -0.044822  -0.037580   0.000153
    10  C   -0.000009  -0.037555  -0.032950   0.359687   0.348544  -0.012051
    11  C    0.000004  -0.000478  -0.003146  -0.025800  -0.030575  -0.045788
    12  C    0.000000   0.001997   0.000051   0.002464  -0.004411   0.352321
    13  C    0.000000  -0.000066  -0.000013  -0.000218   0.000126  -0.046717
    14  C    0.000000  -0.000005   0.000006   0.000021   0.000005   0.004967
    15  C    0.000000  -0.000032  -0.000189   0.000009  -0.000192   0.000304
    16  C   -0.000001  -0.000200   0.003778  -0.004405   0.004654   0.006545
    17  N    0.000021  -0.000019   0.000001   0.000000   0.000007   0.000000
    18  C   -0.000002  -0.000002   0.000000   0.000000  -0.000005   0.000000
    19  C    0.000001  -0.000009   0.000000   0.000000   0.000000   0.000000
    20  O   -0.000671   0.000002   0.000001   0.000001  -0.000017   0.000000
    21  H   -0.000128   0.000235   0.000399  -0.000055   0.010833   0.000032
    22  H   -0.000322   0.004489   0.000466   0.000013  -0.000001   0.000000
    23  H   -0.000038  -0.000012   0.000206  -0.000001   0.000002   0.000000
    24  H   -0.018316   0.000090  -0.000358   0.006888  -0.000009   0.000000
    25  H    0.486018  -0.000131   0.000092  -0.000175  -0.000024   0.000000
    26  H   -0.000131   0.588011  -0.022743   0.005804  -0.005235   0.000136
    27  H    0.000092  -0.022743   0.500266  -0.002938   0.004584   0.000022
    28  H   -0.000175   0.005804  -0.002938   0.579993  -0.036548   0.000107
    29  H   -0.000024  -0.005235   0.004584  -0.036548   0.610248   0.008145
    30  H    0.000000   0.000136   0.000022   0.000107   0.008145   0.621085
    31  H    0.000000   0.000001   0.000000   0.000003  -0.000011  -0.005762
    32  H    0.000000   0.000000   0.000000   0.000000   0.000000  -0.000183
    33  H    0.000000   0.000000   0.000004  -0.000003   0.000003   0.000018
    34  H    0.000001   0.000093   0.002705   0.002978   0.000039  -0.000177
    35  H    0.000000   0.000000   0.000000   0.000000   0.000000   0.000000
    36  H    0.000000   0.000000   0.000000   0.000000   0.000000   0.000000
    37  H    0.000001   0.000043   0.000000   0.000000  -0.000007   0.000000
    38  H   -0.000006  -0.000001   0.000000   0.000000   0.000000   0.000000
    39  H    0.000003   0.000121  -0.000001   0.000000  -0.000001   0.000000
    40  H    0.000000   0.000000   0.000000   0.000000   0.000000   0.000000
              31         32         33         34         35         36
     1  O    0.000000   0.000000   0.000000   0.000000   0.000042  -0.000049
     2  S    0.000000   0.000000   0.000000   0.000000   0.000209   0.002625
     3  N    0.000000   0.000000   0.000000  -0.000001  -0.000532  -0.000088
     4  C    0.000000   0.000000   0.000000  -0.000184   0.000000   0.000002
     5  C    0.000000   0.000000   0.000000   0.000008   0.000000   0.000000
     6  S    0.000000   0.000000   0.000000  -0.000022   0.000000   0.000000
     7  O    0.000000   0.000000   0.000000   0.000997   0.000000   0.000000
     8  C    0.000000   0.000000   0.000000  -0.000017  -0.000001   0.000000
     9  C    0.000001   0.000000   0.000000  -0.000448   0.000000   0.000000
    10  C   -0.000189   0.000007  -0.000189  -0.008681   0.000000   0.000000
    11  C    0.003871   0.000705   0.003599  -0.046356   0.000000   0.000000
    12  C   -0.039932   0.004752   0.000911   0.005839   0.000000   0.000000
    13  C    0.356519  -0.043489   0.004543   0.000346   0.000000   0.000000
    14  C   -0.043289   0.359271  -0.043253   0.004736   0.000000   0.000000
    15  C    0.004626  -0.043020   0.357310  -0.042157   0.000000   0.000000
    16  C    0.000809   0.004796  -0.038627   0.354906   0.000000   0.000000
    17  N    0.000000   0.000000   0.000000   0.000000  -0.032629  -0.035047
    18  C    0.000000   0.000000   0.000000   0.000000   0.376434   0.376365
    19  C    0.000000   0.000000   0.000000   0.000000   0.004633  -0.003664
    20  O    0.000000   0.000000   0.000000   0.000000   0.010148   0.000141
    21  H    0.000000   0.000000   0.000000   0.000001   0.000076  -0.000009
    22  H    0.000000   0.000000   0.000000   0.000000   0.000000   0.000000
    23  H    0.000000   0.000000   0.000000   0.000000  -0.000001  -0.000001
    24  H    0.000000   0.000000   0.000000   0.000285   0.000000   0.000000
    25  H    0.000000   0.000000   0.000000   0.000001   0.000000   0.000000
    26  H    0.000001   0.000000   0.000000   0.000093   0.000000   0.000000
    27  H    0.000000   0.000000   0.000004   0.002705   0.000000   0.000000
    28  H    0.000003   0.000000  -0.000003   0.002978   0.000000   0.000000
    29  H   -0.000011   0.000000   0.000003   0.000039   0.000000   0.000000
    30  H   -0.005762  -0.000183   0.000018  -0.000177   0.000000   0.000000
    31  H    0.600114  -0.005622  -0.000190   0.000017   0.000000   0.000000
    32  H   -0.005622   0.598380  -0.005495  -0.000175   0.000000   0.000000
    33  H   -0.000190  -0.005495   0.592313  -0.005471   0.000000   0.000000
    34  H    0.000017  -0.000175  -0.005471   0.586238   0.000000   0.000000
    35  H    0.000000   0.000000   0.000000   0.000000   0.487571  -0.020180
    36  H    0.000000   0.000000   0.000000   0.000000  -0.020180   0.541206
    37  H    0.000000   0.000000   0.000000   0.000000  -0.031929  -0.039523
    38  H    0.000000   0.000000   0.000000   0.000000  -0.000194   0.000005
    39  H    0.000000   0.000000   0.000000   0.000000  -0.000200  -0.001518
    40  H    0.000000   0.000000   0.000000   0.000000   0.000001   0.005410
              37         38         39         40
     1  O   -0.000048   0.009672  -0.000294   0.000145
     2  S   -0.009992  -0.002152  -0.010059   0.002571
     3  N    0.007332  -0.000628   0.009120  -0.000086
     4  C   -0.000067  -0.000020  -0.000273   0.000000
     5  C   -0.000020  -0.000204   0.000305   0.000014
     6  S    0.000000  -0.000008   0.000040   0.000000
     7  O    0.000000   0.000000   0.000000   0.000000
     8  C    0.000007  -0.000003   0.000045   0.000000
     9  C    0.000032  -0.000002   0.000037   0.000000
    10  C   -0.000004   0.000000  -0.000002   0.000000
    11  C    0.000000   0.000000   0.000000   0.000000
    12  C    0.000000   0.000000   0.000000   0.000000
    13  C    0.000000   0.000000   0.000000   0.000000
    14  C    0.000000   0.000000   0.000000   0.000000
    15  C    0.000000   0.000000   0.000000   0.000000
    16  C    0.000000   0.000000   0.000000   0.000000
    17  N   -0.049223  -0.032333  -0.047580  -0.034271
    18  C    0.365157   0.004738  -0.002450  -0.003808
    19  C   -0.002582   0.377343   0.364570   0.375530
    20  O   -0.000046   0.000005  -0.000041  -0.000052
    21  H    0.000455  -0.000014   0.000030   0.000000
    22  H    0.000001  -0.000029   0.000225   0.000002
    23  H    0.000004   0.001371   0.000392   0.000001
    24  H    0.000000   0.000000   0.000000   0.000000
    25  H    0.000001  -0.000006   0.000003   0.000000
    26  H    0.000043  -0.000001   0.000121   0.000000
    27  H    0.000000   0.000000  -0.000001   0.000000
    28  H    0.000000   0.000000   0.000000   0.000000
    29  H   -0.000007   0.000000  -0.000001   0.000000
    30  H    0.000000   0.000000   0.000000   0.000000
    31  H    0.000000   0.000000   0.000000   0.000000
    32  H    0.000000   0.000000   0.000000   0.000000
    33  H    0.000000   0.000000   0.000000   0.000000
    34  H    0.000000   0.000000   0.000000   0.000000
    35  H   -0.031929  -0.000194  -0.000200   0.000001
    36  H   -0.039523   0.000005  -0.001518   0.005410
    37  H    0.602077  -0.000211   0.009469  -0.001519
    38  H   -0.000211   0.493902  -0.031914  -0.020759
    39  H    0.009469  -0.031914   0.591190  -0.037844
    40  H   -0.001519  -0.020759  -0.037844   0.541775
 Mulliken charges:
               1
     1  O   -0.573539
     2  S    1.356724
     3  N   -0.751120
     4  C    0.228422
     5  C   -0.483600
     6  S    0.750972
     7  O   -0.622805
     8  C   -0.488891
     9  C   -0.307759
    10  C   -0.378072
    11  C    0.174866
    12  C   -0.184181
    13  C   -0.127688
    14  C   -0.129491
    15  C   -0.129646
    16  C   -0.180266
    17  N   -0.486080
    18  C   -0.337838
    19  C   -0.334004
    20  O   -0.531637
    21  H    0.355759
    22  H    0.190048
    23  H    0.211696
    24  H    0.191614
    25  H    0.221460
    26  H    0.149682
    27  H    0.207352
    28  H    0.158360
    29  H    0.132229
    30  H    0.116866
    31  H    0.129032
    32  H    0.130073
    33  H    0.134527
    34  H    0.144500
    35  H    0.206551
    36  H    0.174326
    37  H    0.150593
    38  H    0.201443
    39  H    0.156633
    40  H    0.172889
 Sum of Mulliken charges =   0.00000
 Mulliken charges with hydrogens summed into heavy atoms:
               1
     1  O   -0.573539
     2  S    1.356724
     3  N   -0.395362
     4  C    0.228422
     5  C   -0.081856
     6  S    0.750972
     7  O   -0.622805
     8  C   -0.075817
     9  C    0.049275
    10  C   -0.087483
    11  C    0.174866
    12  C   -0.067315
    13  C    0.001344
    14  C    0.000582
    15  C    0.004881
    16  C   -0.035765
    17  N   -0.486080
    18  C    0.193632
    19  C    0.196961
    20  O   -0.531637
 Electronic spatial extent (au):  <R**2>=           8346.6923
 Charge=              0.0000 electrons
 Dipole moment (field-independent basis, Debye):
    X=             -0.2544    Y=             -4.2579    Z=              2.6508  Tot=              5.0221
 Quadrupole moment (field-independent basis, Debye-Ang):
   XX=           -134.8998   YY=           -136.8418   ZZ=           -134.0835
   XY=             -1.0544   XZ=            -13.9080   YZ=             -7.6845
 Traceless Quadrupole moment (field-independent basis, Debye-Ang):
   XX=              0.3752   YY=             -1.5668   ZZ=              1.1915
   XY=             -1.0544   XZ=            -13.9080   YZ=             -7.6845
 Octapole moment (field-independent basis, Debye-Ang**2):
  XXX=             28.6050  YYY=            -71.7468  ZZZ=              8.7742  XYY=            -43.5589
  XXY=            -24.8144  XXZ=             59.9706  XZZ=            -24.3134  YZZ=             17.2370
  YYZ=             -1.7620  XYZ=              1.6442
 Hexadecapole moment (field-independent basis, Debye-Ang**3):
 XXXX=          -7414.1325 YYYY=          -2697.5274 ZZZZ=           -683.3711 XXXY=            108.5351
 XXXZ=            -72.2206 YYYX=            -20.0630 YYYZ=            -45.2952 ZZZX=            -32.3955
 ZZZY=             -7.2321 XXYY=          -1635.3737 XXZZ=          -1467.2654 YYZZ=           -539.6867
 XXYZ=            -98.0534 YYXZ=            -22.9750 ZZXY=             13.3310
 N-N= 1.965273131538D+03 E-N=-7.780538656822D+03  KE= 1.628146075214D+03
 No NMR shielding tensors so no spin-rotation constants.
 Leave Link  601 at Sat Aug  8 07:08:33 2020, MaxMem=    33554432 cpu:         0.3
 (Enter /prod/apps/gaussian/g09d1/l9999.exe)
 1\1\GINC-PIRINEUS28\SP\RB3LYP\6-31G(d)\C13H20N2O3S2\UBAFAR01\08-Aug-20
 20\0\\#p b3lyp/6-31G(d)\\SM37.n.4.pdb.xyz\\0,1\O,0,4.483,-1.822,0.891\
 S,0,4.94,-0.73,0.029\N,0,3.858,-0.638,-1.265\C,0,2.912,-1.711,-1.612\C
 ,0,1.829,-1.99,-0.55\S,0,1.823,-3.822,-0.957\O,0,0.848,-4.095,-2.092\C
 ,0,3.432,-3.17,-1.655\C,0,2.238,-1.319,-2.938\C,0,3.169,-1.244,-4.16\C
 ,0,2.404,-1.012,-5.445\C,0,2.446,0.231,-6.088\C,0,1.73,0.455,-7.265\C,
 0,0.958,-0.567,-7.818\C,0,0.907,-1.811,-7.186\C,0,1.624,-2.03,-6.01\N,
 0,4.754,0.685,0.908\C,0,5.19,1.904,0.215\C,0,3.462,0.822,1.595\O,0,6.2
 99,-0.702,-0.513\H,0,4.35,-0.259,-2.071\H,0,0.859,-1.509,-0.682\H,0,2.
 196,-1.889,0.47\H,0,3.686,-3.596,-2.626\H,0,4.212,-3.364,-0.919\H,0,1.
 733,-0.358,-2.795\H,0,1.464,-2.07,-3.122\H,0,3.741,-2.176,-4.235\H,0,3
 .9,-0.436,-4.046\H,0,3.051,1.027,-5.662\H,0,1.779,1.424,-7.749\H,0,0.4
 02,-0.397,-8.734\H,0,0.312,-2.613,-7.611\H,0,1.579,-3.002,-5.525\H,0,6
 .168,1.738,-0.232\H,0,5.275,2.696,0.96\H,0,4.477,2.222,-0.557\H,0,3.24
 9,-0.096,2.14\H,0,2.643,1.044,0.898\H,0,3.556,1.644,2.306\\Version=AM6
 4L-G09RevD.01\State=1-A\HF=-1638.8339638\RMSD=4.372e-09\Dipole=-0.1139
 643,1.9718978,-0.0504981\Quadrupole=-10.3843449,5.0328496,5.3514953,-2
 .7891117,-4.7525573,5.4789184\PG=C01 [X(C13H20N2O3S2)]\\@


            ARSENIC

 FOR SMELTER FUMES HAVE I BEEN NAMED,
    I AM AN EVIL POISONOUS SMOKE...
 BUT WHEN FROM POISON I AM FREED,
    THROUGH ART AND SLEIGHT OF HAND,
 THEN CAN I CURE BOTH MAN AND BEAST,
    FROM DIRE DISEASE OFTTIMES DIRECT THEM;
 BUT PREPARE ME CORRECTLY, AND TAKE GREAT CARE
    THAT YOU FAITHFULLY KEEP WATCHFUL GUARD OVER ME;
 FOR ELSE I AM POISON, AND POISON REMAIN,
    THAT PIERCES THE HEART OF MANY A ONE.

 ATTRIBUTED TO THE PROBABLY MYTHICAL 15TH
 CENTURY MONK, BASILIUS VALENTINUS
 Job cpu time:       0 days  0 hours  6 minutes  0.6 seconds.
 File lengths (MBytes):  RWF=     67 Int=      0 D2E=      0 Chk=      5 Scr=      1
 Normal termination of Gaussian 09 at Sat Aug  8 07:08:33 2020.
 Initial command:
 /prod/apps/gaussian/g09d1/l1.exe "/tmp/ubafar01/1449206/Gau-64032.inp" -scrdir="/tmp/ubafar01/1449206/"
 Entering Link 1 = /prod/apps/gaussian/g09d1/l1.exe PID=     65187.
  
 Copyright (c) 1988,1990,1992,1993,1995,1998,2003,2009,2013,
            Gaussian, Inc.  All Rights Reserved.
  
 This is part of the Gaussian(R) 09 program.  It is based on
 the Gaussian(R) 03 system (copyright 2003, Gaussian, Inc.),
 the Gaussian(R) 98 system (copyright 1998, Gaussian, Inc.),
 the Gaussian(R) 94 system (copyright 1995, Gaussian, Inc.),
 the Gaussian 92(TM) system (copyright 1992, Gaussian, Inc.),
 the Gaussian 90(TM) system (copyright 1990, Gaussian, Inc.),
 the Gaussian 88(TM) system (copyright 1988, Gaussian, Inc.),
 the Gaussian 86(TM) system (copyright 1986, Carnegie Mellon
 University), and the Gaussian 82(TM) system (copyright 1983,
 Carnegie Mellon University). Gaussian is a federally registered
 trademark of Gaussian, Inc.
  
 This software contains proprietary and confidential information,
 including trade secrets, belonging to Gaussian, Inc.
  
 This software is provided under written license and may be
 used, copied, transmitted, or stored only in accord with that
 written license.
  
 The following legend is applicable only to US Government
 contracts under FAR:
  
                    RESTRICTED RIGHTS LEGEND
  
 Use, reproduction and disclosure by the US Government is
 subject to restrictions as set forth in subparagraphs (a)
 and (c) of the Commercial Computer Software - Restricted
 Rights clause in FAR 52.227-19.
  
 Gaussian, Inc.
 340 Quinnipiac St., Bldg. 40, Wallingford CT 06492
  
  
 ---------------------------------------------------------------
 Warning -- This program may not be used in any manner that
[...]
    38  H    0.000000  -0.000003  -0.000002   0.000000   0.000000   0.000000
    39  H    0.000000   0.000043   0.000039  -0.000002   0.000000   0.000000
    40  H    0.000000   0.000000   0.000000   0.000000   0.000000   0.000000
              13         14         15         16         17         18
     1  O    0.000000   0.000000   0.000000   0.000000  -0.052561   0.001543
     2  S    0.000000   0.000000   0.000000   0.000000   0.181322  -0.013021
     3  N    0.000000   0.000000   0.000000  -0.000001  -0.061280  -0.000954
     4  C    0.000002   0.000000   0.000003   0.000298   0.000989   0.000113
     5  C    0.000000   0.000000   0.000000  -0.000012   0.000304  -0.000010
     6  S    0.000000   0.000000   0.000001   0.000008  -0.000010   0.000000
     7  O    0.000000   0.000000  -0.000001  -0.000353   0.000000   0.000000
     8  C    0.000000   0.000000   0.000000   0.000007  -0.000148   0.000003
     9  C   -0.000106  -0.000002   0.000222  -0.003728  -0.000134  -0.000006
    10  C    0.007356   0.000354   0.006482  -0.064859   0.000004  -0.000001
    11  C   -0.020766  -0.034985  -0.017534   0.539657   0.000000   0.000000
    12  C    0.518258  -0.036901  -0.047672  -0.036657   0.000000   0.000000
    13  C    4.883928   0.549489  -0.026123  -0.048896   0.000000   0.000000
    14  C    0.549489   4.867557   0.544835  -0.035758   0.000000   0.000000
    15  C   -0.026123   0.544835   4.879498   0.522855   0.000000   0.000000
    16  C   -0.048896  -0.035758   0.522855   4.981221   0.000000   0.000000
    17  N    0.000000   0.000000   0.000000   0.000000   7.164366   0.275446
    18  C    0.000000   0.000000   0.000000   0.000000   0.275446   5.014512
    19  C    0.000000   0.000000   0.000000   0.000000   0.272870  -0.051864
    20  O    0.000000   0.000000   0.000000   0.000000  -0.057632  -0.006917
    21  H    0.000000   0.000000   0.000000   0.000005   0.000277   0.000077
    22  H    0.000000   0.000000   0.000000   0.000000   0.000001  -0.000001
    23  H    0.000000   0.000000   0.000000   0.000000  -0.000581   0.000002
    24  H    0.000000   0.000000   0.000000  -0.000008   0.000002   0.000000
    25  H    0.000000   0.000000   0.000000  -0.000001   0.000021  -0.000002
    26  H   -0.000065  -0.000005  -0.000032  -0.000163  -0.000018  -0.000001
    27  H   -0.000013   0.000005  -0.000197   0.003949   0.000001   0.000000
    28  H   -0.000218   0.000022   0.000011  -0.004195   0.000000   0.000000
    29  H    0.000146   0.000005  -0.000187   0.004529   0.000006  -0.000005
    30  H   -0.045299   0.004827   0.000289   0.006350   0.000000   0.000000
    31  H    0.358775  -0.042722   0.004552   0.000786   0.000000   0.000000
    32  H   -0.042735   0.361330  -0.042550   0.004724   0.000000   0.000000
    33  H    0.004520  -0.042577   0.359050  -0.038858   0.000000   0.000000
    34  H    0.000285   0.004826  -0.043226   0.355442   0.000000   0.000000
    35  H    0.000000   0.000000   0.000000   0.000000  -0.033447   0.375880
    36  H    0.000000   0.000000   0.000000   0.000000  -0.034143   0.377961
    37  H    0.000000   0.000000   0.000000   0.000000  -0.048461   0.369403
    38  H    0.000000   0.000000   0.000000   0.000000  -0.033041   0.004659
    39  H    0.000000   0.000000   0.000000   0.000000  -0.047114  -0.002046
    40  H    0.000000   0.000000   0.000000   0.000000  -0.033401  -0.003737
              19         20         21         22         23         24
     1  O   -0.004867  -0.038347   0.001481   0.000238   0.011016   0.000223
     2  S   -0.012756   0.461985  -0.008808   0.000302   0.002249   0.000231
     3  N   -0.001524  -0.059603   0.290344   0.001518  -0.004354   0.001784
     4  C   -0.000292  -0.000227  -0.030300  -0.030336  -0.025838  -0.029468
     5  C   -0.000171  -0.000049   0.004467   0.352757   0.325839   0.010414
     6  S    0.000007  -0.000007  -0.000351  -0.017947  -0.005860  -0.017661
     7  O    0.000000   0.000000   0.000002  -0.000057   0.001179   0.000147
     8  C   -0.000009   0.000516   0.001298   0.010417   0.002112   0.347950
     9  C    0.000001  -0.000103  -0.009935  -0.005923   0.004284  -0.006627
    10  C    0.000000  -0.000026   0.007781   0.000131  -0.000114   0.001962
    11  C    0.000000   0.000000  -0.000118  -0.000009   0.000001  -0.000077
    12  C    0.000000   0.000000  -0.000028   0.000000   0.000000   0.000001
    13  C    0.000000   0.000000   0.000000   0.000000   0.000000   0.000000
    14  C    0.000000   0.000000   0.000000   0.000000   0.000000   0.000000
    15  C    0.000000   0.000000   0.000000   0.000000   0.000000   0.000000
    16  C    0.000000   0.000000   0.000005   0.000000   0.000000  -0.000008
    17  N    0.272870  -0.057632   0.000277   0.000001  -0.000581   0.000002
    18  C   -0.051864  -0.006917   0.000077  -0.000001   0.000002   0.000000
    19  C    5.012990   0.001605   0.000141  -0.000051   0.000509   0.000000
    20  O    0.001605   8.231231   0.005311   0.000001   0.000006  -0.000017
    21  H    0.000141   0.005311   0.363160  -0.000037  -0.000017   0.000254
    22  H   -0.000051   0.000001  -0.000037   0.501551  -0.018221  -0.000331
    23  H    0.000509   0.000006  -0.000017  -0.018221   0.487978  -0.000293
    24  H    0.000000  -0.000017   0.000254  -0.000331  -0.000293   0.500726
    25  H    0.000001  -0.000661  -0.000115  -0.000309  -0.000038  -0.017409
    26  H   -0.000007   0.000002   0.000190   0.004303  -0.000011   0.000090
    27  H    0.000000   0.000001   0.000400   0.000462   0.000200  -0.000355
    28  H    0.000000   0.000001  -0.000084   0.000013   0.000000   0.006717
    29  H    0.000000  -0.000017   0.010530  -0.000001   0.000002  -0.000011
    30  H    0.000000   0.000000   0.000031   0.000000   0.000000   0.000000
    31  H    0.000000   0.000000   0.000000   0.000000   0.000000   0.000000
    32  H    0.000000   0.000000   0.000000   0.000000   0.000000   0.000000
    33  H    0.000000   0.000000   0.000000   0.000000   0.000000   0.000000
    34  H    0.000000   0.000000   0.000001   0.000000   0.000000   0.000283
    35  H    0.004569   0.009681   0.000067   0.000000  -0.000001   0.000000
    36  H   -0.003599   0.000131  -0.000010   0.000000  -0.000001   0.000000
    37  H   -0.002189  -0.000062   0.000469   0.000001   0.000004   0.000000
    38  H    0.376797   0.000007  -0.000013  -0.000029   0.001301   0.000000
    39  H    0.368099  -0.000043   0.000037   0.000201   0.000382   0.000000
    40  H    0.377536  -0.000050   0.000000   0.000002  -0.000001   0.000000
              25         26         27         28         29         30
     1  O    0.012836   0.000002   0.000001   0.000001   0.000001   0.000000
     2  S    0.003860  -0.000044   0.000034   0.000022  -0.000045   0.000000
     3  N   -0.007059  -0.002480   0.002958  -0.000560   0.000764  -0.000007
     4  C   -0.024466  -0.031887  -0.030494  -0.004661  -0.005274  -0.000019
     5  C    0.002077  -0.006209  -0.009783   0.000067  -0.000051   0.000000
     6  S   -0.005113  -0.000361   0.005172  -0.000124  -0.000023   0.000000
     7  O    0.001202   0.000296   0.028234   0.000080  -0.000004   0.000000
     8  C    0.324205   0.006444  -0.005279   0.003802   0.000026   0.000000
     9  C    0.004609   0.353716   0.350212  -0.044456  -0.036868   0.000150
    10  C   -0.000014  -0.037051  -0.033925   0.360936   0.352296  -0.011379
    11  C    0.000004  -0.000485  -0.003257  -0.026038  -0.030397  -0.044400
    12  C    0.000000   0.001920   0.000069   0.002359  -0.003889   0.355650
    13  C    0.000000  -0.000065  -0.000013  -0.000218   0.000146  -0.045299
    14  C    0.000000  -0.000005   0.000005   0.000022   0.000005   0.004827
    15  C    0.000000  -0.000032  -0.000197   0.000011  -0.000187   0.000289
    16  C   -0.000001  -0.000163   0.003949  -0.004195   0.004529   0.006350
    17  N    0.000021  -0.000018   0.000001   0.000000   0.000006   0.000000
    18  C   -0.000002  -0.000001   0.000000   0.000000  -0.000005   0.000000
    19  C    0.000001  -0.000007   0.000000   0.000000   0.000000   0.000000
    20  O   -0.000661   0.000002   0.000001   0.000001  -0.000017   0.000000
    21  H   -0.000115   0.000190   0.000400  -0.000084   0.010530   0.000031
    22  H   -0.000309   0.004303   0.000462   0.000013  -0.000001   0.000000
    23  H   -0.000038  -0.000011   0.000200   0.000000   0.000002   0.000000
    24  H   -0.017409   0.000090  -0.000355   0.006717  -0.000011   0.000000
    25  H    0.486447  -0.000128   0.000087  -0.000169  -0.000024   0.000000
    26  H   -0.000128   0.574470  -0.023151   0.005610  -0.005034   0.000131
    27  H    0.000087  -0.023151   0.513535  -0.002954   0.004579   0.000021
    28  H   -0.000169   0.005610  -0.002954   0.572159  -0.035136   0.000109
    29  H   -0.000024  -0.005034   0.004579  -0.035136   0.591084   0.007668
    30  H    0.000000   0.000131   0.000021   0.000109   0.007668   0.599045
    31  H    0.000000   0.000001   0.000000   0.000003  -0.000010  -0.005454
    32  H    0.000000   0.000000   0.000000   0.000000   0.000000  -0.000174
    33  H    0.000000   0.000000   0.000004  -0.000003   0.000003   0.000017
    34  H    0.000001   0.000092   0.002788   0.002932   0.000040  -0.000171
    35  H    0.000000   0.000000   0.000000   0.000000   0.000000   0.000000
    36  H    0.000000   0.000000   0.000000   0.000000   0.000000   0.000000
    37  H    0.000001   0.000040   0.000000   0.000000  -0.000007   0.000000
    38  H   -0.000006  -0.000001   0.000000   0.000000   0.000000   0.000000
    39  H    0.000003   0.000113  -0.000001   0.000000  -0.000001   0.000000
    40  H    0.000000   0.000000   0.000000   0.000000   0.000000   0.000000
              31         32         33         34         35         36
     1  O    0.000000   0.000000   0.000000   0.000000   0.000043  -0.000048
     2  S    0.000000   0.000000   0.000000   0.000000   0.000146   0.002528
     3  N    0.000000   0.000000   0.000000  -0.000001  -0.000561  -0.000087
     4  C    0.000000   0.000000   0.000000  -0.000184  -0.000001   0.000002
     5  C    0.000000   0.000000   0.000000   0.000008   0.000000   0.000000
     6  S    0.000000   0.000000   0.000000  -0.000025   0.000000   0.000000
     7  O    0.000000   0.000000   0.000000   0.001003   0.000000   0.000000
     8  C    0.000000   0.000000   0.000000  -0.000013  -0.000001   0.000000
     9  C    0.000001   0.000000   0.000000  -0.000470   0.000000   0.000000
    10  C   -0.000183   0.000006  -0.000185  -0.008706   0.000000   0.000000
    11  C    0.003776   0.000667   0.003609  -0.046928   0.000000   0.000000
    12  C   -0.038924   0.004684   0.000846   0.005946   0.000000   0.000000
    13  C    0.358775  -0.042735   0.004520   0.000285   0.000000   0.000000
    14  C   -0.042722   0.361330  -0.042577   0.004826   0.000000   0.000000
    15  C    0.004552  -0.042550   0.359050  -0.043226   0.000000   0.000000
    16  C    0.000786   0.004724  -0.038858   0.355442   0.000000   0.000000
    17  N    0.000000   0.000000   0.000000   0.000000  -0.033447  -0.034143
    18  C    0.000000   0.000000   0.000000   0.000000   0.375880   0.377961
    19  C    0.000000   0.000000   0.000000   0.000000   0.004569  -0.003599
    20  O    0.000000   0.000000   0.000000   0.000000   0.009681   0.000131
    21  H    0.000000   0.000000   0.000000   0.000001   0.000067  -0.000010
    22  H    0.000000   0.000000   0.000000   0.000000   0.000000   0.000000
    23  H    0.000000   0.000000   0.000000   0.000000  -0.000001  -0.000001
    24  H    0.000000   0.000000   0.000000   0.000283   0.000000   0.000000
    25  H    0.000000   0.000000   0.000000   0.000001   0.000000   0.000000
    26  H    0.000001   0.000000   0.000000   0.000092   0.000000   0.000000
    27  H    0.000000   0.000000   0.000004   0.002788   0.000000   0.000000
    28  H    0.000003   0.000000  -0.000003   0.002932   0.000000   0.000000
    29  H   -0.000010   0.000000   0.000003   0.000040   0.000000   0.000000
    30  H   -0.005454  -0.000174   0.000017  -0.000171   0.000000   0.000000
    31  H    0.584460  -0.005409  -0.000182   0.000017   0.000000   0.000000
    32  H   -0.005409   0.584978  -0.005336  -0.000171   0.000000   0.000000
    33  H   -0.000182  -0.005336   0.582712  -0.005473   0.000000   0.000000
    34  H    0.000017  -0.000171  -0.005473   0.589723   0.000000   0.000000
    35  H    0.000000   0.000000   0.000000   0.000000   0.494048  -0.020346
    36  H    0.000000   0.000000   0.000000   0.000000  -0.020346   0.524790
    37  H    0.000000   0.000000   0.000000   0.000000  -0.031218  -0.036854
    38  H    0.000000   0.000000   0.000000   0.000000  -0.000199   0.000012
    39  H    0.000000   0.000000   0.000000   0.000000  -0.000187  -0.001440
    40  H    0.000000   0.000000   0.000000   0.000000   0.000007   0.005115
              37         38         39         40
     1  O   -0.000049   0.009229  -0.000299   0.000138
     2  S   -0.009714  -0.002192  -0.009789   0.002530
     3  N    0.007062  -0.000658   0.008833  -0.000084
     4  C   -0.000060  -0.000011  -0.000292   0.000001
     5  C   -0.000019  -0.000224   0.000282   0.000013
     6  S    0.000000  -0.000009   0.000037   0.000000
     7  O    0.000000   0.000000   0.000000   0.000000
     8  C    0.000006  -0.000003   0.000043   0.000000
     9  C    0.000031  -0.000002   0.000039   0.000000
    10  C   -0.000004   0.000000  -0.000002   0.000000
    11  C    0.000000   0.000000   0.000000   0.000000
    12  C    0.000000   0.000000   0.000000   0.000000
    13  C    0.000000   0.000000   0.000000   0.000000
    14  C    0.000000   0.000000   0.000000   0.000000
    15  C    0.000000   0.000000   0.000000   0.000000
    16  C    0.000000   0.000000   0.000000   0.000000
    17  N   -0.048461  -0.033041  -0.047114  -0.033401
    18  C    0.369403   0.004659  -0.002046  -0.003737
    19  C   -0.002189   0.376797   0.368099   0.377536
    20  O   -0.000062   0.000007  -0.000043  -0.000050
    21  H    0.000469  -0.000013   0.000037   0.000000
    22  H    0.000001  -0.000029   0.000201   0.000002
    23  H    0.000004   0.001301   0.000382  -0.000001
    24  H    0.000000   0.000000   0.000000   0.000000
    25  H    0.000001  -0.000006   0.000003   0.000000
    26  H    0.000040  -0.000001   0.000113   0.000000
    27  H    0.000000   0.000000  -0.000001   0.000000
    28  H    0.000000   0.000000   0.000000   0.000000
    29  H   -0.000007   0.000000  -0.000001   0.000000
    30  H    0.000000   0.000000   0.000000   0.000000
    31  H    0.000000   0.000000   0.000000   0.000000
    32  H    0.000000   0.000000   0.000000   0.000000
    33  H    0.000000   0.000000   0.000000   0.000000
    34  H    0.000000   0.000000   0.000000   0.000000
    35  H   -0.031218  -0.000199  -0.000187   0.000007
    36  H   -0.036854   0.000012  -0.001440   0.005115
    37  H    0.581613  -0.000195   0.008845  -0.001427
    38  H   -0.000195   0.498494  -0.031408  -0.020717
    39  H    0.008845  -0.031408   0.574648  -0.035347
    40  H   -0.001427  -0.020717  -0.035347   0.524198
 Mulliken charges:
               1
     1  O   -0.583044
     2  S    1.349841
     3  N   -0.748571
     4  C    0.226734
     5  C   -0.481687
     6  S    0.744313
     7  O   -0.650354
     8  C   -0.486845
     9  C   -0.308321
    10  C   -0.383446
    11  C    0.171508
    12  C   -0.192789
    13  C   -0.138537
    14  C   -0.140300
    15  C   -0.140276
    16  C   -0.186343
    17  N   -0.493637
    18  C   -0.341034
    19  C   -0.337795
    20  O   -0.546719
    21  H    0.363494
    22  H    0.201356
    23  H    0.218264
    24  H    0.201473
    25  H    0.220160
    26  H    0.159714
    27  H    0.196698
    28  H    0.163755
    29  H    0.145306
    30  H    0.132613
    31  H    0.140514
    32  H    0.139984
    33  H    0.141854
    34  H    0.141982
    35  H    0.201519
    36  H    0.185989
    37  H    0.162784
    38  H    0.198210
    39  H    0.166407
    40  H    0.185226
 Sum of Mulliken charges =   0.00000
 Mulliken charges with hydrogens summed into heavy atoms:
               1
     1  O   -0.583044
     2  S    1.349841
     3  N   -0.385077
     4  C    0.226734
     5  C   -0.062066
     6  S    0.744313
     7  O   -0.650354
     8  C   -0.065213
     9  C    0.048091
    10  C   -0.074384
    11  C    0.171508
    12  C   -0.060176
    13  C    0.001976
    14  C   -0.000316
    15  C    0.001578
    16  C   -0.044361
    17  N   -0.493637
    18  C    0.209258
    19  C    0.212048
    20  O   -0.546719
 Electronic spatial extent (au):  <R**2>=           8347.0679
 Charge=              0.0000 electrons
 Dipole moment (field-independent basis, Debye):
    X=             -0.4631    Y=             -5.1309    Z=              3.1429  Tot=              6.0347
 Quadrupole moment (field-independent basis, Debye-Ang):
   XX=           -135.7126   YY=           -137.1486   ZZ=           -133.4691
   XY=             -1.5734   XZ=            -15.7636   YZ=             -8.6346
 Traceless Quadrupole moment (field-independent basis, Debye-Ang):
   XX=             -0.2692   YY=             -1.7052   ZZ=              1.9743
   XY=             -1.5734   XZ=            -15.7636   YZ=             -8.6346
 Octapole moment (field-independent basis, Debye-Ang**2):
  XXX=             30.3809  YYY=            -84.7818  ZZZ=             11.8251  XYY=            -46.1085
  XXY=            -31.0266  XXZ=             67.4204  XZZ=            -25.3768  YZZ=             16.7667
  YYZ=             -0.4575  XYZ=              3.2124
 Hexadecapole moment (field-independent basis, Debye-Ang**3):
 XXXX=          -7395.1498 YYYY=          -2709.2526 ZZZZ=           -678.4811 XXXY=            106.5829
 XXXZ=            -91.7397 YYYX=            -26.3711 YYYZ=            -54.7840 ZZZX=            -42.9551
 ZZZY=            -10.9100 XXYY=          -1619.2770 XXZZ=          -1463.2990 YYZZ=           -537.5118
 XXYZ=           -110.5984 YYXZ=            -29.9221 ZZXY=             14.4838
 N-N= 1.965257825716D+03 E-N=-7.780713477526D+03  KE= 1.628158412814D+03
 No NMR shielding tensors so no spin-rotation constants.
 Leave Link  601 at Sat Aug  8 07:13:05 2020, MaxMem=    33554432 cpu:         0.3
 (Enter /prod/apps/gaussian/g09d1/l9999.exe)
 1\1\GINC-PIRINEUS28\SP\RB3LYP\6-31G(d)\C13H20N2O3S2\UBAFAR01\08-Aug-20
 20\0\\#p b3lyp/6-31G(d) scrf=(iefpcm,read,solvent=n-Octanol) geom=allc
 heck guess=read\\SM37.n.4.pdb.xyz\\0,1\O,0,4.483,-1.822,0.891\S,0,4.94
 ,-0.73,0.029\N,0,3.858,-0.638,-1.265\C,0,2.912,-1.711,-1.612\C,0,1.829
 ,-1.99,-0.55\S,0,1.823,-3.822,-0.957\O,0,0.848,-4.095,-2.092\C,0,3.432
 ,-3.17,-1.655\C,0,2.238,-1.319,-2.938\C,0,3.169,-1.244,-4.16\C,0,2.404
 ,-1.012,-5.445\C,0,2.446,0.231,-6.088\C,0,1.73,0.455,-7.265\C,0,0.958,
 -0.567,-7.818\C,0,0.907,-1.811,-7.186\C,0,1.624,-2.03,-6.01\N,0,4.754,
 0.685,0.908\C,0,5.19,1.904,0.215\C,0,3.462,0.822,1.595\O,0,6.299,-0.70
 2,-0.513\H,0,4.35,-0.259,-2.071\H,0,0.859,-1.509,-0.682\H,0,2.196,-1.8
 89,0.47\H,0,3.686,-3.596,-2.626\H,0,4.212,-3.364,-0.919\H,0,1.733,-0.3
 58,-2.795\H,0,1.464,-2.07,-3.122\H,0,3.741,-2.176,-4.235\H,0,3.9,-0.43
 6,-4.046\H,0,3.051,1.027,-5.662\H,0,1.779,1.424,-7.749\H,0,0.402,-0.39
 7,-8.734\H,0,0.312,-2.613,-7.611\H,0,1.579,-3.002,-5.525\H,0,6.168,1.7
 38,-0.232\H,0,5.275,2.696,0.96\H,0,4.477,2.222,-0.557\H,0,3.249,-0.096
 ,2.14\H,0,2.643,1.044,0.898\H,0,3.556,1.644,2.306\\Version=AM64L-G09Re
 vD.01\State=1-A\HF=-1638.8594544\RMSD=3.902e-09\Dipole=-0.0966027,2.37
 22556,-0.0105676\Quadrupole=-11.5827315,5.7553331,5.8273984,-3.4264023
 ,-5.7887246,5.9970178\PG=C01 [X(C13H20N2O3S2)]\\@


 IT IS BETTER TO THINK YOU ARE HALF DRY THAN TO KNOW YOU
 ARE ALL WET.  -- SNOOPY
 Job cpu time:       0 days  0 hours  4 minutes 31.6 seconds.
 File lengths (MBytes):  RWF=    256 Int=      0 D2E=      0 Chk=      7 Scr=      1
 Normal termination of Gaussian 09 at Sat Aug  8 07:13:05 2020.
