 Entering Gaussian System, Link 0=g09
 Initial command:
 /prod/apps/gaussian/g09d1/l1.exe "/tmp/ubafar01/1449169/Gau-143736.inp" -scrdir="/tmp/ubafar01/1449169/"
 Entering Link 1 = /prod/apps/gaussian/g09d1/l1.exe PID=    143737.
  
 Copyright (c) 1988,1990,1992,1993,1995,1998,2003,2009,2013,
            Gaussian, Inc.  All Rights Reserved.
  
 This is part of the Gaussian(R) 09 program.  It is based on
 the Gaussian(R) 03 system (copyright 2003, Gaussian, Inc.),
 the Gaussian(R) 98 system (copyright 1998, Gaussian, Inc.),
 the Gaussian(R) 94 system (copyright 1995, Gaussian, Inc.),
 the Gaussian 92(TM) system (copyright 1992, Gaussian, Inc.),
 the Gaussian 90(TM) system (copyright 1990, Gaussian, Inc.),
 the Gaussian 88(TM) system (copyright 1988, Gaussian, Inc.),
 the Gaussian 86(TM) system (copyright 1986, Carnegie Mellon
 University), and the Gaussian 82(TM) system (copyright 1983,
 Carnegie Mellon University). Gaussian is a federally registered
 trademark of Gaussian, Inc.
  
 This software contains proprietary and confidential information,
 including trade secrets, belonging to Gaussian, Inc.
  
 This software is provided under written license and may be
 used, copied, transmitted, or stored only in accord with that
 written license.
  
 The following legend is applicable only to US Government
 contracts under FAR:
  
                    RESTRICTED RIGHTS LEGEND
  
 Use, reproduction and disclosure by the US Government is
 subject to restrictions as set forth in subparagraphs (a)
 and (c) of the Commercial Computer Software - Restricted
 Rights clause in FAR 52.227-19.
  
 Gaussian, Inc.
 340 Quinnipiac St., Bldg. 40, Wallingford CT 06492
  
  
 ---------------------------------------------------------------
 Warning -- This program may not be used in any manner that
 competes with the business of Gaussian, Inc. or will provide
 assistance to any competitor of Gaussian, Inc.  The licensee
 of this program is prohibited from giving any competitor of
 Gaussian, Inc. access to this program.  By using this program,
 the user acknowledges that Gaussian, Inc. is engaged in the
 business of creating and licensing software in the field of
 computational chemistry and represents and warrants to the
 licensee that it is not a competitor of Gaussian, Inc. and that
 it will not use this program in any manner prohibited above.
 ---------------------------------------------------------------
  

 Cite this work as:
 Gaussian 09, Revision D.01,
 M. J. Frisch, G. W. Trucks, H. B. Schlegel, G. E. Scuseria, 
 M. A. Robb, J. R. Cheeseman, G. Scalmani, V. Barone, B. Mennucci, 
 G. A. Petersson, H. Nakatsuji, M. Caricato, X. Li, H. P. Hratchian, 
 A. F. Izmaylov, J. Bloino, G. Zheng, J. L. Sonnenberg, M. Hada, 
 M. Ehara, K. Toyota, R. Fukuda, J. Hasegawa, M. Ishida, T. Nakajima, 
 Y. Honda, O. Kitao, H. Nakai, T. Vreven, J. A. Montgomery, Jr., 
 J. E. Peralta, F. Ogliaro, M. Bearpark, J. J. Heyd, E. Brothers, 
 K. N. Kudin, V. N. Staroverov, T. Keith, R. Kobayashi, J. Normand, 
 K. Raghavachari, A. Rendell, J. C. Burant, S. S. Iyengar, J. Tomasi, 
 M. Cossi, N. Rega, J. M. Millam, M. Klene, J. E. Knox, J. B. Cross, 
 V. Bakken, C. Adamo, J. Jaramillo, R. Gomperts, R. E. Stratmann, 
 O. Yazyev, A. J. Austin, R. Cammi, C. Pomelli, J. W. Ochterski, 
 R. L. Martin, K. Morokuma, V. G. Zakrzewski, G. A. Voth, 
 P. Salvador, J. J. Dannenberg, S. Dapprich, A. D. Daniels, 
 O. Farkas, J. B. Foresman, J. V. Ortiz, J. Cioslowski, 
 and D. J. Fox, Gaussian, Inc., Wallingford CT, 2013.
 
 ******************************************
 Gaussian 09:  AM64L-G09RevD.01 24-Apr-2013
                 8-Aug-2020 
 ******************************************
 %nproc=1
 Will use up to    1 processors via shared memory.
 %Chk=SM37.n.11.pdb.xyz.mst.n.w.chk
 -----------------
 #p b3lyp/6-31G(d)
 -----------------
 1/38=1/1;
 2/12=2,17=6,18=5,40=1/2;
 3/5=1,6=6,7=1,11=2,16=1,25=1,30=1,74=-5/1,2,3;
 4//1;
 5/5=2,38=5/2;
 6/7=2,8=2,9=2,10=2,28=1/1;
 99/5=1,9=1/99;
 Leave Link    1 at Sat Aug  8 02:34:59 2020, MaxMem=           0 cpu:         0.0
 (Enter /prod/apps/gaussian/g09d1/l101.exe)
 -----------------
 SM37.n.11.pdb.xyz
 -----------------
 Symbolic Z-matrix:
 Charge =  0 Multiplicity = 1
 O                     4.104    -1.448     1.211 
 S                     4.618    -0.58      0.136 
 N                     3.507    -0.658    -1.099 
 C                     2.801    -1.9      -1.456 
 C                     1.677    -2.278    -0.464 
 S                     2.021    -4.102    -0.657 
 O                     1.206    -4.657    -1.824 
 C                     3.552    -3.255    -1.313 
 C                     2.192    -1.704    -2.859 
 C                     3.141    -1.378    -4.033 
 C                     4.128    -2.458    -4.428 
 C                     3.696    -3.625    -5.076 
 C                     4.605    -4.619    -5.441 
 C                     5.966    -4.459    -5.171 
 C                     6.41     -3.299    -4.535 
 C                     5.496    -2.308    -4.17 
 N                     4.501     1.06      0.47 
 C                     3.211     1.46      1.053 
 C                     5.668     1.629     1.171 
 O                     5.999    -0.815    -0.313 
 H                     3.841    -0.108    -1.891 
 H                     0.657    -1.998    -0.73 
 H                     1.913    -2.001     0.563 
 H                     3.949    -3.717    -2.213 
 H                     4.29     -3.259    -0.51 
 H                     1.461    -0.892    -2.78 
 H                     1.629    -2.617    -3.077 
 H                     3.693    -0.453    -3.836 
 H                     2.495    -1.155    -4.89 
 H                     2.64     -3.756    -5.296 
 H                     4.251    -5.514    -5.942 
 H                     6.673    -5.231    -5.457 
 H                     7.467    -3.162    -4.324 
 H                     5.845    -1.408    -3.671 
 H                     2.403     1.032     0.46 
 H                     3.15      2.548     1. 
 H                     3.11      1.146     2.098 
 H                     6.581     1.324     0.664 
 H                     5.711     1.326     2.225 
 H                     5.574     2.715     1.12 
 
 NAtoms=     40 NQM=       40 NQMF=       0 NMMI=      0 NMMIF=      0
                NMic=       0 NMicF=      0.
                    Isotopes and Nuclear Properties:
 (Nuclear quadrupole moments (NQMom) in fm**2, nuclear magnetic moments (NMagM)
  in nuclear magnetons)

  Atom         1           2           3           4           5           6           7           8           9          10
 IAtWgt=          16          32          14          12          12          32          16          12          12          12
 AtmWgt=  15.9949146  31.9720718  14.0030740  12.0000000  12.0000000  31.9720718  15.9949146  12.0000000  12.0000000  12.0000000
 NucSpn=           0           0           2           0           0           0           0           0           0           0
 AtZEff=   0.0000000   0.0000000   0.0000000   0.0000000   0.0000000   0.0000000   0.0000000   0.0000000   0.0000000   0.0000000
 NQMom=    0.0000000   0.0000000   2.0440000   0.0000000   0.0000000   0.0000000   0.0000000   0.0000000   0.0000000   0.0000000
 NMagM=    0.0000000   0.0000000   0.4037610   0.0000000   0.0000000   0.0000000   0.0000000   0.0000000   0.0000000   0.0000000
 AtZNuc=   8.0000000  16.0000000   7.0000000   6.0000000   6.0000000  16.0000000   8.0000000   6.0000000   6.0000000   6.0000000

  Atom        11          12          13          14          15          16          17          18          19          20
 IAtWgt=          12          12          12          12          12          12          14          12          12          16
 AtmWgt=  12.0000000  12.0000000  12.0000000  12.0000000  12.0000000  12.0000000  14.0030740  12.0000000  12.0000000  15.9949146
 NucSpn=           0           0           0           0           0           0           2           0           0           0
 AtZEff=   0.0000000   0.0000000   0.0000000   0.0000000   0.0000000   0.0000000   0.0000000   0.0000000   0.0000000   0.0000000
 NQMom=    0.0000000   0.0000000   0.0000000   0.0000000   0.0000000   0.0000000   2.0440000   0.0000000   0.0000000   0.0000000
 NMagM=    0.0000000   0.0000000   0.0000000   0.0000000   0.0000000   0.0000000   0.4037610   0.0000000   0.0000000   0.0000000
 AtZNuc=   6.0000000   6.0000000   6.0000000   6.0000000   6.0000000   6.0000000   7.0000000   6.0000000   6.0000000   8.0000000

  Atom        21          22          23          24          25          26          27          28          29          30
 IAtWgt=           1           1           1           1           1           1           1           1           1           1
 AtmWgt=   1.0078250   1.0078250   1.0078250   1.0078250   1.0078250   1.0078250   1.0078250   1.0078250   1.0078250   1.0078250
 NucSpn=           1           1           1           1           1           1           1           1           1           1
 AtZEff=   0.0000000   0.0000000   0.0000000   0.0000000   0.0000000   0.0000000   0.0000000   0.0000000   0.0000000   0.0000000
 NQMom=    0.0000000   0.0000000   0.0000000   0.0000000   0.0000000   0.0000000   0.0000000   0.0000000   0.0000000   0.0000000
 NMagM=    2.7928460   2.7928460   2.7928460   2.7928460   2.7928460   2.7928460   2.7928460   2.7928460   2.7928460   2.7928460
 AtZNuc=   1.0000000   1.0000000   1.0000000   1.0000000   1.0000000   1.0000000   1.0000000   1.0000000   1.0000000   1.0000000

  Atom        31          32          33          34          35          36          37          38          39          40
 IAtWgt=           1           1           1           1           1           1           1           1           1           1
 AtmWgt=   1.0078250   1.0078250   1.0078250   1.0078250   1.0078250   1.0078250   1.0078250   1.0078250   1.0078250   1.0078250
 NucSpn=           1           1           1           1           1           1           1           1           1           1
 AtZEff=   0.0000000   0.0000000   0.0000000   0.0000000   0.0000000   0.0000000   0.0000000   0.0000000   0.0000000   0.0000000
 NQMom=    0.0000000   0.0000000   0.0000000   0.0000000   0.0000000   0.0000000   0.0000000   0.0000000   0.0000000   0.0000000
 NMagM=    2.7928460   2.7928460   2.7928460   2.7928460   2.7928460   2.7928460   2.7928460   2.7928460   2.7928460   2.7928460
 AtZNuc=   1.0000000   1.0000000   1.0000000   1.0000000   1.0000000   1.0000000   1.0000000   1.0000000   1.0000000   1.0000000
 Leave Link  101 at Sat Aug  8 02:34:59 2020, MaxMem=    33554432 cpu:         0.1
 (Enter /prod/apps/gaussian/g09d1/l202.exe)
                          Input orientation:                          
 ---------------------------------------------------------------------
 Center     Atomic      Atomic             Coordinates (Angstroms)
 Number     Number       Type             X           Y           Z
 ---------------------------------------------------------------------
      1          8           0        4.104000   -1.448000    1.211000
      2         16           0        4.618000   -0.580000    0.136000
      3          7           0        3.507000   -0.658000   -1.099000
      4          6           0        2.801000   -1.900000   -1.456000
      5          6           0        1.677000   -2.278000   -0.464000
      6         16           0        2.021000   -4.102000   -0.657000
      7          8           0        1.206000   -4.657000   -1.824000
      8          6           0        3.552000   -3.255000   -1.313000
      9          6           0        2.192000   -1.704000   -2.859000
     10          6           0        3.141000   -1.378000   -4.033000
     11          6           0        4.128000   -2.458000   -4.428000
     12          6           0        3.696000   -3.625000   -5.076000
     13          6           0        4.605000   -4.619000   -5.441000
     14          6           0        5.966000   -4.459000   -5.171000
     15          6           0        6.410000   -3.299000   -4.535000
     16          6           0        5.496000   -2.308000   -4.170000
     17          7           0        4.501000    1.060000    0.470000
     18          6           0        3.211000    1.460000    1.053000
     19          6           0        5.668000    1.629000    1.171000
     20          8           0        5.999000   -0.815000   -0.313000
     21          1           0        3.841000   -0.108000   -1.891000
     22          1           0        0.657000   -1.998000   -0.730000
     23          1           0        1.913000   -2.001000    0.563000
     24          1           0        3.949000   -3.717000   -2.213000
     25          1           0        4.290000   -3.259000   -0.510000
     26          1           0        1.461000   -0.892000   -2.780000
     27          1           0        1.629000   -2.617000   -3.077000
     28          1           0        3.693000   -0.453000   -3.836000
     29          1           0        2.495000   -1.155000   -4.890000
     30          1           0        2.640000   -3.756000   -5.296000
     31          1           0        4.251000   -5.514000   -5.942000
     32          1           0        6.673000   -5.231000   -5.457000
     33          1           0        7.467000   -3.162000   -4.324000
     34          1           0        5.845000   -1.408000   -3.671000
     35          1           0        2.403000    1.032000    0.460000
     36          1           0        3.150000    2.548000    1.000000
     37          1           0        3.110000    1.146000    2.098000
     38          1           0        6.581000    1.324000    0.664000
     39          1           0        5.711000    1.326000    2.225000
     40          1           0        5.574000    2.715000    1.120000
 ---------------------------------------------------------------------
                    Distance matrix (angstroms):
                    1          2          3          4          5
     1  O    0.000000
     2  S    1.474193   0.000000
     3  N    2.513286   1.663018   0.000000
     4  C    3.002499   2.752881   1.472565   0.000000
     5  C    3.063471   3.448577   2.525178   1.546067   0.000000
     6  S    3.856427   4.447217   3.776863   2.468928   1.866162
     7  O    5.282737   5.666152   4.670356   3.206322   2.780482
     8  C    3.152860   3.223598   2.606191   1.555788   2.278367
     9  C    4.504018   4.014832   2.433298   1.541981   2.516093
    10  C    5.332148   4.494318   3.043142   2.651229   3.961194
    11  C    5.728787   4.959544   3.835086   3.302284   4.664022
    12  C    6.665745   6.106313   4.965414   4.108655   5.211652
    13  C    7.386159   6.885973   5.978971   5.150495   6.230890
    14  C    7.298157   6.710290   6.088963   5.510620   6.731131
    15  C    6.462225   5.694073   5.216166   4.945940   6.325881
    16  C    5.624271   4.722129   4.013684   3.846464   5.321663
    17  N    2.645138   1.677750   2.530083   3.919321   4.470970
    18  C    3.046125   2.642374   3.033916   4.213405   4.315911
    19  C    3.451902   2.655825   3.879844   5.251158   5.819446
    20  O    2.512825   1.471050   2.617730   3.565232   4.565397
    21  H    3.389273   2.221540   1.020451   2.117094   3.380551
    22  H    3.993969   4.295370   3.170845   2.265704   1.090668
    23  H    2.350786   3.085222   2.665845   2.207964   1.089566
    24  H    4.110494   3.975693   3.285398   2.278693   3.208069
    25  H    2.505226   2.775237   2.779426   2.226863   2.791459
    26  H    4.818990   4.308950   2.658314   2.136502   2.707676
    27  H    5.087153   4.838064   3.358132   2.124927   2.635336
    28  H    5.160538   4.080262   2.750962   2.924700   4.331889
    29  H    6.316402   5.486204   3.955102   3.527183   4.638936
    30  H    7.057706   6.595914   5.288109   4.268051   5.143936
    31  H    8.229178   7.837163   6.898472   5.940344   6.863356
    32  H    8.085362   7.558867   7.065978   6.488139   7.655735
    33  H    6.699537   5.888559   5.687903   5.620465   7.014639
    34  H    5.183301   4.084650   3.555830   3.796607   5.330476
    35  H    3.099645   2.758577   2.550568   3.525065   3.512400
    36  H    4.113715   3.561728   3.848595   5.092980   5.253884
    37  H    2.916100   3.017049   3.692267   4.690897   4.510112
    38  H    3.757489   2.785205   4.060292   5.401572   6.188377
    39  H    3.362398   3.031733   4.454531   5.694290   6.040918
    40  H    4.415852   3.569204   4.535811   5.968545   6.528837
                    6          7          8          9         10
     6  S    0.000000
     7  O    1.527789   0.000000
     8  C    1.868611   2.780367   0.000000
     9  C    3.260130   3.280797   2.577851   0.000000
    10  C    4.480173   4.401789   3.330233   1.544394   0.000000
    11  C    4.621972   4.489376   3.266529   2.603531   1.515452
    12  C    4.749812   4.223817   3.783888   3.296566   2.538677
    13  C    5.461776   4.963601   4.473219   4.581104   3.824898
    14  C    6.005553   5.822303   4.707566   5.213295   4.332232
    15  C    5.911600   6.022898   4.307132   4.810876   3.824736
    16  C    5.256922   5.424538   3.583070   3.605545   2.535684
    17  N    5.836675   6.985954   4.764338   4.904428   5.298156
    18  C    5.939364   7.050875   5.286347   5.133517   5.824649
    19  C    7.034668   8.270022   5.873769   6.279519   6.519923
    20  O    5.171768   6.325894   3.597417   4.665371   4.724779
    21  H    4.559297   5.257482   3.212665   2.490671   2.586709
    22  H    2.508514   2.927203   3.209511   2.641080   4.179051
    23  H    2.431926   3.640323   2.788945   3.446177   4.797846
    24  H    2.507298   2.925572   1.086763   2.748915   3.071837
    25  H    2.424999   3.632087   1.090628   3.512468   4.155706
    26  H    3.889065   3.892838   3.479675   1.095420   2.151419
    27  H    2.866233   2.431160   2.686386   1.094560   2.176052
    28  H    5.120237   5.282701   3.773144   2.184612   1.095052
    29  H    5.179553   4.829687   4.280441   2.125599   1.096127
    30  H    4.692888   3.863022   4.116678   3.217200   2.738805
    31  H    5.907442   5.192725   5.198011   5.316058   4.688590
    32  H    6.779067   6.589101   5.551392   6.266474   5.417417
    33  H    6.632451   6.905443   4.939838   5.665476   4.688455
    34  H    5.564603   5.957158   3.772191   3.753847   2.728289
    35  H    5.267976   6.246134   4.779341   4.306504   5.151679
    36  H    6.945703   7.979106   6.259903   5.821439   6.383153
    37  H    6.026396   7.258244   5.585614   5.791120   6.630286
    38  H    7.209724   8.417430   5.835290   6.390902   6.418428
    39  H    7.168348   8.513854   6.177725   6.885588   7.285539
    40  H    7.890059   9.060516   6.756395   6.840901   7.016092
                   11         12         13         14         15
    11  C    0.000000
    12  C    1.403003   0.000000
    13  C    2.433849   1.395544   0.000000
    14  C    2.816788   2.420223   1.396718   0.000000
    15  C    2.434390   2.786531   2.412729   1.395433   0.000000
    16  C    1.400174   2.407348   2.783890   2.418616   1.396675
    17  N    6.042008   7.304476   8.197669   8.026610   6.906170
    18  C    6.799483   7.978539   9.003861   9.020131   8.006711
    19  C    7.100984   8.397518   9.158931   8.796221   7.575895
    20  O    4.809710   5.990499   6.535292   6.072890   4.915736
    21  H    3.470049   4.747056   5.790969   5.848523   4.875754
    22  H    5.092607   5.547104   6.682056   7.346052   7.019091
    23  H    5.479521   6.133089   7.081582   7.439579   6.920796
    24  H    2.554084   2.875629   3.415249   3.656312   3.409242
    25  H    4.002320   4.618999   5.124801   5.096459   4.549354
    26  H    3.504447   4.211428   5.554834   6.223777   5.776355
    27  H    2.845256   3.047057   4.295704   5.156294   5.044685
    28  H    2.135349   3.405759   4.556679   4.795497   3.996299
    29  H    2.139613   2.752798   4.093287   4.800335   4.477721
    30  H    2.156936   1.086599   2.151051   3.401780   3.873096
    31  H    3.412691   2.150884   1.085054   2.156082   3.398111
    32  H    3.901973   3.403957   2.156716   1.085186   2.156821
    33  H    3.413994   3.873024   3.400233   2.156993   1.086526
    34  H    2.150265   3.392243   3.870532   3.401947   2.154438
    35  H    6.248861   7.348931   8.461939   8.634478   7.730694
    36  H    7.448470   8.678814   9.745224   9.752392   8.686267
    37  H    7.524215   8.635515   9.607641   9.613070   8.639717
    38  H    6.800676   8.109465   8.746133   8.238236   6.959236
    39  H    7.815814   9.048604   9.763904   9.393193   8.220513
    40  H    7.722121   9.061617   9.888035   9.549692   8.297356
                   16         17         18         19         20
    16  C    0.000000
    17  N    5.819197   0.000000
    18  C    6.833650   1.471050   0.000000
    19  C    6.637457   1.475483   2.465631   0.000000
    20  O    4.166354   2.524424   3.848964   2.878359   0.000000
    21  H    3.573915   2.715538   3.394504   3.966225   2.765302
    22  H    5.945218   5.056451   4.654006   6.471403   5.487289
    23  H    5.944193   4.009503   3.728730   5.258002   4.343889
    24  H    2.865020   5.506625   6.165446   6.556381   4.029157
    25  H    3.969186   4.433811   5.086863   5.349504   2.988750
    26  H    4.496485   4.859465   4.825587   6.297991   5.165797
    27  H    4.030362   5.860881   6.015110   7.237924   5.475747
    28  H    2.608331   4.635048   5.272022   5.771083   4.226134
    29  H    3.294512   6.136763   6.532238   7.386089   5.774300
    30  H    3.394306   7.739763   8.236656   8.943662   6.690490
    31  H    3.868907   9.186605   9.932185  10.179642   7.538020
    32  H    3.403767   8.911992   9.956657   9.591664   6.812934
    33  H    2.153572   7.043073   8.269737   7.509002   4.873557
    34  H    1.086647   5.004522   6.122055   5.718362   3.413434
    35  H    6.493008   2.098211   1.089815   3.394430   4.115842
    36  H    7.470833   2.078520   1.090997   2.685913   4.598972
    37  H    7.543934   2.143049   1.095820   2.763328   4.243202
    38  H    6.142980   2.105643   3.395102   1.087954   2.422514
    39  H    7.358546   2.148227   2.764334   1.097531   3.332907
    40  H    7.295253   2.076741   2.676431   1.091253   3.833408
                   21         22         23         24         25
    21  H    0.000000
    22  H    3.880448   0.000000
    23  H    3.650034   1.802608   0.000000
    24  H    3.624945   3.998939   3.846574   0.000000
    25  H    3.469519   3.851910   2.895518   1.796178   0.000000
    26  H    2.658830   2.464174   3.551033   3.806870   4.331146
    27  H    3.548890   2.614642   3.702663   2.709040   3.752676
    28  H    1.980897   4.609941   4.991583   3.654225   4.392302
    29  H    3.449917   4.625418   5.548842   3.980489   5.180081
    30  H    5.132673   5.279319   6.159256   3.349611   5.086777
    31  H    6.767831   7.241825   7.753866   4.150404   5.881596
    32  H    6.854320   8.305966   8.326518   4.498434   5.834405
    33  H    5.328628   7.787672   7.488498   4.140129   4.964810
    34  H    2.978996   5.992739   5.808531   3.324464   3.979466
    35  H    2.982389   3.693984   3.074052   5.664631   4.786894
    36  H    3.986188   5.465717   4.734400   7.086042   6.107450
    37  H    4.244879   4.888714   3.700357   6.552664   5.253388
    38  H    4.010767   6.933448   5.732020   6.373087   5.256505
    39  H    4.742859   6.732304   5.315635   6.944950   5.524644
    40  H    4.476465   7.057745   5.996151   7.424294   6.324099
                   26         27         28         29         30
    26  H    0.000000
    27  H    1.758425   0.000000
    28  H    2.507924   3.085299   0.000000
    29  H    2.364408   2.484828   1.743251   0.000000
    30  H    3.990337   2.691357   3.761678   2.636487   0.000000
    31  H    6.256615   4.845175   5.510020   4.815716   2.470466
    32  H    7.290967   6.159491   5.859806   5.864380   4.297282
    33  H    6.603701   5.994521   4.671178   5.391585   4.959592
    34  H    4.503287   4.425966   2.360160   3.573859   4.292523
    35  H    3.884165   5.140491   4.724928   5.780479   7.490838
    36  H    5.382817   6.753710   5.717320   6.988085   8.924132
    37  H    5.537827   6.567660   6.173252   7.382748   8.883791
    38  H    6.556386   7.351793   5.634561   7.327193   8.766954
    39  H    6.930516   7.766671   6.631205   8.192755   9.582443
    40  H    6.718424   7.849080   6.175461   7.783138   9.573257
                   31         32         33         34         35
    31  H    0.000000
    32  H    2.486242   0.000000
    33  H    4.300289   2.488953   0.000000
    34  H    4.955554   4.300082   2.476653   0.000000
    35  H    9.340815   9.616078   8.131444   5.904754   0.000000
    36  H   10.695766  10.705943   8.921074   6.688139   1.774222
    37  H   10.502337  10.509002   8.876058   6.876373   1.787705
    38  H    9.789095   8.969009   6.766782   5.176654   4.193157
    39  H   10.752539  10.145581   8.131118   6.500425   3.760921
    40  H   10.924221  10.373218   8.231629   6.326630   3.650114
                   36         37         38         39         40
    36  H    0.000000
    37  H    1.781238   0.000000
    38  H    3.658255   3.759771   0.000000
    39  H    3.090733   2.610312   1.787072   0.000000
    40  H    2.432707   3.080510   1.776757   1.780201   0.000000
 Stoichiometry    C13H20N2O3S2
 Framework group  C1[X(C13H20N2O3S2)]
 Deg. of freedom   114
 Full point group                 C1      NOp   1
 Largest Abelian subgroup         C1      NOp   1
 Largest concise Abelian subgroup C1      NOp   1
                         Standard orientation:                         
 ---------------------------------------------------------------------
 Center     Atomic      Atomic             Coordinates (Angstroms)
 Number     Number       Type             X           Y           Z
 ---------------------------------------------------------------------
      1          8           0       -2.507016    0.632253   -1.334175
      2         16           0       -2.243476   -0.546749   -0.489339
      3          7           0       -1.216960   -0.037845    0.716028
      4          6           0       -0.134562    0.932622    0.481381
      5          6           0       -0.632430    2.388955    0.334590
      6         16           0        0.670476    2.782135   -0.942283
      7          8           0        1.941748    3.265071   -0.246022
      8          6           0        0.601405    0.915555   -0.889216
      9          6           0        0.835393    0.848220    1.677111
     10          6           0        1.510598   -0.507028    1.981337
     11          6           0        2.480496   -1.030787    0.941352
     12          6           0        3.733072   -0.426230    0.757015
     13          6           0        4.626844   -0.909310   -0.199724
     14          6           0        4.285881   -2.013041   -0.984799
     15          6           0        3.046736   -2.629118   -0.805350
     16          6           0        2.154990   -2.140628    0.152183
     17          7           0       -3.542964   -1.002249    0.469147
     18          6           0       -4.217586    0.123090    1.134343
     19          6           0       -4.472141   -1.955005   -0.167983
     20          8           0       -1.779287   -1.767076   -1.167069
     21          1           0       -0.964765   -0.832312    1.304705
     22          1           0       -0.582635    3.028275    1.216829
     23          1           0       -1.605537    2.452817   -0.151349
     24          1           0        1.580105    0.445662   -0.938207
     25          1           0       -0.031536    0.594143   -1.717195
     26          1           0        0.273867    1.153175    2.566850
     27          1           0        1.597838    1.614591    1.505599
     28          1           0        0.756939   -1.276820    2.177690
     29          1           0        2.043526   -0.372306    2.929668
     30          1           0        4.010088    0.429141    1.367178
     31          1           0        5.591099   -0.428188   -0.326515
     32          1           0        4.981955   -2.389998   -1.727102
     33          1           0        2.772809   -3.491080   -1.407449
     34          1           0        1.189204   -2.620363    0.286026
     35          1           0       -3.469625    0.757465    1.609548
     36          1           0       -4.868511   -0.293221    1.904573
     37          1           0       -4.820366    0.718217    0.439144
     38          1           0       -3.908009   -2.776909   -0.603725
     39          1           0       -5.092145   -1.481361   -0.939885
     40          1           0       -5.122582   -2.342208    0.618041
 ---------------------------------------------------------------------
 Rotational constants (GHZ):      0.4176718      0.2037912      0.1624438
 Leave Link  202 at Sat Aug  8 02:34:59 2020, MaxMem=    33554432 cpu:         0.0
 (Enter /prod/apps/gaussian/g09d1/l301.exe)
 Standard basis: 6-31G(d) (6D, 7F)
 Ernie: Thresh=  0.10000D-02 Tol=  0.10000D-05 Strict=F.
 There are   348 symmetry adapted cartesian basis functions of A   symmetry.
 There are   348 symmetry adapted basis functions of A   symmetry.
   348 basis functions,   688 primitive gaussians,   348 cartesian basis functions
    84 alpha electrons       84 beta electrons
       nuclear repulsion energy      2029.8649788241 Hartrees.
 IExCor=  402 DFT=T Ex+Corr=B3LYP ExCW=0 ScaHFX=  0.200000
 ScaDFX=  0.800000  0.720000  1.000000  0.810000 ScalE2=  1.000000  1.000000
 IRadAn=      0 IRanWt=     -1 IRanGd=            0 ICorTp=0 IEmpDi=  4
 NAtoms=   40 NActive=   40 NUniq=   40 SFac= 1.00D+00 NAtFMM=   60 NAOKFM=F Big=F
 Integral buffers will be    131072 words long.
 Raffenetti 2 integral format.
 Two-electron integral symmetry is turned on.
 Leave Link  301 at Sat Aug  8 02:34:59 2020, MaxMem=    33554432 cpu:         0.0
 (Enter /prod/apps/gaussian/g09d1/l302.exe)
 NPDir=0 NMtPBC=     1 NCelOv=     1 NCel=       1 NClECP=     1 NCelD=      1
         NCelK=      1 NCelE2=     1 NClLst=     1 CellRange=     0.0.
 One-electron integrals computed using PRISM.
 NBasis=   348 RedAO= T EigKep=  4.69D-04  NBF=   348
 NBsUse=   348 1.00D-06 EigRej= -1.00D+00 NBFU=   348
 Precomputing XC quadrature grid using
 IXCGrd= 4 IRadAn=           0 IRanWt=          -1 IRanGd=           0 AccXCQ= 0.00D+00.
 Generated NRdTot=       0 NPtTot=           0 NUsed=           0 NTot=          32
 NSgBfM=   342   342   342   343   343 MxSgAt=    40 MxSgA2=    40.
 Leave Link  302 at Sat Aug  8 02:35:00 2020, MaxMem=    33554432 cpu:         1.2
 (Enter /prod/apps/gaussian/g09d1/l303.exe)
 DipDrv:  MaxL=1.
 Leave Link  303 at Sat Aug  8 02:35:00 2020, MaxMem=    33554432 cpu:         0.0
 (Enter /prod/apps/gaussian/g09d1/l401.exe)
 ExpMin= 1.17D-01 ExpMax= 2.19D+04 ExpMxC= 3.30D+03 IAcc=1 IRadAn=         1 AccDes= 0.00D+00
 Harris functional with IExCor=  402 and IRadAn=       1 diagonalized for initial guess.
 HarFok:  IExCor=  402 AccDes= 0.00D+00 IRadAn=         1 IDoV= 1 UseB2=F ITyADJ=14
 ICtDFT=  3500011 ScaDFX=  1.000000  1.000000  1.000000  1.000000
 FoFCou: FMM=F IPFlag=           0 FMFlag=      100000 FMFlg1=           0
         NFxFlg=           0 DoJE=T BraDBF=F KetDBF=T FulRan=T
         wScrn=  0.000000 ICntrl=     500 IOpCl=  0 I1Cent=   200000004 NGrid=           0
         NMat0=    1 NMatS0=      1 NMatT0=    0 NMatD0=    1 NMtDS0=    0 NMtDT0=    0
 Petite list used in FoFCou.
 Harris En= -1638.91063457441    
 JPrj=0 DoOrth=F DoCkMO=F.
 Leave Link  401 at Sat Aug  8 02:35:05 2020, MaxMem=    33554432 cpu:         5.2
 (Enter /prod/apps/gaussian/g09d1/l502.exe)
 Closed shell SCF:
 Using DIIS extrapolation, IDIIS=  1040.
 Integral symmetry usage will be decided dynamically.
 IVT=      386588 IEndB=      386588 NGot=    33554432 MDV=    33305937
 LenX=    33305937 LenY=    33184392
 Requested convergence on RMS density matrix=1.00D-08 within 128 cycles.
 Requested convergence on MAX density matrix=1.00D-06.
 Requested convergence on             energy=1.00D-06.
 No special actions if energy rises.
 Fock matrices will be formed incrementally for  20 cycles.
 Integral accuracy reduced to 1.0D-05 until final iterations.

 Cycle   1  Pass 0  IDiag  1:
 FoFJK:  IHMeth= 1 ICntrl=       0 DoSepK=F KAlg= 0 I1Cent=   0 FoldK=F
 IRaf= 780000000 NMat=   1 IRICut=       1 DoRegI=T DoRafI=F ISym2E= 0.
 FoFCou: FMM=F IPFlag=           0 FMFlag=      100000 FMFlg1=           0
         NFxFlg=           0 DoJE=F BraDBF=F KetDBF=F FulRan=T
         wScrn=  0.000000 ICntrl=       0 IOpCl=  0 I1Cent=           0 NGrid=           0
         NMat0=    1 NMatS0=      1 NMatT0=    0 NMatD0=    1 NMtDS0=    0 NMtDT0=    0
 Symmetry not used in FoFCou.
 E= -1638.04862585427    
 DIIS: error= 2.77D-02 at cycle   1 NSaved=   1.
 NSaved= 1 IEnMin= 1 EnMin= -1638.04862585427     IErMin= 1 ErrMin= 2.77D-02
 ErrMax= 2.77D-02  0.00D+00 EMaxC= 1.00D-01 BMatC= 8.90D-01 BMatP= 8.90D-01
 IDIUse=3 WtCom= 7.23D-01 WtEn= 2.77D-01
 Coeff-Com:  0.100D+01
 Coeff-En:   0.100D+01
 Coeff:      0.100D+01
 Gap=     0.325 Goal=   None    Shift=    0.000
 GapD=    0.325 DampG=1.000 DampE=0.500 DampFc=0.5000 IDamp=-1.
 Damping current iteration by 5.00D-01
 RMSDP=7.75D-03 MaxDP=5.98D-01              OVMax= 3.39D-01

 Cycle   2  Pass 0  IDiag  1:
 RMSU=  3.88D-03    CP:  9.99D-01
 E= -1638.18023677110     Delta-E=       -0.131610916827 Rises=F Damp=T
 DIIS: error= 1.39D-02 at cycle   2 NSaved=   2.
 NSaved= 2 IEnMin= 2 EnMin= -1638.18023677110     IErMin= 2 ErrMin= 1.39D-02
 ErrMax= 1.39D-02  0.00D+00 EMaxC= 1.00D-01 BMatC= 1.79D-01 BMatP= 8.90D-01
 IDIUse=3 WtCom= 8.61D-01 WtEn= 1.39D-01
 Coeff-Com:  0.264D+00 0.736D+00
 Coeff-En:   0.420D+00 0.580D+00
 Coeff:      0.286D+00 0.714D+00
 Gap=     0.352 Goal=   None    Shift=    0.000
 RMSDP=2.83D-03 MaxDP=1.36D-01 DE=-1.32D-01 OVMax= 2.45D-01

 Cycle   3  Pass 0  IDiag  1:
 RMSU=  2.08D-03    CP:  9.86D-01  5.09D-01
 E= -1638.69307610239     Delta-E=       -0.512839331293 Rises=F Damp=F
 DIIS: error= 1.49D-02 at cycle   3 NSaved=   3.
 NSaved= 3 IEnMin= 3 EnMin= -1638.69307610239     IErMin= 2 ErrMin= 1.39D-02
 ErrMax= 1.49D-02  0.00D+00 EMaxC= 1.00D-01 BMatC= 1.50D-01 BMatP= 1.79D-01
 IDIUse=3 WtCom= 8.51D-01 WtEn= 1.49D-01
 Coeff-Com:  0.117D+00 0.472D+00 0.411D+00
 Coeff-En:   0.000D+00 0.000D+00 0.100D+01
 Coeff:      0.997D-01 0.401D+00 0.499D+00
 Gap=     0.238 Goal=   None    Shift=    0.000
 RMSDP=1.90D-03 MaxDP=8.04D-02 DE=-5.13D-01 OVMax= 1.73D-01

 Cycle   4  Pass 0  IDiag  1:
 RMSU=  9.82D-04    CP:  9.94D-01  6.83D-01  2.91D-01
 E= -1638.80104036083     Delta-E=       -0.107964258439 Rises=F Damp=F
 DIIS: error= 8.29D-03 at cycle   4 NSaved=   4.
 NSaved= 4 IEnMin= 4 EnMin= -1638.80104036083     IErMin= 4 ErrMin= 8.29D-03
 ErrMax= 8.29D-03  0.00D+00 EMaxC= 1.00D-01 BMatC= 3.49D-02 BMatP= 1.50D-01
 IDIUse=3 WtCom= 9.17D-01 WtEn= 8.29D-02
 Coeff-Com:  0.219D-01 0.109D+00 0.325D+00 0.544D+00
 Coeff-En:   0.000D+00 0.000D+00 0.224D+00 0.776D+00
 Coeff:      0.201D-01 0.998D-01 0.316D+00 0.564D+00
 Gap=     0.220 Goal=   None    Shift=    0.000
 RMSDP=8.00D-04 MaxDP=3.98D-02 DE=-1.08D-01 OVMax= 7.19D-02

 Cycle   5  Pass 0  IDiag  1:
 RMSU=  3.36D-04    CP:  9.93D-01  6.19D-01  5.45D-01  5.60D-01
 E= -1638.82889882454     Delta-E=       -0.027858463709 Rises=F Damp=F
 DIIS: error= 2.57D-03 at cycle   5 NSaved=   5.
 NSaved= 5 IEnMin= 5 EnMin= -1638.82889882454     IErMin= 5 ErrMin= 2.57D-03
 ErrMax= 2.57D-03  0.00D+00 EMaxC= 1.00D-01 BMatC= 3.64D-03 BMatP= 3.49D-02
 IDIUse=3 WtCom= 9.74D-01 WtEn= 2.57D-02
 Coeff-Com:  0.543D-03 0.165D-01 0.146D+00 0.359D+00 0.478D+00
 Coeff-En:   0.000D+00 0.000D+00 0.000D+00 0.693D-01 0.931D+00
 Coeff:      0.529D-03 0.161D-01 0.142D+00 0.352D+00 0.489D+00
 Gap=     0.214 Goal=   None    Shift=    0.000
 RMSDP=2.40D-04 MaxDP=9.94D-03 DE=-2.79D-02 OVMax= 1.67D-02

 Cycle   6  Pass 0  IDiag  1:
 RMSU=  1.17D-04    CP:  9.93D-01  6.33D-01  5.11D-01  6.48D-01  4.99D-01
 E= -1638.83170214925     Delta-E=       -0.002803324708 Rises=F Damp=F
 DIIS: error= 6.25D-04 at cycle   6 NSaved=   6.
 NSaved= 6 IEnMin= 6 EnMin= -1638.83170214925     IErMin= 6 ErrMin= 6.25D-04
 ErrMax= 6.25D-04  0.00D+00 EMaxC= 1.00D-01 BMatC= 4.16D-04 BMatP= 3.64D-03
 IDIUse=3 WtCom= 9.94D-01 WtEn= 6.25D-03
 Coeff-Com: -0.166D-02-0.144D-02 0.430D-01 0.134D+00 0.304D+00 0.522D+00
 Coeff-En:   0.000D+00 0.000D+00 0.000D+00 0.000D+00 0.806D-01 0.919D+00
 Coeff:     -0.165D-02-0.143D-02 0.427D-01 0.133D+00 0.303D+00 0.525D+00
 Gap=     0.215 Goal=   None    Shift=    0.000
 RMSDP=7.20D-05 MaxDP=3.46D-03 DE=-2.80D-03 OVMax= 4.40D-03

 Cycle   7  Pass 0  IDiag  1:
 RMSU=  3.69D-05    CP:  9.93D-01  6.31D-01  5.15D-01  6.54D-01  5.82D-01
                    CP:  5.44D-01
 E= -1638.83202037716     Delta-E=       -0.000318227911 Rises=F Damp=F
 DIIS: error= 1.63D-04 at cycle   7 NSaved=   7.
 NSaved= 7 IEnMin= 7 EnMin= -1638.83202037716     IErMin= 7 ErrMin= 1.63D-04
 ErrMax= 1.63D-04  0.00D+00 EMaxC= 1.00D-01 BMatC= 3.02D-05 BMatP= 4.16D-04
 IDIUse=3 WtCom= 9.98D-01 WtEn= 1.63D-03
 Coeff-Com: -0.747D-03-0.247D-02 0.679D-02 0.300D-01 0.111D+00 0.286D+00
 Coeff-Com:  0.570D+00
 Coeff-En:   0.000D+00 0.000D+00 0.000D+00 0.000D+00 0.000D+00 0.000D+00
 Coeff-En:   0.100D+01
 Coeff:     -0.746D-03-0.247D-02 0.678D-02 0.299D-01 0.111D+00 0.285D+00
 Coeff:      0.571D+00
 Gap=     0.214 Goal=   None    Shift=    0.000
 RMSDP=1.90D-05 MaxDP=7.15D-04 DE=-3.18D-04 OVMax= 8.34D-04

 Cycle   8  Pass 0  IDiag  1:
 RMSU=  9.96D-06    CP:  9.93D-01  6.31D-01  5.15D-01  6.50D-01  5.87D-01
                    CP:  6.11D-01  6.29D-01
 E= -1638.83204731865     Delta-E=       -0.000026941489 Rises=F Damp=F
 DIIS: error= 3.31D-05 at cycle   8 NSaved=   8.
 NSaved= 8 IEnMin= 8 EnMin= -1638.83204731865     IErMin= 8 ErrMin= 3.31D-05
 ErrMax= 3.31D-05  0.00D+00 EMaxC= 1.00D-01 BMatC= 1.22D-06 BMatP= 3.02D-05
 IDIUse=1 WtCom= 1.00D+00 WtEn= 0.00D+00
 Coeff-Com: -0.109D-03-0.817D-03-0.198D-03 0.244D-02 0.248D-01 0.830D-01
 Coeff-Com:  0.242D+00 0.649D+00
 Coeff:     -0.109D-03-0.817D-03-0.198D-03 0.244D-02 0.248D-01 0.830D-01
 Coeff:      0.242D+00 0.649D+00
 Gap=     0.214 Goal=   None    Shift=    0.000
 RMSDP=5.21D-06 MaxDP=2.42D-04 DE=-2.69D-05 OVMax= 3.70D-04

 Initial convergence to 1.0D-05 achieved.  Increase integral accuracy.
 Cycle   9  Pass 1  IDiag  1:
 E= -1638.83229568132     Delta-E=       -0.000248362671 Rises=F Damp=F
 DIIS: error= 8.97D-05 at cycle   1 NSaved=   1.
 NSaved= 1 IEnMin= 1 EnMin= -1638.83229568132     IErMin= 1 ErrMin= 8.97D-05
 ErrMax= 8.97D-05  0.00D+00 EMaxC= 1.00D-01 BMatC= 1.05D-06 BMatP= 1.05D-06
 IDIUse=1 WtCom= 1.00D+00 WtEn= 0.00D+00
 Coeff-Com:  0.100D+01
 Coeff:      0.100D+01
 Gap=     0.214 Goal=   None    Shift=    0.000
 RMSDP=5.21D-06 MaxDP=2.42D-04 DE=-2.48D-04 OVMax= 4.98D-04

 Cycle  10  Pass 1  IDiag  1:
 RMSU=  3.37D-05    CP:  1.00D+00
 E= -1638.83229585097     Delta-E=       -0.000000169649 Rises=F Damp=F
 DIIS: error= 4.62D-05 at cycle   2 NSaved=   2.
 NSaved= 2 IEnMin= 2 EnMin= -1638.83229585097     IErMin= 2 ErrMin= 4.62D-05
 ErrMax= 4.62D-05  0.00D+00 EMaxC= 1.00D-01 BMatC= 9.37D-07 BMatP= 1.05D-06
 IDIUse=1 WtCom= 1.00D+00 WtEn= 0.00D+00
 Coeff-Com:  0.481D+00 0.519D+00
 Coeff:      0.481D+00 0.519D+00
 Gap=     0.214 Goal=   None    Shift=    0.000
 RMSDP=4.74D-06 MaxDP=1.35D-04 DE=-1.70D-07 OVMax= 5.21D-04

 Cycle  11  Pass 1  IDiag  1:
 RMSU=  4.72D-06    CP:  1.00D+00  9.85D-01
 E= -1638.83229655463     Delta-E=       -0.000000703664 Rises=F Damp=F
 DIIS: error= 2.67D-05 at cycle   3 NSaved=   3.
 NSaved= 3 IEnMin= 3 EnMin= -1638.83229655463     IErMin= 3 ErrMin= 2.67D-05
 ErrMax= 2.67D-05  0.00D+00 EMaxC= 1.00D-01 BMatC= 2.60D-07 BMatP= 9.37D-07
 IDIUse=1 WtCom= 1.00D+00 WtEn= 0.00D+00
 Coeff-Com:  0.110D-01 0.343D+00 0.646D+00
 Coeff:      0.110D-01 0.343D+00 0.646D+00
 Gap=     0.214 Goal=   None    Shift=    0.000
 RMSDP=1.81D-06 MaxDP=5.21D-05 DE=-7.04D-07 OVMax= 2.13D-04

 Cycle  12  Pass 1  IDiag  1:
 RMSU=  7.29D-07    CP:  1.00D+00  9.98D-01  6.62D-01
 E= -1638.83229682231     Delta-E=       -0.000000267680 Rises=F Damp=F
 DIIS: error= 4.66D-06 at cycle   4 NSaved=   4.
 NSaved= 4 IEnMin= 4 EnMin= -1638.83229682231     IErMin= 4 ErrMin= 4.66D-06
 ErrMax= 4.66D-06  0.00D+00 EMaxC= 1.00D-01 BMatC= 1.34D-08 BMatP= 2.60D-07
 IDIUse=1 WtCom= 1.00D+00 WtEn= 0.00D+00
 Coeff-Com: -0.772D-02 0.185D+00 0.379D+00 0.444D+00
 Coeff:     -0.772D-02 0.185D+00 0.379D+00 0.444D+00
 Gap=     0.214 Goal=   None    Shift=    0.000
 RMSDP=4.12D-07 MaxDP=1.45D-05 DE=-2.68D-07 OVMax= 3.08D-05

 Cycle  13  Pass 1  IDiag  1:
 RMSU=  1.95D-07    CP:  1.00D+00  9.99D-01  6.72D-01  5.08D-01
 E= -1638.83229683508     Delta-E=       -0.000000012768 Rises=F Damp=F
 DIIS: error= 8.41D-07 at cycle   5 NSaved=   5.
 NSaved= 5 IEnMin= 5 EnMin= -1638.83229683508     IErMin= 5 ErrMin= 8.41D-07
 ErrMax= 8.41D-07  0.00D+00 EMaxC= 1.00D-01 BMatC= 6.16D-10 BMatP= 1.34D-08
 IDIUse=1 WtCom= 1.00D+00 WtEn= 0.00D+00
 Coeff-Com: -0.497D-02 0.894D-01 0.186D+00 0.256D+00 0.474D+00
 Coeff:     -0.497D-02 0.894D-01 0.186D+00 0.256D+00 0.474D+00
 Gap=     0.214 Goal=   None    Shift=    0.000
 RMSDP=8.65D-08 MaxDP=4.04D-06 DE=-1.28D-08 OVMax= 4.47D-06

 Cycle  14  Pass 1  IDiag  1:
 RMSU=  6.83D-08    CP:  1.00D+00  9.99D-01  6.71D-01  5.23D-01  7.36D-01
 E= -1638.83229683552     Delta-E=       -0.000000000439 Rises=F Damp=F
 DIIS: error= 2.88D-07 at cycle   6 NSaved=   6.
 NSaved= 6 IEnMin= 6 EnMin= -1638.83229683552     IErMin= 6 ErrMin= 2.88D-07
 ErrMax= 2.88D-07  0.00D+00 EMaxC= 1.00D-01 BMatC= 4.54D-11 BMatP= 6.16D-10
 IDIUse=1 WtCom= 1.00D+00 WtEn= 0.00D+00
 Coeff-Com: -0.147D-02 0.208D-01 0.444D-01 0.705D-01 0.243D+00 0.623D+00
 Coeff:     -0.147D-02 0.208D-01 0.444D-01 0.705D-01 0.243D+00 0.623D+00
 Gap=     0.214 Goal=   None    Shift=    0.000
 RMSDP=2.53D-08 MaxDP=1.33D-06 DE=-4.39D-10 OVMax= 1.66D-06

 Cycle  15  Pass 1  IDiag  1:
 RMSU=  2.00D-08    CP:  1.00D+00  9.99D-01  6.71D-01  5.27D-01  7.84D-01
                    CP:  8.27D-01
 E= -1638.83229683559     Delta-E=       -0.000000000067 Rises=F Damp=F
 DIIS: error= 1.27D-07 at cycle   7 NSaved=   7.
 NSaved= 7 IEnMin= 7 EnMin= -1638.83229683559     IErMin= 7 ErrMin= 1.27D-07
 ErrMax= 1.27D-07  0.00D+00 EMaxC= 1.00D-01 BMatC= 1.05D-11 BMatP= 4.54D-11
 IDIUse=1 WtCom= 1.00D+00 WtEn= 0.00D+00
 Coeff-Com: -0.278D-03 0.133D-02 0.338D-02 0.103D-01 0.892D-01 0.385D+00
 Coeff-Com:  0.511D+00
 Coeff:     -0.278D-03 0.133D-02 0.338D-02 0.103D-01 0.892D-01 0.385D+00
 Coeff:      0.511D+00
 Gap=     0.214 Goal=   None    Shift=    0.000
 RMSDP=1.12D-08 MaxDP=5.53D-07 DE=-6.73D-11 OVMax= 6.86D-07

 Cycle  16  Pass 1  IDiag  1:
 RMSU=  6.82D-09    CP:  1.00D+00  9.99D-01  6.71D-01  5.27D-01  7.92D-01
                    CP:  8.52D-01  5.78D-01
 E= -1638.83229683557     Delta-E=        0.000000000019 Rises=F Damp=F
 DIIS: error= 3.33D-08 at cycle   8 NSaved=   8.
 NSaved= 8 IEnMin= 7 EnMin= -1638.83229683559     IErMin= 8 ErrMin= 3.33D-08
 ErrMax= 3.33D-08  0.00D+00 EMaxC= 1.00D-01 BMatC= 1.01D-12 BMatP= 1.05D-11
 IDIUse=1 WtCom= 1.00D+00 WtEn= 0.00D+00
 Coeff-Com: -0.535D-05-0.142D-02-0.276D-02-0.161D-02 0.245D-01 0.152D+00
 Coeff-Com:  0.297D+00 0.531D+00
 Coeff:     -0.535D-05-0.142D-02-0.276D-02-0.161D-02 0.245D-01 0.152D+00
 Coeff:      0.297D+00 0.531D+00
 Gap=     0.214 Goal=   None    Shift=    0.000
 RMSDP=3.33D-09 MaxDP=1.27D-07 DE= 1.86D-11 OVMax= 1.93D-07

 SCF Done:  E(RB3LYP) =  -1638.83229684     A.U. after   16 cycles
            NFock= 16  Conv=0.33D-08     -V/T= 2.0066
 KE= 1.628094348982D+03 PE=-7.910271679239D+03 EE= 2.613480054597D+03
 Leave Link  502 at Sat Aug  8 02:41:58 2020, MaxMem=    33554432 cpu:       412.1
 (Enter /prod/apps/gaussian/g09d1/l601.exe)
 Copying SCF densities to generalized density rwf, IOpCl= 0 IROHF=0.

 **********************************************************************

            Population analysis using the SCF density.

 **********************************************************************

 Orbital symmetries:
       Occupied  (A) (A) (A) (A) (A) (A) (A) (A) (A) (A) (A) (A)
                 (A) (A) (A) (A) (A) (A) (A) (A) (A) (A) (A) (A)
                 (A) (A) (A) (A) (A) (A) (A) (A) (A) (A) (A) (A)
                 (A) (A) (A) (A) (A) (A) (A) (A) (A) (A) (A) (A)
                 (A) (A) (A) (A) (A) (A) (A) (A) (A) (A) (A) (A)
                 (A) (A) (A) (A) (A) (A) (A) (A) (A) (A) (A) (A)
                 (A) (A) (A) (A) (A) (A) (A) (A) (A) (A) (A) (A)
       Virtual   (A) (A) (A) (A) (A) (A) (A) (A) (A) (A) (A) (A)
                 (A) (A) (A) (A) (A) (A) (A) (A) (A) (A) (A) (A)
                 (A) (A) (A) (A) (A) (A) (A) (A) (A) (A) (A) (A)
                 (A) (A) (A) (A) (A) (A) (A) (A) (A) (A) (A) (A)
                 (A) (A) (A) (A) (A) (A) (A) (A) (A) (A) (A) (A)
                 (A) (A) (A) (A) (A) (A) (A) (A) (A) (A) (A) (A)
                 (A) (A) (A) (A) (A) (A) (A) (A) (A) (A) (A) (A)
                 (A) (A) (A) (A) (A) (A) (A) (A) (A) (A) (A) (A)
                 (A) (A) (A) (A) (A) (A) (A) (A) (A) (A) (A) (A)
                 (A) (A) (A) (A) (A) (A) (A) (A) (A) (A) (A) (A)
                 (A) (A) (A) (A) (A) (A) (A) (A) (A) (A) (A) (A)
                 (A) (A) (A) (A) (A) (A) (A) (A) (A) (A) (A) (A)
                 (A) (A) (A) (A) (A) (A) (A) (A) (A) (A) (A) (A)
                 (A) (A) (A) (A) (A) (A) (A) (A) (A) (A) (A) (A)
                 (A) (A) (A) (A) (A) (A) (A) (A) (A) (A) (A) (A)
                 (A) (A) (A) (A) (A) (A) (A) (A) (A) (A) (A) (A)
                 (A) (A) (A) (A) (A) (A) (A) (A) (A) (A) (A) (A)
                 (A) (A) (A) (A) (A) (A) (A) (A) (A) (A) (A) (A)
                 (A) (A) (A) (A) (A) (A) (A) (A) (A) (A) (A) (A)
                 (A) (A) (A) (A) (A) (A) (A) (A) (A) (A) (A) (A)
                 (A) (A) (A) (A) (A) (A) (A) (A) (A) (A) (A) (A)
                 (A) (A) (A) (A) (A) (A) (A) (A) (A) (A) (A) (A)
 The electronic state is 1-A.
 Alpha  occ. eigenvalues --  -89.13563 -88.97528 -19.14894 -19.14772 -19.10213
 Alpha  occ. eigenvalues --  -14.38464 -14.37987 -10.26498 -10.23213 -10.23117
 Alpha  occ. eigenvalues --  -10.20947 -10.20635 -10.20513 -10.20203 -10.19923
 Alpha  occ. eigenvalues --  -10.19072 -10.19060 -10.18939 -10.18927 -10.18883
 Alpha  occ. eigenvalues --   -8.15806  -8.02335  -6.12284  -6.12249  -6.12181
 Alpha  occ. eigenvalues --   -5.98737  -5.98567  -5.98117  -1.12554  -1.00320
 Alpha  occ. eigenvalues --   -0.99084  -0.95501  -0.94058  -0.85826  -0.84264
 Alpha  occ. eigenvalues --   -0.79445  -0.74464  -0.74336  -0.73559  -0.71735
 Alpha  occ. eigenvalues --   -0.69520  -0.67475  -0.62537  -0.61434  -0.60466
 Alpha  occ. eigenvalues --   -0.58086  -0.56008  -0.55134  -0.52126  -0.51228
 Alpha  occ. eigenvalues --   -0.50726  -0.48854  -0.47818  -0.47157  -0.46492
 Alpha  occ. eigenvalues --   -0.45972  -0.45152  -0.44558  -0.43386  -0.42767
 Alpha  occ. eigenvalues --   -0.42089  -0.42007  -0.41803  -0.41410  -0.39787
 Alpha  occ. eigenvalues --   -0.39414  -0.38637  -0.37907  -0.37266  -0.36837
 Alpha  occ. eigenvalues --   -0.35474  -0.35041  -0.34637  -0.33896  -0.33510
 Alpha  occ. eigenvalues --   -0.32978  -0.32238  -0.30540  -0.28186  -0.26401
 Alpha  occ. eigenvalues --   -0.25059  -0.24917  -0.24341  -0.21984
 Alpha virt. eigenvalues --   -0.00550  -0.00175   0.01786   0.04044   0.04708
 Alpha virt. eigenvalues --    0.06054   0.06864   0.07284   0.09170   0.09542
 Alpha virt. eigenvalues --    0.09978   0.10156   0.10665   0.12442   0.12741
 Alpha virt. eigenvalues --    0.13357   0.14496   0.14918   0.15070   0.15667
 Alpha virt. eigenvalues --    0.15857   0.16158   0.16791   0.17179   0.17500
 Alpha virt. eigenvalues --    0.17977   0.18891   0.19071   0.19481   0.20049
 Alpha virt. eigenvalues --    0.20630   0.21411   0.22276   0.23369   0.23837
 Alpha virt. eigenvalues --    0.25038   0.28173   0.28474   0.30596   0.32215
 Alpha virt. eigenvalues --    0.33313   0.33757   0.34459   0.35900   0.37532
 Alpha virt. eigenvalues --    0.40025   0.43087   0.43538   0.43903   0.45985
 Alpha virt. eigenvalues --    0.46975   0.47728   0.48636   0.49842   0.51036
 Alpha virt. eigenvalues --    0.52039   0.53312   0.53723   0.54858   0.55414
 Alpha virt. eigenvalues --    0.56486   0.56725   0.57591   0.58892   0.59446
 Alpha virt. eigenvalues --    0.60022   0.61088   0.61341   0.61412   0.61845
 Alpha virt. eigenvalues --    0.63128   0.63560   0.64113   0.64690   0.66320
 Alpha virt. eigenvalues --    0.66649   0.67074   0.68096   0.69151   0.71775
 Alpha virt. eigenvalues --    0.72390   0.73682   0.75356   0.75978   0.76459
 Alpha virt. eigenvalues --    0.79114   0.79783   0.80731   0.81502   0.82021
 Alpha virt. eigenvalues --    0.83021   0.83754   0.84208   0.84505   0.84641
 Alpha virt. eigenvalues --    0.85807   0.85963   0.86277   0.87487   0.88249
 Alpha virt. eigenvalues --    0.88417   0.88851   0.89938   0.90476   0.91159
 Alpha virt. eigenvalues --    0.91589   0.92137   0.92800   0.93835   0.94496
 Alpha virt. eigenvalues --    0.94976   0.95549   0.96835   0.97459   0.97863
 Alpha virt. eigenvalues --    0.99347   1.00337   1.01313   1.01864   1.03328
 Alpha virt. eigenvalues --    1.05331   1.05909   1.07348   1.08904   1.09666
 Alpha virt. eigenvalues --    1.10355   1.11514   1.11841   1.13452   1.14566
 Alpha virt. eigenvalues --    1.15163   1.16514   1.17075   1.18450   1.19318
 Alpha virt. eigenvalues --    1.19806   1.21669   1.22644   1.24746   1.25697
 Alpha virt. eigenvalues --    1.27830   1.30570   1.33344   1.36468   1.39004
 Alpha virt. eigenvalues --    1.41263   1.41907   1.43337   1.44700   1.45998
 Alpha virt. eigenvalues --    1.47058   1.48277   1.48808   1.50880   1.51419
 Alpha virt. eigenvalues --    1.53797   1.55002   1.56639   1.59632   1.65131
 Alpha virt. eigenvalues --    1.69225   1.71291   1.72507   1.74632   1.75399
 Alpha virt. eigenvalues --    1.78330   1.78516   1.79537   1.81376   1.82069
 Alpha virt. eigenvalues --    1.82749   1.82915   1.84616   1.85085   1.86174
 Alpha virt. eigenvalues --    1.87250   1.88391   1.89289   1.90487   1.91347
 Alpha virt. eigenvalues --    1.91877   1.93431   1.93880   1.95140   1.95690
 Alpha virt. eigenvalues --    1.97062   1.97535   1.98146   2.00393   2.01826
 Alpha virt. eigenvalues --    2.03372   2.04254   2.05058   2.06992   2.08353
 Alpha virt. eigenvalues --    2.09002   2.09526   2.11629   2.13301   2.13731
 Alpha virt. eigenvalues --    2.14212   2.15445   2.16489   2.18584   2.18804
 Alpha virt. eigenvalues --    2.20464   2.21442   2.23596   2.25172   2.25208
 Alpha virt. eigenvalues --    2.26924   2.28616   2.29411   2.31278   2.33054
 Alpha virt. eigenvalues --    2.34787   2.34970   2.36727   2.39843   2.40907
 Alpha virt. eigenvalues --    2.41952   2.46531   2.46767   2.47710   2.57374
 Alpha virt. eigenvalues --    2.58177   2.58291   2.59780   2.65432   2.68905
 Alpha virt. eigenvalues --    2.70631   2.72305   2.72316   2.74025   2.74456
 Alpha virt. eigenvalues --    2.75744   2.76615   2.77670   2.78622   2.83539
 Alpha virt. eigenvalues --    2.86812   2.88901   3.05284   3.40785   3.81167
 Alpha virt. eigenvalues --    3.84948   3.90148   3.94782   3.97313   4.05766
 Alpha virt. eigenvalues --    4.09307   4.10076   4.12035   4.16913   4.21757
 Alpha virt. eigenvalues --    4.24640   4.26359   4.30950   4.33436   4.36503
 Alpha virt. eigenvalues --    4.41448   4.53822   4.69922   4.72566
          Condensed to atoms (all electrons):
               1          2          3          4          5          6
     1  O    8.311197   0.388872  -0.054003   0.005436  -0.007763   0.000110
     2  S    0.388872  13.649430   0.131806  -0.019729  -0.005319   0.001174
     3  N   -0.054003   0.131806   7.405373   0.229167  -0.050052   0.003409
     4  C    0.005436  -0.019729   0.229167   4.821383   0.332029  -0.058609
     5  C   -0.007763  -0.005319  -0.050052   0.332029   5.692477   0.053034
     6  S    0.000110   0.001174   0.003409  -0.058609   0.053034  14.931965
     7  O    0.000000   0.000012  -0.000052  -0.000342  -0.039732   0.297435
     8  C   -0.007436  -0.001318  -0.048288   0.329139  -0.125978   0.062393
     9  C    0.000182   0.001000  -0.052956   0.376201  -0.047182   0.003834
    10  C   -0.000003  -0.000384  -0.005157  -0.034475   0.004983  -0.000192
    11  C    0.000001   0.000032  -0.001883  -0.002621  -0.000057  -0.000114
    12  C    0.000000   0.000002  -0.000025  -0.000872  -0.000021   0.000129
    13  C    0.000000   0.000000   0.000000  -0.000006   0.000000  -0.000015
    14  C    0.000000   0.000000   0.000000   0.000005   0.000000  -0.000001
    15  C    0.000000  -0.000002   0.000014   0.000001   0.000000   0.000005
    16  C   -0.000001   0.000015   0.000496   0.001479   0.000012   0.000147
    17  N   -0.053954   0.128350  -0.048795   0.002831  -0.000092   0.000000
    18  C    0.003278  -0.007072  -0.011186  -0.000463   0.000057  -0.000006
    19  C   -0.002238  -0.028570   0.002292  -0.000037  -0.000004   0.000000
    20  O   -0.048150   0.450071  -0.055720  -0.002486  -0.000082   0.000011
    21  H    0.001733  -0.006323   0.284809  -0.028406   0.004393  -0.000360
    22  H    0.000217   0.000288   0.001923  -0.030733   0.348308  -0.018237
    23  H    0.013312   0.001356  -0.005426  -0.024613   0.323011  -0.004227
    24  H    0.000200   0.000036   0.001822  -0.026745   0.010093  -0.019159
    25  H    0.008505   0.007803  -0.007716  -0.025014   0.002334  -0.005917
    26  H   -0.000003  -0.000020  -0.003343  -0.036815  -0.008231  -0.000319
    27  H    0.000001   0.000027   0.002928  -0.032326  -0.007658   0.005889
    28  H    0.000001  -0.000239   0.000067  -0.008216   0.000023  -0.000030
    29  H    0.000000   0.000018   0.000288   0.004685  -0.000122   0.000044
    30  H    0.000000   0.000000   0.000000   0.000080  -0.000001  -0.000007
    31  H    0.000000   0.000000   0.000000   0.000000   0.000000   0.000000
    32  H    0.000000   0.000000   0.000000   0.000000   0.000000   0.000000
    33  H    0.000000  -0.000001   0.000000   0.000001   0.000000   0.000000
    34  H    0.000000   0.000845   0.000211  -0.000160   0.000002   0.000004
    35  H   -0.002014  -0.003481   0.014347  -0.000747   0.000527   0.000031
    36  H    0.000051   0.002452   0.000007  -0.000006   0.000000   0.000000
    37  H    0.005126  -0.006941   0.000068   0.000086  -0.000038  -0.000001
    38  H   -0.000114  -0.003009   0.000075  -0.000003   0.000000   0.000000
    39  H    0.002229  -0.002673  -0.000059   0.000007   0.000000   0.000000
    40  H   -0.000103   0.001832  -0.000083   0.000000   0.000000   0.000000
               7          8          9         10         11         12
     1  O    0.000000  -0.007436   0.000182  -0.000003   0.000001   0.000000
     2  S    0.000012  -0.001318   0.001000  -0.000384   0.000032   0.000002
     3  N   -0.000052  -0.048288  -0.052956  -0.005157  -0.001883  -0.000025
     4  C   -0.000342   0.329139   0.376201  -0.034475  -0.002621  -0.000872
     5  C   -0.039732  -0.125978  -0.047182   0.004983  -0.000057  -0.000021
     6  S    0.297435   0.062393   0.003834  -0.000192  -0.000114   0.000129
     7  O    8.390958  -0.039324  -0.007949   0.000215  -0.000128   0.000087
     8  C   -0.039324   5.705519  -0.053660  -0.006339  -0.000059  -0.001948
     9  C   -0.007949  -0.053660   5.198869   0.330037  -0.039371  -0.003205
    10  C    0.000215  -0.006339   0.330037   5.196175   0.347136  -0.063140
    11  C   -0.000128  -0.000059  -0.039371   0.347136   4.673345   0.540335
    12  C    0.000087  -0.001948  -0.003205  -0.063140   0.540335   4.963733
    13  C   -0.000012  -0.000282   0.000109   0.006261  -0.018634   0.527706
    14  C    0.000000   0.000055   0.000010   0.000356  -0.035526  -0.035176
    15  C    0.000000   0.000031  -0.000149   0.007129  -0.021354  -0.047112
    16  C    0.000000  -0.001593  -0.001646  -0.051281   0.542480  -0.041081
    17  N    0.000000  -0.000117  -0.000111   0.000001   0.000000   0.000000
    18  C    0.000000  -0.000016  -0.000012   0.000001   0.000000   0.000000
    19  C    0.000000   0.000005   0.000002   0.000000   0.000000   0.000000
    20  O    0.000000   0.001192  -0.000097  -0.000017  -0.000007   0.000000
    21  H    0.000002   0.001952  -0.010336   0.008289  -0.000213   0.000020
    22  H    0.000101   0.010628  -0.006496   0.000164   0.000013   0.000000
    23  H    0.001224   0.002742   0.004118  -0.000112   0.000001   0.000000
    24  H    0.000050   0.348450  -0.005446  -0.000627   0.005050   0.003639
    25  H    0.001209   0.321407   0.004251  -0.000016   0.000004   0.000069
    26  H    0.000254   0.006537   0.347543  -0.032956   0.004871   0.000062
    27  H    0.026664  -0.006881   0.351832  -0.026380  -0.005495   0.003082
    28  H   -0.000002  -0.000147  -0.040019   0.354590  -0.037821   0.004557
    29  H   -0.000001  -0.000091  -0.035089   0.360450  -0.029492  -0.005197
    30  H    0.000149  -0.000023   0.000511  -0.008622  -0.047655   0.357810
    31  H   -0.000001  -0.000004   0.000001  -0.000181   0.003702  -0.039049
    32  H    0.000000   0.000000   0.000000   0.000007   0.000708   0.004722
    33  H    0.000000  -0.000006   0.000001  -0.000179   0.003808   0.000793
    34  H    0.000000   0.000126   0.000075  -0.011024  -0.047420   0.006218
    35  H    0.000000   0.000061   0.000023  -0.000002   0.000000   0.000000
    36  H    0.000000   0.000000  -0.000001   0.000000   0.000000   0.000000
    37  H    0.000000  -0.000001  -0.000001   0.000000   0.000000   0.000000
    38  H    0.000000   0.000000   0.000000   0.000000   0.000000   0.000000
    39  H    0.000000   0.000000   0.000000   0.000000   0.000000   0.000000
    40  H    0.000000   0.000000   0.000000   0.000000   0.000000   0.000000
              13         14         15         16         17         18
     1  O    0.000000   0.000000   0.000000  -0.000001  -0.053954   0.003278
     2  S    0.000000   0.000000  -0.000002   0.000015   0.128350  -0.007072
     3  N    0.000000   0.000000   0.000014   0.000496  -0.048795  -0.011186
     4  C   -0.000006   0.000005   0.000001   0.001479   0.002831  -0.000463
     5  C    0.000000   0.000000   0.000000   0.000012  -0.000092   0.000057
     6  S   -0.000015  -0.000001   0.000005   0.000147   0.000000  -0.000006
     7  O   -0.000012   0.000000   0.000000   0.000000   0.000000   0.000000
     8  C   -0.000282   0.000055   0.000031  -0.001593  -0.000117  -0.000016
     9  C    0.000109   0.000010  -0.000149  -0.001646  -0.000111  -0.000012
    10  C    0.006261   0.000356   0.007129  -0.051281   0.000001   0.000001
    11  C   -0.018634  -0.035526  -0.021354   0.542480   0.000000   0.000000
    12  C    0.527706  -0.035176  -0.047112  -0.041081   0.000000   0.000000
    13  C    4.860455   0.545490  -0.025555  -0.046847   0.000000   0.000000
    14  C    0.545490   4.859146   0.550242  -0.035822   0.000000   0.000000
    15  C   -0.025555   0.550242   4.864428   0.521982   0.000000   0.000000
    16  C   -0.046847  -0.035822   0.521982   4.975995   0.000001   0.000000
    17  N    0.000000   0.000000   0.000000   0.000001   7.215436   0.270693
    18  C    0.000000   0.000000   0.000000   0.000000   0.270693   4.994965
    19  C    0.000000   0.000000   0.000000   0.000000   0.291070  -0.050079
    20  O    0.000000   0.000000  -0.000008  -0.000485  -0.055825   0.001601
    21  H   -0.000001   0.000000   0.000005   0.000032   0.004427  -0.000084
    22  H    0.000000   0.000000   0.000000   0.000000   0.000006  -0.000036
    23  H    0.000000   0.000000   0.000000   0.000000  -0.000199   0.000100
    24  H    0.000934   0.000316   0.000101   0.000542   0.000002   0.000000
    25  H    0.000004  -0.000008  -0.000051   0.000028   0.000044  -0.000005
    26  H    0.000002   0.000000   0.000002  -0.000104  -0.000004  -0.000020
    27  H   -0.000119   0.000002   0.000003  -0.000008   0.000000   0.000000
    28  H   -0.000178  -0.000002   0.000198  -0.004368  -0.000005   0.000000
    29  H    0.000036   0.000024  -0.000217   0.002753   0.000000   0.000000
    30  H   -0.042414   0.004793   0.000335   0.005919   0.000000   0.000000
    31  H    0.358231  -0.043222   0.004576   0.000817   0.000000   0.000000
    32  H   -0.042960   0.359569  -0.043091   0.004773   0.000000   0.000000
    33  H    0.004538  -0.043283   0.357554  -0.038236   0.000000   0.000000
    34  H    0.000306   0.004867  -0.042286   0.352368  -0.000013   0.000000
    35  H    0.000000   0.000000   0.000000   0.000000  -0.033223   0.374288
    36  H    0.000000   0.000000   0.000000   0.000000  -0.035611   0.373752
    37  H    0.000000   0.000000   0.000000   0.000000  -0.046055   0.374558
    38  H    0.000000   0.000000   0.000000   0.000000  -0.030834   0.004448
    39  H    0.000000   0.000000   0.000000   0.000000  -0.047158  -0.002225
    40  H    0.000000   0.000000   0.000000   0.000000  -0.039229  -0.002872
              19         20         21         22         23         24
     1  O   -0.002238  -0.048150   0.001733   0.000217   0.013312   0.000200
     2  S   -0.028570   0.450071  -0.006323   0.000288   0.001356   0.000036
     3  N    0.002292  -0.055720   0.284809   0.001923  -0.005426   0.001822
     4  C   -0.000037  -0.002486  -0.028406  -0.030733  -0.024613  -0.026745
     5  C   -0.000004  -0.000082   0.004393   0.348308   0.323011   0.010093
     6  S    0.000000   0.000011  -0.000360  -0.018237  -0.004227  -0.019159
     7  O    0.000000   0.000000   0.000002   0.000101   0.001224   0.000050
     8  C    0.000005   0.001192   0.001952   0.010628   0.002742   0.348450
     9  C    0.000002  -0.000097  -0.010336  -0.006496   0.004118  -0.005446
    10  C    0.000000  -0.000017   0.008289   0.000164  -0.000112  -0.000627
    11  C    0.000000  -0.000007  -0.000213   0.000013   0.000001   0.005050
    12  C    0.000000   0.000000   0.000020   0.000000   0.000000   0.003639
    13  C    0.000000   0.000000  -0.000001   0.000000   0.000000   0.000934
    14  C    0.000000   0.000000   0.000000   0.000000   0.000000   0.000316
    15  C    0.000000  -0.000008   0.000005   0.000000   0.000000   0.000101
    16  C    0.000000  -0.000485   0.000032   0.000000   0.000000   0.000542
    17  N    0.291070  -0.055825   0.004427   0.000006  -0.000199   0.000002
    18  C   -0.050079   0.001601  -0.000084  -0.000036   0.000100   0.000000
    19  C    4.988388  -0.003561  -0.000106   0.000000   0.000004   0.000000
    20  O   -0.003561   8.231062   0.000080   0.000001   0.000020  -0.000120
    21  H   -0.000106   0.000080   0.370359  -0.000003  -0.000006   0.000147
    22  H    0.000000   0.000001  -0.000003   0.521753  -0.019102  -0.000333
    23  H    0.000004   0.000020  -0.000006  -0.019102   0.490177  -0.000251
    24  H    0.000000  -0.000120   0.000147  -0.000333  -0.000251   0.476207
    25  H    0.000002  -0.000285  -0.000042  -0.000329  -0.000117  -0.016159
    26  H    0.000000   0.000002   0.000474   0.005180   0.000038   0.000086
    27  H    0.000000   0.000001   0.000444   0.000406   0.000167  -0.000089
    28  H    0.000000   0.000006   0.013364   0.000003   0.000001   0.000104
    29  H    0.000000   0.000000  -0.000547  -0.000015   0.000002  -0.000010
    30  H    0.000000   0.000000   0.000000   0.000000   0.000000   0.000087
    31  H    0.000000   0.000000   0.000000   0.000000   0.000000   0.000009
    32  H    0.000000   0.000000   0.000000   0.000000   0.000000   0.000000
    33  H    0.000000  -0.000003  -0.000001   0.000000   0.000000   0.000008
    34  H    0.000000   0.001775   0.000568   0.000000   0.000000   0.000026
    35  H    0.004768   0.000038  -0.000221   0.000125   0.000293  -0.000001
    36  H   -0.003635  -0.000049  -0.000030   0.000001   0.000001   0.000000
    37  H   -0.001894  -0.000040   0.000021  -0.000001   0.000080   0.000000
    38  H    0.377995   0.011389  -0.000016   0.000000   0.000000   0.000000
    39  H    0.372072  -0.000567   0.000008   0.000000   0.000000   0.000000
    40  H    0.377662   0.000255  -0.000005   0.000000   0.000000   0.000000
              25         26         27         28         29         30
     1  O    0.008505  -0.000003   0.000001   0.000001   0.000000   0.000000
     2  S    0.007803  -0.000020   0.000027  -0.000239   0.000018   0.000000
     3  N   -0.007716  -0.003343   0.002928   0.000067   0.000288   0.000000
     4  C   -0.025014  -0.036815  -0.032326  -0.008216   0.004685   0.000080
     5  C    0.002334  -0.008231  -0.007658   0.000023  -0.000122  -0.000001
     6  S   -0.005917  -0.000319   0.005889  -0.000030   0.000044  -0.000007
     7  O    0.001209   0.000254   0.026664  -0.000002  -0.000001   0.000149
     8  C    0.321407   0.006537  -0.006881  -0.000147  -0.000091  -0.000023
     9  C    0.004251   0.347543   0.351832  -0.040019  -0.035089   0.000511
    10  C   -0.000016  -0.032956  -0.026380   0.354590   0.360450  -0.008622
    11  C    0.000004   0.004871  -0.005495  -0.037821  -0.029492  -0.047655
    12  C    0.000069   0.000062   0.003082   0.004557  -0.005197   0.357810
    13  C    0.000004   0.000002  -0.000119  -0.000178   0.000036  -0.042414
    14  C   -0.000008   0.000000   0.000002  -0.000002   0.000024   0.004793
    15  C   -0.000051   0.000002   0.000003   0.000198  -0.000217   0.000335
    16  C    0.000028  -0.000104  -0.000008  -0.004368   0.002753   0.005919
    17  N    0.000044  -0.000004   0.000000  -0.000005   0.000000   0.000000
    18  C   -0.000005  -0.000020   0.000000   0.000000   0.000000   0.000000
    19  C    0.000002   0.000000   0.000000   0.000000   0.000000   0.000000
    20  O   -0.000285   0.000002   0.000001   0.000006   0.000000   0.000000
    21  H   -0.000042   0.000474   0.000444   0.013364  -0.000547   0.000000
    22  H   -0.000329   0.005180   0.000406   0.000003  -0.000015   0.000000
    23  H   -0.000117   0.000038   0.000167   0.000001   0.000002   0.000000
    24  H   -0.016159   0.000086  -0.000089   0.000104  -0.000010   0.000087
    25  H    0.491092  -0.000134   0.000145  -0.000002   0.000003   0.000001
    26  H   -0.000134   0.604630  -0.024482  -0.002825  -0.004485  -0.000086
    27  H    0.000145  -0.024482   0.504958   0.004403  -0.003172   0.001835
    28  H   -0.000002  -0.002825   0.004403   0.609629  -0.033041   0.000041
    29  H    0.000003  -0.004485  -0.003172  -0.033041   0.577172   0.003203
    30  H    0.000001  -0.000086   0.001835   0.000041   0.003203   0.592941
    31  H    0.000000   0.000000   0.000002   0.000003  -0.000004  -0.005529
    32  H    0.000000   0.000000   0.000000   0.000000   0.000000  -0.000178
    33  H    0.000001   0.000000   0.000000  -0.000009   0.000003   0.000017
    34  H    0.000002  -0.000019   0.000010   0.006519   0.000100  -0.000172
    35  H   -0.000001   0.000142   0.000000   0.000000   0.000000   0.000000
    36  H    0.000000   0.000000   0.000000   0.000000   0.000000   0.000000
    37  H    0.000000   0.000000   0.000000   0.000000   0.000000   0.000000
    38  H    0.000001   0.000000   0.000000   0.000000   0.000000   0.000000
    39  H   -0.000001   0.000000   0.000000   0.000000   0.000000   0.000000
    40  H    0.000000   0.000000   0.000000   0.000000   0.000000   0.000000
              31         32         33         34         35         36
     1  O    0.000000   0.000000   0.000000   0.000000  -0.002014   0.000051
     2  S    0.000000   0.000000  -0.000001   0.000845  -0.003481   0.002452
     3  N    0.000000   0.000000   0.000000   0.000211   0.014347   0.000007
     4  C    0.000000   0.000000   0.000001  -0.000160  -0.000747  -0.000006
     5  C    0.000000   0.000000   0.000000   0.000002   0.000527   0.000000
     6  S    0.000000   0.000000   0.000000   0.000004   0.000031   0.000000
     7  O   -0.000001   0.000000   0.000000   0.000000   0.000000   0.000000
     8  C   -0.000004   0.000000  -0.000006   0.000126   0.000061   0.000000
     9  C    0.000001   0.000000   0.000001   0.000075   0.000023  -0.000001
    10  C   -0.000181   0.000007  -0.000179  -0.011024  -0.000002   0.000000
    11  C    0.003702   0.000708   0.003808  -0.047420   0.000000   0.000000
    12  C   -0.039049   0.004722   0.000793   0.006218   0.000000   0.000000
    13  C    0.358231  -0.042960   0.004538   0.000306   0.000000   0.000000
    14  C   -0.043222   0.359569  -0.043283   0.004867   0.000000   0.000000
    15  C    0.004576  -0.043091   0.357554  -0.042286   0.000000   0.000000
    16  C    0.000817   0.004773  -0.038236   0.352368   0.000000   0.000000
    17  N    0.000000   0.000000   0.000000  -0.000013  -0.033223  -0.035611
    18  C    0.000000   0.000000   0.000000   0.000000   0.374288   0.373752
    19  C    0.000000   0.000000   0.000000   0.000000   0.004768  -0.003635
    20  O    0.000000   0.000000  -0.000003   0.001775   0.000038  -0.000049
    21  H    0.000000   0.000000  -0.000001   0.000568  -0.000221  -0.000030
    22  H    0.000000   0.000000   0.000000   0.000000   0.000125   0.000001
    23  H    0.000000   0.000000   0.000000   0.000000   0.000293   0.000001
    24  H    0.000009   0.000000   0.000008   0.000026  -0.000001   0.000000
    25  H    0.000000   0.000000   0.000001   0.000002  -0.000001   0.000000
    26  H    0.000000   0.000000   0.000000  -0.000019   0.000142   0.000000
    27  H    0.000002   0.000000   0.000000   0.000010   0.000000   0.000000
    28  H    0.000003   0.000000  -0.000009   0.006519   0.000000   0.000000
    29  H   -0.000004   0.000000   0.000003   0.000100   0.000000   0.000000
    30  H   -0.005529  -0.000178   0.000017  -0.000172   0.000000   0.000000
    31  H    0.590436  -0.005474  -0.000184   0.000017   0.000000   0.000000
    32  H   -0.005474   0.595496  -0.005520  -0.000176   0.000000   0.000000
    33  H   -0.000184  -0.005520   0.590799  -0.005598   0.000000   0.000000
    34  H    0.000017  -0.000176  -0.005598   0.601457   0.000000   0.000000
    35  H    0.000000   0.000000   0.000000   0.000000   0.510973  -0.022900
    36  H    0.000000   0.000000   0.000000   0.000000  -0.022900   0.552430
    37  H    0.000000   0.000000   0.000000   0.000000  -0.030652  -0.037496
    38  H    0.000000   0.000000   0.000000   0.000001  -0.000187   0.000000
    39  H    0.000000   0.000000   0.000000   0.000000  -0.000206  -0.001412
    40  H    0.000000   0.000000   0.000000   0.000000   0.000056   0.005309
              37         38         39         40
     1  O    0.005126  -0.000114   0.002229  -0.000103
     2  S   -0.006941  -0.003009  -0.002673   0.001832
     3  N    0.000068   0.000075  -0.000059  -0.000083
     4  C    0.000086  -0.000003   0.000007   0.000000
     5  C   -0.000038   0.000000   0.000000   0.000000
     6  S   -0.000001   0.000000   0.000000   0.000000
     7  O    0.000000   0.000000   0.000000   0.000000
     8  C   -0.000001   0.000000   0.000000   0.000000
     9  C   -0.000001   0.000000   0.000000   0.000000
    10  C    0.000000   0.000000   0.000000   0.000000
    11  C    0.000000   0.000000   0.000000   0.000000
    12  C    0.000000   0.000000   0.000000   0.000000
    13  C    0.000000   0.000000   0.000000   0.000000
    14  C    0.000000   0.000000   0.000000   0.000000
    15  C    0.000000   0.000000   0.000000   0.000000
    16  C    0.000000   0.000000   0.000000   0.000000
    17  N   -0.046055  -0.030834  -0.047158  -0.039229
    18  C    0.374558   0.004448  -0.002225  -0.002872
    19  C   -0.001894   0.377995   0.372072   0.377662
    20  O   -0.000040   0.011389  -0.000567   0.000255
    21  H    0.000021  -0.000016   0.000008  -0.000005
    22  H   -0.000001   0.000000   0.000000   0.000000
    23  H    0.000080   0.000000   0.000000   0.000000
    24  H    0.000000   0.000000   0.000000   0.000000
    25  H    0.000000   0.000001  -0.000001   0.000000
    26  H    0.000000   0.000000   0.000000   0.000000
    27  H    0.000000   0.000000   0.000000   0.000000
    28  H    0.000000   0.000000   0.000000   0.000000
    29  H    0.000000   0.000000   0.000000   0.000000
    30  H    0.000000   0.000000   0.000000   0.000000
    31  H    0.000000   0.000000   0.000000   0.000000
    32  H    0.000000   0.000000   0.000000   0.000000
    33  H    0.000000   0.000000   0.000000   0.000000
    34  H    0.000000   0.000001   0.000000   0.000000
    35  H   -0.030652  -0.000187  -0.000206   0.000056
    36  H   -0.037496   0.000000  -0.001412   0.005309
    37  H    0.566530  -0.000178   0.008541  -0.001874
    38  H   -0.000178   0.482456  -0.029557  -0.020814
    39  H    0.008541  -0.029557   0.578150  -0.041875
    40  H   -0.001874  -0.020814  -0.041875   0.554666
 Mulliken charges:
               1
     1  O   -0.564668
     2  S    1.319660
     3  N   -0.734358
     4  C    0.230893
     5  C   -0.478952
     6  S    0.747579
     7  O   -0.630818
     8  C   -0.496727
     9  C   -0.314876
    10  C   -0.374703
    11  C    0.166362
    12  C   -0.176137
    13  C   -0.127047
    14  C   -0.131839
    15  C   -0.126777
    16  C   -0.188369
    17  N   -0.521636
    18  C   -0.323666
    19  C   -0.324133
    20  O   -0.530003
    21  H    0.355572
    22  H    0.186170
    23  H    0.217404
    24  H    0.221030
    25  H    0.218891
    26  H    0.144023
    27  H    0.203809
    28  H    0.133393
    29  H    0.162703
    30  H    0.136967
    31  H    0.135852
    32  H    0.132123
    33  H    0.135497
    34  H    0.131371
    35  H    0.187963
    36  H    0.167135
    37  H    0.170163
    38  H    0.208348
    39  H    0.164727
    40  H    0.167074
 Sum of Mulliken charges =   0.00000
 Mulliken charges with hydrogens summed into heavy atoms:
               1
     1  O   -0.564668
     2  S    1.319660
     3  N   -0.378786
     4  C    0.230893
     5  C   -0.075377
     6  S    0.747579
     7  O   -0.630818
     8  C   -0.056806
     9  C    0.032956
    10  C   -0.078607
    11  C    0.166362
    12  C   -0.039170
    13  C    0.008805
    14  C    0.000284
    15  C    0.008720
    16  C   -0.056998
    17  N   -0.521636
    18  C    0.201595
    19  C    0.216016
    20  O   -0.530003
 Electronic spatial extent (au):  <R**2>=           6949.7377
 Charge=              0.0000 electrons
 Dipole moment (field-independent basis, Debye):
    X=             -3.3055    Y=             -2.5238    Z=              3.5446  Tot=              5.4645
 Quadrupole moment (field-independent basis, Debye-Ang):
   XX=           -118.5316   YY=           -143.1481   ZZ=           -131.5357
   XY=             -5.9511   XZ=             -8.7533   YZ=              2.5934
 Traceless Quadrupole moment (field-independent basis, Debye-Ang):
   XX=             12.5402   YY=            -12.0763   ZZ=             -0.4639
   XY=             -5.9511   XZ=             -8.7533   YZ=              2.5934
 Octapole moment (field-independent basis, Debye-Ang**2):
  XXX=            -94.5786  YYY=            -32.6279  ZZZ=              1.8016  XYY=            -56.0385
  XXY=            -38.3068  XXZ=              5.1235  XZZ=              2.6212  YZZ=              6.1565
  YYZ=             -1.6960  XYZ=             12.7721
 Hexadecapole moment (field-independent basis, Debye-Ang**3):
 XXXX=          -5231.8442 YYYY=          -2529.9437 ZZZZ=           -903.4968 XXXY=            150.3007
 XXXZ=           -129.3469 YYYX=            -73.3643 YYYZ=             40.7007 ZZZX=             -8.5094
 ZZZY=              3.6289 XXYY=          -1429.9004 XXZZ=          -1113.3641 YYZZ=           -548.6625
 XXYZ=             70.9819 YYXZ=            -34.3711 ZZXY=             14.6646
 N-N= 2.029864978824D+03 E-N=-7.910271669899D+03  KE= 1.628094348982D+03
 No NMR shielding tensors so no spin-rotation constants.
 Leave Link  601 at Sat Aug  8 02:41:58 2020, MaxMem=    33554432 cpu:         0.3
 (Enter /prod/apps/gaussian/g09d1/l9999.exe)
 1\1\GINC-PIRINEUS13\SP\RB3LYP\6-31G(d)\C13H20N2O3S2\UBAFAR01\08-Aug-20
 20\0\\#p b3lyp/6-31G(d)\\SM37.n.11.pdb.xyz\\0,1\O,0,4.104,-1.448,1.211
 \S,0,4.618,-0.58,0.136\N,0,3.507,-0.658,-1.099\C,0,2.801,-1.9,-1.456\C
 ,0,1.677,-2.278,-0.464\S,0,2.021,-4.102,-0.657\O,0,1.206,-4.657,-1.824
 \C,0,3.552,-3.255,-1.313\C,0,2.192,-1.704,-2.859\C,0,3.141,-1.378,-4.0
 33\C,0,4.128,-2.458,-4.428\C,0,3.696,-3.625,-5.076\C,0,4.605,-4.619,-5
 .441\C,0,5.966,-4.459,-5.171\C,0,6.41,-3.299,-4.535\C,0,5.496,-2.308,-
 4.17\N,0,4.501,1.06,0.47\C,0,3.211,1.46,1.053\C,0,5.668,1.629,1.171\O,
 0,5.999,-0.815,-0.313\H,0,3.841,-0.108,-1.891\H,0,0.657,-1.998,-0.73\H
 ,0,1.913,-2.001,0.563\H,0,3.949,-3.717,-2.213\H,0,4.29,-3.259,-0.51\H,
 0,1.461,-0.892,-2.78\H,0,1.629,-2.617,-3.077\H,0,3.693,-0.453,-3.836\H
 ,0,2.495,-1.155,-4.89\H,0,2.64,-3.756,-5.296\H,0,4.251,-5.514,-5.942\H
 ,0,6.673,-5.231,-5.457\H,0,7.467,-3.162,-4.324\H,0,5.845,-1.408,-3.671
 \H,0,2.403,1.032,0.46\H,0,3.15,2.548,1.\H,0,3.11,1.146,2.098\H,0,6.581
 ,1.324,0.664\H,0,5.711,1.326,2.225\H,0,5.574,2.715,1.12\\Version=AM64L
 -G09RevD.01\State=1-A\HF=-1638.8322968\RMSD=3.332e-09\Dipole=0.0920475
 ,2.1460573,-0.0893436\Quadrupole=-4.9205637,4.1643589,0.7562048,-8.018
 1869,-2.3876477,7.6432725\PG=C01 [X(C13H20N2O3S2)]\\@


 IF IT HAPPENS, IT MUST BE POSSIBLE.

 -- THE UNNAMED LAW FROM PAUL DICKSON'S 
    "THE OFFICIAL RULES"
 Job cpu time:       0 days  0 hours  6 minutes 59.3 seconds.
 File lengths (MBytes):  RWF=     67 Int=      0 D2E=      0 Chk=      5 Scr=      1
 Normal termination of Gaussian 09 at Sat Aug  8 02:41:58 2020.
 Initial command:
 /prod/apps/gaussian/g09d1/l1.exe "/tmp/ubafar01/1449169/Gau-143736.inp" -scrdir="/tmp/ubafar01/1449169/"
 Entering Link 1 = /prod/apps/gaussian/g09d1/l1.exe PID=    143961.
  
 Copyright (c) 1988,1990,1992,1993,1995,1998,2003,2009,2013,
            Gaussian, Inc.  All Rights Reserved.
  
 This is part of the Gaussian(R) 09 program.  It is based on
 the Gaussian(R) 03 system (copyright 2003, Gaussian, Inc.),
 the Gaussian(R) 98 system (copyright 1998, Gaussian, Inc.),
 the Gaussian(R) 94 system (copyright 1995, Gaussian, Inc.),
 the Gaussian 92(TM) system (copyright 1992, Gaussian, Inc.),
 the Gaussian 90(TM) system (copyright 1990, Gaussian, Inc.),
 the Gaussian 88(TM) system (copyright 1988, Gaussian, Inc.),
 the Gaussian 86(TM) system (copyright 1986, Carnegie Mellon
 University), and the Gaussian 82(TM) system (copyright 1983,
 Carnegie Mellon University). Gaussian is a federally registered
 trademark of Gaussian, Inc.
  
 This software contains proprietary and confidential information,
 including trade secrets, belonging to Gaussian, Inc.
  
 This software is provided under written license and may be
 used, copied, transmitted, or stored only in accord with that
 written license.
  
 The following legend is applicable only to US Government
 contracts under FAR:
  
                    RESTRICTED RIGHTS LEGEND
  
 Use, reproduction and disclosure by the US Government is
 subject to restrictions as set forth in subparagraphs (a)
 and (c) of the Commercial Computer Software - Restricted
 Rights clause in FAR 52.227-19.
  
 Gaussian, Inc.
 340 Quinnipiac St., Bldg. 40, Wallingford CT 06492
  
  
 ---------------------------------------------------------------
 Warning -- This program may not be used in any manner that
 competes with the business of Gaussian, Inc. or will provide
 assistance to any competitor of Gaussian, Inc.  The licensee
 of this program is prohibited from giving any competitor of
 Gaussian, Inc. access to this program.  By using this program,
 the user acknowledges that Gaussian, Inc. is engaged in the
 business of creating and licensing software in the field of
 computational chemistry and represents and warrants to the
[...]
    39  H    0.000000   0.000000   0.000000   0.000000   0.000000   0.000000
    40  H    0.000000   0.000000   0.000000   0.000000   0.000000   0.000000
              13         14         15         16         17         18
     1  O    0.000000   0.000000   0.000000  -0.000001  -0.053868   0.003094
     2  S    0.000000   0.000000  -0.000002   0.000066   0.150616  -0.009130
     3  N    0.000000   0.000000   0.000014   0.000502  -0.050317  -0.010890
     4  C   -0.000005   0.000005  -0.000001   0.001436   0.002907  -0.000476
     5  C    0.000000   0.000000   0.000000   0.000012  -0.000091   0.000085
     6  S   -0.000014  -0.000001   0.000006   0.000154   0.000001  -0.000004
     7  O   -0.000013   0.000000   0.000000   0.000000   0.000000   0.000000
     8  C   -0.000303   0.000053   0.000037  -0.001570  -0.000121  -0.000017
     9  C    0.000089   0.000012  -0.000162  -0.001654  -0.000111  -0.000011
    10  C    0.006068   0.000318   0.006985  -0.050404   0.000001   0.000001
    11  C   -0.020465  -0.035430  -0.022984   0.542192   0.000000   0.000000
    12  C    0.523114  -0.037296  -0.046803  -0.043590   0.000000   0.000000
    13  C    4.889780   0.542066  -0.028513  -0.046614   0.000000   0.000000
    14  C    0.542066   4.884047   0.546403  -0.037575   0.000000   0.000000
    15  C   -0.028513   0.546403   4.895993   0.515061   0.000000   0.000000
    16  C   -0.046614  -0.037575   0.515061   4.996715   0.000001   0.000000
    17  N    0.000000   0.000000   0.000000   0.000001   7.213797   0.266047
    18  C    0.000000   0.000000   0.000000   0.000000   0.266047   4.998915
    19  C    0.000000   0.000000   0.000000   0.000000   0.281814  -0.049037
    20  O    0.000000   0.000000  -0.000009  -0.000477  -0.056816   0.001471
    21  H   -0.000001   0.000000   0.000007   0.000087   0.003840  -0.000104
    22  H    0.000000   0.000000   0.000000   0.000000   0.000005  -0.000034
    23  H    0.000000   0.000000   0.000000   0.000000  -0.000195   0.000126
    24  H    0.001014   0.000317   0.000117   0.000720   0.000002   0.000000
    25  H    0.000004  -0.000008  -0.000053   0.000028   0.000049  -0.000005
    26  H    0.000002   0.000000   0.000002  -0.000099  -0.000004  -0.000016
    27  H   -0.000126   0.000002   0.000005   0.000019   0.000001   0.000000
    28  H   -0.000169  -0.000004   0.000257  -0.003834  -0.000006   0.000000
    29  H    0.000044   0.000024  -0.000218   0.002704   0.000000   0.000000
    30  H   -0.043320   0.004742   0.000272   0.005931   0.000000   0.000000
    31  H    0.361337  -0.042160   0.004550   0.000729   0.000000   0.000000
    32  H   -0.042076   0.363141  -0.042150   0.004652   0.000000   0.000000
    33  H    0.004502  -0.042078   0.360603  -0.038293   0.000000   0.000000
    34  H    0.000250   0.004783  -0.043593   0.355528  -0.000012   0.000000
    35  H    0.000000   0.000000   0.000000   0.000000  -0.033603   0.374568
    36  H    0.000000   0.000000   0.000000   0.000000  -0.033841   0.377705
    37  H    0.000000   0.000000   0.000000   0.000000  -0.045941   0.376269
    38  H    0.000000   0.000000   0.000000   0.000000  -0.032432   0.004413
    39  H    0.000000   0.000000   0.000000   0.000000  -0.046453  -0.001900
    40  H    0.000000   0.000000   0.000000   0.000000  -0.037158  -0.002677
              19         20         21         22         23         24
     1  O   -0.002062  -0.047347   0.001436   0.000200   0.012917   0.000198
     2  S   -0.027440   0.447344  -0.005847   0.000259   0.001427   0.000054
     3  N    0.002160  -0.055897   0.288730   0.001737  -0.005443   0.001862
     4  C   -0.000038  -0.002423  -0.026315  -0.030487  -0.025479  -0.027080
     5  C   -0.000004  -0.000087   0.003802   0.352171   0.327319   0.009972
     6  S    0.000000   0.000010  -0.000378  -0.018091  -0.006197  -0.018384
     7  O    0.000000   0.000000   0.000001  -0.000043   0.001214   0.000016
     8  C    0.000005   0.001116   0.001774   0.010149   0.002818   0.346499
     9  C    0.000001  -0.000094  -0.009045  -0.005593   0.004048  -0.005641
    10  C    0.000000  -0.000015   0.008404   0.000153  -0.000109  -0.000530
    11  C    0.000000  -0.000007  -0.000344   0.000013   0.000001   0.005196
    12  C    0.000000   0.000000   0.000015   0.000000   0.000000   0.004022
    13  C    0.000000   0.000000  -0.000001   0.000000   0.000000   0.001014
    14  C    0.000000   0.000000   0.000000   0.000000   0.000000   0.000317
    15  C    0.000000  -0.000009   0.000007   0.000000   0.000000   0.000117
    16  C    0.000000  -0.000477   0.000087   0.000000   0.000000   0.000720
    17  N    0.281814  -0.056816   0.003840   0.000005  -0.000195   0.000002
    18  C   -0.049037   0.001471  -0.000104  -0.000034   0.000126   0.000000
    19  C    4.993692  -0.003873  -0.000073   0.000000   0.000004   0.000000
    20  O   -0.003873   8.269096  -0.000090   0.000001   0.000019  -0.000122
    21  H   -0.000073  -0.000090   0.323150   0.000001  -0.000013   0.000136
    22  H    0.000000   0.000001   0.000001   0.494292  -0.016429  -0.000326
    23  H    0.000004   0.000019  -0.000013  -0.016429   0.480514  -0.000245
    24  H    0.000000  -0.000122   0.000136  -0.000326  -0.000245   0.478666
    25  H    0.000002  -0.000118  -0.000036  -0.000301  -0.000140  -0.015674
    26  H    0.000000   0.000002   0.000308   0.004778   0.000037   0.000088
    27  H    0.000000   0.000001   0.000404   0.000379   0.000154  -0.000024
    28  H    0.000000   0.000004   0.011501   0.000003   0.000001   0.000101
    29  H    0.000000   0.000000  -0.000462  -0.000015   0.000002  -0.000008
    30  H    0.000000   0.000000   0.000000   0.000000   0.000000   0.000083
    31  H    0.000000   0.000000   0.000000   0.000000   0.000000   0.000008
    32  H    0.000000   0.000000   0.000000   0.000000   0.000000   0.000000
    33  H    0.000000  -0.000003   0.000000   0.000000   0.000000   0.000008
    34  H    0.000000   0.001751   0.000463   0.000000   0.000000   0.000020
    35  H    0.004627   0.000036  -0.000131   0.000104   0.000253   0.000000
    36  H   -0.003498  -0.000048  -0.000028   0.000001   0.000000   0.000000
    37  H   -0.001933  -0.000038   0.000019  -0.000001   0.000079   0.000000
    38  H    0.376856   0.010917  -0.000017   0.000000   0.000000   0.000000
    39  H    0.373323  -0.000530   0.000007   0.000000   0.000000   0.000000
    40  H    0.381232   0.000232  -0.000005   0.000000   0.000000   0.000000
              25         26         27         28         29         30
     1  O    0.008680  -0.000003   0.000002   0.000001   0.000000   0.000000
     2  S    0.008874  -0.000034   0.000014  -0.000167   0.000017   0.000000
     3  N   -0.007954  -0.003409   0.003181   0.001066   0.000280   0.000000
     4  C   -0.026261  -0.035046  -0.034284  -0.008105   0.004590   0.000080
     5  C    0.002218  -0.007782  -0.007381   0.000025  -0.000117  -0.000001
     6  S   -0.006960  -0.000477   0.005180  -0.000023   0.000045  -0.000003
     7  O    0.001206   0.000219   0.025025  -0.000002  -0.000001   0.000146
     8  C    0.323511   0.006350  -0.006984  -0.000145  -0.000094  -0.000024
     9  C    0.004170   0.355408   0.352678  -0.037372  -0.033024   0.000520
    10  C   -0.000033  -0.030916  -0.027974   0.362870   0.362686  -0.008160
    11  C    0.000008   0.004592  -0.005821  -0.039094  -0.030127  -0.046174
    12  C    0.000069   0.000053   0.003281   0.004372  -0.005224   0.360081
    13  C    0.000004   0.000002  -0.000126  -0.000169   0.000044  -0.043320
    14  C   -0.000008   0.000000   0.000002  -0.000004   0.000024   0.004742
    15  C   -0.000053   0.000002   0.000005   0.000257  -0.000218   0.000272
    16  C    0.000028  -0.000099   0.000019  -0.003834   0.002704   0.005931
    17  N    0.000049  -0.000004   0.000001  -0.000006   0.000000   0.000000
    18  C   -0.000005  -0.000016   0.000000   0.000000   0.000000   0.000000
    19  C    0.000002   0.000000   0.000000   0.000000   0.000000   0.000000
    20  O   -0.000118   0.000002   0.000001   0.000004   0.000000   0.000000
    21  H   -0.000036   0.000308   0.000404   0.011501  -0.000462   0.000000
    22  H   -0.000301   0.004778   0.000379   0.000003  -0.000015   0.000000
    23  H   -0.000140   0.000037   0.000154   0.000001   0.000002   0.000000
    24  H   -0.015674   0.000088  -0.000024   0.000101  -0.000008   0.000083
    25  H    0.491045  -0.000129   0.000140  -0.000001   0.000003   0.000001
    26  H   -0.000129   0.570931  -0.024847  -0.002697  -0.004528  -0.000085
    27  H    0.000140  -0.024847   0.528973   0.004370  -0.003157   0.001880
    28  H   -0.000001  -0.002697   0.004370   0.569809  -0.030152   0.000038
    29  H    0.000003  -0.004528  -0.003157  -0.030152   0.559558   0.003017
    30  H    0.000001  -0.000085   0.001880   0.000038   0.003017   0.579875
    31  H    0.000000   0.000000   0.000002   0.000003  -0.000003  -0.005283
    32  H    0.000000   0.000000   0.000000   0.000000   0.000000  -0.000167
    33  H    0.000001   0.000000   0.000000  -0.000007   0.000003   0.000016
    34  H    0.000003  -0.000018   0.000011   0.005868   0.000093  -0.000163
    35  H   -0.000001   0.000123   0.000000   0.000000   0.000000   0.000000
    36  H    0.000000   0.000000   0.000000   0.000000   0.000000   0.000000
    37  H    0.000000   0.000000   0.000000   0.000000   0.000000   0.000000
    38  H    0.000001   0.000000   0.000000   0.000000   0.000000   0.000000
    39  H   -0.000001   0.000000   0.000000   0.000000   0.000000   0.000000
    40  H    0.000000   0.000000   0.000000   0.000000   0.000000   0.000000
              31         32         33         34         35         36
     1  O    0.000000   0.000000   0.000000   0.000000  -0.001996   0.000045
     2  S    0.000000   0.000000  -0.000001   0.000820  -0.002670   0.002481
     3  N    0.000000   0.000000   0.000000   0.000262   0.013022   0.000016
     4  C    0.000000   0.000000   0.000001  -0.000169  -0.000795  -0.000005
     5  C    0.000000   0.000000   0.000000   0.000002   0.000461   0.000000
     6  S    0.000000   0.000000   0.000000   0.000004   0.000023   0.000000
     7  O   -0.000001   0.000000   0.000000   0.000000   0.000000   0.000000
     8  C   -0.000004   0.000000  -0.000006   0.000118   0.000058   0.000000
     9  C    0.000001   0.000000   0.000001   0.000093   0.000017   0.000000
    10  C   -0.000171   0.000006  -0.000169  -0.010134  -0.000002   0.000000
    11  C    0.003667   0.000625   0.003739  -0.044803   0.000000   0.000000
    12  C   -0.039153   0.004629   0.000717   0.006189   0.000000   0.000000
    13  C    0.361337  -0.042076   0.004502   0.000250   0.000000   0.000000
    14  C   -0.042160   0.363141  -0.042078   0.004783   0.000000   0.000000
    15  C    0.004550  -0.042150   0.360603  -0.043593   0.000000   0.000000
    16  C    0.000729   0.004652  -0.038293   0.355528   0.000000   0.000000
    17  N    0.000000   0.000000   0.000000  -0.000012  -0.033603  -0.033841
    18  C    0.000000   0.000000   0.000000   0.000000   0.374568   0.377705
    19  C    0.000000   0.000000   0.000000   0.000000   0.004627  -0.003498
    20  O    0.000000   0.000000  -0.000003   0.001751   0.000036  -0.000048
    21  H    0.000000   0.000000   0.000000   0.000463  -0.000131  -0.000028
    22  H    0.000000   0.000000   0.000000   0.000000   0.000104   0.000001
    23  H    0.000000   0.000000   0.000000   0.000000   0.000253   0.000000
    24  H    0.000008   0.000000   0.000008   0.000020   0.000000   0.000000
    25  H    0.000000   0.000000   0.000001   0.000003  -0.000001   0.000000
    26  H    0.000000   0.000000   0.000000  -0.000018   0.000123   0.000000
    27  H    0.000002   0.000000   0.000000   0.000011   0.000000   0.000000
    28  H    0.000003   0.000000  -0.000007   0.005868   0.000000   0.000000
    29  H   -0.000003   0.000000   0.000003   0.000093   0.000000   0.000000
    30  H   -0.005283  -0.000167   0.000016  -0.000163   0.000000   0.000000
    31  H    0.571367  -0.005213  -0.000173   0.000016   0.000000   0.000000
    32  H   -0.005213   0.572662  -0.005244  -0.000164   0.000000   0.000000
    33  H   -0.000173  -0.005244   0.571353  -0.005291   0.000000   0.000000
    34  H    0.000016  -0.000164  -0.005291   0.583720   0.000000   0.000000
    35  H    0.000000   0.000000   0.000000   0.000000   0.504166  -0.021592
    36  H    0.000000   0.000000   0.000000   0.000000  -0.021592   0.522487
    37  H    0.000000   0.000000   0.000000   0.000000  -0.030599  -0.034413
    38  H    0.000000   0.000000   0.000000   0.000001  -0.000193   0.000007
    39  H    0.000000   0.000000   0.000000   0.000000  -0.000189  -0.001297
    40  H    0.000000   0.000000   0.000000   0.000000   0.000053   0.004827
              37         38         39         40
     1  O    0.005064  -0.000108   0.002173  -0.000098
     2  S   -0.007548  -0.003176  -0.002986   0.002012
     3  N    0.000043   0.000070  -0.000056  -0.000086
     4  C    0.000087  -0.000003   0.000007   0.000000
     5  C   -0.000037   0.000000   0.000000   0.000000
     6  S   -0.000001   0.000000   0.000000   0.000000
     7  O    0.000000   0.000000   0.000000   0.000000
     8  C   -0.000001   0.000000   0.000000   0.000000
     9  C   -0.000001   0.000000   0.000000   0.000000
    10  C    0.000000   0.000000   0.000000   0.000000
    11  C    0.000000   0.000000   0.000000   0.000000
    12  C    0.000000   0.000000   0.000000   0.000000
    13  C    0.000000   0.000000   0.000000   0.000000
    14  C    0.000000   0.000000   0.000000   0.000000
    15  C    0.000000   0.000000   0.000000   0.000000
    16  C    0.000000   0.000000   0.000000   0.000000
    17  N   -0.045941  -0.032432  -0.046453  -0.037158
    18  C    0.376269   0.004413  -0.001900  -0.002677
    19  C   -0.001933   0.376856   0.373323   0.381232
    20  O   -0.000038   0.010917  -0.000530   0.000232
    21  H    0.000019  -0.000017   0.000007  -0.000005
    22  H   -0.000001   0.000000   0.000000   0.000000
    23  H    0.000079   0.000000   0.000000   0.000000
    24  H    0.000000   0.000000   0.000000   0.000000
    25  H    0.000000   0.000001  -0.000001   0.000000
    26  H    0.000000   0.000000   0.000000   0.000000
    27  H    0.000000   0.000000   0.000000   0.000000
    28  H    0.000000   0.000000   0.000000   0.000000
    29  H    0.000000   0.000000   0.000000   0.000000
    30  H    0.000000   0.000000   0.000000   0.000000
    31  H    0.000000   0.000000   0.000000   0.000000
    32  H    0.000000   0.000000   0.000000   0.000000
    33  H    0.000000   0.000000   0.000000   0.000000
    34  H    0.000000   0.000001   0.000000   0.000000
    35  H   -0.030599  -0.000193  -0.000189   0.000053
    36  H   -0.034413   0.000007  -0.001297   0.004827
    37  H    0.559965  -0.000164   0.008076  -0.001733
    38  H   -0.000164   0.497515  -0.030327  -0.020413
    39  H    0.008076  -0.030327   0.566496  -0.038124
    40  H   -0.001733  -0.020413  -0.038124   0.523736
 Mulliken charges:
               1
     1  O   -0.591729
     2  S    1.321637
     3  N   -0.738510
     4  C    0.224363
     5  C   -0.470631
     6  S    0.743914
     7  O   -0.690768
     8  C   -0.487949
     9  C   -0.309457
    10  C   -0.382051
    11  C    0.160194
    12  C   -0.192318
    13  C   -0.146652
    14  C   -0.151362
    15  C   -0.145824
    16  C   -0.202429
    17  N   -0.528111
    18  C   -0.328395
    19  C   -0.325759
    20  O   -0.564008
    21  H    0.398805
    22  H    0.207075
    23  H    0.223317
    24  H    0.218932
    25  H    0.217664
    26  H    0.167194
    27  H    0.184897
    28  H    0.161488
    29  H    0.174062
    30  H    0.146700
    31  H    0.150479
    32  H    0.149299
    33  H    0.150322
    34  H    0.144357
    35  H    0.194259
    36  H    0.187153
    37  H    0.172808
    38  H    0.197053
    39  H    0.171782
    40  H    0.188202
 Sum of Mulliken charges =   0.00000
 Mulliken charges with hydrogens summed into heavy atoms:
               1
     1  O   -0.591729
     2  S    1.321637
     3  N   -0.339705
     4  C    0.224363
     5  C   -0.040239
     6  S    0.743914
     7  O   -0.690768
     8  C   -0.051352
     9  C    0.042633
    10  C   -0.046501
    11  C    0.160194
    12  C   -0.045618
    13  C    0.003827
    14  C   -0.002063
    15  C    0.004497
    16  C   -0.058072
    17  N   -0.528111
    18  C    0.225824
    19  C    0.231277
    20  O   -0.564008
 Electronic spatial extent (au):  <R**2>=           6948.9750
 Charge=              0.0000 electrons
 Dipole moment (field-independent basis, Debye):
    X=             -4.7209    Y=             -3.0972    Z=              5.0003  Tot=              7.5421
 Quadrupole moment (field-independent basis, Debye-Ang):
   XX=           -116.8094   YY=           -145.3061   ZZ=           -130.0741
   XY=             -7.6639   XZ=            -10.9051   YZ=              2.5921
 Traceless Quadrupole moment (field-independent basis, Debye-Ang):
   XX=             13.9205   YY=            -14.5762   ZZ=              0.6558
   XY=             -7.6639   XZ=            -10.9051   YZ=              2.5921
 Octapole moment (field-independent basis, Debye-Ang**2):
  XXX=           -120.5473  YYY=            -42.1289  ZZZ=              9.3631  XYY=            -65.7829
  XXY=            -45.8795  XXZ=             12.7445  XZZ=              2.7497  YZZ=              5.7758
  YYZ=              2.1500  XYZ=             14.9901
 Hexadecapole moment (field-independent basis, Debye-Ang**3):
 XXXX=          -5099.9347 YYYY=          -2562.6513 ZZZZ=           -889.2636 XXXY=            166.1941
 XXXZ=           -167.6936 YYYX=           -103.3859 YYYZ=             46.8742 ZZZX=            -14.9273
 ZZZY=              4.4485 XXYY=          -1435.8213 XXZZ=          -1101.7686 YYZZ=           -546.6606
 XXYZ=             72.6441 YYXZ=            -40.1450 ZZXY=             11.3281
 N-N= 2.029868091309D+03 E-N=-7.910573931384D+03  KE= 1.628107225624D+03
 No NMR shielding tensors so no spin-rotation constants.
 Leave Link  601 at Sat Aug  8 02:47:16 2020, MaxMem=    33554432 cpu:         0.3
 (Enter /prod/apps/gaussian/g09d1/l9999.exe)
 1\1\GINC-PIRINEUS13\SP\RB3LYP\6-31G(d)\C13H20N2O3S2\UBAFAR01\08-Aug-20
 20\0\\#p b3lyp/6-31G(d) scrf=(iefpcm,read,solvent=Water) geom=allcheck
  guess=read\\SM37.n.11.pdb.xyz\\0,1\O,0,4.104,-1.448,1.211\S,0,4.618,-
 0.58,0.136\N,0,3.507,-0.658,-1.099\C,0,2.801,-1.9,-1.456\C,0,1.677,-2.
 278,-0.464\S,0,2.021,-4.102,-0.657\O,0,1.206,-4.657,-1.824\C,0,3.552,-
 3.255,-1.313\C,0,2.192,-1.704,-2.859\C,0,3.141,-1.378,-4.033\C,0,4.128
 ,-2.458,-4.428\C,0,3.696,-3.625,-5.076\C,0,4.605,-4.619,-5.441\C,0,5.9
 66,-4.459,-5.171\C,0,6.41,-3.299,-4.535\C,0,5.496,-2.308,-4.17\N,0,4.5
 01,1.06,0.47\C,0,3.211,1.46,1.053\C,0,5.668,1.629,1.171\O,0,5.999,-0.8
 15,-0.313\H,0,3.841,-0.108,-1.891\H,0,0.657,-1.998,-0.73\H,0,1.913,-2.
 001,0.563\H,0,3.949,-3.717,-2.213\H,0,4.29,-3.259,-0.51\H,0,1.461,-0.8
 92,-2.78\H,0,1.629,-2.617,-3.077\H,0,3.693,-0.453,-3.836\H,0,2.495,-1.
 155,-4.89\H,0,2.64,-3.756,-5.296\H,0,4.251,-5.514,-5.942\H,0,6.673,-5.
 231,-5.457\H,0,7.467,-3.162,-4.324\H,0,5.845,-1.408,-3.671\H,0,2.403,1
 .032,0.46\H,0,3.15,2.548,1.\H,0,3.11,1.146,2.098\H,0,6.581,1.324,0.664
 \H,0,5.711,1.326,2.225\H,0,5.574,2.715,1.12\\Version=AM64L-G09RevD.01\
 State=1-A\HF=-1638.8522535\RMSD=4.874e-09\Dipole=-0.0217382,2.9669012,
 -0.0419481\Quadrupole=-6.0537205,5.2802625,0.773458,-10.1660313,-3.069
 3557,8.3052896\PG=C01 [X(C13H20N2O3S2)]\\@


 ADVERTISING--  HE WHO HAS SOMETHING TO SELL AND GOES AND WHISPERS
                IN A WELL, IS NOT SO APT TO GET THE DOLLARS AS HE
                WHO CLIMBS A TREE AND HOLLERS.

                   -- FROM THE BACK OF A SUGAR PACKET
 Job cpu time:       0 days  0 hours  5 minutes 17.5 seconds.
 File lengths (MBytes):  RWF=    250 Int=      0 D2E=      0 Chk=      7 Scr=      1
 Normal termination of Gaussian 09 at Sat Aug  8 02:47:16 2020.
