 Entering Gaussian System, Link 0=g09
 Initial command:
 /prod/apps/gaussian/g09d1/l1.exe "/tmp/ubafar01/1449180/Gau-113102.inp" -scrdir="/tmp/ubafar01/1449180/"
 Entering Link 1 = /prod/apps/gaussian/g09d1/l1.exe PID=    113103.
  
 Copyright (c) 1988,1990,1992,1993,1995,1998,2003,2009,2013,
            Gaussian, Inc.  All Rights Reserved.
  
 This is part of the Gaussian(R) 09 program.  It is based on
 the Gaussian(R) 03 system (copyright 2003, Gaussian, Inc.),
 the Gaussian(R) 98 system (copyright 1998, Gaussian, Inc.),
 the Gaussian(R) 94 system (copyright 1995, Gaussian, Inc.),
 the Gaussian 92(TM) system (copyright 1992, Gaussian, Inc.),
 the Gaussian 90(TM) system (copyright 1990, Gaussian, Inc.),
 the Gaussian 88(TM) system (copyright 1988, Gaussian, Inc.),
 the Gaussian 86(TM) system (copyright 1986, Carnegie Mellon
 University), and the Gaussian 82(TM) system (copyright 1983,
 Carnegie Mellon University). Gaussian is a federally registered
 trademark of Gaussian, Inc.
  
 This software contains proprietary and confidential information,
 including trade secrets, belonging to Gaussian, Inc.
  
 This software is provided under written license and may be
 used, copied, transmitted, or stored only in accord with that
 written license.
  
 The following legend is applicable only to US Government
 contracts under FAR:
  
                    RESTRICTED RIGHTS LEGEND
  
 Use, reproduction and disclosure by the US Government is
 subject to restrictions as set forth in subparagraphs (a)
 and (c) of the Commercial Computer Software - Restricted
 Rights clause in FAR 52.227-19.
  
 Gaussian, Inc.
 340 Quinnipiac St., Bldg. 40, Wallingford CT 06492
  
  
 ---------------------------------------------------------------
 Warning -- This program may not be used in any manner that
 competes with the business of Gaussian, Inc. or will provide
 assistance to any competitor of Gaussian, Inc.  The licensee
 of this program is prohibited from giving any competitor of
 Gaussian, Inc. access to this program.  By using this program,
 the user acknowledges that Gaussian, Inc. is engaged in the
 business of creating and licensing software in the field of
 computational chemistry and represents and warrants to the
 licensee that it is not a competitor of Gaussian, Inc. and that
 it will not use this program in any manner prohibited above.
 ---------------------------------------------------------------
  

 Cite this work as:
 Gaussian 09, Revision D.01,
 M. J. Frisch, G. W. Trucks, H. B. Schlegel, G. E. Scuseria, 
 M. A. Robb, J. R. Cheeseman, G. Scalmani, V. Barone, B. Mennucci, 
 G. A. Petersson, H. Nakatsuji, M. Caricato, X. Li, H. P. Hratchian, 
 A. F. Izmaylov, J. Bloino, G. Zheng, J. L. Sonnenberg, M. Hada, 
 M. Ehara, K. Toyota, R. Fukuda, J. Hasegawa, M. Ishida, T. Nakajima, 
 Y. Honda, O. Kitao, H. Nakai, T. Vreven, J. A. Montgomery, Jr., 
 J. E. Peralta, F. Ogliaro, M. Bearpark, J. J. Heyd, E. Brothers, 
 K. N. Kudin, V. N. Staroverov, T. Keith, R. Kobayashi, J. Normand, 
 K. Raghavachari, A. Rendell, J. C. Burant, S. S. Iyengar, J. Tomasi, 
 M. Cossi, N. Rega, J. M. Millam, M. Klene, J. E. Knox, J. B. Cross, 
 V. Bakken, C. Adamo, J. Jaramillo, R. Gomperts, R. E. Stratmann, 
 O. Yazyev, A. J. Austin, R. Cammi, C. Pomelli, J. W. Ochterski, 
 R. L. Martin, K. Morokuma, V. G. Zakrzewski, G. A. Voth, 
 P. Salvador, J. J. Dannenberg, S. Dapprich, A. D. Daniels, 
 O. Farkas, J. B. Foresman, J. V. Ortiz, J. Cioslowski, 
 and D. J. Fox, Gaussian, Inc., Wallingford CT, 2013.
 
 ******************************************
 Gaussian 09:  AM64L-G09RevD.01 24-Apr-2013
                 8-Aug-2020 
 ******************************************
 %nproc=1
 Will use up to    1 processors via shared memory.
 %Chk=SM37.n.7.pdb.xyz.mst.n.w.chk
 -----------------
 #p b3lyp/6-31G(d)
 -----------------
 1/38=1/1;
 2/12=2,17=6,18=5,40=1/2;
 3/5=1,6=6,7=1,11=2,16=1,25=1,30=1,74=-5/1,2,3;
 4//1;
 5/5=2,38=5/2;
 6/7=2,8=2,9=2,10=2,28=1/1;
 99/5=1,9=1/99;
 Leave Link    1 at Sat Aug  8 02:36:30 2020, MaxMem=           0 cpu:         0.0
 (Enter /prod/apps/gaussian/g09d1/l101.exe)
 ----------------
 SM37.n.7.pdb.xyz
 ----------------
 Symbolic Z-matrix:
 Charge =  0 Multiplicity = 1
 O                     4.743     0.548     0.338 
 S                     4.329    -0.861     0.263 
 N                     3.45     -0.974    -1.132 
 C                     2.743    -2.153    -1.661 
 C                     1.749    -2.832    -0.687 
 S                     2.148    -4.528    -1.359 
 O                     1.227    -4.845    -2.536 
 C                     3.557    -3.445    -1.937 
 C                     2.034    -1.705    -2.952 
 C                     1.023    -0.56     -2.777 
 C                     0.313    -0.232    -4.071 
 C                    -0.764    -1.011    -4.518 
 C                    -1.404    -0.724    -5.725 
 C                    -0.976     0.352    -6.507 
 C                     0.094     1.135    -6.073 
 C                     0.73      0.844    -4.865 
 N                     5.667    -1.886     0.065 
 C                     6.602    -1.415    -0.97 
 C                     6.344    -2.211     1.338 
 O                     3.552    -1.431     1.369 
 H                     3.796    -0.321    -1.836 
 H                     0.696    -2.569    -0.784 
 H                     2.063    -2.795     0.355 
 H                     3.853    -3.638    -2.969 
 H                     4.398    -3.59     -1.258 
 H                     1.528    -2.59     -3.35 
 H                     2.796    -1.419    -3.687 
 H                     1.537     0.331    -2.405 
 H                     0.289    -0.844    -2.014 
 H                    -1.106    -1.847    -3.914 
 H                    -2.239    -1.336    -6.051 
 H                    -1.475     0.578    -7.444 
 H                     0.432     1.976    -6.671 
 H                     1.56      1.46     -4.528 
 H                     6.066    -1.234    -1.901 
 H                     7.328    -2.212    -1.142 
 H                     7.133    -0.504    -0.671 
 H                     5.611    -2.576     2.054 
 H                     6.877    -1.349     1.76 
 H                     7.065    -3.002     1.126 
 
 NAtoms=     40 NQM=       40 NQMF=       0 NMMI=      0 NMMIF=      0
                NMic=       0 NMicF=      0.
                    Isotopes and Nuclear Properties:
 (Nuclear quadrupole moments (NQMom) in fm**2, nuclear magnetic moments (NMagM)
  in nuclear magnetons)

  Atom         1           2           3           4           5           6           7           8           9          10
 IAtWgt=          16          32          14          12          12          32          16          12          12          12
 AtmWgt=  15.9949146  31.9720718  14.0030740  12.0000000  12.0000000  31.9720718  15.9949146  12.0000000  12.0000000  12.0000000
 NucSpn=           0           0           2           0           0           0           0           0           0           0
 AtZEff=   0.0000000   0.0000000   0.0000000   0.0000000   0.0000000   0.0000000   0.0000000   0.0000000   0.0000000   0.0000000
 NQMom=    0.0000000   0.0000000   2.0440000   0.0000000   0.0000000   0.0000000   0.0000000   0.0000000   0.0000000   0.0000000
 NMagM=    0.0000000   0.0000000   0.4037610   0.0000000   0.0000000   0.0000000   0.0000000   0.0000000   0.0000000   0.0000000
 AtZNuc=   8.0000000  16.0000000   7.0000000   6.0000000   6.0000000  16.0000000   8.0000000   6.0000000   6.0000000   6.0000000

  Atom        11          12          13          14          15          16          17          18          19          20
 IAtWgt=          12          12          12          12          12          12          14          12          12          16
 AtmWgt=  12.0000000  12.0000000  12.0000000  12.0000000  12.0000000  12.0000000  14.0030740  12.0000000  12.0000000  15.9949146
 NucSpn=           0           0           0           0           0           0           2           0           0           0
 AtZEff=   0.0000000   0.0000000   0.0000000   0.0000000   0.0000000   0.0000000   0.0000000   0.0000000   0.0000000   0.0000000
 NQMom=    0.0000000   0.0000000   0.0000000   0.0000000   0.0000000   0.0000000   2.0440000   0.0000000   0.0000000   0.0000000
 NMagM=    0.0000000   0.0000000   0.0000000   0.0000000   0.0000000   0.0000000   0.4037610   0.0000000   0.0000000   0.0000000
 AtZNuc=   6.0000000   6.0000000   6.0000000   6.0000000   6.0000000   6.0000000   7.0000000   6.0000000   6.0000000   8.0000000

  Atom        21          22          23          24          25          26          27          28          29          30
 IAtWgt=           1           1           1           1           1           1           1           1           1           1
 AtmWgt=   1.0078250   1.0078250   1.0078250   1.0078250   1.0078250   1.0078250   1.0078250   1.0078250   1.0078250   1.0078250
 NucSpn=           1           1           1           1           1           1           1           1           1           1
 AtZEff=   0.0000000   0.0000000   0.0000000   0.0000000   0.0000000   0.0000000   0.0000000   0.0000000   0.0000000   0.0000000
 NQMom=    0.0000000   0.0000000   0.0000000   0.0000000   0.0000000   0.0000000   0.0000000   0.0000000   0.0000000   0.0000000
 NMagM=    2.7928460   2.7928460   2.7928460   2.7928460   2.7928460   2.7928460   2.7928460   2.7928460   2.7928460   2.7928460
 AtZNuc=   1.0000000   1.0000000   1.0000000   1.0000000   1.0000000   1.0000000   1.0000000   1.0000000   1.0000000   1.0000000

  Atom        31          32          33          34          35          36          37          38          39          40
 IAtWgt=           1           1           1           1           1           1           1           1           1           1
 AtmWgt=   1.0078250   1.0078250   1.0078250   1.0078250   1.0078250   1.0078250   1.0078250   1.0078250   1.0078250   1.0078250
 NucSpn=           1           1           1           1           1           1           1           1           1           1
 AtZEff=   0.0000000   0.0000000   0.0000000   0.0000000   0.0000000   0.0000000   0.0000000   0.0000000   0.0000000   0.0000000
 NQMom=    0.0000000   0.0000000   0.0000000   0.0000000   0.0000000   0.0000000   0.0000000   0.0000000   0.0000000   0.0000000
 NMagM=    2.7928460   2.7928460   2.7928460   2.7928460   2.7928460   2.7928460   2.7928460   2.7928460   2.7928460   2.7928460
 AtZNuc=   1.0000000   1.0000000   1.0000000   1.0000000   1.0000000   1.0000000   1.0000000   1.0000000   1.0000000   1.0000000
 Leave Link  101 at Sat Aug  8 02:36:30 2020, MaxMem=    33554432 cpu:         0.1
 (Enter /prod/apps/gaussian/g09d1/l202.exe)
                          Input orientation:                          
 ---------------------------------------------------------------------
 Center     Atomic      Atomic             Coordinates (Angstroms)
 Number     Number       Type             X           Y           Z
 ---------------------------------------------------------------------
      1          8           0        4.743000    0.548000    0.338000
      2         16           0        4.329000   -0.861000    0.263000
      3          7           0        3.450000   -0.974000   -1.132000
      4          6           0        2.743000   -2.153000   -1.661000
      5          6           0        1.749000   -2.832000   -0.687000
      6         16           0        2.148000   -4.528000   -1.359000
      7          8           0        1.227000   -4.845000   -2.536000
      8          6           0        3.557000   -3.445000   -1.937000
      9          6           0        2.034000   -1.705000   -2.952000
     10          6           0        1.023000   -0.560000   -2.777000
     11          6           0        0.313000   -0.232000   -4.071000
     12          6           0       -0.764000   -1.011000   -4.518000
     13          6           0       -1.404000   -0.724000   -5.725000
     14          6           0       -0.976000    0.352000   -6.507000
     15          6           0        0.094000    1.135000   -6.073000
     16          6           0        0.730000    0.844000   -4.865000
     17          7           0        5.667000   -1.886000    0.065000
     18          6           0        6.602000   -1.415000   -0.970000
     19          6           0        6.344000   -2.211000    1.338000
     20          8           0        3.552000   -1.431000    1.369000
     21          1           0        3.796000   -0.321000   -1.836000
     22          1           0        0.696000   -2.569000   -0.784000
     23          1           0        2.063000   -2.795000    0.355000
     24          1           0        3.853000   -3.638000   -2.969000
     25          1           0        4.398000   -3.590000   -1.258000
     26          1           0        1.528000   -2.590000   -3.350000
     27          1           0        2.796000   -1.419000   -3.687000
     28          1           0        1.537000    0.331000   -2.405000
     29          1           0        0.289000   -0.844000   -2.014000
     30          1           0       -1.106000   -1.847000   -3.914000
     31          1           0       -2.239000   -1.336000   -6.051000
     32          1           0       -1.475000    0.578000   -7.444000
     33          1           0        0.432000    1.976000   -6.671000
     34          1           0        1.560000    1.460000   -4.528000
     35          1           0        6.066000   -1.234000   -1.901000
     36          1           0        7.328000   -2.212000   -1.142000
     37          1           0        7.133000   -0.504000   -0.671000
     38          1           0        5.611000   -2.576000    2.054000
     39          1           0        6.877000   -1.349000    1.760000
     40          1           0        7.065000   -3.002000    1.126000
 ---------------------------------------------------------------------
                    Distance matrix (angstroms):
                    1          2          3          4          5
     1  O    0.000000
     2  S    1.470477   0.000000
     3  N    2.479765   1.652705   0.000000
     4  C    3.910422   2.808280   1.473001   0.000000
     5  C    4.630233   3.382860   2.558044   1.548468   0.000000
     6  S    5.948076   4.564486   3.791787   2.466952   1.867405
     7  O    7.050289   5.773133   4.679486   3.211035   2.782706
     8  C    4.746185   3.480379   2.601022   1.551785   2.281914
     9  C    4.820663   4.039256   2.419053   1.539502   2.545895
    10  C    4.976875   4.501315   2.961039   2.596441   3.171303
    11  C    6.298617   5.942007   4.362230   3.924696   4.502616
    12  C    7.505882   6.987067   5.405938   4.665368   4.930291
    13  C    8.727174   8.291092   6.687261   5.979611   6.306070
    14  C    8.921850   8.686040   7.087904   6.602250   7.171881
    15  C    7.940950   7.878080   6.334359   6.106872   6.890944
    16  C    6.577461   6.492781   4.963750   4.826986   5.657475
    17  N    2.617759   1.697078   2.679485   3.405898   4.100140
    18  C    3.003350   2.644567   3.186821   3.989236   5.063555
    19  C    3.342945   2.652989   4.000788   4.686637   5.059673
    20  O    2.529404   1.466924   2.544456   3.218177   3.072580
    21  H    2.525519   2.231925   1.020657   2.120297   3.437373
    22  H    5.229989   4.148754   3.201507   2.265479   1.089673
    23  H    4.284663   2.980533   2.729648   2.222346   1.088912
    24  H    5.408414   4.287672   3.260962   2.268962   3.206864
    25  H    4.448515   3.125003   2.785325   2.228543   2.813860
    26  H    5.812453   4.887618   3.350383   2.126009   2.683090
    27  H    4.884723   4.273635   2.674653   2.155514   3.477467
    28  H    4.224876   4.041578   2.642560   2.859760   3.605695
    29  H    5.225675   4.637523   3.284318   2.803606   2.800834
    30  H    7.617502   6.925226   5.409139   4.470397   4.419817
    31  H    9.649720   9.123094   7.529431   6.690285   6.849427
    32  H    9.961122   9.754742   8.155101   7.661134   8.226744
    33  H    8.351646   8.444853   6.963573   6.891260   7.788428
    34  H    5.885677   6.000674   4.585768   4.761612   5.762835
    35  H    3.152614   2.799856   2.739054   3.456080   4.760661
    36  H    4.060816   3.576762   4.070826   4.614658   5.631755
    37  H    2.799444   2.976948   3.741378   4.792849   5.865773
    38  H    3.668441   2.791492   4.169763   4.712279   4.742748
    39  H    3.189773   2.995239   4.499846   5.425828   5.872264
    40  H    4.314525   3.579713   4.720124   5.212279   5.619228
                    6          7          8          9         10
     6  S    0.000000
     7  O    1.527763   0.000000
     8  C    1.868757   2.783469   0.000000
     9  C    3.243451   3.268624   2.525342   0.000000
    10  C    4.361350   4.296618   3.930646   1.537456   0.000000
    11  C    5.401647   4.946857   5.039927   2.526605   1.511992
    12  C    5.552325   4.753100   5.590792   3.280670   2.535321
    13  C    6.793311   5.837339   6.809134   4.524570   3.822032
    14  C    7.750850   6.901511   7.473299   5.092089   4.329047
    15  C    7.649201   7.039493   7.076388   4.644334   3.820953
    16  C    6.569714   6.167331   5.912752   3.443456   2.533142
    17  N    4.625073   5.935864   3.300089   4.725859   5.603747
    18  C    5.447954   6.565659   3.785236   4.987890   5.926341
    19  C    5.499883   6.937544   4.473897   6.102150   6.926187
    20  O    4.359428   5.684193   3.871157   4.588076   4.933943
    21  H    4.543378   5.249413   3.134756   2.503109   2.938049
    22  H    2.505316   2.920897   3.206572   2.690161   2.848694
    23  H    2.438916   3.641329   2.812081   3.482124   3.985756
    24  H    2.508231   2.922364   1.090820   2.654343   4.185672
    25  H    2.439784   3.641916   1.090572   3.465740   4.783188
    26  H    2.846810   2.416241   2.616187   1.094379   2.168929
    27  H    3.937686   3.940056   2.783217   1.096661   2.170141
    28  H    5.007726   5.186929   4.307853   2.165990   1.093829
    29  H    4.178129   4.142503   4.177434   2.160137   1.096167
    30  H    4.929939   4.041012   5.310904   3.287128   2.735284
    31  H    7.172830   6.056522   7.413939   5.291360   4.686352
    32  H    8.730670   7.797320   8.475412   6.140296   5.414419
    33  H    8.571115   8.016002   7.846249   5.472397   4.684422
    34  H    6.800327   6.620572   5.895788   3.567307   2.726677
    35  H    5.147322   6.071117   3.344383   4.193264   5.162703
    36  H    5.678322   6.789560   4.046326   5.617792   6.719773
    37  H    6.443302   7.563289   4.800001   5.713595   6.463008
    38  H    5.239393   6.740617   4.571888   6.213985   6.960787
    39  H    6.495971   7.912025   5.392905   6.766412   7.448235
    40  H    5.716711   7.133662   4.678064   6.604790   7.596219
                   11         12         13         14         15
    11  C    0.000000
    12  C    1.402348   0.000000
    13  C    2.434311   1.396001   0.000000
    14  C    2.817210   2.420503   1.397313   0.000000
    15  C    2.434061   2.785589   2.412673   1.395115   0.000000
    16  C    1.400750   2.406963   2.784274   2.418401   1.395866
    17  N    6.964735   7.945267   9.212675   9.608812   8.823821
    18  C    7.111063   8.185932   9.337213   9.550222   8.654315
    19  C    8.339465   9.287432  10.589081  11.031564  10.255786
    20  O    6.443782   7.311705   8.682547   9.258145   8.597993
    21  H    4.139376   5.335056   6.505900   6.711420   5.811791
    22  H    4.051250   4.301363   5.676928   6.639319   6.485024
    23  H    5.405640   5.909375   7.299009   8.137947   7.787236
    24  H    5.034565   5.533283   6.612336   7.194219   6.822494
    25  H    5.989688   6.627600   7.863285   8.483587   8.002141
    26  H    2.748860   3.018398   4.209419   4.989191   4.831843
    27  H    2.778797   3.678400   4.719795   5.031583   4.417773
    28  H    2.142592   3.400049   4.559047   4.810615   4.022796
    29  H    2.146245   2.721528   4.080707   4.818474   4.519950
    30  H    2.155559   1.086589   2.151663   3.402374   3.872158
    31  H    3.413491   2.152055   1.085378   2.156954   3.398413
    32  H    3.902585   3.404691   2.157593   1.085378   2.156769
    33  H    3.413125   3.871433   3.399384   2.155629   1.085877
    34  H    2.150982   3.392185   3.871429   3.402264   2.154485
    35  H    6.229760   7.317603   8.407376   8.562733   7.660452
    36  H    7.855550   8.849872   9.973257  10.213410   9.372722
    37  H    7.625378   8.798811   9.923290  10.027338   9.023051
    38  H    8.430822   9.288758  10.637338  11.191625  10.500330
    39  H    8.850669   9.895070  11.179929  11.528499  10.655291
    40  H    8.959420   9.854545  11.128767  11.583164  10.841366
                   16         17         18         19         20
    16  C    0.000000
    17  N    7.492114   0.000000
    18  C    7.399628   1.472172   0.000000
    19  C    8.906584   1.478000   2.455004   0.000000
    20  O    7.211246   2.525998   3.843654   2.899073   0.000000
    21  H    4.464574   3.092518   3.133756   4.487614   3.400538
    22  H    5.320177   5.089021   6.020560   6.044084   3.753290
    23  H    6.501354   3.728163   4.925703   4.431061   2.259605
    24  H    5.782410   3.945283   4.061371   5.176066   4.876443
    25  H    6.791541   2.502860   3.109853   3.525305   3.504016
    26  H    3.837237   5.411946   5.726299   6.731630   5.263917
    27  H    3.282866   4.747445   4.676296   6.202112   5.112222
    28  H    2.639322   5.298386   5.546347   6.601444   4.626872
    29  H    3.342458   5.859257   6.424169   7.054617   4.736711
    30  H    3.393638   7.855412   8.262386   9.122417   7.055502
    31  H    3.869620  10.010634  10.197357  11.359174   9.412816
    32  H    3.403531  10.651974  10.541473  12.084652  10.342910
    33  H    2.152177   9.364506   9.059204  10.799389   9.272737
    34  H    1.087164   7.011335   6.807845   8.412660   6.862984
    35  H    6.447967   2.109375   1.089412   3.394545   4.129395
    36  H    8.169056   2.078953   1.091728   2.668081   4.601441
    37  H    7.772075   2.144942   1.096031   2.751809   4.224274
    38  H    9.131983   2.106029   3.387415   1.087736   2.453514
    39  H    9.299757   2.150696   2.744609   1.097824   3.348915
    40  H    9.529744   2.079803   2.669486   1.091085   3.855938
                   21         22         23         24         25
    21  H    0.000000
    22  H    3.971172   0.000000
    23  H    3.731547   1.793624   0.000000
    24  H    3.505628   3.985428   3.868297   0.000000
    25  H    3.373848   3.869357   2.947205   1.796344   0.000000
    26  H    3.547447   2.697595   3.749037   2.578583   3.689629
    27  H    2.373142   3.762965   4.332254   2.560612   3.630384
    28  H    2.419080   3.427087   4.203112   4.629785   4.987501
    29  H    3.550248   2.157353   3.544804   4.628235   4.999593
    30  H    5.538625   3.683122   5.400521   5.356528   6.355030
    31  H    7.430860   6.154332   7.853198   7.204887   8.491356
    32  H    7.748633   7.679352   9.204291   8.135592   9.493732
    33  H    6.322178   7.442008   8.647964   7.544869   8.718376
    34  H    3.926642   5.567484   6.496285   5.803269   6.652041
    35  H    2.447589   5.645070   4.852862   3.437617   2.957433
    36  H    4.066023   6.651243   5.504646   4.176964   3.239944
    37  H    3.539249   6.761062   5.657407   5.085387   4.165116
    38  H    4.848850   5.675519   3.939907   5.426687   3.670001
    39  H    4.845674   6.794490   5.219151   6.061975   4.502871
    40  H    5.162128   6.663314   5.065303   5.243135   3.625202
                   26         27         28         29         30
    26  H    0.000000
    27  H    1.758589   0.000000
    28  H    3.070073   2.508208   0.000000
    29  H    2.523595   3.068323   1.758127   0.000000
    30  H    2.794298   3.931961   3.742488   2.561647   0.000000
    31  H    4.801896   5.562968   5.507303   4.788551   2.472161
    32  H    5.984569   6.028640   5.875770   5.883764   4.298568
    33  H    5.751401   5.100860   4.703808   5.446145   4.958006
    34  H    4.217963   3.244013   2.404641   3.639238   4.291946
    35  H    4.952957   3.730539   4.818203   5.791252   7.474324
    36  H    6.217568   5.257842   6.449628   7.223526   8.885357
    37  H    6.553202   5.361255   5.917702   6.982806   8.955547
    38  H    6.773057   6.497842   6.703045   6.918969   9.014796
    39  H    7.500932   6.806561   6.977480   7.609195   9.806659
    40  H    7.131808   6.625347   7.357692   7.773721   9.669585
                   31         32         33         34         35
    31  H    0.000000
    32  H    2.487477   0.000000
    33  H    4.299766   2.487686   0.000000
    34  H    4.956768   4.300256   2.476104   0.000000
    35  H    9.284715   9.532831   8.049780   5.870503   0.000000
    36  H   10.788566  11.179987   9.780798   7.630099   1.767826
    37  H   10.838404  11.006449   9.330263   7.056350   1.784458
    38  H   11.351261  12.262590  11.120628   8.719095   4.201192
    39  H   12.004722  12.577076  11.120945   8.700570   3.751515
    40  H   11.867995  12.617167  11.382899   9.065439   3.645073
                   36         37         38         39         40
    36  H    0.000000
    37  H    1.782451   0.000000
    38  H    3.646231   3.746371   0.000000
    39  H    3.061009   2.586372   1.787378   0.000000
    40  H    2.416008   3.077960   1.776732   1.780368   0.000000
 Stoichiometry    C13H20N2O3S2
 Framework group  C1[X(C13H20N2O3S2)]
 Deg. of freedom   114
 Full point group                 C1      NOp   1
 Largest Abelian subgroup         C1      NOp   1
 Largest concise Abelian subgroup C1      NOp   1
                         Standard orientation:                         
 ---------------------------------------------------------------------
 Center     Atomic      Atomic             Coordinates (Angstroms)
 Number     Number       Type             X           Y           Z
 ---------------------------------------------------------------------
      1          8           0        2.683279   -2.560843   -0.743489
      2         16           0        2.611170   -1.099461   -0.596978
      3          7           0        1.048537   -0.791236   -0.155829
      4          6           0        0.413045    0.519887    0.060592
      5          6           0        0.544121    1.529586   -1.106061
      6         16           0        0.663342    2.974085    0.071399
      7          8           0       -0.736457    3.500697    0.383334
      8          6           0        1.019489    1.472346    1.125056
      9          6           0       -1.065189    0.248663    0.394252
     10          6           0       -1.850141   -0.507916   -0.689818
     11          6           0       -3.308646   -0.665293   -0.323601
     12          6           0       -4.215208    0.387958   -0.511713
     13          6           0       -5.556832    0.252094   -0.150599
     14          6           0       -6.015416   -0.944856    0.405723
     15          6           0       -5.123549   -2.000399    0.597419
     16          6           0       -3.783212   -1.859429    0.234008
     17          7           0        3.581605   -0.560915    0.686882
     18          6           0        3.406216   -1.358266    1.911937
     19          6           0        5.002152   -0.397119    0.313116
     20          8           0        2.963403   -0.254257   -1.743026
     21          1           0        0.667997   -1.557320    0.400988
     22          1           0       -0.295391    1.607087   -1.796423
     23          1           0        1.485372    1.452267   -1.648092
     24          1           0        0.532759    1.505707    2.100694
     25          1           0        2.100876    1.381563    1.233257
     26          1           0       -1.525921    1.225003    0.573561
     27          1           0       -1.113444   -0.302541    1.341095
     28          1           0       -1.403338   -1.493877   -0.847005
     29          1           0       -1.763370    0.034091   -1.638650
     30          1           0       -3.867914    1.320720   -0.947625
     31          1           0       -6.243720    1.077418   -0.308932
     32          1           0       -7.059011   -1.052678    0.683807
     33          1           0       -5.470303   -2.936310    1.025158
     34          1           0       -3.092766   -2.686369    0.380227
     35          1           0        2.349922   -1.411462    2.173148
     36          1           0        3.932567   -0.841388    2.716711
     37          1           0        3.809573   -2.372510    1.812461
     38          1           0        5.071753    0.218756   -0.580765
     39          1           0        5.502593   -1.358873    0.140473
     40          1           0        5.495813    0.113473    1.141403
 ---------------------------------------------------------------------
 Rotational constants (GHZ):      0.4658374      0.1516558      0.1263802
 Leave Link  202 at Sat Aug  8 02:36:30 2020, MaxMem=    33554432 cpu:         0.0
 (Enter /prod/apps/gaussian/g09d1/l301.exe)
 Standard basis: 6-31G(d) (6D, 7F)
 Ernie: Thresh=  0.10000D-02 Tol=  0.10000D-05 Strict=F.
 There are   348 symmetry adapted cartesian basis functions of A   symmetry.
 There are   348 symmetry adapted basis functions of A   symmetry.
   348 basis functions,   688 primitive gaussians,   348 cartesian basis functions
    84 alpha electrons       84 beta electrons
       nuclear repulsion energy      1961.2153464570 Hartrees.
 IExCor=  402 DFT=T Ex+Corr=B3LYP ExCW=0 ScaHFX=  0.200000
 ScaDFX=  0.800000  0.720000  1.000000  0.810000 ScalE2=  1.000000  1.000000
 IRadAn=      0 IRanWt=     -1 IRanGd=            0 ICorTp=0 IEmpDi=  4
 NAtoms=   40 NActive=   40 NUniq=   40 SFac= 1.00D+00 NAtFMM=   60 NAOKFM=F Big=F
 Integral buffers will be    131072 words long.
 Raffenetti 2 integral format.
 Two-electron integral symmetry is turned on.
 Leave Link  301 at Sat Aug  8 02:36:30 2020, MaxMem=    33554432 cpu:         0.0
 (Enter /prod/apps/gaussian/g09d1/l302.exe)
 NPDir=0 NMtPBC=     1 NCelOv=     1 NCel=       1 NClECP=     1 NCelD=      1
         NCelK=      1 NCelE2=     1 NClLst=     1 CellRange=     0.0.
 One-electron integrals computed using PRISM.
 NBasis=   348 RedAO= T EigKep=  4.67D-04  NBF=   348
 NBsUse=   348 1.00D-06 EigRej= -1.00D+00 NBFU=   348
 Precomputing XC quadrature grid using
 IXCGrd= 4 IRadAn=           0 IRanWt=          -1 IRanGd=           0 AccXCQ= 0.00D+00.
 Generated NRdTot=       0 NPtTot=           0 NUsed=           0 NTot=          32
 NSgBfM=   343   343   343   343   343 MxSgAt=    40 MxSgA2=    40.
 Leave Link  302 at Sat Aug  8 02:36:31 2020, MaxMem=    33554432 cpu:         1.2
 (Enter /prod/apps/gaussian/g09d1/l303.exe)
 DipDrv:  MaxL=1.
 Leave Link  303 at Sat Aug  8 02:36:31 2020, MaxMem=    33554432 cpu:         0.0
 (Enter /prod/apps/gaussian/g09d1/l401.exe)
 ExpMin= 1.17D-01 ExpMax= 2.19D+04 ExpMxC= 3.30D+03 IAcc=1 IRadAn=         1 AccDes= 0.00D+00
 Harris functional with IExCor=  402 and IRadAn=       1 diagonalized for initial guess.
 HarFok:  IExCor=  402 AccDes= 0.00D+00 IRadAn=         1 IDoV= 1 UseB2=F ITyADJ=14
 ICtDFT=  3500011 ScaDFX=  1.000000  1.000000  1.000000  1.000000
 FoFCou: FMM=F IPFlag=           0 FMFlag=      100000 FMFlg1=           0
         NFxFlg=           0 DoJE=T BraDBF=F KetDBF=T FulRan=T
         wScrn=  0.000000 ICntrl=     500 IOpCl=  0 I1Cent=   200000004 NGrid=           0
         NMat0=    1 NMatS0=      1 NMatT0=    0 NMatD0=    1 NMtDS0=    0 NMtDT0=    0
 Petite list used in FoFCou.
 Harris En= -1638.91693762496    
 JPrj=0 DoOrth=F DoCkMO=F.
 Leave Link  401 at Sat Aug  8 02:36:36 2020, MaxMem=    33554432 cpu:         4.7
 (Enter /prod/apps/gaussian/g09d1/l502.exe)
 Closed shell SCF:
 Using DIIS extrapolation, IDIIS=  1040.
 Integral symmetry usage will be decided dynamically.
 IVT=      386588 IEndB=      386588 NGot=    33554432 MDV=    33305937
 LenX=    33305937 LenY=    33184392
 Requested convergence on RMS density matrix=1.00D-08 within 128 cycles.
 Requested convergence on MAX density matrix=1.00D-06.
 Requested convergence on             energy=1.00D-06.
 No special actions if energy rises.
 Fock matrices will be formed incrementally for  20 cycles.
 Integral accuracy reduced to 1.0D-05 until final iterations.

 Cycle   1  Pass 0  IDiag  1:
 FoFJK:  IHMeth= 1 ICntrl=       0 DoSepK=F KAlg= 0 I1Cent=   0 FoldK=F
 IRaf= 740000000 NMat=   1 IRICut=       1 DoRegI=T DoRafI=F ISym2E= 0.
 FoFCou: FMM=F IPFlag=           0 FMFlag=      100000 FMFlg1=           0
         NFxFlg=           0 DoJE=F BraDBF=F KetDBF=F FulRan=T
         wScrn=  0.000000 ICntrl=       0 IOpCl=  0 I1Cent=           0 NGrid=           0
         NMat0=    1 NMatS0=      1 NMatT0=    0 NMatD0=    1 NMtDS0=    0 NMtDT0=    0
 Symmetry not used in FoFCou.
 E= -1638.04038111335    
 DIIS: error= 3.25D-02 at cycle   1 NSaved=   1.
 NSaved= 1 IEnMin= 1 EnMin= -1638.04038111335     IErMin= 1 ErrMin= 3.25D-02
 ErrMax= 3.25D-02  0.00D+00 EMaxC= 1.00D-01 BMatC= 8.97D-01 BMatP= 8.97D-01
 IDIUse=3 WtCom= 6.75D-01 WtEn= 3.25D-01
 Coeff-Com:  0.100D+01
 Coeff-En:   0.100D+01
 Coeff:      0.100D+01
 Gap=     0.349 Goal=   None    Shift=    0.000
 GapD=    0.349 DampG=1.000 DampE=0.500 DampFc=0.5000 IDamp=-1.
 Damping current iteration by 5.00D-01
 RMSDP=7.93D-03 MaxDP=6.08D-01              OVMax= 3.60D-01

 Cycle   2  Pass 0  IDiag  1:
 RMSU=  3.96D-03    CP:  9.99D-01
 E= -1638.15048038256     Delta-E=       -0.110099269211 Rises=F Damp=T
 DIIS: error= 1.75D-02 at cycle   2 NSaved=   2.
 NSaved= 2 IEnMin= 2 EnMin= -1638.15048038256     IErMin= 2 ErrMin= 1.75D-02
 ErrMax= 1.75D-02  0.00D+00 EMaxC= 1.00D-01 BMatC= 1.98D-01 BMatP= 8.97D-01
 IDIUse=3 WtCom= 8.25D-01 WtEn= 1.75D-01
 Coeff-Com:  0.276D+00 0.724D+00
 Coeff-En:   0.436D+00 0.564D+00
 Coeff:      0.304D+00 0.696D+00
 Gap=     0.330 Goal=   None    Shift=    0.000
 RMSDP=2.97D-03 MaxDP=1.54D-01 DE=-1.10D-01 OVMax= 2.49D-01

 Cycle   3  Pass 0  IDiag  1:
 RMSU=  2.18D-03    CP:  9.86D-01  4.94D-01
 E= -1638.67771882135     Delta-E=       -0.527238438788 Rises=F Damp=F
 DIIS: error= 1.66D-02 at cycle   3 NSaved=   3.
 NSaved= 3 IEnMin= 3 EnMin= -1638.67771882135     IErMin= 3 ErrMin= 1.66D-02
 ErrMax= 1.66D-02  0.00D+00 EMaxC= 1.00D-01 BMatC= 1.64D-01 BMatP= 1.98D-01
 IDIUse=3 WtCom= 8.34D-01 WtEn= 1.66D-01
 Coeff-Com:  0.127D+00 0.466D+00 0.407D+00
 Coeff-En:   0.000D+00 0.000D+00 0.100D+01
 Coeff:      0.106D+00 0.389D+00 0.505D+00
 Gap=     0.248 Goal=   None    Shift=    0.000
 RMSDP=2.05D-03 MaxDP=9.19D-02 DE=-5.27D-01 OVMax= 1.85D-01

 Cycle   4  Pass 0  IDiag  1:
 RMSU=  1.02D-03    CP:  9.95D-01  6.78D-01  2.61D-01
 E= -1638.79400219162     Delta-E=       -0.116283370272 Rises=F Damp=F
 DIIS: error= 1.05D-02 at cycle   4 NSaved=   4.
 NSaved= 4 IEnMin= 4 EnMin= -1638.79400219162     IErMin= 4 ErrMin= 1.05D-02
 ErrMax= 1.05D-02  0.00D+00 EMaxC= 1.00D-01 BMatC= 4.24D-02 BMatP= 1.64D-01
 IDIUse=3 WtCom= 8.95D-01 WtEn= 1.05D-01
 Coeff-Com:  0.272D-01 0.104D+00 0.333D+00 0.536D+00
 Coeff-En:   0.000D+00 0.000D+00 0.241D+00 0.759D+00
 Coeff:      0.243D-01 0.932D-01 0.323D+00 0.559D+00
 Gap=     0.234 Goal=   None    Shift=    0.000
 RMSDP=8.77D-04 MaxDP=4.42D-02 DE=-1.16D-01 OVMax= 8.09D-02

 Cycle   5  Pass 0  IDiag  1:
 RMSU=  3.56D-04    CP:  9.93D-01  6.02D-01  5.33D-01  5.60D-01
 E= -1638.82817050663     Delta-E=       -0.034168315010 Rises=F Damp=F
 DIIS: error= 2.89D-03 at cycle   5 NSaved=   5.
 NSaved= 5 IEnMin= 5 EnMin= -1638.82817050663     IErMin= 5 ErrMin= 2.89D-03
 ErrMax= 2.89D-03  0.00D+00 EMaxC= 1.00D-01 BMatC= 4.19D-03 BMatP= 4.24D-02
 IDIUse=3 WtCom= 9.71D-01 WtEn= 2.89D-02
 Coeff-Com:  0.156D-02 0.114D-01 0.148D+00 0.357D+00 0.482D+00
 Coeff-En:   0.000D+00 0.000D+00 0.000D+00 0.639D-01 0.936D+00
 Coeff:      0.152D-02 0.110D-01 0.144D+00 0.349D+00 0.495D+00
 Gap=     0.228 Goal=   None    Shift=    0.000
 RMSDP=2.54D-04 MaxDP=1.20D-02 DE=-3.42D-02 OVMax= 2.00D-02

 Cycle   6  Pass 0  IDiag  1:
 RMSU=  1.23D-04    CP:  9.93D-01  6.19D-01  4.98D-01  6.47D-01  5.04D-01
 E= -1638.83138620680     Delta-E=       -0.003215700170 Rises=F Damp=F
 DIIS: error= 7.00D-04 at cycle   6 NSaved=   6.
 NSaved= 6 IEnMin= 6 EnMin= -1638.83138620680     IErMin= 6 ErrMin= 7.00D-04
 ErrMax= 7.00D-04  0.00D+00 EMaxC= 1.00D-01 BMatC= 4.45D-04 BMatP= 4.19D-03
 IDIUse=3 WtCom= 9.93D-01 WtEn= 7.00D-03
 Coeff-Com: -0.142D-02-0.337D-02 0.415D-01 0.128D+00 0.300D+00 0.535D+00
 Coeff-En:   0.000D+00 0.000D+00 0.000D+00 0.000D+00 0.691D-01 0.931D+00
 Coeff:     -0.141D-02-0.334D-02 0.412D-01 0.127D+00 0.299D+00 0.538D+00
 Gap=     0.229 Goal=   None    Shift=    0.000
 RMSDP=7.43D-05 MaxDP=3.84D-03 DE=-3.22D-03 OVMax= 3.86D-03

 Cycle   7  Pass 0  IDiag  1:
 RMSU=  4.00D-05    CP:  9.93D-01  6.16D-01  5.02D-01  6.53D-01  5.81D-01
                    CP:  5.57D-01
 E= -1638.83171689532     Delta-E=       -0.000330688522 Rises=F Damp=F
 DIIS: error= 2.02D-04 at cycle   7 NSaved=   7.
 NSaved= 7 IEnMin= 7 EnMin= -1638.83171689532     IErMin= 7 ErrMin= 2.02D-04
 ErrMax= 2.02D-04  0.00D+00 EMaxC= 1.00D-01 BMatC= 3.63D-05 BMatP= 4.45D-04
 IDIUse=3 WtCom= 9.98D-01 WtEn= 2.02D-03
 Coeff-Com: -0.660D-03-0.290D-02 0.528D-02 0.252D-01 0.107D+00 0.296D+00
 Coeff-Com:  0.570D+00
 Coeff-En:   0.000D+00 0.000D+00 0.000D+00 0.000D+00 0.000D+00 0.124D-01
 Coeff-En:   0.988D+00
 Coeff:     -0.659D-03-0.290D-02 0.527D-02 0.251D-01 0.107D+00 0.295D+00
 Coeff:      0.571D+00
 Gap=     0.228 Goal=   None    Shift=    0.000
 RMSDP=2.08D-05 MaxDP=9.20D-04 DE=-3.31D-04 OVMax= 7.81D-04

 Cycle   8  Pass 0  IDiag  1:
 RMSU=  1.01D-05    CP:  9.93D-01  6.16D-01  5.02D-01  6.49D-01  5.88D-01
                    CP:  6.26D-01  6.19D-01
 E= -1638.83174949363     Delta-E=       -0.000032598310 Rises=F Damp=F
 DIIS: error= 2.69D-05 at cycle   8 NSaved=   8.
 NSaved= 8 IEnMin= 8 EnMin= -1638.83174949363     IErMin= 8 ErrMin= 2.69D-05
 ErrMax= 2.69D-05  0.00D+00 EMaxC= 1.00D-01 BMatC= 1.10D-06 BMatP= 3.63D-05
 IDIUse=1 WtCom= 1.00D+00 WtEn= 0.00D+00
 Coeff-Com: -0.684D-04-0.804D-03-0.598D-03 0.102D-02 0.226D-01 0.820D-01
 Coeff-Com:  0.227D+00 0.669D+00
 Coeff:     -0.684D-04-0.804D-03-0.598D-03 0.102D-02 0.226D-01 0.820D-01
 Coeff:      0.227D+00 0.669D+00
 Gap=     0.228 Goal=   None    Shift=    0.000
 RMSDP=4.79D-06 MaxDP=2.46D-04 DE=-3.26D-05 OVMax= 2.09D-04

 Initial convergence to 1.0D-05 achieved.  Increase integral accuracy.
 Cycle   9  Pass 1  IDiag  1:
 E= -1638.83185276065     Delta-E=       -0.000103267019 Rises=F Damp=F
 DIIS: error= 6.73D-05 at cycle   1 NSaved=   1.
 NSaved= 1 IEnMin= 1 EnMin= -1638.83185276065     IErMin= 1 ErrMin= 6.73D-05
 ErrMax= 6.73D-05  0.00D+00 EMaxC= 1.00D-01 BMatC= 8.10D-07 BMatP= 8.10D-07
 IDIUse=1 WtCom= 1.00D+00 WtEn= 0.00D+00
 Coeff-Com:  0.100D+01
 Coeff:      0.100D+01
 Gap=     0.228 Goal=   None    Shift=    0.000
 RMSDP=4.79D-06 MaxDP=2.46D-04 DE=-1.03D-04 OVMax= 1.82D-04

 Cycle  10  Pass 1  IDiag  1:
 RMSU=  3.20D-05    CP:  1.00D+00
 E= -1638.83185330318     Delta-E=       -0.000000542529 Rises=F Damp=F
 DIIS: error= 1.95D-05 at cycle   2 NSaved=   2.
 NSaved= 2 IEnMin= 2 EnMin= -1638.83185330318     IErMin= 2 ErrMin= 1.95D-05
 ErrMax= 1.95D-05  0.00D+00 EMaxC= 1.00D-01 BMatC= 3.29D-07 BMatP= 8.10D-07
 IDIUse=1 WtCom= 1.00D+00 WtEn= 0.00D+00
 Coeff-Com:  0.344D+00 0.656D+00
 Coeff:      0.344D+00 0.656D+00
 Gap=     0.228 Goal=   None    Shift=    0.000
 RMSDP=3.42D-06 MaxDP=1.61D-04 DE=-5.43D-07 OVMax= 1.76D-04

 Cycle  11  Pass 1  IDiag  1:
 RMSU=  3.42D-06    CP:  1.00D+00  1.00D+00
 E= -1638.83185343119     Delta-E=       -0.000000128005 Rises=F Damp=F
 DIIS: error= 1.59D-05 at cycle   3 NSaved=   3.
 NSaved= 3 IEnMin= 3 EnMin= -1638.83185343119     IErMin= 3 ErrMin= 1.59D-05
 ErrMax= 1.59D-05  0.00D+00 EMaxC= 1.00D-01 BMatC= 2.01D-07 BMatP= 3.29D-07
 IDIUse=1 WtCom= 1.00D+00 WtEn= 0.00D+00
 Coeff-Com:  0.127D-01 0.436D+00 0.552D+00
 Coeff:      0.127D-01 0.436D+00 0.552D+00
 Gap=     0.228 Goal=   None    Shift=    0.000
 RMSDP=1.54D-06 MaxDP=6.68D-05 DE=-1.28D-07 OVMax= 9.78D-05

 Cycle  12  Pass 1  IDiag  1:
 RMSU=  6.20D-07    CP:  1.00D+00  1.01D+00  5.94D-01
 E= -1638.83185361060     Delta-E=       -0.000000179410 Rises=F Damp=F
 DIIS: error= 3.47D-06 at cycle   4 NSaved=   4.
 NSaved= 4 IEnMin= 4 EnMin= -1638.83185361060     IErMin= 4 ErrMin= 3.47D-06
 ErrMax= 3.47D-06  0.00D+00 EMaxC= 1.00D-01 BMatC= 1.01D-08 BMatP= 2.01D-07
 IDIUse=1 WtCom= 1.00D+00 WtEn= 0.00D+00
 Coeff-Com: -0.613D-02 0.234D+00 0.327D+00 0.445D+00
 Coeff:     -0.613D-02 0.234D+00 0.327D+00 0.445D+00
 Gap=     0.228 Goal=   None    Shift=    0.000
 RMSDP=3.31D-07 MaxDP=1.61D-05 DE=-1.79D-07 OVMax= 1.85D-05

 Cycle  13  Pass 1  IDiag  1:
 RMSU=  1.67D-07    CP:  1.00D+00  1.01D+00  5.98D-01  5.41D-01
 E= -1638.83185361936     Delta-E=       -0.000000008768 Rises=F Damp=F
 DIIS: error= 6.70D-07 at cycle   5 NSaved=   5.
 NSaved= 5 IEnMin= 5 EnMin= -1638.83185361936     IErMin= 5 ErrMin= 6.70D-07
 ErrMax= 6.70D-07  0.00D+00 EMaxC= 1.00D-01 BMatC= 3.96D-10 BMatP= 1.01D-08
 IDIUse=1 WtCom= 1.00D+00 WtEn= 0.00D+00
 Coeff-Com: -0.409D-02 0.123D+00 0.175D+00 0.264D+00 0.441D+00
 Coeff:     -0.409D-02 0.123D+00 0.175D+00 0.264D+00 0.441D+00
 Gap=     0.228 Goal=   None    Shift=    0.000
 RMSDP=7.83D-08 MaxDP=3.42D-06 DE=-8.77D-09 OVMax= 5.46D-06

 Cycle  14  Pass 1  IDiag  1:
 RMSU=  6.28D-08    CP:  1.00D+00  1.01D+00  5.99D-01  5.52D-01  7.24D-01
 E= -1638.83185361971     Delta-E=       -0.000000000348 Rises=F Damp=F
 DIIS: error= 2.24D-07 at cycle   6 NSaved=   6.
 NSaved= 6 IEnMin= 6 EnMin= -1638.83185361971     IErMin= 6 ErrMin= 2.24D-07
 ErrMax= 2.24D-07  0.00D+00 EMaxC= 1.00D-01 BMatC= 3.83D-11 BMatP= 3.96D-10
 IDIUse=1 WtCom= 1.00D+00 WtEn= 0.00D+00
 Coeff-Com: -0.122D-02 0.301D-01 0.432D-01 0.741D-01 0.252D+00 0.601D+00
 Coeff:     -0.122D-02 0.301D-01 0.432D-01 0.741D-01 0.252D+00 0.601D+00
 Gap=     0.228 Goal=   None    Shift=    0.000
 RMSDP=2.73D-08 MaxDP=1.39D-06 DE=-3.48D-10 OVMax= 2.60D-06

 Cycle  15  Pass 1  IDiag  1:
 RMSU=  1.89D-08    CP:  1.00D+00  1.01D+00  5.99D-01  5.54D-01  8.11D-01
                    CP:  7.90D-01
 E= -1638.83185361973     Delta-E=       -0.000000000016 Rises=F Damp=F
 DIIS: error= 1.29D-07 at cycle   7 NSaved=   7.
 NSaved= 7 IEnMin= 7 EnMin= -1638.83185361973     IErMin= 7 ErrMin= 1.29D-07
 ErrMax= 1.29D-07  0.00D+00 EMaxC= 1.00D-01 BMatC= 7.99D-12 BMatP= 3.83D-11
 IDIUse=1 WtCom= 1.00D+00 WtEn= 0.00D+00
 Coeff-Com: -0.198D-03 0.142D-02 0.227D-02 0.878D-02 0.919D-01 0.381D+00
 Coeff-Com:  0.515D+00
 Coeff:     -0.198D-03 0.142D-02 0.227D-02 0.878D-02 0.919D-01 0.381D+00
 Coeff:      0.515D+00
 Gap=     0.228 Goal=   None    Shift=    0.000
 RMSDP=1.19D-08 MaxDP=5.68D-07 DE=-1.59D-11 OVMax= 8.16D-07

 Cycle  16  Pass 1  IDiag  1:
 RMSU=  6.35D-09    CP:  1.00D+00  1.01D+00  5.99D-01  5.57D-01  8.07D-01
                    CP:  8.40D-01  5.16D-01
 E= -1638.83185361975     Delta-E=       -0.000000000023 Rises=F Damp=F
 DIIS: error= 3.75D-08 at cycle   8 NSaved=   8.
 NSaved= 8 IEnMin= 8 EnMin= -1638.83185361975     IErMin= 8 ErrMin= 3.75D-08
 ErrMax= 3.75D-08  0.00D+00 EMaxC= 1.00D-01 BMatC= 1.22D-12 BMatP= 7.99D-12
 IDIUse=1 WtCom= 1.00D+00 WtEn= 0.00D+00
 Coeff-Com:  0.872D-05-0.246D-02-0.336D-02-0.242D-02 0.322D-01 0.187D+00
 Coeff-Com:  0.337D+00 0.451D+00
 Coeff:      0.872D-05-0.246D-02-0.336D-02-0.242D-02 0.322D-01 0.187D+00
 Coeff:      0.337D+00 0.451D+00
 Gap=     0.228 Goal=   None    Shift=    0.000
 RMSDP=3.90D-09 MaxDP=1.86D-07 DE=-2.32D-11 OVMax= 2.92D-07

 SCF Done:  E(RB3LYP) =  -1638.83185362     A.U. after   16 cycles
            NFock= 16  Conv=0.39D-08     -V/T= 2.0066
 KE= 1.628069943962D+03 PE=-7.772377925108D+03 EE= 2.544260781069D+03
 Leave Link  502 at Sat Aug  8 02:42:47 2020, MaxMem=    33554432 cpu:       370.5
 (Enter /prod/apps/gaussian/g09d1/l601.exe)
 Copying SCF densities to generalized density rwf, IOpCl= 0 IROHF=0.

 **********************************************************************

            Population analysis using the SCF density.

 **********************************************************************

 Orbital symmetries:
       Occupied  (A) (A) (A) (A) (A) (A) (A) (A) (A) (A) (A) (A)
                 (A) (A) (A) (A) (A) (A) (A) (A) (A) (A) (A) (A)
                 (A) (A) (A) (A) (A) (A) (A) (A) (A) (A) (A) (A)
                 (A) (A) (A) (A) (A) (A) (A) (A) (A) (A) (A) (A)
                 (A) (A) (A) (A) (A) (A) (A) (A) (A) (A) (A) (A)
                 (A) (A) (A) (A) (A) (A) (A) (A) (A) (A) (A) (A)
                 (A) (A) (A) (A) (A) (A) (A) (A) (A) (A) (A) (A)
       Virtual   (A) (A) (A) (A) (A) (A) (A) (A) (A) (A) (A) (A)
                 (A) (A) (A) (A) (A) (A) (A) (A) (A) (A) (A) (A)
                 (A) (A) (A) (A) (A) (A) (A) (A) (A) (A) (A) (A)
                 (A) (A) (A) (A) (A) (A) (A) (A) (A) (A) (A) (A)
                 (A) (A) (A) (A) (A) (A) (A) (A) (A) (A) (A) (A)
                 (A) (A) (A) (A) (A) (A) (A) (A) (A) (A) (A) (A)
                 (A) (A) (A) (A) (A) (A) (A) (A) (A) (A) (A) (A)
                 (A) (A) (A) (A) (A) (A) (A) (A) (A) (A) (A) (A)
                 (A) (A) (A) (A) (A) (A) (A) (A) (A) (A) (A) (A)
                 (A) (A) (A) (A) (A) (A) (A) (A) (A) (A) (A) (A)
                 (A) (A) (A) (A) (A) (A) (A) (A) (A) (A) (A) (A)
                 (A) (A) (A) (A) (A) (A) (A) (A) (A) (A) (A) (A)
                 (A) (A) (A) (A) (A) (A) (A) (A) (A) (A) (A) (A)
                 (A) (A) (A) (A) (A) (A) (A) (A) (A) (A) (A) (A)
                 (A) (A) (A) (A) (A) (A) (A) (A) (A) (A) (A) (A)
                 (A) (A) (A) (A) (A) (A) (A) (A) (A) (A) (A) (A)
                 (A) (A) (A) (A) (A) (A) (A) (A) (A) (A) (A) (A)
                 (A) (A) (A) (A) (A) (A) (A) (A) (A) (A) (A) (A)
                 (A) (A) (A) (A) (A) (A) (A) (A) (A) (A) (A) (A)
                 (A) (A) (A) (A) (A) (A) (A) (A) (A) (A) (A) (A)
                 (A) (A) (A) (A) (A) (A) (A) (A) (A) (A) (A) (A)
                 (A) (A) (A) (A) (A) (A) (A) (A) (A) (A) (A) (A)
 The electronic state is 1-A.
 Alpha  occ. eigenvalues --  -89.13893 -88.98524 -19.15231 -19.14996 -19.11156
 Alpha  occ. eigenvalues --  -14.38762 -14.38747 -10.27139 -10.24135 -10.23373
 Alpha  occ. eigenvalues --  -10.21946 -10.21623 -10.20235 -10.19672 -10.19636
 Alpha  occ. eigenvalues --  -10.18947 -10.18871 -10.18843 -10.18765 -10.18663
 Alpha  occ. eigenvalues --   -8.16106  -8.03325  -6.12600  -6.12532  -6.12492
 Alpha  occ. eigenvalues --   -5.99726  -5.99561  -5.99106  -1.12913  -1.00839
 Alpha  occ. eigenvalues --   -1.00002  -0.95548  -0.94587  -0.85709  -0.84937
 Alpha  occ. eigenvalues --   -0.79435  -0.74528  -0.74202  -0.74036  -0.71500
 Alpha  occ. eigenvalues --   -0.70555  -0.67780  -0.63022  -0.61909  -0.60398
 Alpha  occ. eigenvalues --   -0.58011  -0.57031  -0.55769  -0.52663  -0.51521
 Alpha  occ. eigenvalues --   -0.50891  -0.48977  -0.48553  -0.48107  -0.46809
 Alpha  occ. eigenvalues --   -0.45957  -0.44884  -0.44655  -0.43663  -0.43296
 Alpha  occ. eigenvalues --   -0.42778  -0.42375  -0.41859  -0.41304  -0.40392
 Alpha  occ. eigenvalues --   -0.40014  -0.39400  -0.38729  -0.37407  -0.35946
 Alpha  occ. eigenvalues --   -0.35623  -0.34978  -0.34785  -0.34017  -0.33617
 Alpha  occ. eigenvalues --   -0.32627  -0.32258  -0.30958  -0.29787  -0.26731
 Alpha  occ. eigenvalues --   -0.25793  -0.24837  -0.24205  -0.22891
 Alpha virt. eigenvalues --   -0.00082   0.00069   0.00680   0.02811   0.03846
 Alpha virt. eigenvalues --    0.05631   0.05892   0.06908   0.07882   0.08973
 Alpha virt. eigenvalues --    0.09872   0.10256   0.11176   0.11748   0.12240
 Alpha virt. eigenvalues --    0.12630   0.13852   0.14012   0.14748   0.15258
 Alpha virt. eigenvalues --    0.15681   0.15974   0.16470   0.16718   0.17402
 Alpha virt. eigenvalues --    0.18105   0.18385   0.19039   0.19569   0.19902
 Alpha virt. eigenvalues --    0.20482   0.20815   0.21557   0.22976   0.24740
 Alpha virt. eigenvalues --    0.25888   0.27013   0.28561   0.30716   0.31427
 Alpha virt. eigenvalues --    0.32897   0.33465   0.34290   0.34536   0.36198
 Alpha virt. eigenvalues --    0.38548   0.41915   0.42181   0.43615   0.44841
 Alpha virt. eigenvalues --    0.45912   0.46913   0.48118   0.49405   0.51212
 Alpha virt. eigenvalues --    0.52318   0.52954   0.53106   0.54701   0.55180
 Alpha virt. eigenvalues --    0.55896   0.56093   0.58217   0.58841   0.59564
 Alpha virt. eigenvalues --    0.59741   0.60404   0.61082   0.61476   0.61651
 Alpha virt. eigenvalues --    0.61932   0.62974   0.63067   0.64961   0.65328
 Alpha virt. eigenvalues --    0.66709   0.67510   0.67996   0.68730   0.69624
 Alpha virt. eigenvalues --    0.72000   0.73330   0.74106   0.76226   0.76499
 Alpha virt. eigenvalues --    0.78567   0.79775   0.80590   0.81104   0.81695
 Alpha virt. eigenvalues --    0.82674   0.83086   0.83591   0.84119   0.84559
 Alpha virt. eigenvalues --    0.84782   0.85681   0.86245   0.86607   0.87558
 Alpha virt. eigenvalues --    0.87800   0.88571   0.89362   0.90232   0.90658
 Alpha virt. eigenvalues --    0.90710   0.91587   0.92988   0.93424   0.93973
 Alpha virt. eigenvalues --    0.94614   0.95197   0.95851   0.97686   0.98821
 Alpha virt. eigenvalues --    0.99616   1.00494   1.01254   1.01617   1.02737
 Alpha virt. eigenvalues --    1.04281   1.04370   1.05970   1.07679   1.08724
 Alpha virt. eigenvalues --    1.10206   1.10936   1.11643   1.12601   1.13007
 Alpha virt. eigenvalues --    1.14426   1.15721   1.16645   1.18107   1.20127
 Alpha virt. eigenvalues --    1.20617   1.22002   1.24069   1.25962   1.28149
 Alpha virt. eigenvalues --    1.29841   1.31135   1.32988   1.35213   1.36944
 Alpha virt. eigenvalues --    1.41843   1.42378   1.43018   1.44011   1.46175
 Alpha virt. eigenvalues --    1.48364   1.48688   1.50084   1.50628   1.51186
 Alpha virt. eigenvalues --    1.51599   1.54747   1.57334   1.61141   1.65219
 Alpha virt. eigenvalues --    1.68174   1.70714   1.72245   1.73311   1.74770
 Alpha virt. eigenvalues --    1.75568   1.79080   1.80016   1.80726   1.81921
 Alpha virt. eigenvalues --    1.82224   1.82346   1.83959   1.84101   1.85592
 Alpha virt. eigenvalues --    1.86091   1.88624   1.89440   1.90766   1.90940
 Alpha virt. eigenvalues --    1.92982   1.93216   1.93386   1.95378   1.96373
 Alpha virt. eigenvalues --    1.96578   1.97867   1.97973   1.99555   2.00086
 Alpha virt. eigenvalues --    2.02287   2.02768   2.03274   2.05916   2.07745
 Alpha virt. eigenvalues --    2.07935   2.09110   2.10478   2.11942   2.12729
 Alpha virt. eigenvalues --    2.13697   2.14177   2.14616   2.15106   2.18698
 Alpha virt. eigenvalues --    2.18765   2.20855   2.21709   2.23195   2.24500
 Alpha virt. eigenvalues --    2.26790   2.27518   2.29105   2.31063   2.32068
 Alpha virt. eigenvalues --    2.33834   2.34731   2.38050   2.40414   2.40655
 Alpha virt. eigenvalues --    2.41949   2.45989   2.47578   2.49872   2.55150
 Alpha virt. eigenvalues --    2.56750   2.58123   2.60396   2.66266   2.69898
 Alpha virt. eigenvalues --    2.70342   2.71320   2.72390   2.73368   2.74558
 Alpha virt. eigenvalues --    2.75106   2.76642   2.78698   2.79482   2.83000
 Alpha virt. eigenvalues --    2.89389   2.95136   3.05210   3.41049   3.79915
 Alpha virt. eigenvalues --    3.83663   3.91473   3.94039   4.00249   4.02431
 Alpha virt. eigenvalues --    4.05628   4.09215   4.11677   4.14569   4.20924
 Alpha virt. eigenvalues --    4.23362   4.23934   4.30862   4.33148   4.35074
 Alpha virt. eigenvalues --    4.40877   4.51836   4.69748   4.71479
          Condensed to atoms (all electrons):
               1          2          3          4          5          6
     1  O    8.235934   0.445896  -0.059425   0.002265  -0.000104  -0.000001
     2  S    0.445896  13.575537   0.158842   0.002088  -0.003903   0.000283
     3  N   -0.059425   0.158842   7.384471   0.186500  -0.042169   0.003209
     4  C    0.002265   0.002088   0.186500   4.869913   0.324689  -0.060576
     5  C   -0.000104  -0.003903  -0.042169   0.324689   5.692868   0.058435
     6  S   -0.000001   0.000283   0.003209  -0.060576   0.058435  14.942754
     7  O    0.000000  -0.000001  -0.000054  -0.001057  -0.039530   0.297364
     8  C   -0.000061  -0.009596  -0.044738   0.335494  -0.124115   0.048516
     9  C   -0.000096   0.000194  -0.050287   0.347921  -0.050974   0.005577
    10  C   -0.000009  -0.000066  -0.005731  -0.033727  -0.009321  -0.000438
    11  C    0.000000  -0.000022   0.000282   0.003520   0.000087   0.000024
    12  C    0.000000   0.000000  -0.000002   0.000178   0.000004  -0.000008
    13  C    0.000000   0.000000   0.000000   0.000003   0.000000   0.000000
    14  C    0.000000   0.000000   0.000000   0.000000   0.000000   0.000000
    15  C    0.000000   0.000000   0.000000   0.000002   0.000000   0.000000
    16  C    0.000000   0.000000  -0.000009   0.000044  -0.000004   0.000001
    17  N   -0.056861   0.123539  -0.051340   0.000767  -0.001099   0.000115
    18  C    0.001989  -0.006906  -0.006534   0.000139  -0.000001  -0.000001
    19  C   -0.002654  -0.021347   0.002258  -0.000061   0.000025   0.000016
    20  O   -0.045798   0.430947  -0.052491  -0.001627  -0.007562   0.000132
    21  H    0.002743  -0.006188   0.287808  -0.026887   0.004799  -0.000268
    22  H    0.000001   0.000207   0.001315  -0.029156   0.352825  -0.018570
    23  H    0.000024   0.002815  -0.005191  -0.022742   0.320080  -0.004488
    24  H    0.000001  -0.000025   0.001734  -0.029172   0.010397  -0.017560
    25  H    0.000016   0.002606  -0.006592  -0.024297   0.002487  -0.004305
    26  H    0.000000   0.000041   0.002935  -0.030880  -0.007909   0.006315
    27  H   -0.000002  -0.000244  -0.007295  -0.033158   0.006343  -0.000309
    28  H    0.000002   0.000249   0.007531  -0.007865  -0.000331  -0.000029
    29  H    0.000000  -0.000010  -0.000307  -0.004554   0.002951  -0.000079
    30  H    0.000000   0.000000   0.000000  -0.000113  -0.000005   0.000001
    31  H    0.000000   0.000000   0.000000   0.000000   0.000000   0.000000
    32  H    0.000000   0.000000   0.000000   0.000000   0.000000   0.000000
    33  H    0.000000   0.000000   0.000000   0.000000   0.000000   0.000000
    34  H    0.000000  -0.000001  -0.000014  -0.000036   0.000001   0.000000
    35  H   -0.002159  -0.001078   0.009492  -0.000398   0.000059   0.000043
    36  H    0.000077   0.002551  -0.000082  -0.000007   0.000001  -0.000001
    37  H    0.007106  -0.007727  -0.000256  -0.000007  -0.000001   0.000000
    38  H   -0.000232  -0.003680   0.000096   0.000015  -0.000015   0.000012
    39  H    0.003468  -0.003317  -0.000085   0.000000  -0.000001   0.000000
    40  H   -0.000111   0.001777  -0.000076   0.000002  -0.000001  -0.000001
               7          8          9         10         11         12
     1  O    0.000000  -0.000061  -0.000096  -0.000009   0.000000   0.000000
     2  S   -0.000001  -0.009596   0.000194  -0.000066  -0.000022   0.000000
     3  N   -0.000054  -0.044738  -0.050287  -0.005731   0.000282  -0.000002
     4  C   -0.001057   0.335494   0.347921  -0.033727   0.003520   0.000178
     5  C   -0.039530  -0.124115  -0.050974  -0.009321   0.000087   0.000004
     6  S    0.297364   0.048516   0.005577  -0.000438   0.000024  -0.000008
     7  O    8.383381  -0.039294  -0.008264   0.000039   0.000024  -0.000090
     8  C   -0.039294   5.711641  -0.053272   0.004699  -0.000074  -0.000009
     9  C   -0.008264  -0.053272   5.226806   0.343400  -0.041520  -0.003658
    10  C    0.000039   0.004699   0.343400   5.177600   0.345887  -0.060376
    11  C    0.000024  -0.000074  -0.041520   0.345887   4.644060   0.543158
    12  C   -0.000090  -0.000009  -0.003658  -0.060376   0.543158   4.962487
    13  C    0.000000   0.000000   0.000080   0.006308  -0.018476   0.525404
    14  C    0.000000   0.000000   0.000010   0.000404  -0.034457  -0.035264
    15  C    0.000000   0.000000  -0.000095   0.006958  -0.020135  -0.047715
    16  C    0.000000  -0.000002  -0.003234  -0.053039   0.551540  -0.037721
    17  N    0.000000  -0.007652  -0.000045   0.000001   0.000000   0.000000
    18  C    0.000000   0.000689  -0.000053   0.000001   0.000000   0.000000
    19  C    0.000000   0.000101   0.000001   0.000000   0.000000   0.000000
    20  O    0.000000  -0.000847   0.000027  -0.000020   0.000000   0.000000
    21  H    0.000002   0.000839  -0.005311   0.000064  -0.000193   0.000001
    22  H    0.000426   0.010028  -0.007631   0.001845  -0.000093  -0.000006
    23  H    0.001164   0.002856   0.004267   0.000026   0.000003   0.000000
    24  H    0.000083   0.351317  -0.005989   0.000117  -0.000012   0.000000
    25  H    0.001225   0.318454   0.004048  -0.000109   0.000001   0.000000
    26  H    0.026864  -0.006982   0.352675  -0.030753  -0.001773   0.003711
    27  H    0.000283  -0.006219   0.347869  -0.040294  -0.000652  -0.000070
    28  H   -0.000003   0.000114  -0.036505   0.360910  -0.031528   0.004151
    29  H    0.000054   0.000091  -0.043393   0.361734  -0.027790  -0.004367
    30  H    0.000203   0.000004   0.000043  -0.008588  -0.046538   0.356096
    31  H    0.000000   0.000000  -0.000001  -0.000183   0.003625  -0.038843
    32  H    0.000000   0.000000   0.000000   0.000007   0.000722   0.004715
    33  H    0.000000   0.000000   0.000000  -0.000184   0.003829   0.000824
    34  H    0.000000   0.000000   0.000188  -0.010177  -0.047466   0.006384
    35  H    0.000000   0.000849  -0.000020  -0.000001   0.000000   0.000000
    36  H    0.000000   0.000214   0.000000   0.000000   0.000000   0.000000
    37  H    0.000000  -0.000034   0.000001   0.000000   0.000000   0.000000
    38  H    0.000000   0.000019   0.000000   0.000000   0.000000   0.000000
    39  H    0.000000  -0.000012   0.000000   0.000000   0.000000   0.000000
    40  H    0.000000   0.000058   0.000000   0.000000   0.000000   0.000000
              13         14         15         16         17         18
     1  O    0.000000   0.000000   0.000000   0.000000  -0.056861   0.001989
     2  S    0.000000   0.000000   0.000000   0.000000   0.123539  -0.006906
     3  N    0.000000   0.000000   0.000000  -0.000009  -0.051340  -0.006534
     4  C    0.000003   0.000000   0.000002   0.000044   0.000767   0.000139
     5  C    0.000000   0.000000   0.000000  -0.000004  -0.001099  -0.000001
     6  S    0.000000   0.000000   0.000000   0.000001   0.000115  -0.000001
     7  O    0.000000   0.000000   0.000000   0.000000   0.000000   0.000000
     8  C    0.000000   0.000000   0.000000  -0.000002  -0.007652   0.000689
     9  C    0.000080   0.000010  -0.000095  -0.003234  -0.000045  -0.000053
    10  C    0.006308   0.000404   0.006958  -0.053039   0.000001   0.000001
    11  C   -0.018476  -0.034457  -0.020135   0.551540   0.000000   0.000000
    12  C    0.525404  -0.035264  -0.047715  -0.037721   0.000000   0.000000
    13  C    4.864381   0.548088  -0.025799  -0.046812   0.000000   0.000000
    14  C    0.548088   4.853707   0.552003  -0.036058   0.000000   0.000000
    15  C   -0.025799   0.552003   4.868098   0.522296   0.000000   0.000000
    16  C   -0.046812  -0.036058   0.522296   4.961241   0.000000   0.000000
    17  N    0.000000   0.000000   0.000000   0.000000   7.231596   0.266260
    18  C    0.000000   0.000000   0.000000   0.000000   0.266260   5.002587
    19  C    0.000000   0.000000   0.000000   0.000000   0.285539  -0.051407
    20  O    0.000000   0.000000   0.000000   0.000000  -0.054279   0.001874
    21  H    0.000000   0.000000   0.000000   0.000006   0.000017  -0.000354
    22  H    0.000000   0.000000   0.000000   0.000001   0.000000   0.000000
    23  H    0.000000   0.000000   0.000000   0.000000  -0.000165  -0.000004
    24  H    0.000000   0.000000   0.000000   0.000000   0.000160  -0.000102
    25  H    0.000000   0.000000   0.000000   0.000000   0.015153  -0.001327
    26  H   -0.000166   0.000002  -0.000013   0.000000   0.000001   0.000000
    27  H   -0.000024  -0.000006  -0.000098   0.002897  -0.000004  -0.000023
    28  H   -0.000189   0.000007   0.000150  -0.004213   0.000004   0.000000
    29  H    0.000050   0.000015  -0.000213   0.003073   0.000000   0.000000
    30  H   -0.043460   0.004744   0.000383   0.005891   0.000000   0.000000
    31  H    0.357102  -0.043276   0.004534   0.000888   0.000000   0.000000
    32  H   -0.042991   0.358934  -0.043293   0.004711   0.000000   0.000000
    33  H    0.004588  -0.043327   0.356298  -0.039793   0.000000   0.000000
    34  H    0.000336   0.004941  -0.046075   0.352907   0.000000   0.000000
    35  H    0.000000   0.000000   0.000000   0.000000  -0.037246   0.371039
    36  H    0.000000   0.000000   0.000000   0.000000  -0.034654   0.375265
    37  H    0.000000   0.000000   0.000000   0.000000  -0.043493   0.372048
    38  H    0.000000   0.000000   0.000000   0.000000  -0.031331   0.004724
    39  H    0.000000   0.000000   0.000000   0.000000  -0.046506  -0.003472
    40  H    0.000000   0.000000   0.000000   0.000000  -0.038283  -0.003071
              19         20         21         22         23         24
     1  O   -0.002654  -0.045798   0.002743   0.000001   0.000024   0.000001
     2  S   -0.021347   0.430947  -0.006188   0.000207   0.002815  -0.000025
     3  N    0.002258  -0.052491   0.287808   0.001315  -0.005191   0.001734
     4  C   -0.000061  -0.001627  -0.026887  -0.029156  -0.022742  -0.029172
     5  C    0.000025  -0.007562   0.004799   0.352825   0.320080   0.010397
     6  S    0.000016   0.000132  -0.000268  -0.018570  -0.004488  -0.017560
     7  O    0.000000   0.000000   0.000002   0.000426   0.001164   0.000083
     8  C    0.000101  -0.000847   0.000839   0.010028   0.002856   0.351317
     9  C    0.000001   0.000027  -0.005311  -0.007631   0.004267  -0.005989
    10  C    0.000000  -0.000020   0.000064   0.001845   0.000026   0.000117
    11  C    0.000000   0.000000  -0.000193  -0.000093   0.000003  -0.000012
    12  C    0.000000   0.000000   0.000001  -0.000006   0.000000   0.000000
    13  C    0.000000   0.000000   0.000000   0.000000   0.000000   0.000000
    14  C    0.000000   0.000000   0.000000   0.000000   0.000000   0.000000
    15  C    0.000000   0.000000   0.000000   0.000000   0.000000   0.000000
    16  C    0.000000   0.000000   0.000006   0.000001   0.000000   0.000000
    17  N    0.285539  -0.054279   0.000017   0.000000  -0.000165   0.000160
    18  C   -0.051407   0.001874  -0.000354   0.000000  -0.000004  -0.000102
    19  C    4.995121  -0.004032  -0.000025   0.000000  -0.000020   0.000000
    20  O   -0.004032   8.254033   0.001612   0.000169   0.015718   0.000001
    21  H   -0.000025   0.001612   0.374489  -0.000037  -0.000062   0.000269
    22  H    0.000000   0.000169  -0.000037   0.500186  -0.016622  -0.000361
    23  H   -0.000020   0.015718  -0.000062  -0.016622   0.469421  -0.000311
    24  H    0.000000   0.000001   0.000269  -0.000361  -0.000311   0.513548
    25  H   -0.000174  -0.000067  -0.000027  -0.000306   0.000215  -0.020835
    26  H    0.000000   0.000001   0.000231   0.000044   0.000105   0.000180
    27  H    0.000000   0.000001   0.006503   0.000166  -0.000133   0.004665
    28  H    0.000000  -0.000006   0.001406   0.000027  -0.000028  -0.000007
    29  H    0.000000  -0.000001   0.000144   0.006907  -0.000164   0.000012
    30  H    0.000000   0.000000   0.000000   0.000220   0.000000   0.000000
    31  H    0.000000   0.000000   0.000000   0.000000   0.000000   0.000000
    32  H    0.000000   0.000000   0.000000   0.000000   0.000000   0.000000
    33  H    0.000000   0.000000   0.000000   0.000000   0.000000   0.000000
    34  H    0.000000   0.000000   0.000066   0.000000   0.000000   0.000000
    35  H    0.005195  -0.000002   0.001957   0.000000  -0.000001   0.000235
    36  H   -0.003783  -0.000049   0.000009   0.000000   0.000000   0.000005
    37  H   -0.002720  -0.000047   0.000057   0.000000   0.000000   0.000002
    38  H    0.378477   0.011556  -0.000006   0.000000   0.000057   0.000000
    39  H    0.369991  -0.000640   0.000003   0.000000   0.000000   0.000000
    40  H    0.376115   0.000221  -0.000001   0.000000  -0.000001  -0.000001
              25         26         27         28         29         30
     1  O    0.000016   0.000000  -0.000002   0.000002   0.000000   0.000000
     2  S    0.002606   0.000041  -0.000244   0.000249  -0.000010   0.000000
     3  N   -0.006592   0.002935  -0.007295   0.007531  -0.000307   0.000000
     4  C   -0.024297  -0.030880  -0.033158  -0.007865  -0.004554  -0.000113
     5  C    0.002487  -0.007909   0.006343  -0.000331   0.002951  -0.000005
     6  S   -0.004305   0.006315  -0.000309  -0.000029  -0.000079   0.000001
     7  O    0.001225   0.026864   0.000283  -0.000003   0.000054   0.000203
     8  C    0.318454  -0.006982  -0.006219   0.000114   0.000091   0.000004
     9  C    0.004048   0.352675   0.347869  -0.036505  -0.043393   0.000043
    10  C   -0.000109  -0.030753  -0.040294   0.360910   0.361734  -0.008588
    11  C    0.000001  -0.001773  -0.000652  -0.031528  -0.027790  -0.046538
    12  C    0.000000   0.003711  -0.000070   0.004151  -0.004367   0.356096
    13  C    0.000000  -0.000166  -0.000024  -0.000189   0.000050  -0.043460
    14  C    0.000000   0.000002  -0.000006   0.000007   0.000015   0.004744
    15  C    0.000000  -0.000013  -0.000098   0.000150  -0.000213   0.000383
    16  C    0.000000   0.000000   0.002897  -0.004213   0.003073   0.005891
    17  N    0.015153   0.000001  -0.000004   0.000004   0.000000   0.000000
    18  C   -0.001327   0.000000  -0.000023   0.000000   0.000000   0.000000
    19  C   -0.000174   0.000000   0.000000   0.000000   0.000000   0.000000
    20  O   -0.000067   0.000001   0.000001  -0.000006  -0.000001   0.000000
    21  H   -0.000027   0.000231   0.006503   0.001406   0.000144   0.000000
    22  H   -0.000306   0.000044   0.000166   0.000027   0.006907   0.000220
    23  H    0.000215   0.000105  -0.000133  -0.000028  -0.000164   0.000000
    24  H   -0.020835   0.000180   0.004665  -0.000007   0.000012   0.000000
    25  H    0.506584   0.000235  -0.000007   0.000003   0.000000   0.000000
    26  H    0.000235   0.500454  -0.024249   0.004557  -0.003190   0.001510
    27  H   -0.000007  -0.024249   0.607190  -0.004961   0.005797   0.000066
    28  H    0.000003   0.004557  -0.004961   0.579352  -0.032257   0.000046
    29  H    0.000000  -0.003190   0.005797  -0.032257   0.577087   0.003956
    30  H    0.000000   0.001510   0.000066   0.000046   0.003956   0.595199
    31  H    0.000000   0.000004   0.000000   0.000003  -0.000004  -0.005498
    32  H    0.000000   0.000000   0.000000   0.000000   0.000000  -0.000179
    33  H    0.000000   0.000000   0.000002  -0.000008   0.000003   0.000018
    34  H    0.000000   0.000031   0.000358   0.006656   0.000082  -0.000181
    35  H   -0.000643  -0.000002   0.000198  -0.000007   0.000000   0.000000
    36  H   -0.000336   0.000000   0.000000   0.000000   0.000000   0.000000
    37  H    0.000183   0.000000   0.000000   0.000000   0.000000   0.000000
    38  H   -0.000063   0.000000   0.000000   0.000000   0.000000   0.000000
    39  H    0.000063   0.000000   0.000000   0.000000   0.000000   0.000000
    40  H   -0.000222   0.000000   0.000000   0.000000   0.000000   0.000000
              31         32         33         34         35         36
     1  O    0.000000   0.000000   0.000000   0.000000  -0.002159   0.000077
     2  S    0.000000   0.000000   0.000000  -0.000001  -0.001078   0.002551
     3  N    0.000000   0.000000   0.000000  -0.000014   0.009492  -0.000082
     4  C    0.000000   0.000000   0.000000  -0.000036  -0.000398  -0.000007
     5  C    0.000000   0.000000   0.000000   0.000001   0.000059   0.000001
     6  S    0.000000   0.000000   0.000000   0.000000   0.000043  -0.000001
     7  O    0.000000   0.000000   0.000000   0.000000   0.000000   0.000000
     8  C    0.000000   0.000000   0.000000   0.000000   0.000849   0.000214
     9  C   -0.000001   0.000000   0.000000   0.000188  -0.000020   0.000000
    10  C   -0.000183   0.000007  -0.000184  -0.010177  -0.000001   0.000000
    11  C    0.003625   0.000722   0.003829  -0.047466   0.000000   0.000000
    12  C   -0.038843   0.004715   0.000824   0.006384   0.000000   0.000000
    13  C    0.357102  -0.042991   0.004588   0.000336   0.000000   0.000000
    14  C   -0.043276   0.358934  -0.043327   0.004941   0.000000   0.000000
    15  C    0.004534  -0.043293   0.356298  -0.046075   0.000000   0.000000
    16  C    0.000888   0.004711  -0.039793   0.352907   0.000000   0.000000
    17  N    0.000000   0.000000   0.000000   0.000000  -0.037246  -0.034654
    18  C    0.000000   0.000000   0.000000   0.000000   0.371039   0.375265
    19  C    0.000000   0.000000   0.000000   0.000000   0.005195  -0.003783
    20  O    0.000000   0.000000   0.000000   0.000000  -0.000002  -0.000049
    21  H    0.000000   0.000000   0.000000   0.000066   0.001957   0.000009
    22  H    0.000000   0.000000   0.000000   0.000000   0.000000   0.000000
    23  H    0.000000   0.000000   0.000000   0.000000  -0.000001   0.000000
    24  H    0.000000   0.000000   0.000000   0.000000   0.000235   0.000005
    25  H    0.000000   0.000000   0.000000   0.000000  -0.000643  -0.000336
    26  H    0.000004   0.000000   0.000000   0.000031  -0.000002   0.000000
    27  H    0.000000   0.000000   0.000002   0.000358   0.000198   0.000000
    28  H    0.000003   0.000000  -0.000008   0.006656  -0.000007   0.000000
    29  H   -0.000004   0.000000   0.000003   0.000082   0.000000   0.000000
    30  H   -0.005498  -0.000179   0.000018  -0.000181   0.000000   0.000000
    31  H    0.594501  -0.005479  -0.000190   0.000018   0.000000   0.000000
    32  H   -0.005479   0.599286  -0.005592  -0.000184   0.000000   0.000000
    33  H   -0.000190  -0.005592   0.600696  -0.005766   0.000000   0.000000
    34  H    0.000018  -0.000184  -0.005766   0.620919   0.000000   0.000000
    35  H    0.000000   0.000000   0.000000   0.000000   0.554493  -0.025207
    36  H    0.000000   0.000000   0.000000   0.000000  -0.025207   0.544725
    37  H    0.000000   0.000000   0.000000   0.000000  -0.033766  -0.035001
    38  H    0.000000   0.000000   0.000000   0.000000  -0.000196   0.000003
    39  H    0.000000   0.000000   0.000000   0.000000  -0.000246  -0.001436
    40  H    0.000000   0.000000   0.000000   0.000000   0.000035   0.005360
              37         38         39         40
     1  O    0.007106  -0.000232   0.003468  -0.000111
     2  S   -0.007727  -0.003680  -0.003317   0.001777
     3  N   -0.000256   0.000096  -0.000085  -0.000076
     4  C   -0.000007   0.000015   0.000000   0.000002
     5  C   -0.000001  -0.000015  -0.000001  -0.000001
     6  S    0.000000   0.000012   0.000000  -0.000001
     7  O    0.000000   0.000000   0.000000   0.000000
     8  C   -0.000034   0.000019  -0.000012   0.000058
     9  C    0.000001   0.000000   0.000000   0.000000
    10  C    0.000000   0.000000   0.000000   0.000000
    11  C    0.000000   0.000000   0.000000   0.000000
    12  C    0.000000   0.000000   0.000000   0.000000
    13  C    0.000000   0.000000   0.000000   0.000000
    14  C    0.000000   0.000000   0.000000   0.000000
    15  C    0.000000   0.000000   0.000000   0.000000
    16  C    0.000000   0.000000   0.000000   0.000000
    17  N   -0.043493  -0.031331  -0.046506  -0.038283
    18  C    0.372048   0.004724  -0.003472  -0.003071
    19  C   -0.002720   0.378477   0.369991   0.376115
    20  O   -0.000047   0.011556  -0.000640   0.000221
    21  H    0.000057  -0.000006   0.000003  -0.000001
    22  H    0.000000   0.000000   0.000000   0.000000
    23  H    0.000000   0.000057   0.000000  -0.000001
    24  H    0.000002   0.000000   0.000000  -0.000001
    25  H    0.000183  -0.000063   0.000063  -0.000222
    26  H    0.000000   0.000000   0.000000   0.000000
    27  H    0.000000   0.000000   0.000000   0.000000
    28  H    0.000000   0.000000   0.000000   0.000000
    29  H    0.000000   0.000000   0.000000   0.000000
    30  H    0.000000   0.000000   0.000000   0.000000
    31  H    0.000000   0.000000   0.000000   0.000000
    32  H    0.000000   0.000000   0.000000   0.000000
    33  H    0.000000   0.000000   0.000000   0.000000
    34  H    0.000000   0.000000   0.000000   0.000000
    35  H   -0.033766  -0.000196  -0.000246   0.000035
    36  H   -0.035001   0.000003  -0.001436   0.005360
    37  H    0.555658  -0.000200   0.009324  -0.001667
    38  H   -0.000200   0.484679  -0.030000  -0.021192
    39  H    0.009324  -0.030000   0.575522  -0.040341
    40  H   -0.001667  -0.021192  -0.040341   0.554674
 Mulliken charges:
               1
     1  O   -0.532009
     2  S    1.316539
     3  N   -0.713796
     4  C    0.232780
     5  C   -0.489003
     6  S    0.743838
     7  O   -0.622820
     8  C   -0.493076
     9  C   -0.322758
    10  C   -0.356985
    11  C    0.173968
    12  C   -0.178985
    13  C   -0.128423
    14  C   -0.130468
    15  C   -0.127286
    16  C   -0.184611
    17  N   -0.520195
    18  C   -0.323361
    19  C   -0.326616
    20  O   -0.548825
    21  H    0.356338
    22  H    0.198418
    23  H    0.233182
    24  H    0.191650
    25  H    0.208037
    26  H    0.206021
    27  H    0.135411
    28  H    0.152770
    29  H    0.154371
    30  H    0.136184
    31  H    0.132797
    32  H    0.129343
    33  H    0.128602
    34  H    0.117014
    35  H    0.157378
    36  H    0.172347
    37  H    0.180540
    38  H    0.207278
    39  H    0.167685
    40  H    0.166726
 Sum of Mulliken charges =   0.00000
 Mulliken charges with hydrogens summed into heavy atoms:
               1
     1  O   -0.532009
     2  S    1.316539
     3  N   -0.357457
     4  C    0.232780
     5  C   -0.057403
     6  S    0.743838
     7  O   -0.622820
     8  C   -0.093389
     9  C    0.018674
    10  C   -0.049845
    11  C    0.173968
    12  C   -0.042800
    13  C    0.004374
    14  C   -0.001125
    15  C    0.001316
    16  C   -0.067597
    17  N   -0.520195
    18  C    0.186904
    19  C    0.215072
    20  O   -0.548825
 Electronic spatial extent (au):  <R**2>=           8458.4885
 Charge=              0.0000 electrons
 Dipole moment (field-independent basis, Debye):
    X=              1.8646    Y=             -1.5978    Z=              3.7048  Tot=              4.4447
 Quadrupole moment (field-independent basis, Debye-Ang):
   XX=           -119.5081   YY=           -149.7195   ZZ=           -133.0609
   XY=              9.1651   XZ=             12.8224   YZ=            -10.8688
 Traceless Quadrupole moment (field-independent basis, Debye-Ang):
   XX=             14.5881   YY=            -15.6233   ZZ=              1.0353
   XY=              9.1651   XZ=             12.8224   YZ=            -10.8688
 Octapole moment (field-independent basis, Debye-Ang**2):
  XXX=             66.2474  YYY=            -43.6225  ZZZ=              8.0957  XYY=              8.2849
  XXY=              7.3185  XXZ=             49.7233  XZZ=             21.8848  YZZ=              9.2318
  YYZ=              3.1350  XYZ=              0.0281
 Hexadecapole moment (field-independent basis, Debye-Ang**3):
 XXXX=          -7409.4021 YYYY=          -2496.2238 ZZZZ=           -693.2292 XXXY=            -70.4067
 XXXZ=             26.6381 YYYX=            108.8809 YYYZ=            -65.1040 ZZZX=             34.8917
 ZZZY=              1.3711 XXYY=          -1754.4981 XXZZ=          -1555.5131 YYZZ=           -474.7073
 XXYZ=           -101.1859 YYXZ=             13.7497 ZZXY=            -19.0165
 N-N= 1.961215346457D+03 E-N=-7.772377917654D+03  KE= 1.628069943962D+03
 No NMR shielding tensors so no spin-rotation constants.
 Leave Link  601 at Sat Aug  8 02:42:47 2020, MaxMem=    33554432 cpu:         0.3
 (Enter /prod/apps/gaussian/g09d1/l9999.exe)
 1\1\GINC-PIRINEUS17\SP\RB3LYP\6-31G(d)\C13H20N2O3S2\UBAFAR01\08-Aug-20
 20\0\\#p b3lyp/6-31G(d)\\SM37.n.7.pdb.xyz\\0,1\O,0,4.743,0.548,0.338\S
 ,0,4.329,-0.861,0.263\N,0,3.45,-0.974,-1.132\C,0,2.743,-2.153,-1.661\C
 ,0,1.749,-2.832,-0.687\S,0,2.148,-4.528,-1.359\O,0,1.227,-4.845,-2.536
 \C,0,3.557,-3.445,-1.937\C,0,2.034,-1.705,-2.952\C,0,1.023,-0.56,-2.77
 7\C,0,0.313,-0.232,-4.071\C,0,-0.764,-1.011,-4.518\C,0,-1.404,-0.724,-
 5.725\C,0,-0.976,0.352,-6.507\C,0,0.094,1.135,-6.073\C,0,0.73,0.844,-4
 .865\N,0,5.667,-1.886,0.065\C,0,6.602,-1.415,-0.97\C,0,6.344,-2.211,1.
 338\O,0,3.552,-1.431,1.369\H,0,3.796,-0.321,-1.836\H,0,0.696,-2.569,-0
 .784\H,0,2.063,-2.795,0.355\H,0,3.853,-3.638,-2.969\H,0,4.398,-3.59,-1
 .258\H,0,1.528,-2.59,-3.35\H,0,2.796,-1.419,-3.687\H,0,1.537,0.331,-2.
 405\H,0,0.289,-0.844,-2.014\H,0,-1.106,-1.847,-3.914\H,0,-2.239,-1.336
 ,-6.051\H,0,-1.475,0.578,-7.444\H,0,0.432,1.976,-6.671\H,0,1.56,1.46,-
 4.528\H,0,6.066,-1.234,-1.901\H,0,7.328,-2.212,-1.142\H,0,7.133,-0.504
 ,-0.671\H,0,5.611,-2.576,2.054\H,0,6.877,-1.349,1.76\H,0,7.065,-3.002,
 1.126\\Version=AM64L-G09RevD.01\State=1-A\HF=-1638.8318536\RMSD=3.900e
 -09\Dipole=1.6575788,0.0802939,-0.5512346\Quadrupole=13.250122,-10.609
 0168,-2.6411052,-7.5222954,1.4888258,-11.0831372\PG=C01 [X(C13H20N2O3S
 2)]\\@


 A politician is a person who can make waves and then
 make you think he's the only one who can save the ship.
 -- Ivern Ball
 Job cpu time:       0 days  0 hours  6 minutes 17.1 seconds.
 File lengths (MBytes):  RWF=     67 Int=      0 D2E=      0 Chk=      5 Scr=      1
 Normal termination of Gaussian 09 at Sat Aug  8 02:42:47 2020.
 Initial command:
 /prod/apps/gaussian/g09d1/l1.exe "/tmp/ubafar01/1449180/Gau-113102.inp" -scrdir="/tmp/ubafar01/1449180/"
 Entering Link 1 = /prod/apps/gaussian/g09d1/l1.exe PID=    114378.
  
 Copyright (c) 1988,1990,1992,1993,1995,1998,2003,2009,2013,
            Gaussian, Inc.  All Rights Reserved.
  
 This is part of the Gaussian(R) 09 program.  It is based on
 the Gaussian(R) 03 system (copyright 2003, Gaussian, Inc.),
 the Gaussian(R) 98 system (copyright 1998, Gaussian, Inc.),
 the Gaussian(R) 94 system (copyright 1995, Gaussian, Inc.),
 the Gaussian 92(TM) system (copyright 1992, Gaussian, Inc.),
 the Gaussian 90(TM) system (copyright 1990, Gaussian, Inc.),
 the Gaussian 88(TM) system (copyright 1988, Gaussian, Inc.),
 the Gaussian 86(TM) system (copyright 1986, Carnegie Mellon
 University), and the Gaussian 82(TM) system (copyright 1983,
 Carnegie Mellon University). Gaussian is a federally registered
 trademark of Gaussian, Inc.
  
 This software contains proprietary and confidential information,
 including trade secrets, belonging to Gaussian, Inc.
  
 This software is provided under written license and may be
 used, copied, transmitted, or stored only in accord with that
 written license.
  
 The following legend is applicable only to US Government
 contracts under FAR:
  
                    RESTRICTED RIGHTS LEGEND
  
 Use, reproduction and disclosure by the US Government is
 subject to restrictions as set forth in subparagraphs (a)
 and (c) of the Commercial Computer Software - Restricted
 Rights clause in FAR 52.227-19.
  
 Gaussian, Inc.
 340 Quinnipiac St., Bldg. 40, Wallingford CT 06492
  
  
 ---------------------------------------------------------------
 Warning -- This program may not be used in any manner that
 competes with the business of Gaussian, Inc. or will provide
 assistance to any competitor of Gaussian, Inc.  The licensee
 of this program is prohibited from giving any competitor of
 Gaussian, Inc. access to this program.  By using this program,
 the user acknowledges that Gaussian, Inc. is engaged in the
 business of creating and licensing software in the field of
[...]
    39  H    0.000000  -0.000011   0.000000   0.000000   0.000000   0.000000
    40  H    0.000000   0.000054   0.000000   0.000000   0.000000   0.000000
              13         14         15         16         17         18
     1  O    0.000000   0.000000   0.000000   0.000000  -0.057795   0.001759
     2  S    0.000000   0.000000   0.000000   0.000000   0.149776  -0.009394
     3  N    0.000000   0.000000   0.000000  -0.000010  -0.054284  -0.005932
     4  C    0.000003   0.000000   0.000002   0.000042   0.000611   0.000074
     5  C    0.000000   0.000000   0.000000  -0.000004  -0.001127   0.000003
     6  S    0.000000   0.000000   0.000000   0.000001   0.000125   0.000001
     7  O    0.000000   0.000000   0.000000   0.000000   0.000000   0.000000
     8  C    0.000000   0.000000   0.000000  -0.000002  -0.007421   0.000780
     9  C    0.000068   0.000010  -0.000103  -0.002984  -0.000050  -0.000058
    10  C    0.006347   0.000337   0.006935  -0.053276   0.000002   0.000001
    11  C   -0.020151  -0.034468  -0.022774   0.550056   0.000000   0.000000
    12  C    0.520214  -0.037797  -0.047563  -0.039509   0.000000   0.000000
    13  C    4.896642   0.543330  -0.028706  -0.046916   0.000000   0.000000
    14  C    0.543330   4.884598   0.546482  -0.038378   0.000000   0.000000
    15  C   -0.028706   0.546482   4.899790   0.516586   0.000000   0.000000
    16  C   -0.046916  -0.038378   0.516586   4.982965   0.000000   0.000000
    17  N    0.000000   0.000000   0.000000   0.000000   7.219602   0.262643
    18  C    0.000000   0.000000   0.000000   0.000000   0.262643   5.008483
    19  C    0.000000   0.000000   0.000000   0.000000   0.278101  -0.050834
    20  O    0.000000   0.000000   0.000000   0.000000  -0.055775   0.001721
    21  H    0.000000   0.000000   0.000000   0.000004  -0.000068  -0.000217
    22  H    0.000000   0.000000   0.000000   0.000001   0.000000   0.000000
    23  H    0.000000   0.000000   0.000000   0.000000  -0.000184  -0.000003
    24  H    0.000000   0.000000   0.000000   0.000000   0.000148  -0.000087
    25  H    0.000000   0.000000   0.000000   0.000000   0.014908  -0.001444
    26  H   -0.000177   0.000002  -0.000012   0.000000   0.000001   0.000000
    27  H   -0.000020  -0.000006  -0.000093   0.002680  -0.000005  -0.000016
    28  H   -0.000191   0.000008   0.000151  -0.004282   0.000004   0.000000
    29  H    0.000063   0.000016  -0.000215   0.003048   0.000000   0.000000
    30  H   -0.043977   0.004789   0.000276   0.005927   0.000000   0.000000
    31  H    0.360776  -0.042167   0.004498   0.000767   0.000000   0.000000
    32  H   -0.042104   0.362973  -0.042177   0.004614   0.000000   0.000000
    33  H    0.004506  -0.042371   0.360503  -0.038485   0.000000   0.000000
    34  H    0.000264   0.004765  -0.044815   0.358510   0.000000   0.000000
    35  H    0.000000   0.000000   0.000000   0.000000  -0.036183   0.374177
    36  H    0.000000   0.000000   0.000000   0.000000  -0.032646   0.378440
    37  H    0.000000   0.000000   0.000000   0.000000  -0.044009   0.373133
    38  H    0.000000   0.000000   0.000000   0.000000  -0.032596   0.004650
    39  H    0.000000   0.000000   0.000000   0.000000  -0.046550  -0.003002
    40  H    0.000000   0.000000   0.000000   0.000000  -0.035920  -0.002719
              19         20         21         22         23         24
     1  O   -0.002477  -0.044805   0.002079   0.000001   0.000022   0.000001
     2  S   -0.020080   0.433712  -0.005508   0.000169   0.002814  -0.000022
     3  N    0.002133  -0.053865   0.290785   0.001382  -0.005226   0.001525
     4  C   -0.000056  -0.001347  -0.023191  -0.029341  -0.023818  -0.029554
     5  C    0.000023  -0.007461   0.003993   0.353271   0.323912   0.009832
     6  S    0.000015   0.000134  -0.000289  -0.017813  -0.005925  -0.017750
     7  O    0.000000   0.000000   0.000001   0.000302   0.001160  -0.000045
     8  C    0.000105  -0.000880   0.000665   0.009609   0.002887   0.354403
     9  C    0.000001   0.000026  -0.004360  -0.007477   0.004310  -0.005121
    10  C    0.000000  -0.000021  -0.000109   0.001950   0.000016   0.000113
    11  C    0.000000   0.000000  -0.000144  -0.000093   0.000003  -0.000012
    12  C    0.000000   0.000000   0.000001  -0.000004   0.000000   0.000000
    13  C    0.000000   0.000000   0.000000   0.000000   0.000000   0.000000
    14  C    0.000000   0.000000   0.000000   0.000000   0.000000   0.000000
    15  C    0.000000   0.000000   0.000000   0.000000   0.000000   0.000000
    16  C    0.000000   0.000000   0.000004   0.000001   0.000000   0.000000
    17  N    0.278101  -0.055775  -0.000068   0.000000  -0.000184   0.000148
    18  C   -0.050834   0.001721  -0.000217   0.000000  -0.000003  -0.000087
    19  C    4.998246  -0.004396  -0.000014   0.000000  -0.000018   0.000000
    20  O   -0.004396   8.283837   0.001300   0.000147   0.015359   0.000001
    21  H   -0.000014   0.001300   0.316274  -0.000033  -0.000052   0.000214
    22  H    0.000000   0.000147  -0.000033   0.485653  -0.015639  -0.000343
    23  H   -0.000018   0.015359  -0.000052  -0.015639   0.469076  -0.000288
    24  H    0.000000   0.000001   0.000214  -0.000343  -0.000288   0.488396
    25  H   -0.000222  -0.000074  -0.000019  -0.000282   0.000164  -0.017389
    26  H    0.000000   0.000001   0.000206   0.000040   0.000097   0.000146
    27  H    0.000000   0.000001   0.004990   0.000155  -0.000127   0.004179
    28  H    0.000000  -0.000005   0.001286   0.000033  -0.000027  -0.000006
    29  H    0.000000  -0.000001   0.000110   0.006541  -0.000169   0.000012
    30  H    0.000000   0.000000   0.000000   0.000215   0.000000   0.000000
    31  H    0.000000   0.000000   0.000000   0.000000   0.000000   0.000000
    32  H    0.000000   0.000000   0.000000   0.000000   0.000000   0.000000
    33  H    0.000000   0.000000   0.000000   0.000000   0.000000   0.000000
    34  H    0.000000   0.000000   0.000047   0.000000   0.000000   0.000000
    35  H    0.004898   0.000001   0.001474   0.000000  -0.000001   0.000177
    36  H   -0.003797  -0.000049   0.000002   0.000000   0.000000   0.000005
    37  H   -0.002775  -0.000048   0.000062   0.000000   0.000000   0.000002
    38  H    0.377327   0.010903  -0.000005   0.000000   0.000054   0.000000
    39  H    0.370530  -0.000604   0.000003   0.000000   0.000000   0.000000
    40  H    0.379850   0.000199  -0.000001   0.000000  -0.000001  -0.000001
              25         26         27         28         29         30
     1  O    0.000017   0.000000  -0.000002   0.000002   0.000000   0.000000
     2  S    0.002815   0.000040  -0.000176   0.000336  -0.000003   0.000000
     3  N   -0.006579   0.003131  -0.006334   0.007704  -0.000294   0.000000
     4  C   -0.024590  -0.031146  -0.030192  -0.007872  -0.004401  -0.000110
     5  C    0.002513  -0.007939   0.005976  -0.000273   0.003110  -0.000002
     6  S   -0.006497   0.005487  -0.000427  -0.000028  -0.000116  -0.000001
     7  O    0.001186   0.026189   0.000250  -0.000003   0.000047   0.000207
     8  C    0.325135  -0.006881  -0.005737   0.000111   0.000086   0.000004
     9  C    0.003879   0.351040   0.356225  -0.034897  -0.042415   0.000029
    10  C   -0.000104  -0.033431  -0.038486   0.361667   0.362235  -0.008409
    11  C    0.000001  -0.001917  -0.000773  -0.029783  -0.027957  -0.046554
    12  C    0.000000   0.003958  -0.000052   0.004231  -0.004348   0.359026
    13  C    0.000000  -0.000177  -0.000020  -0.000191   0.000063  -0.043977
    14  C    0.000000   0.000002  -0.000006   0.000008   0.000016   0.004789
    15  C    0.000000  -0.000012  -0.000093   0.000151  -0.000215   0.000276
    16  C    0.000000   0.000000   0.002680  -0.004282   0.003048   0.005927
    17  N    0.014908   0.000001  -0.000005   0.000004   0.000000   0.000000
    18  C   -0.001444   0.000000  -0.000016   0.000000   0.000000   0.000000
    19  C   -0.000222   0.000000   0.000000   0.000000   0.000000   0.000000
    20  O   -0.000074   0.000001   0.000001  -0.000005  -0.000001   0.000000
    21  H   -0.000019   0.000206   0.004990   0.001286   0.000110   0.000000
    22  H   -0.000282   0.000040   0.000155   0.000033   0.006541   0.000215
    23  H    0.000164   0.000097  -0.000127  -0.000027  -0.000169   0.000000
    24  H   -0.017389   0.000146   0.004179  -0.000006   0.000012   0.000000
    25  H    0.482003   0.000219  -0.000007   0.000003   0.000001   0.000000
    26  H    0.000219   0.530214  -0.025139   0.004706  -0.003381   0.001605
    27  H   -0.000007  -0.025139   0.567884  -0.004753   0.005429   0.000060
    28  H    0.000003   0.004706  -0.004753   0.565375  -0.032235   0.000055
    29  H    0.000001  -0.003381   0.005429  -0.032235   0.570054   0.003747
    30  H    0.000000   0.001605   0.000060   0.000055   0.003747   0.584870
    31  H    0.000000   0.000003   0.000000   0.000003  -0.000004  -0.005332
    32  H    0.000000   0.000000   0.000000   0.000000   0.000000  -0.000168
    33  H    0.000000   0.000000   0.000002  -0.000007   0.000003   0.000017
    34  H    0.000000   0.000028   0.000307   0.006091   0.000082  -0.000167
    35  H   -0.000630  -0.000002   0.000160  -0.000006   0.000000   0.000000
    36  H   -0.000320   0.000000   0.000000   0.000000   0.000000   0.000000
    37  H    0.000173   0.000000   0.000000   0.000000   0.000000   0.000000
    38  H   -0.000066   0.000000   0.000000   0.000000   0.000000   0.000000
    39  H    0.000061   0.000000   0.000000   0.000000   0.000000   0.000000
    40  H   -0.000210   0.000000   0.000000   0.000000   0.000000   0.000000
              31         32         33         34         35         36
     1  O    0.000000   0.000000   0.000000   0.000000  -0.002068   0.000064
     2  S    0.000000   0.000000   0.000000   0.000000  -0.000345   0.002518
     3  N    0.000000   0.000000   0.000000  -0.000011   0.008533  -0.000076
     4  C    0.000000   0.000000   0.000000  -0.000034  -0.000446  -0.000005
     5  C    0.000000   0.000000   0.000000   0.000000   0.000052   0.000001
     6  S    0.000000   0.000000   0.000000   0.000000   0.000033  -0.000002
     7  O    0.000000   0.000000   0.000000   0.000000   0.000000   0.000000
     8  C    0.000000   0.000000   0.000000   0.000000   0.000790   0.000189
     9  C    0.000000   0.000000   0.000000   0.000221  -0.000008   0.000000
    10  C   -0.000173   0.000006  -0.000174  -0.009633  -0.000001   0.000000
    11  C    0.003601   0.000628   0.003713  -0.044258   0.000000   0.000000
    12  C   -0.038626   0.004634   0.000744   0.006193   0.000000   0.000000
    13  C    0.360776  -0.042104   0.004506   0.000264   0.000000   0.000000
    14  C   -0.042167   0.362973  -0.042371   0.004765   0.000000   0.000000
    15  C    0.004498  -0.042177   0.360503  -0.044815   0.000000   0.000000
    16  C    0.000767   0.004614  -0.038485   0.358510   0.000000   0.000000
    17  N    0.000000   0.000000   0.000000   0.000000  -0.036183  -0.032646
    18  C    0.000000   0.000000   0.000000   0.000000   0.374177   0.378440
    19  C    0.000000   0.000000   0.000000   0.000000   0.004898  -0.003797
    20  O    0.000000   0.000000   0.000000   0.000000   0.000001  -0.000049
    21  H    0.000000   0.000000   0.000000   0.000047   0.001474   0.000002
    22  H    0.000000   0.000000   0.000000   0.000000   0.000000   0.000000
    23  H    0.000000   0.000000   0.000000   0.000000  -0.000001   0.000000
    24  H    0.000000   0.000000   0.000000   0.000000   0.000177   0.000005
    25  H    0.000000   0.000000   0.000000   0.000000  -0.000630  -0.000320
    26  H    0.000003   0.000000   0.000000   0.000028  -0.000002   0.000000
    27  H    0.000000   0.000000   0.000002   0.000307   0.000160   0.000000
    28  H    0.000003   0.000000  -0.000007   0.006091  -0.000006   0.000000
    29  H   -0.000004   0.000000   0.000003   0.000082   0.000000   0.000000
    30  H   -0.005332  -0.000168   0.000017  -0.000167   0.000000   0.000000
    31  H    0.572785  -0.005194  -0.000175   0.000016   0.000000   0.000000
    32  H   -0.005194   0.574207  -0.005261  -0.000167   0.000000   0.000000
    33  H   -0.000175  -0.005261   0.573476  -0.005293   0.000000   0.000000
    34  H    0.000016  -0.000167  -0.005293   0.584582   0.000000   0.000000
    35  H    0.000000   0.000000   0.000000   0.000000   0.525551  -0.023082
    36  H    0.000000   0.000000   0.000000   0.000000  -0.023082   0.516129
    37  H    0.000000   0.000000   0.000000   0.000000  -0.032541  -0.032782
    38  H    0.000000   0.000000   0.000000   0.000000  -0.000195   0.000017
    39  H    0.000000   0.000000   0.000000   0.000000  -0.000217  -0.001340
    40  H    0.000000   0.000000   0.000000   0.000000   0.000034   0.004896
              37         38         39         40
     1  O    0.007016  -0.000220   0.003407  -0.000109
     2  S   -0.008940  -0.003802  -0.003898   0.001772
     3  N   -0.000278   0.000098  -0.000085  -0.000079
     4  C   -0.000002   0.000010   0.000000   0.000001
     5  C   -0.000001  -0.000013  -0.000001  -0.000001
     6  S    0.000000   0.000010   0.000000  -0.000002
     7  O    0.000000   0.000000   0.000000   0.000000
     8  C   -0.000036   0.000020  -0.000011   0.000054
     9  C    0.000001   0.000000   0.000000   0.000000
    10  C    0.000000   0.000000   0.000000   0.000000
    11  C    0.000000   0.000000   0.000000   0.000000
    12  C    0.000000   0.000000   0.000000   0.000000
    13  C    0.000000   0.000000   0.000000   0.000000
    14  C    0.000000   0.000000   0.000000   0.000000
    15  C    0.000000   0.000000   0.000000   0.000000
    16  C    0.000000   0.000000   0.000000   0.000000
    17  N   -0.044009  -0.032596  -0.046550  -0.035920
    18  C    0.373133   0.004650  -0.003002  -0.002719
    19  C   -0.002775   0.377327   0.370530   0.379850
    20  O   -0.000048   0.010903  -0.000604   0.000199
    21  H    0.000062  -0.000005   0.000003  -0.000001
    22  H    0.000000   0.000000   0.000000   0.000000
    23  H    0.000000   0.000054   0.000000  -0.000001
    24  H    0.000002   0.000000   0.000000  -0.000001
    25  H    0.000173  -0.000066   0.000061  -0.000210
    26  H    0.000000   0.000000   0.000000   0.000000
    27  H    0.000000   0.000000   0.000000   0.000000
    28  H    0.000000   0.000000   0.000000   0.000000
    29  H    0.000000   0.000000   0.000000   0.000000
    30  H    0.000000   0.000000   0.000000   0.000000
    31  H    0.000000   0.000000   0.000000   0.000000
    32  H    0.000000   0.000000   0.000000   0.000000
    33  H    0.000000   0.000000   0.000000   0.000000
    34  H    0.000000   0.000000   0.000000   0.000000
    35  H   -0.032541  -0.000195  -0.000217   0.000034
    36  H   -0.032782   0.000017  -0.001340   0.004896
    37  H    0.556866  -0.000187   0.008981  -0.001564
    38  H   -0.000187   0.498842  -0.031179  -0.020530
    39  H    0.008981  -0.031179   0.571640  -0.037207
    40  H   -0.001564  -0.020530  -0.037207   0.523304
 Mulliken charges:
               1
     1  O   -0.569374
     2  S    1.309911
     3  N   -0.734254
     4  C    0.230672
     5  C   -0.485795
     6  S    0.747844
     7  O   -0.687479
     8  C   -0.486217
     9  C   -0.319796
    10  C   -0.359322
    11  C    0.162952
    12  C   -0.196289
    13  C   -0.149972
    14  C   -0.152124
    15  C   -0.148764
    16  C   -0.201354
    17  N   -0.521308
    18  C   -0.332159
    19  C   -0.326562
    20  O   -0.578009
    21  H    0.410514
    22  H    0.211554
    23  H    0.231604
    24  H    0.211465
    25  H    0.225358
    26  H    0.182913
    27  H    0.164046
    28  H    0.162604
    29  H    0.160954
    30  H    0.143892
    31  H    0.149223
    32  H    0.148011
    33  H    0.148803
    34  H    0.143272
    35  H    0.179848
    36  H    0.191838
    37  H    0.176929
    38  H    0.196862
    39  H    0.169472
    40  H    0.188233
 Sum of Mulliken charges =   0.00000
 Mulliken charges with hydrogens summed into heavy atoms:
               1
     1  O   -0.569374
     2  S    1.309911
     3  N   -0.323740
     4  C    0.230672
     5  C   -0.042636
     6  S    0.747844
     7  O   -0.687479
     8  C   -0.049395
     9  C    0.027164
    10  C   -0.035764
    11  C    0.162952
    12  C   -0.052397
    13  C   -0.000748
    14  C   -0.004113
    15  C    0.000039
    16  C   -0.058082
    17  N   -0.521308
    18  C    0.216457
    19  C    0.228006
    20  O   -0.578009
 Electronic spatial extent (au):  <R**2>=           8459.9576
 Charge=              0.0000 electrons
 Dipole moment (field-independent basis, Debye):
    X=              2.6225    Y=             -2.3823    Z=              5.0248  Tot=              6.1483
 Quadrupole moment (field-independent basis, Debye-Ang):
   XX=           -119.1354   YY=           -153.0838   ZZ=           -132.0454
   XY=             12.2016   XZ=             16.3080   YZ=            -12.6914
 Traceless Quadrupole moment (field-independent basis, Debye-Ang):
   XX=             15.6195   YY=            -18.3290   ZZ=              2.7095
   XY=             12.2016   XZ=             16.3080   YZ=            -12.6914
 Octapole moment (field-independent basis, Debye-Ang**2):
  XXX=             77.0335  YYY=            -58.1995  ZZZ=             14.8075  XYY=              7.2684
  XXY=              7.8789  XXZ=             64.8858  XZZ=             23.5996  YZZ=              9.4015
  YYZ=              5.0917  XYZ=             -0.6605
 Hexadecapole moment (field-independent basis, Debye-Ang**3):
 XXXX=          -7299.2383 YYYY=          -2560.9357 ZZZZ=           -683.7952 XXXY=            -49.0958
 XXXZ=             65.3905 YYYX=            145.0494 YYYZ=            -80.2098 ZZZX=             53.5738
 ZZZY=             -3.9953 XXYY=          -1751.1484 XXZZ=          -1547.0191 YYZZ=           -474.1932
 XXYZ=           -117.6805 YYXZ=             20.1425 ZZXY=            -16.8460
 N-N= 1.961218494318D+03 E-N=-7.772547248523D+03  KE= 1.628081999031D+03
 No NMR shielding tensors so no spin-rotation constants.
 Leave Link  601 at Sat Aug  8 02:47:34 2020, MaxMem=    33554432 cpu:         0.3
 (Enter /prod/apps/gaussian/g09d1/l9999.exe)
 1\1\GINC-PIRINEUS17\SP\RB3LYP\6-31G(d)\C13H20N2O3S2\UBAFAR01\08-Aug-20
 20\0\\#p b3lyp/6-31G(d) scrf=(iefpcm,read,solvent=Water) geom=allcheck
  guess=read\\SM37.n.7.pdb.xyz\\0,1\O,0,4.743,0.548,0.338\S,0,4.329,-0.
 861,0.263\N,0,3.45,-0.974,-1.132\C,0,2.743,-2.153,-1.661\C,0,1.749,-2.
 832,-0.687\S,0,2.148,-4.528,-1.359\O,0,1.227,-4.845,-2.536\C,0,3.557,-
 3.445,-1.937\C,0,2.034,-1.705,-2.952\C,0,1.023,-0.56,-2.777\C,0,0.313,
 -0.232,-4.071\C,0,-0.764,-1.011,-4.518\C,0,-1.404,-0.724,-5.725\C,0,-0
 .976,0.352,-6.507\C,0,0.094,1.135,-6.073\C,0,0.73,0.844,-4.865\N,0,5.6
 67,-1.886,0.065\C,0,6.602,-1.415,-0.97\C,0,6.344,-2.211,1.338\O,0,3.55
 2,-1.431,1.369\H,0,3.796,-0.321,-1.836\H,0,0.696,-2.569,-0.784\H,0,2.0
 63,-2.795,0.355\H,0,3.853,-3.638,-2.969\H,0,4.398,-3.59,-1.258\H,0,1.5
 28,-2.59,-3.35\H,0,2.796,-1.419,-3.687\H,0,1.537,0.331,-2.405\H,0,0.28
 9,-0.844,-2.014\H,0,-1.106,-1.847,-3.914\H,0,-2.239,-1.336,-6.051\H,0,
 -1.475,0.578,-7.444\H,0,0.432,1.976,-6.671\H,0,1.56,1.46,-4.528\H,0,6.
 066,-1.234,-1.901\H,0,7.328,-2.212,-1.142\H,0,7.133,-0.504,-0.671\H,0,
 5.611,-2.576,2.054\H,0,6.877,-1.349,1.76\H,0,7.065,-3.002,1.126\\Versi
 on=AM64L-G09RevD.01\State=1-A\HF=-1638.8552818\RMSD=6.797e-09\Dipole=2
 .3000775,0.1822151,-0.7263763\Quadrupole=15.8630175,-11.914337,-3.9486
 805,-9.8138824,0.4837027,-13.3978832\PG=C01 [X(C13H20N2O3S2)]\\@


 IT CANNOT BE MY BEAUTY, FOR I HAVE NONE; AND IT CANNOT BE MY WIT,
 FOR HE HAS NOT ENOUGH TO KNOW THAT I HAVE ANY.
 -- CATHARINE SEDLEY, PUZZLED ABOUT WHY SHE WAS MISTRESS TO JAMES II
 Job cpu time:       0 days  0 hours  4 minutes 46.5 seconds.
 File lengths (MBytes):  RWF=    265 Int=      0 D2E=      0 Chk=      7 Scr=      1
 Normal termination of Gaussian 09 at Sat Aug  8 02:47:34 2020.
