 Entering Gaussian System, Link 0=g09
 Initial command:
 /prod/apps/gaussian/g09d1/l1.exe "/tmp/ubafar01/1449207/Gau-183157.inp" -scrdir="/tmp/ubafar01/1449207/"
 Entering Link 1 = /prod/apps/gaussian/g09d1/l1.exe PID=    183158.
  
 Copyright (c) 1988,1990,1992,1993,1995,1998,2003,2009,2013,
            Gaussian, Inc.  All Rights Reserved.
  
 This is part of the Gaussian(R) 09 program.  It is based on
 the Gaussian(R) 03 system (copyright 2003, Gaussian, Inc.),
 the Gaussian(R) 98 system (copyright 1998, Gaussian, Inc.),
 the Gaussian(R) 94 system (copyright 1995, Gaussian, Inc.),
 the Gaussian 92(TM) system (copyright 1992, Gaussian, Inc.),
 the Gaussian 90(TM) system (copyright 1990, Gaussian, Inc.),
 the Gaussian 88(TM) system (copyright 1988, Gaussian, Inc.),
 the Gaussian 86(TM) system (copyright 1986, Carnegie Mellon
 University), and the Gaussian 82(TM) system (copyright 1983,
 Carnegie Mellon University). Gaussian is a federally registered
 trademark of Gaussian, Inc.
  
 This software contains proprietary and confidential information,
 including trade secrets, belonging to Gaussian, Inc.
  
 This software is provided under written license and may be
 used, copied, transmitted, or stored only in accord with that
 written license.
  
 The following legend is applicable only to US Government
 contracts under FAR:
  
                    RESTRICTED RIGHTS LEGEND
  
 Use, reproduction and disclosure by the US Government is
 subject to restrictions as set forth in subparagraphs (a)
 and (c) of the Commercial Computer Software - Restricted
 Rights clause in FAR 52.227-19.
  
 Gaussian, Inc.
 340 Quinnipiac St., Bldg. 40, Wallingford CT 06492
  
  
 ---------------------------------------------------------------
 Warning -- This program may not be used in any manner that
 competes with the business of Gaussian, Inc. or will provide
 assistance to any competitor of Gaussian, Inc.  The licensee
 of this program is prohibited from giving any competitor of
 Gaussian, Inc. access to this program.  By using this program,
 the user acknowledges that Gaussian, Inc. is engaged in the
 business of creating and licensing software in the field of
 computational chemistry and represents and warrants to the
 licensee that it is not a competitor of Gaussian, Inc. and that
 it will not use this program in any manner prohibited above.
 ---------------------------------------------------------------
  

 Cite this work as:
 Gaussian 09, Revision D.01,
 M. J. Frisch, G. W. Trucks, H. B. Schlegel, G. E. Scuseria, 
 M. A. Robb, J. R. Cheeseman, G. Scalmani, V. Barone, B. Mennucci, 
 G. A. Petersson, H. Nakatsuji, M. Caricato, X. Li, H. P. Hratchian, 
 A. F. Izmaylov, J. Bloino, G. Zheng, J. L. Sonnenberg, M. Hada, 
 M. Ehara, K. Toyota, R. Fukuda, J. Hasegawa, M. Ishida, T. Nakajima, 
 Y. Honda, O. Kitao, H. Nakai, T. Vreven, J. A. Montgomery, Jr., 
 J. E. Peralta, F. Ogliaro, M. Bearpark, J. J. Heyd, E. Brothers, 
 K. N. Kudin, V. N. Staroverov, T. Keith, R. Kobayashi, J. Normand, 
 K. Raghavachari, A. Rendell, J. C. Burant, S. S. Iyengar, J. Tomasi, 
 M. Cossi, N. Rega, J. M. Millam, M. Klene, J. E. Knox, J. B. Cross, 
 V. Bakken, C. Adamo, J. Jaramillo, R. Gomperts, R. E. Stratmann, 
 O. Yazyev, A. J. Austin, R. Cammi, C. Pomelli, J. W. Ochterski, 
 R. L. Martin, K. Morokuma, V. G. Zakrzewski, G. A. Voth, 
 P. Salvador, J. J. Dannenberg, S. Dapprich, A. D. Daniels, 
 O. Farkas, J. B. Foresman, J. V. Ortiz, J. Cioslowski, 
 and D. J. Fox, Gaussian, Inc., Wallingford CT, 2013.
 
 ******************************************
 Gaussian 09:  AM64L-G09RevD.01 24-Apr-2013
                 8-Aug-2020 
 ******************************************
 %nproc=1
 Will use up to    1 processors via shared memory.
 %Chk=SM37.n.5.pdb.xyz.mst.n.o.chk
 -----------------
 #p b3lyp/6-31G(d)
 -----------------
 1/38=1/1;
 2/12=2,17=6,18=5,40=1/2;
 3/5=1,6=6,7=1,11=2,16=1,25=1,30=1,74=-5/1,2,3;
 4//1;
 5/5=2,38=5/2;
 6/7=2,8=2,9=2,10=2,28=1/1;
 99/5=1,9=1/99;
 Leave Link    1 at Sat Aug  8 07:12:04 2020, MaxMem=           0 cpu:         0.0
 (Enter /prod/apps/gaussian/g09d1/l101.exe)
 ----------------
 SM37.n.5.pdb.xyz
 ----------------
 Symbolic Z-matrix:
 Charge =  0 Multiplicity = 1
 O                     4.594    -2.692     0.843 
 S                     4.179    -1.32      0.527 
 N                     3.395    -1.216    -0.947 
 C                     2.726    -2.361    -1.585 
 C                     1.715    -3.108    -0.694 
 S                     2.158    -4.754    -1.469 
 O                     1.3      -4.98     -2.703 
 C                     3.587    -3.613    -1.894 
 C                     2.067    -1.849    -2.875 
 C                     1.038    -0.727    -2.666 
 C                     0.395    -0.291    -3.963 
 C                    -0.602    -1.067    -4.571 
 C                    -1.176    -0.675    -5.78 
 C                    -0.762     0.504    -6.404 
 C                     0.228     1.286    -5.808 
 C                     0.799     0.889    -4.598 
 N                     2.903    -0.983     1.58 
 C                     3.179    -1.378     2.971 
 C                     2.369     0.382     1.453 
 O                     5.188    -0.252     0.494 
 H                     3.982    -0.678    -1.584 
 H                     0.662    -2.848    -0.805 
 H                     1.993    -3.139     0.358 
 H                     3.947    -3.738    -2.916 
 H                     4.375    -3.774    -1.159 
 H                     1.595    -2.715    -3.349 
 H                     2.856    -1.506    -3.556 
 H                     1.527     0.128    -2.191 
 H                     0.267    -1.076    -1.968 
 H                    -0.932    -1.985    -4.092 
 H                    -1.948    -1.288    -6.233 
 H                    -1.21      0.811    -7.343 
 H                     0.554     2.206    -6.282 
 H                     1.565     1.504    -4.135 
 H                     3.562    -2.396     2.988 
 H                     2.234    -1.342     3.515 
 H                     3.894    -0.708     3.465 
 H                     2.173     0.59      0.401 
 H                     3.054     1.137     1.858 
 H                     1.427     0.419     2.003 
 
 NAtoms=     40 NQM=       40 NQMF=       0 NMMI=      0 NMMIF=      0
                NMic=       0 NMicF=      0.
                    Isotopes and Nuclear Properties:
 (Nuclear quadrupole moments (NQMom) in fm**2, nuclear magnetic moments (NMagM)
  in nuclear magnetons)

  Atom         1           2           3           4           5           6           7           8           9          10
 IAtWgt=          16          32          14          12          12          32          16          12          12          12
 AtmWgt=  15.9949146  31.9720718  14.0030740  12.0000000  12.0000000  31.9720718  15.9949146  12.0000000  12.0000000  12.0000000
 NucSpn=           0           0           2           0           0           0           0           0           0           0
 AtZEff=   0.0000000   0.0000000   0.0000000   0.0000000   0.0000000   0.0000000   0.0000000   0.0000000   0.0000000   0.0000000
 NQMom=    0.0000000   0.0000000   2.0440000   0.0000000   0.0000000   0.0000000   0.0000000   0.0000000   0.0000000   0.0000000
 NMagM=    0.0000000   0.0000000   0.4037610   0.0000000   0.0000000   0.0000000   0.0000000   0.0000000   0.0000000   0.0000000
 AtZNuc=   8.0000000  16.0000000   7.0000000   6.0000000   6.0000000  16.0000000   8.0000000   6.0000000   6.0000000   6.0000000

  Atom        11          12          13          14          15          16          17          18          19          20
 IAtWgt=          12          12          12          12          12          12          14          12          12          16
 AtmWgt=  12.0000000  12.0000000  12.0000000  12.0000000  12.0000000  12.0000000  14.0030740  12.0000000  12.0000000  15.9949146
 NucSpn=           0           0           0           0           0           0           2           0           0           0
 AtZEff=   0.0000000   0.0000000   0.0000000   0.0000000   0.0000000   0.0000000   0.0000000   0.0000000   0.0000000   0.0000000
 NQMom=    0.0000000   0.0000000   0.0000000   0.0000000   0.0000000   0.0000000   2.0440000   0.0000000   0.0000000   0.0000000
 NMagM=    0.0000000   0.0000000   0.0000000   0.0000000   0.0000000   0.0000000   0.4037610   0.0000000   0.0000000   0.0000000
 AtZNuc=   6.0000000   6.0000000   6.0000000   6.0000000   6.0000000   6.0000000   7.0000000   6.0000000   6.0000000   8.0000000

  Atom        21          22          23          24          25          26          27          28          29          30
 IAtWgt=           1           1           1           1           1           1           1           1           1           1
 AtmWgt=   1.0078250   1.0078250   1.0078250   1.0078250   1.0078250   1.0078250   1.0078250   1.0078250   1.0078250   1.0078250
 NucSpn=           1           1           1           1           1           1           1           1           1           1
 AtZEff=   0.0000000   0.0000000   0.0000000   0.0000000   0.0000000   0.0000000   0.0000000   0.0000000   0.0000000   0.0000000
 NQMom=    0.0000000   0.0000000   0.0000000   0.0000000   0.0000000   0.0000000   0.0000000   0.0000000   0.0000000   0.0000000
 NMagM=    2.7928460   2.7928460   2.7928460   2.7928460   2.7928460   2.7928460   2.7928460   2.7928460   2.7928460   2.7928460
 AtZNuc=   1.0000000   1.0000000   1.0000000   1.0000000   1.0000000   1.0000000   1.0000000   1.0000000   1.0000000   1.0000000

  Atom        31          32          33          34          35          36          37          38          39          40
 IAtWgt=           1           1           1           1           1           1           1           1           1           1
 AtmWgt=   1.0078250   1.0078250   1.0078250   1.0078250   1.0078250   1.0078250   1.0078250   1.0078250   1.0078250   1.0078250
 NucSpn=           1           1           1           1           1           1           1           1           1           1
 AtZEff=   0.0000000   0.0000000   0.0000000   0.0000000   0.0000000   0.0000000   0.0000000   0.0000000   0.0000000   0.0000000
 NQMom=    0.0000000   0.0000000   0.0000000   0.0000000   0.0000000   0.0000000   0.0000000   0.0000000   0.0000000   0.0000000
 NMagM=    2.7928460   2.7928460   2.7928460   2.7928460   2.7928460   2.7928460   2.7928460   2.7928460   2.7928460   2.7928460
 AtZNuc=   1.0000000   1.0000000   1.0000000   1.0000000   1.0000000   1.0000000   1.0000000   1.0000000   1.0000000   1.0000000
 Leave Link  101 at Sat Aug  8 07:12:04 2020, MaxMem=    33554432 cpu:         0.1
 (Enter /prod/apps/gaussian/g09d1/l202.exe)
                          Input orientation:                          
 ---------------------------------------------------------------------
 Center     Atomic      Atomic             Coordinates (Angstroms)
 Number     Number       Type             X           Y           Z
 ---------------------------------------------------------------------
      1          8           0        4.594000   -2.692000    0.843000
      2         16           0        4.179000   -1.320000    0.527000
      3          7           0        3.395000   -1.216000   -0.947000
      4          6           0        2.726000   -2.361000   -1.585000
      5          6           0        1.715000   -3.108000   -0.694000
      6         16           0        2.158000   -4.754000   -1.469000
      7          8           0        1.300000   -4.980000   -2.703000
      8          6           0        3.587000   -3.613000   -1.894000
      9          6           0        2.067000   -1.849000   -2.875000
     10          6           0        1.038000   -0.727000   -2.666000
     11          6           0        0.395000   -0.291000   -3.963000
     12          6           0       -0.602000   -1.067000   -4.571000
     13          6           0       -1.176000   -0.675000   -5.780000
     14          6           0       -0.762000    0.504000   -6.404000
     15          6           0        0.228000    1.286000   -5.808000
     16          6           0        0.799000    0.889000   -4.598000
     17          7           0        2.903000   -0.983000    1.580000
     18          6           0        3.179000   -1.378000    2.971000
     19          6           0        2.369000    0.382000    1.453000
     20          8           0        5.188000   -0.252000    0.494000
     21          1           0        3.982000   -0.678000   -1.584000
     22          1           0        0.662000   -2.848000   -0.805000
     23          1           0        1.993000   -3.139000    0.358000
     24          1           0        3.947000   -3.738000   -2.916000
     25          1           0        4.375000   -3.774000   -1.159000
     26          1           0        1.595000   -2.715000   -3.349000
     27          1           0        2.856000   -1.506000   -3.556000
     28          1           0        1.527000    0.128000   -2.191000
     29          1           0        0.267000   -1.076000   -1.968000
     30          1           0       -0.932000   -1.985000   -4.092000
     31          1           0       -1.948000   -1.288000   -6.233000
     32          1           0       -1.210000    0.811000   -7.343000
     33          1           0        0.554000    2.206000   -6.282000
     34          1           0        1.565000    1.504000   -4.135000
     35          1           0        3.562000   -2.396000    2.988000
     36          1           0        2.234000   -1.342000    3.515000
     37          1           0        3.894000   -0.708000    3.465000
     38          1           0        2.173000    0.590000    0.401000
     39          1           0        3.054000    1.137000    1.858000
     40          1           0        1.427000    0.419000    2.003000
 ---------------------------------------------------------------------
                    Distance matrix (angstroms):
                    1          2          3          4          5
     1  O    0.000000
     2  S    1.467810   0.000000
     3  N    2.611566   1.672767   0.000000
     4  C    3.081261   2.766845   1.471608   0.000000
     5  C    3.289995   3.280104   2.542847   1.540783   0.000000
     6  S    3.940975   4.456547   3.784190   2.462220   1.872482
     7  O    5.353456   5.667199   4.651909   3.184739   2.777173
     8  C    3.058343   3.386673   2.584431   1.550582   2.280221
     9  C    4.573828   4.039058   2.425172   1.536400   2.542783
    10  C    5.368374   4.518050   2.957961   2.586090   3.164850
    11  C    6.818654   5.961342   4.353376   3.920886   4.512677
    12  C    7.677919   6.993681   5.397368   4.654698   4.956339
    13  C    9.012509   8.298813   6.674175   5.972121   6.335990
    14  C    9.561389   8.705126   7.072333   6.602812   7.196261
    15  C    8.895068   7.907835   6.318165   6.113456   6.904448
    16  C    7.538572   6.524546   4.949752   4.832597   5.661827
    17  N    2.514623   1.688358   2.584972   3.456507   3.331373
    18  C    2.873535   2.641306   3.927292   4.682802   4.309109
    19  C    3.843462   2.651486   3.060438   4.108642   4.149389
    20  O    2.535397   1.469624   2.494118   3.851177   4.650786
    21  H    3.212642   2.215241   1.019697   2.100006   3.440391
    22  H    4.266247   4.059347   3.186358   2.259572   1.090289
    23  H    2.683325   2.848845   2.714140   2.217616   1.088554
    24  H    3.955099   4.213644   3.246868   2.271240   3.211854
    25  H    2.286195   2.983811   2.747491   2.212972   2.781255
    26  H    5.154357   4.862762   3.355086   2.125129   2.686610
    27  H    4.876314   4.296023   2.679832   2.152386   3.472654
    28  H    5.154032   4.064152   2.615969   2.828420   3.570441
    29  H    5.407042   4.646322   3.293391   2.800820   2.801572
    30  H    7.442496   6.920961   5.404194   4.450549   4.451308
    31  H    9.738519   9.123527   7.516291   6.678436   6.885528
    32  H   10.628642   9.773402   8.137787   7.662131   8.253689
    33  H    9.543460   8.481496   6.945761   6.901948   7.798222
    34  H    7.180650   6.045016   4.572816   4.773745   5.756173
    35  H    2.398680   2.755900   4.111510   4.648919   4.180368
    36  H    3.812045   3.565341   4.612292   5.224024   4.593887
    37  H    3.361717   3.014567   4.469095   5.440509   5.273075
    38  H    4.102210   2.772726   2.563596   3.599779   3.883812
    39  H    4.250067   3.012314   3.677080   4.919130   5.130853
    40  H    4.588443   3.574381   3.904965   4.721180   4.449324
                    6          7          8          9         10
     6  S    0.000000
     7  O    1.519867   0.000000
     8  C    1.877378   2.784518   0.000000
     9  C    3.228644   3.228163   2.526748   0.000000
    10  C    4.347866   4.261223   3.927134   1.536687   0.000000
    11  C    5.408010   4.938962   5.050278   2.531144   1.511871
    12  C    5.552835   4.734828   5.585353   3.257530   2.536577
    13  C    6.807240   5.842220   6.813150   4.509362   3.821190
    14  C    7.779922   6.929899   7.496905   5.098401   4.327587
    15  C    7.683321   7.074812   7.113542   4.670400   3.818433
    16  C    6.594010   6.187664   5.945802   3.474651   2.530059
    17  N    4.906309   6.073690   4.410604   4.614746   4.644597
    18  C    5.670398   6.978490   5.369349   5.969431   6.064936
    19  C    5.912791   6.867761   5.352192   4.878540   4.468512
    20  O    5.770812   6.905891   4.422902   4.862223   5.237721
    21  H    4.466987   5.191579   2.977642   2.589430   3.136919
    22  H    2.512319   2.924871   3.213529   2.693868   2.846636
    23  H    2.444050   3.638578   2.799467   3.481647   3.984262
    24  H    2.515271   2.931645   1.090738   2.665408   4.194151
    25  H    2.443683   3.646093   1.089537   3.460801   4.763489
    26  H    2.829998   2.373724   2.625165   1.094265   2.174599
    27  H    3.923299   3.900951   2.781376   1.097238   2.168886
    28  H    4.975276   5.138612   4.280992   2.160552   1.093513
    29  H    4.165641   4.104696   4.179024   2.158745   1.097017
    30  H    4.908726   3.985119   5.282324   3.239380   2.738054
    31  H    7.181092   6.053203   7.407346   5.264134   4.685553
    32  H    8.764504   7.833606   8.501446   6.146328   5.412326
    33  H    8.612745   8.062528   7.893947   5.508161   4.681047
    34  H    6.828014   6.645533   5.940897   3.616934   2.722692
    35  H    5.234141   6.646893   5.031465   6.075278   6.412788
    36  H    6.040511   7.264360   6.020410   6.412257   6.325615
    37  H    6.612728   7.938705   6.103454   6.695925   6.763598
    38  H    5.661754   6.435981   4.993158   4.085601   3.525507
    39  H    6.824634   7.829235   6.076520   5.682575   5.292006
    40  H    6.272884   7.163223   6.009096   5.417408   4.823297
                   11         12         13         14         15
    11  C    0.000000
    12  C    1.402087   0.000000
    13  C    2.432486   1.394568   0.000000
    14  C    2.815876   2.419407   1.396715   0.000000
    15  C    2.432867   2.784902   2.411954   1.395292   0.000000
    16  C    1.399586   2.406131   2.782776   2.417971   1.395618
    17  N    6.123216   7.080034   8.420374   8.909975   8.178419
    18  C    7.550668   8.442419   9.800012  10.342342   9.637227
    19  C    5.803677   6.871319   8.124073   8.458753   7.623858
    20  O    6.545168   7.735797   8.946647   9.140921   8.165920
    21  H    4.321571   5.485120   6.649165   6.865498   5.982641
    22  H    4.072162   4.353437   5.731562   6.679258   6.504485
    23  H    5.416249   5.943252   7.334092   8.160032   7.792009
    24  H    5.059123   5.528713   6.620392   7.234320   6.887322
    25  H    5.986159   6.613632   7.859456   8.497063   8.025859
    26  H    2.773585   3.005994   4.213051   5.024981   4.891152
    27  H    2.774598   3.630525   4.679077   5.024055   4.446701
    28  H    2.144054   3.409555   4.564202   4.809394   4.013858
    29  H    2.147704   2.744240   4.095656   4.820097   4.508455
    30  H    2.155738   1.086768   2.150577   3.401377   3.871653
    31  H    3.411240   2.150070   1.084879   2.155714   3.397216
    32  H    3.900619   3.403018   2.156924   1.084746   2.156315
    33  H    3.411459   3.869934   3.397803   2.154888   1.085059
    34  H    2.149537   3.390579   3.868740   3.400484   2.152678
    35  H    7.923214   8.731759  10.113768  10.738559  10.101599
    36  H    7.772194   8.573326   9.923206  10.524747   9.891853
    37  H    8.221440   9.215215  10.544004  10.979273  10.168782
    38  H    4.793948   5.930182   7.142884   7.411454   6.543632
    39  H    6.556943   7.717253   8.917135   9.122674   8.171660
    40  H    6.096087   7.038644   8.279344   8.687727   7.949906
                   16         17         18         19         20
    16  C    0.000000
    17  N    6.789616   0.000000
    18  C    8.251876   1.472101   0.000000
    19  C    6.271886   1.471227   2.461305   0.000000
    20  O    6.818626   2.633435   3.382231   3.044404   0.000000
    21  H    4.655231   3.356808   4.677909   3.598435   2.440081
    22  H    5.326423   3.766767   4.770154   4.294801   5.376922
    23  H    6.497104   2.640023   3.366821   3.706459   4.308282
    24  H    5.843642   5.375312   6.388755   6.209078   5.031936
    25  H    6.808676   4.178347   4.922208   5.302727   3.974652
    26  H    3.896464   5.385697   6.651242   5.766254   5.809016
    27  H    3.324611   5.162774   6.536241   5.375109   4.838723
    28  H    2.627309   4.165110   5.625245   3.748629   4.555935
    29  H    3.325831   4.421024   5.741487   4.271699   5.563871
    30  H    3.392974   6.919741   8.194800   6.873595   7.841498
    31  H    3.867630   9.201532  10.536026   8.972178   9.861456
    32  H    3.402527   9.987749  11.420755   9.505940  10.172657
    33  H    2.151829   8.803327  10.264195   8.151774   8.569125
    34  H    1.085979   6.374687   7.836208   5.755957   6.134925
    35  H    8.716237   2.100789   1.087797   3.390687   3.668876
    36  H    8.535652   2.078621   1.090989   2.691142   4.363560
    37  H    8.783018   2.147308   1.097343   2.749885   3.272493
    38  H    5.193003   2.096967   3.389684   1.090130   3.131747
    39  H    6.842987   2.143475   2.753111   1.096939   2.888559
    40  H    6.647442   2.079209   2.689933   1.091436   4.107608
                   21         22         23         24         25
    21  H    0.000000
    22  H    4.042047   0.000000
    23  H    3.712682   1.791315   0.000000
    24  H    3.337521   4.004953   3.859533   0.000000
    25  H    3.149649   3.843067   2.894553   1.808737   0.000000
    26  H    3.600328   2.712953   3.752336   2.601139   3.694047
    27  H    2.417073   3.765979   4.327916   2.565483   3.632739
    28  H    2.654263   3.394966   4.169874   4.618223   4.939811
    29  H    3.755940   2.156056   3.556026   4.639757   4.980898
    30  H    5.669719   3.753661   5.448839   5.316072   6.321966
    31  H    7.559775   6.221646   7.899301   7.194165   8.479741
    32  H    7.895573   7.722571   9.228603   8.178409   9.510852
    33  H    6.491521   7.453329   8.644614   7.627158   8.752461
    34  H    4.136498   5.553757   6.475159   5.885444   6.679069
    35  H    4.902153   4.795952   3.151303   6.066828   4.444937
    36  H    5.431041   4.837522   3.640596   7.073397   5.687247
    37  H    5.049856   5.767003   4.379156   7.064055   5.568940
    38  H    2.969938   3.944287   3.733589   5.734209   5.130975
    39  H    4.000347   5.356627   4.654019   6.881435   5.913142
    40  H    4.538502   4.375315   3.960523   6.915751   6.022474
                   26         27         28         29         30
    26  H    0.000000
    27  H    1.759162   0.000000
    28  H    3.070543   2.509865   0.000000
    29  H    2.521322   3.067501   1.756970   0.000000
    30  H    2.733254   3.855604   3.758357   2.602933   0.000000
    31  H    4.786088   5.503841   5.515292   4.810550   2.470212
    32  H    6.021025   6.020151   5.873735   5.884974   4.296964
    33  H    5.822578   5.148711   4.690532   5.428120   4.956690
    34  H    4.291696   3.325962   2.382007   3.610691   4.290685
    35  H    6.642922   6.641873   6.110143   6.096012   8.395913
    36  H    7.029079   7.100199   5.934575   5.831221   8.264590
    37  H    7.466194   7.142037   6.188047   6.542785   9.057000
    38  H    5.031859   4.529631   2.710945   3.467067   6.038104
    39  H    6.639234   6.027939   4.443446   5.225229   7.812655
    40  H    6.204360   6.053936   4.205273   4.398803   6.963700
                   31         32         33         34         35
    31  H    0.000000
    32  H    2.486472   0.000000
    33  H    4.297725   2.486653   0.000000
    34  H    4.953588   4.297923   2.474780   0.000000
    35  H   10.798824  11.823130  10.777726   8.362723   0.000000
    36  H   10.607334  11.592787  10.554237   8.189614   1.775452
    37  H   11.336515  12.048695  10.707521   8.250890   1.785244
    38  H    8.032402   8.453583   7.063647   4.666943   4.187850
    39  H    9.816563  10.146249   8.582095   6.186102   3.743935
    40  H    9.062901   9.718804   8.520371   6.234686   3.667789
                   36         37         38         39         40
    36  H    0.000000
    37  H    1.777655   0.000000
    38  H    3.665152   3.746297   0.000000
    39  H    3.092489   2.586904   1.788357   0.000000
    40  H    2.457339   3.081179   1.775433   1.784286   0.000000
 Stoichiometry    C13H20N2O3S2
 Framework group  C1[X(C13H20N2O3S2)]
 Deg. of freedom   114
 Full point group                 C1      NOp   1
 Largest Abelian subgroup         C1      NOp   1
 Largest concise Abelian subgroup C1      NOp   1
                         Standard orientation:                         
 ---------------------------------------------------------------------
 Center     Atomic      Atomic             Coordinates (Angstroms)
 Number     Number       Type             X           Y           Z
 ---------------------------------------------------------------------
      1          8           0       -3.519116    0.441748   -0.755737
      2         16           0       -2.771102   -0.814200   -0.623319
      3          7           0       -1.117368   -0.583355   -0.723424
      4          6           0       -0.465848    0.704293   -0.435128
      5          6           0       -0.833523    1.334533    0.921936
      6         16           0       -0.740779    3.064285    0.210919
      7          8           0        0.686128    3.577724    0.312472
      8          6           0       -0.899664    1.931522   -1.277755
      9          6           0        1.050399    0.492154   -0.563656
     10          6           0        1.628687   -0.577462    0.375976
     11          6           0        3.127528   -0.714904    0.233360
     12          6           0        3.996137    0.227633    0.801684
     13          6           0        5.377340    0.111935    0.647692
     14          6           0        5.915916   -0.952099   -0.079343
     15          6           0        5.062105   -1.897763   -0.648172
     16          6           0        3.680633   -1.777156   -0.490889
     17          7           0       -2.923327   -1.258713    0.998343
     18          6           0       -4.302913   -1.154654    1.501333
     19          6           0       -2.272751   -2.535728    1.330744
     20          8           0       -3.054173   -1.921752   -1.546895
     21          1           0       -0.783608   -1.028684   -1.577865
     22          1           0       -0.146028    1.171647    1.752327
     23          1           0       -1.859897    1.146340    1.231918
     24          1           0       -0.258487    2.223985   -2.110261
     25          1           0       -1.950833    1.896660   -1.562216
     26          1           0        1.518497    1.462139   -0.370191
     27          1           0        1.278090    0.232625   -1.605161
     28          1           0        1.148808   -1.538004    0.168980
     29          1           0        1.376351   -0.316495    1.411190
     30          1           0        3.586456    1.057935    1.370741
     31          1           0        6.032710    0.850259    1.097502
     32          1           0        6.990293   -1.044303   -0.197184
     33          1           0        5.470079   -2.730705   -1.211303
     34          1           0        3.020421   -2.518937   -0.930471
     35          1           0       -4.715464   -0.186481    1.226117
     36          1           0       -4.261189   -1.229845    2.588928
     37          1           0       -4.951785   -1.952773    1.119061
     38          1           0       -1.253841   -2.526409    0.943292
     39          1           0       -2.815211   -3.398178    0.924306
     40          1           0       -2.237380   -2.613241    2.418850
 ---------------------------------------------------------------------
 Rotational constants (GHZ):      0.4273049      0.1621395      0.1317730
 Leave Link  202 at Sat Aug  8 07:12:04 2020, MaxMem=    33554432 cpu:         0.0
 (Enter /prod/apps/gaussian/g09d1/l301.exe)
 Standard basis: 6-31G(d) (6D, 7F)
 Ernie: Thresh=  0.10000D-02 Tol=  0.10000D-05 Strict=F.
 There are   348 symmetry adapted cartesian basis functions of A   symmetry.
 There are   348 symmetry adapted basis functions of A   symmetry.
   348 basis functions,   688 primitive gaussians,   348 cartesian basis functions
    84 alpha electrons       84 beta electrons
       nuclear repulsion energy      1973.7545913933 Hartrees.
 IExCor=  402 DFT=T Ex+Corr=B3LYP ExCW=0 ScaHFX=  0.200000
 ScaDFX=  0.800000  0.720000  1.000000  0.810000 ScalE2=  1.000000  1.000000
 IRadAn=      0 IRanWt=     -1 IRanGd=            0 ICorTp=0 IEmpDi=  4
 NAtoms=   40 NActive=   40 NUniq=   40 SFac= 1.00D+00 NAtFMM=   60 NAOKFM=F Big=F
 Integral buffers will be    131072 words long.
 Raffenetti 2 integral format.
 Two-electron integral symmetry is turned on.
 Leave Link  301 at Sat Aug  8 07:12:04 2020, MaxMem=    33554432 cpu:         0.0
 (Enter /prod/apps/gaussian/g09d1/l302.exe)
 NPDir=0 NMtPBC=     1 NCelOv=     1 NCel=       1 NClECP=     1 NCelD=      1
         NCelK=      1 NCelE2=     1 NClLst=     1 CellRange=     0.0.
 One-electron integrals computed using PRISM.
 NBasis=   348 RedAO= T EigKep=  4.65D-04  NBF=   348
 NBsUse=   348 1.00D-06 EigRej= -1.00D+00 NBFU=   348
 Precomputing XC quadrature grid using
 IXCGrd= 4 IRadAn=           0 IRanWt=          -1 IRanGd=           0 AccXCQ= 0.00D+00.
 Generated NRdTot=       0 NPtTot=           0 NUsed=           0 NTot=          32
 NSgBfM=   343   343   343   343   344 MxSgAt=    40 MxSgA2=    40.
 Leave Link  302 at Sat Aug  8 07:12:05 2020, MaxMem=    33554432 cpu:         1.2
 (Enter /prod/apps/gaussian/g09d1/l303.exe)
 DipDrv:  MaxL=1.
 Leave Link  303 at Sat Aug  8 07:12:06 2020, MaxMem=    33554432 cpu:         0.0
 (Enter /prod/apps/gaussian/g09d1/l401.exe)
 ExpMin= 1.17D-01 ExpMax= 2.19D+04 ExpMxC= 3.30D+03 IAcc=1 IRadAn=         1 AccDes= 0.00D+00
 Harris functional with IExCor=  402 and IRadAn=       1 diagonalized for initial guess.
 HarFok:  IExCor=  402 AccDes= 0.00D+00 IRadAn=         1 IDoV= 1 UseB2=F ITyADJ=14
 ICtDFT=  3500011 ScaDFX=  1.000000  1.000000  1.000000  1.000000
 FoFCou: FMM=F IPFlag=           0 FMFlag=      100000 FMFlg1=           0
         NFxFlg=           0 DoJE=T BraDBF=F KetDBF=T FulRan=T
         wScrn=  0.000000 ICntrl=     500 IOpCl=  0 I1Cent=   200000004 NGrid=           0
         NMat0=    1 NMatS0=      1 NMatT0=    0 NMatD0=    1 NMtDS0=    0 NMtDT0=    0
 Petite list used in FoFCou.
 Harris En= -1638.91815335748    
 JPrj=0 DoOrth=F DoCkMO=F.
 Leave Link  401 at Sat Aug  8 07:12:10 2020, MaxMem=    33554432 cpu:         4.6
 (Enter /prod/apps/gaussian/g09d1/l502.exe)
 Closed shell SCF:
 Using DIIS extrapolation, IDIIS=  1040.
 Integral symmetry usage will be decided dynamically.
 IVT=      386588 IEndB=      386588 NGot=    33554432 MDV=    33305937
 LenX=    33305937 LenY=    33184392
 Requested convergence on RMS density matrix=1.00D-08 within 128 cycles.
 Requested convergence on MAX density matrix=1.00D-06.
 Requested convergence on             energy=1.00D-06.
 No special actions if energy rises.
 Fock matrices will be formed incrementally for  20 cycles.
 Integral accuracy reduced to 1.0D-05 until final iterations.

 Cycle   1  Pass 0  IDiag  1:
 FoFJK:  IHMeth= 1 ICntrl=       0 DoSepK=F KAlg= 0 I1Cent=   0 FoldK=F
 IRaf= 750000000 NMat=   1 IRICut=       1 DoRegI=T DoRafI=F ISym2E= 0.
 FoFCou: FMM=F IPFlag=           0 FMFlag=      100000 FMFlg1=           0
         NFxFlg=           0 DoJE=F BraDBF=F KetDBF=F FulRan=T
         wScrn=  0.000000 ICntrl=       0 IOpCl=  0 I1Cent=           0 NGrid=           0
         NMat0=    1 NMatS0=      1 NMatT0=    0 NMatD0=    1 NMtDS0=    0 NMtDT0=    0
 Symmetry not used in FoFCou.
 E= -1638.05060749027    
 DIIS: error= 3.85D-02 at cycle   1 NSaved=   1.
 NSaved= 1 IEnMin= 1 EnMin= -1638.05060749027     IErMin= 1 ErrMin= 3.85D-02
 ErrMax= 3.85D-02  0.00D+00 EMaxC= 1.00D-01 BMatC= 8.90D-01 BMatP= 8.90D-01
 IDIUse=3 WtCom= 6.15D-01 WtEn= 3.85D-01
 Coeff-Com:  0.100D+01
 Coeff-En:   0.100D+01
 Coeff:      0.100D+01
 Gap=     0.343 Goal=   None    Shift=    0.000
 GapD=    0.343 DampG=1.000 DampE=0.500 DampFc=0.5000 IDamp=-1.
 Damping current iteration by 5.00D-01
 RMSDP=7.61D-03 MaxDP=5.96D-01              OVMax= 3.40D-01

 Cycle   2  Pass 0  IDiag  1:
 RMSU=  3.81D-03    CP:  9.99D-01
 E= -1638.18946768238     Delta-E=       -0.138860192106 Rises=F Damp=T
 DIIS: error= 1.72D-02 at cycle   2 NSaved=   2.
 NSaved= 2 IEnMin= 2 EnMin= -1638.18946768238     IErMin= 2 ErrMin= 1.72D-02
 ErrMax= 1.72D-02  0.00D+00 EMaxC= 1.00D-01 BMatC= 1.76D-01 BMatP= 8.90D-01
 IDIUse=3 WtCom= 8.28D-01 WtEn= 1.72D-01
 Coeff-Com:  0.261D+00 0.739D+00
 Coeff-En:   0.414D+00 0.586D+00
 Coeff:      0.288D+00 0.712D+00
 Gap=     0.335 Goal=   None    Shift=    0.000
 RMSDP=2.78D-03 MaxDP=1.36D-01 DE=-1.39D-01 OVMax= 2.38D-01

 Cycle   3  Pass 0  IDiag  1:
 RMSU=  2.10D-03    CP:  9.86D-01  5.26D-01
 E= -1638.69393624334     Delta-E=       -0.504468560961 Rises=F Damp=F
 DIIS: error= 1.92D-02 at cycle   3 NSaved=   3.
 NSaved= 3 IEnMin= 3 EnMin= -1638.69393624334     IErMin= 2 ErrMin= 1.72D-02
 ErrMax= 1.92D-02  0.00D+00 EMaxC= 1.00D-01 BMatC= 1.53D-01 BMatP= 1.76D-01
 IDIUse=3 WtCom= 8.08D-01 WtEn= 1.92D-01
 Coeff-Com:  0.120D+00 0.474D+00 0.405D+00
 Coeff-En:   0.000D+00 0.000D+00 0.100D+01
 Coeff:      0.972D-01 0.383D+00 0.520D+00
 Gap=     0.249 Goal=   None    Shift=    0.000
 RMSDP=2.06D-03 MaxDP=9.51D-02 DE=-5.04D-01 OVMax= 1.90D-01

 Cycle   4  Pass 0  IDiag  1:
 RMSU=  1.03D-03    CP:  9.95D-01  7.13D-01  2.21D-01
 E= -1638.79037729427     Delta-E=       -0.096441050937 Rises=F Damp=F
 DIIS: error= 1.17D-02 at cycle   4 NSaved=   4.
 NSaved= 4 IEnMin= 4 EnMin= -1638.79037729427     IErMin= 4 ErrMin= 1.17D-02
 ErrMax= 1.17D-02  0.00D+00 EMaxC= 1.00D-01 BMatC= 5.21D-02 BMatP= 1.53D-01
 IDIUse=3 WtCom= 8.83D-01 WtEn= 1.17D-01
 Coeff-Com:  0.274D-01 0.992D-01 0.358D+00 0.516D+00
 Coeff-En:   0.000D+00 0.000D+00 0.292D+00 0.708D+00
 Coeff:      0.242D-01 0.876D-01 0.350D+00 0.538D+00
 Gap=     0.231 Goal=   None    Shift=    0.000
 RMSDP=9.31D-04 MaxDP=4.71D-02 DE=-9.64D-02 OVMax= 8.51D-02

 Cycle   5  Pass 0  IDiag  1:
 RMSU=  3.34D-04    CP:  9.93D-01  6.28D-01  5.30D-01  5.35D-01
 E= -1638.83348395778     Delta-E=       -0.043106663511 Rises=F Damp=F
 DIIS: error= 2.79D-03 at cycle   5 NSaved=   5.
 NSaved= 5 IEnMin= 5 EnMin= -1638.83348395778     IErMin= 5 ErrMin= 2.79D-03
 ErrMax= 2.79D-03  0.00D+00 EMaxC= 1.00D-01 BMatC= 3.51D-03 BMatP= 5.21D-02
 IDIUse=3 WtCom= 9.72D-01 WtEn= 2.79D-02
 Coeff-Com:  0.268D-02 0.801D-02 0.160D+00 0.331D+00 0.498D+00
 Coeff-En:   0.000D+00 0.000D+00 0.000D+00 0.160D-01 0.984D+00
 Coeff:      0.260D-02 0.779D-02 0.155D+00 0.323D+00 0.512D+00
 Gap=     0.226 Goal=   None    Shift=    0.000
 RMSDP=2.37D-04 MaxDP=1.10D-02 DE=-4.31D-02 OVMax= 1.82D-02

 Cycle   6  Pass 0  IDiag  1:
 RMSU=  1.23D-04    CP:  9.92D-01  6.43D-01  4.96D-01  6.14D-01  5.21D-01
 E= -1638.83610546256     Delta-E=       -0.002621504778 Rises=F Damp=F
 DIIS: error= 7.54D-04 at cycle   6 NSaved=   6.
 NSaved= 6 IEnMin= 6 EnMin= -1638.83610546256     IErMin= 6 ErrMin= 7.54D-04
 ErrMax= 7.54D-04  0.00D+00 EMaxC= 1.00D-01 BMatC= 4.78D-04 BMatP= 3.51D-03
 IDIUse=3 WtCom= 9.92D-01 WtEn= 7.54D-03
 Coeff-Com: -0.963D-03-0.460D-02 0.457D-01 0.118D+00 0.319D+00 0.523D+00
 Coeff-En:   0.000D+00 0.000D+00 0.000D+00 0.000D+00 0.104D+00 0.896D+00
 Coeff:     -0.955D-03-0.457D-02 0.454D-01 0.117D+00 0.317D+00 0.526D+00
 Gap=     0.226 Goal=   None    Shift=    0.000
 RMSDP=7.82D-05 MaxDP=3.60D-03 DE=-2.62D-03 OVMax= 4.30D-03

 Cycle   7  Pass 0  IDiag  1:
 RMSU=  4.21D-05    CP:  9.92D-01  6.41D-01  5.01D-01  6.20D-01  6.03D-01
                    CP:  5.34D-01
 E= -1638.83645570731     Delta-E=       -0.000350244742 Rises=F Damp=F
 DIIS: error= 2.32D-04 at cycle   7 NSaved=   7.
 NSaved= 7 IEnMin= 7 EnMin= -1638.83645570731     IErMin= 7 ErrMin= 2.32D-04
 ErrMax= 2.32D-04  0.00D+00 EMaxC= 1.00D-01 BMatC= 4.27D-05 BMatP= 4.78D-04
 IDIUse=3 WtCom= 9.98D-01 WtEn= 2.32D-03
 Coeff-Com: -0.574D-03-0.310D-02 0.546D-02 0.215D-01 0.116D+00 0.300D+00
 Coeff-Com:  0.560D+00
 Coeff-En:   0.000D+00 0.000D+00 0.000D+00 0.000D+00 0.000D+00 0.350D-01
 Coeff-En:   0.965D+00
 Coeff:     -0.573D-03-0.309D-02 0.545D-02 0.215D-01 0.116D+00 0.300D+00
 Coeff:      0.561D+00
 Gap=     0.225 Goal=   None    Shift=    0.000
 RMSDP=2.26D-05 MaxDP=9.00D-04 DE=-3.50D-04 OVMax= 1.00D-03

 Cycle   8  Pass 0  IDiag  1:
 RMSU=  1.03D-05    CP:  9.92D-01  6.40D-01  5.01D-01  6.16D-01  6.11D-01
                    CP:  6.13D-01  6.01D-01
 E= -1638.83649364772     Delta-E=       -0.000037940413 Rises=F Damp=F
 DIIS: error= 2.95D-05 at cycle   8 NSaved=   8.
 NSaved= 8 IEnMin= 8 EnMin= -1638.83649364772     IErMin= 8 ErrMin= 2.95D-05
 ErrMax= 2.95D-05  0.00D+00 EMaxC= 1.00D-01 BMatC= 1.21D-06 BMatP= 4.27D-05
 IDIUse=1 WtCom= 1.00D+00 WtEn= 0.00D+00
 Coeff-Com: -0.804D-04-0.775D-03-0.707D-03 0.557D-03 0.264D-01 0.876D-01
 Coeff-Com:  0.227D+00 0.660D+00
 Coeff:     -0.804D-04-0.775D-03-0.707D-03 0.557D-03 0.264D-01 0.876D-01
 Coeff:      0.227D+00 0.660D+00
 Gap=     0.226 Goal=   None    Shift=    0.000
 RMSDP=4.91D-06 MaxDP=2.24D-04 DE=-3.79D-05 OVMax= 2.52D-04

 Initial convergence to 1.0D-05 achieved.  Increase integral accuracy.
 Cycle   9  Pass 1  IDiag  1:
 E= -1638.83646844510     Delta-E=        0.000025202619 Rises=F Damp=F
 DIIS: error= 5.76D-05 at cycle   1 NSaved=   1.
 NSaved= 1 IEnMin= 1 EnMin= -1638.83646844510     IErMin= 1 ErrMin= 5.76D-05
 ErrMax= 5.76D-05  0.00D+00 EMaxC= 1.00D-01 BMatC= 7.86D-07 BMatP= 7.86D-07
 IDIUse=1 WtCom= 1.00D+00 WtEn= 0.00D+00
 Coeff-Com:  0.100D+01
 Coeff:      0.100D+01
 Gap=     0.226 Goal=   None    Shift=    0.000
 RMSDP=4.91D-06 MaxDP=2.24D-04 DE= 2.52D-05 OVMax= 3.04D-04

 Cycle  10  Pass 1  IDiag  1:
 RMSU=  2.77D-05    CP:  1.00D+00
 E= -1638.83646887941     Delta-E=       -0.000000434312 Rises=F Damp=F
 DIIS: error= 3.30D-05 at cycle   2 NSaved=   2.
 NSaved= 2 IEnMin= 2 EnMin= -1638.83646887941     IErMin= 2 ErrMin= 3.30D-05
 ErrMax= 3.30D-05  0.00D+00 EMaxC= 1.00D-01 BMatC= 4.00D-07 BMatP= 7.86D-07
 IDIUse=1 WtCom= 1.00D+00 WtEn= 0.00D+00
 Coeff-Com:  0.383D+00 0.617D+00
 Coeff:      0.383D+00 0.617D+00
 Gap=     0.226 Goal=   None    Shift=    0.000
 RMSDP=3.55D-06 MaxDP=1.10D-04 DE=-4.34D-07 OVMax= 3.63D-04

 Cycle  11  Pass 1  IDiag  1:
 RMSU=  3.55D-06    CP:  1.00D+00  9.99D-01
 E= -1638.83646907117     Delta-E=       -0.000000191756 Rises=F Damp=F
 DIIS: error= 2.84D-05 at cycle   3 NSaved=   3.
 NSaved= 3 IEnMin= 3 EnMin= -1638.83646907117     IErMin= 3 ErrMin= 2.84D-05
 ErrMax= 2.84D-05  0.00D+00 EMaxC= 1.00D-01 BMatC= 2.11D-07 BMatP= 4.00D-07
 IDIUse=1 WtCom= 1.00D+00 WtEn= 0.00D+00
 Coeff-Com:  0.168D-01 0.418D+00 0.566D+00
 Coeff:      0.168D-01 0.418D+00 0.566D+00
 Gap=     0.226 Goal=   None    Shift=    0.000
 RMSDP=1.62D-06 MaxDP=6.01D-05 DE=-1.92D-07 OVMax= 1.93D-04

 Cycle  12  Pass 1  IDiag  1:
 RMSU=  7.25D-07    CP:  1.00D+00  1.01D+00  6.00D-01
 E= -1638.83646928350     Delta-E=       -0.000000212333 Rises=F Damp=F
 DIIS: error= 5.39D-06 at cycle   4 NSaved=   4.
 NSaved= 4 IEnMin= 4 EnMin= -1638.83646928350     IErMin= 4 ErrMin= 5.39D-06
 ErrMax= 5.39D-06  0.00D+00 EMaxC= 1.00D-01 BMatC= 1.23D-08 BMatP= 2.11D-07
 IDIUse=1 WtCom= 1.00D+00 WtEn= 0.00D+00
 Coeff-Com: -0.677D-02 0.224D+00 0.340D+00 0.443D+00
 Coeff:     -0.677D-02 0.224D+00 0.340D+00 0.443D+00
 Gap=     0.226 Goal=   None    Shift=    0.000
 RMSDP=4.06D-07 MaxDP=1.76D-05 DE=-2.12D-07 OVMax= 3.23D-05

 Cycle  13  Pass 1  IDiag  1:
 RMSU=  1.87D-07    CP:  1.00D+00  1.01D+00  6.11D-01  5.09D-01
 E= -1638.83646929542     Delta-E=       -0.000000011914 Rises=F Damp=F
 DIIS: error= 1.09D-06 at cycle   5 NSaved=   5.
 NSaved= 5 IEnMin= 5 EnMin= -1638.83646929542     IErMin= 5 ErrMin= 1.09D-06
 ErrMax= 1.09D-06  0.00D+00 EMaxC= 1.00D-01 BMatC= 5.59D-10 BMatP= 1.23D-08
 IDIUse=1 WtCom= 1.00D+00 WtEn= 0.00D+00
 Coeff-Com: -0.474D-02 0.118D+00 0.181D+00 0.265D+00 0.442D+00
 Coeff:     -0.474D-02 0.118D+00 0.181D+00 0.265D+00 0.442D+00
 Gap=     0.226 Goal=   None    Shift=    0.000
 RMSDP=9.28D-08 MaxDP=4.47D-06 DE=-1.19D-08 OVMax= 7.11D-06

 Cycle  14  Pass 1  IDiag  1:
 RMSU=  7.11D-08    CP:  1.00D+00  1.01D+00  6.11D-01  5.30D-01  6.93D-01
 E= -1638.83646929582     Delta-E=       -0.000000000403 Rises=F Damp=F
 DIIS: error= 3.79D-07 at cycle   6 NSaved=   6.
 NSaved= 6 IEnMin= 6 EnMin= -1638.83646929582     IErMin= 6 ErrMin= 3.79D-07
 ErrMax= 3.79D-07  0.00D+00 EMaxC= 1.00D-01 BMatC= 5.54D-11 BMatP= 5.59D-10
 IDIUse=1 WtCom= 1.00D+00 WtEn= 0.00D+00
 Coeff-Com: -0.162D-02 0.337D-01 0.526D-01 0.862D-01 0.258D+00 0.571D+00
 Coeff:     -0.162D-02 0.337D-01 0.526D-01 0.862D-01 0.258D+00 0.571D+00
 Gap=     0.226 Goal=   None    Shift=    0.000
 RMSDP=3.51D-08 MaxDP=1.78D-06 DE=-4.03D-10 OVMax= 3.34D-06

 Cycle  15  Pass 1  IDiag  1:
 RMSU=  2.57D-08    CP:  1.00D+00  1.01D+00  6.11D-01  5.30D-01  7.77D-01
                    CP:  7.49D-01
 E= -1638.83646929591     Delta-E=       -0.000000000089 Rises=F Damp=F
 DIIS: error= 1.78D-07 at cycle   7 NSaved=   7.
 NSaved= 7 IEnMin= 7 EnMin= -1638.83646929591     IErMin= 7 ErrMin= 1.78D-07
 ErrMax= 1.78D-07  0.00D+00 EMaxC= 1.00D-01 BMatC= 1.38D-11 BMatP= 5.54D-11
 IDIUse=1 WtCom= 1.00D+00 WtEn= 0.00D+00
 Coeff-Com: -0.374D-03 0.430D-02 0.700D-02 0.161D-01 0.973D-01 0.385D+00
 Coeff-Com:  0.490D+00
 Coeff:     -0.374D-03 0.430D-02 0.700D-02 0.161D-01 0.973D-01 0.385D+00
 Coeff:      0.490D+00
 Gap=     0.226 Goal=   None    Shift=    0.000
 RMSDP=1.41D-08 MaxDP=6.91D-07 DE=-8.91D-11 OVMax= 9.59D-07

 Cycle  16  Pass 1  IDiag  1:
 RMSU=  6.53D-09    CP:  1.00D+00  1.01D+00  6.11D-01  5.32D-01  7.75D-01
                    CP:  8.16D-01  5.65D-01
 E= -1638.83646929588     Delta-E=        0.000000000033 Rises=F Damp=F
 DIIS: error= 3.21D-08 at cycle   8 NSaved=   8.
 NSaved= 8 IEnMin= 7 EnMin= -1638.83646929591     IErMin= 8 ErrMin= 3.21D-08
 ErrMax= 3.21D-08  0.00D+00 EMaxC= 1.00D-01 BMatC= 1.05D-12 BMatP= 1.38D-11
 IDIUse=1 WtCom= 1.00D+00 WtEn= 0.00D+00
 Coeff-Com: -0.238D-05-0.208D-02-0.308D-02-0.203D-02 0.225D-01 0.158D+00
 Coeff-Com:  0.277D+00 0.550D+00
 Coeff:     -0.238D-05-0.208D-02-0.308D-02-0.203D-02 0.225D-01 0.158D+00
 Coeff:      0.277D+00 0.550D+00
 Gap=     0.226 Goal=   None    Shift=    0.000
 RMSDP=3.42D-09 MaxDP=1.39D-07 DE= 3.32D-11 OVMax= 1.91D-07

 SCF Done:  E(RB3LYP) =  -1638.83646930     A.U. after   16 cycles
            NFock= 16  Conv=0.34D-08     -V/T= 2.0066
 KE= 1.628146623831D+03 PE=-7.797629195834D+03 EE= 2.556891511313D+03
 Leave Link  502 at Sat Aug  8 07:18:06 2020, MaxMem=    33554432 cpu:       356.2
 (Enter /prod/apps/gaussian/g09d1/l601.exe)
 Copying SCF densities to generalized density rwf, IOpCl= 0 IROHF=0.

 **********************************************************************

            Population analysis using the SCF density.

 **********************************************************************

 Orbital symmetries:
       Occupied  (A) (A) (A) (A) (A) (A) (A) (A) (A) (A) (A) (A)
                 (A) (A) (A) (A) (A) (A) (A) (A) (A) (A) (A) (A)
                 (A) (A) (A) (A) (A) (A) (A) (A) (A) (A) (A) (A)
                 (A) (A) (A) (A) (A) (A) (A) (A) (A) (A) (A) (A)
                 (A) (A) (A) (A) (A) (A) (A) (A) (A) (A) (A) (A)
                 (A) (A) (A) (A) (A) (A) (A) (A) (A) (A) (A) (A)
                 (A) (A) (A) (A) (A) (A) (A) (A) (A) (A) (A) (A)
       Virtual   (A) (A) (A) (A) (A) (A) (A) (A) (A) (A) (A) (A)
                 (A) (A) (A) (A) (A) (A) (A) (A) (A) (A) (A) (A)
                 (A) (A) (A) (A) (A) (A) (A) (A) (A) (A) (A) (A)
                 (A) (A) (A) (A) (A) (A) (A) (A) (A) (A) (A) (A)
                 (A) (A) (A) (A) (A) (A) (A) (A) (A) (A) (A) (A)
                 (A) (A) (A) (A) (A) (A) (A) (A) (A) (A) (A) (A)
                 (A) (A) (A) (A) (A) (A) (A) (A) (A) (A) (A) (A)
                 (A) (A) (A) (A) (A) (A) (A) (A) (A) (A) (A) (A)
                 (A) (A) (A) (A) (A) (A) (A) (A) (A) (A) (A) (A)
                 (A) (A) (A) (A) (A) (A) (A) (A) (A) (A) (A) (A)
                 (A) (A) (A) (A) (A) (A) (A) (A) (A) (A) (A) (A)
                 (A) (A) (A) (A) (A) (A) (A) (A) (A) (A) (A) (A)
                 (A) (A) (A) (A) (A) (A) (A) (A) (A) (A) (A) (A)
                 (A) (A) (A) (A) (A) (A) (A) (A) (A) (A) (A) (A)
                 (A) (A) (A) (A) (A) (A) (A) (A) (A) (A) (A) (A)
                 (A) (A) (A) (A) (A) (A) (A) (A) (A) (A) (A) (A)
                 (A) (A) (A) (A) (A) (A) (A) (A) (A) (A) (A) (A)
                 (A) (A) (A) (A) (A) (A) (A) (A) (A) (A) (A) (A)
                 (A) (A) (A) (A) (A) (A) (A) (A) (A) (A) (A) (A)
                 (A) (A) (A) (A) (A) (A) (A) (A) (A) (A) (A) (A)
                 (A) (A) (A) (A) (A) (A) (A) (A) (A) (A) (A) (A)
                 (A) (A) (A) (A) (A) (A) (A) (A) (A) (A) (A) (A)
 The electronic state is 1-A.
 Alpha  occ. eigenvalues --  -89.13933 -88.98409 -19.15636 -19.15361 -19.11131
 Alpha  occ. eigenvalues --  -14.38527 -14.38359 -10.26681 -10.23256 -10.23161
 Alpha  occ. eigenvalues --  -10.21871 -10.21357 -10.19931 -10.19722 -10.19682
 Alpha  occ. eigenvalues --  -10.18991 -10.18915 -10.18873 -10.18812 -10.18710
 Alpha  occ. eigenvalues --   -8.16186  -8.03206  -6.12673  -6.12611  -6.12567
 Alpha  occ. eigenvalues --   -5.99608  -5.99439  -5.98988  -1.13151  -1.01275
 Alpha  occ. eigenvalues --   -1.00293  -0.95528  -0.94419  -0.85714  -0.84715
 Alpha  occ. eigenvalues --   -0.79368  -0.74427  -0.74280  -0.73643  -0.71759
 Alpha  occ. eigenvalues --   -0.70189  -0.67547  -0.62767  -0.61256  -0.60449
 Alpha  occ. eigenvalues --   -0.58067  -0.56925  -0.54636  -0.52743  -0.51474
 Alpha  occ. eigenvalues --   -0.51299  -0.48862  -0.48782  -0.47666  -0.46363
 Alpha  occ. eigenvalues --   -0.45891  -0.45099  -0.44340  -0.43718  -0.42762
 Alpha  occ. eigenvalues --   -0.42513  -0.42088  -0.41936  -0.41503  -0.40282
 Alpha  occ. eigenvalues --   -0.39881  -0.39293  -0.38593  -0.37380  -0.36103
 Alpha  occ. eigenvalues --   -0.35903  -0.35102  -0.34889  -0.34182  -0.33658
 Alpha  occ. eigenvalues --   -0.33036  -0.32821  -0.31298  -0.29126  -0.26569
 Alpha  occ. eigenvalues --   -0.25798  -0.24923  -0.24256  -0.22737
 Alpha virt. eigenvalues --   -0.00175   0.00047   0.00779   0.03299   0.04427
 Alpha virt. eigenvalues --    0.06115   0.06470   0.07040   0.07865   0.09103
 Alpha virt. eigenvalues --    0.09323   0.10161   0.10697   0.11020   0.12594
 Alpha virt. eigenvalues --    0.13372   0.13723   0.14001   0.14778   0.15063
 Alpha virt. eigenvalues --    0.15530   0.15758   0.16362   0.17029   0.17970
 Alpha virt. eigenvalues --    0.18109   0.18768   0.19145   0.20000   0.20423
 Alpha virt. eigenvalues --    0.20873   0.21040   0.22476   0.23983   0.25585
 Alpha virt. eigenvalues --    0.26429   0.26794   0.28551   0.30678   0.32380
 Alpha virt. eigenvalues --    0.32871   0.33288   0.34729   0.35467   0.36332
 Alpha virt. eigenvalues --    0.38557   0.42255   0.42532   0.43818   0.45278
 Alpha virt. eigenvalues --    0.46148   0.48268   0.49164   0.49324   0.50284
 Alpha virt. eigenvalues --    0.52437   0.52950   0.54096   0.55037   0.55132
 Alpha virt. eigenvalues --    0.55671   0.56698   0.57391   0.57701   0.59320
 Alpha virt. eigenvalues --    0.59658   0.60489   0.60757   0.61209   0.61727
 Alpha virt. eigenvalues --    0.61977   0.63023   0.63836   0.65305   0.66408
 Alpha virt. eigenvalues --    0.67309   0.67399   0.67877   0.69167   0.69471
 Alpha virt. eigenvalues --    0.71899   0.73420   0.74147   0.76414   0.76833
 Alpha virt. eigenvalues --    0.77423   0.79997   0.80329   0.80756   0.82481
 Alpha virt. eigenvalues --    0.82871   0.83326   0.83675   0.84175   0.84289
 Alpha virt. eigenvalues --    0.85190   0.85526   0.85959   0.86867   0.87510
 Alpha virt. eigenvalues --    0.88232   0.88951   0.89497   0.89817   0.90873
 Alpha virt. eigenvalues --    0.91318   0.92189   0.92793   0.93483   0.93629
 Alpha virt. eigenvalues --    0.94227   0.95611   0.96359   0.97465   0.97892
 Alpha virt. eigenvalues --    0.98976   1.00531   1.00551   1.02093   1.03431
 Alpha virt. eigenvalues --    1.05063   1.06089   1.07019   1.07265   1.08546
 Alpha virt. eigenvalues --    1.09736   1.11057   1.12250   1.12446   1.13802
 Alpha virt. eigenvalues --    1.14867   1.16595   1.17265   1.18020   1.19399
 Alpha virt. eigenvalues --    1.20424   1.22667   1.24067   1.25545   1.26043
 Alpha virt. eigenvalues --    1.29676   1.31573   1.34121   1.37238   1.37424
 Alpha virt. eigenvalues --    1.42175   1.42470   1.43229   1.43758   1.46215
 Alpha virt. eigenvalues --    1.48301   1.48923   1.49484   1.51123   1.51586
 Alpha virt. eigenvalues --    1.53434   1.55025   1.56033   1.60655   1.66614
 Alpha virt. eigenvalues --    1.69993   1.70966   1.71797   1.73138   1.75277
 Alpha virt. eigenvalues --    1.76945   1.78338   1.80283   1.80697   1.81499
 Alpha virt. eigenvalues --    1.81851   1.81960   1.84122   1.85159   1.85740
 Alpha virt. eigenvalues --    1.87123   1.89102   1.89396   1.90321   1.92255
 Alpha virt. eigenvalues --    1.93239   1.93477   1.94274   1.95299   1.95859
 Alpha virt. eigenvalues --    1.97203   1.97990   1.98700   2.01705   2.02405
 Alpha virt. eigenvalues --    2.02854   2.04089   2.05953   2.07002   2.08068
 Alpha virt. eigenvalues --    2.08543   2.09650   2.11132   2.12451   2.13188
 Alpha virt. eigenvalues --    2.13649   2.14229   2.15206   2.16471   2.18629
 Alpha virt. eigenvalues --    2.19635   2.21505   2.21966   2.23678   2.24724
 Alpha virt. eigenvalues --    2.26569   2.28153   2.29450   2.30871   2.31253
 Alpha virt. eigenvalues --    2.35361   2.36094   2.38367   2.41251   2.41651
 Alpha virt. eigenvalues --    2.41780   2.44981   2.47902   2.50730   2.56182
 Alpha virt. eigenvalues --    2.57419   2.58271   2.61043   2.66233   2.69794
 Alpha virt. eigenvalues --    2.70726   2.71658   2.72444   2.73882   2.74675
 Alpha virt. eigenvalues --    2.75256   2.76787   2.77985   2.80709   2.83507
 Alpha virt. eigenvalues --    2.85861   2.94890   3.05360   3.41244   3.79566
 Alpha virt. eigenvalues --    3.85055   3.91433   3.94317   4.01317   4.06857
 Alpha virt. eigenvalues --    4.09201   4.09744   4.11667   4.14525   4.21438
 Alpha virt. eigenvalues --    4.24072   4.25874   4.32574   4.34142   4.34732
 Alpha virt. eigenvalues --    4.40882   4.51853   4.69952   4.71966
          Condensed to atoms (all electrons):
               1          2          3          4          5          6
     1  O    8.297563   0.395472  -0.053729   0.006570  -0.005130   0.000354
     2  S    0.395472  13.610121   0.133960   0.005881  -0.007099   0.000696
     3  N   -0.053729   0.133960   7.407642   0.201057  -0.038912   0.004128
     4  C    0.006570   0.005881   0.201057   4.871134   0.324258  -0.061222
     5  C   -0.005130  -0.007099  -0.038912   0.324258   5.678028   0.060682
     6  S    0.000354   0.000696   0.004128  -0.061222   0.060682  14.924745
     7  O    0.000000   0.000010  -0.000057  -0.000836  -0.039771   0.298316
     8  C   -0.009682  -0.006179  -0.053012   0.338656  -0.122233   0.056712
     9  C    0.000103   0.000931  -0.055109   0.342639  -0.051606   0.005876
    10  C   -0.000001  -0.000151  -0.006182  -0.033098  -0.008919  -0.000551
    11  C    0.000000  -0.000002   0.000232   0.003193   0.000164   0.000017
    12  C    0.000000   0.000000  -0.000002   0.000211   0.000001  -0.000001
    13  C    0.000000   0.000000   0.000000   0.000004   0.000000   0.000000
    14  C    0.000000   0.000000   0.000000   0.000000   0.000000   0.000000
    15  C    0.000000   0.000000   0.000000   0.000002   0.000000   0.000000
    16  C    0.000000  -0.000001  -0.000011   0.000031  -0.000003   0.000001
    17  N   -0.053771   0.128130  -0.043761  -0.005624   0.001086   0.000124
    18  C   -0.004645  -0.026459   0.002413   0.000057  -0.000053   0.000005
    19  C    0.001764  -0.010932  -0.009228   0.000551  -0.000028   0.000001
    20  O   -0.043836   0.448817  -0.057702   0.001849  -0.000061  -0.000002
    21  H   -0.000041  -0.017646   0.296091  -0.024592   0.005239  -0.000209
    22  H    0.000109   0.000009   0.001392  -0.029258   0.350211  -0.018576
    23  H    0.004686   0.007960  -0.006796  -0.024714   0.322547  -0.004366
    24  H    0.000185   0.000312   0.001473  -0.031017   0.010390  -0.018047
    25  H    0.016125   0.000808  -0.004755  -0.024459   0.002960  -0.003450
    26  H    0.000001   0.000044   0.002989  -0.029820  -0.008714   0.005336
    27  H    0.000000  -0.000223  -0.007162  -0.032645   0.006232  -0.000278
    28  H    0.000002   0.000270   0.008029  -0.008090  -0.000381  -0.000040
    29  H    0.000000  -0.000090  -0.000139  -0.004864   0.003055  -0.000055
    30  H    0.000000   0.000000  -0.000001  -0.000127  -0.000004  -0.000005
    31  H    0.000000   0.000000   0.000000   0.000000   0.000000   0.000000
    32  H    0.000000   0.000000   0.000000   0.000000   0.000000   0.000000
    33  H    0.000000   0.000000   0.000000   0.000000   0.000000   0.000000
    34  H    0.000000   0.000000  -0.000011  -0.000033   0.000001   0.000000
    35  H    0.012538  -0.005246   0.000131   0.000016  -0.000048   0.000005
    36  H    0.000215   0.002097  -0.000082   0.000001   0.000022  -0.000002
    37  H   -0.000502  -0.003217  -0.000079  -0.000009   0.000000   0.000000
    38  H    0.000022  -0.003670   0.011990  -0.000022  -0.000063   0.000001
    39  H   -0.000044  -0.007460  -0.000192  -0.000034   0.000005   0.000000
    40  H   -0.000051   0.003207  -0.000007   0.000008   0.000042  -0.000001
               7          8          9         10         11         12
     1  O    0.000000  -0.009682   0.000103  -0.000001   0.000000   0.000000
     2  S    0.000010  -0.006179   0.000931  -0.000151  -0.000002   0.000000
     3  N   -0.000057  -0.053012  -0.055109  -0.006182   0.000232  -0.000002
     4  C   -0.000836   0.338656   0.342639  -0.033098   0.003193   0.000211
     5  C   -0.039771  -0.122233  -0.051606  -0.008919   0.000164   0.000001
     6  S    0.298316   0.056712   0.005876  -0.000551   0.000017  -0.000001
     7  O    8.379881  -0.039345  -0.009065   0.000029   0.000035  -0.000112
     8  C   -0.039345   5.704610  -0.055840   0.004710  -0.000084  -0.000010
     9  C   -0.009065  -0.055840   5.223424   0.343869  -0.041646  -0.002896
    10  C    0.000029   0.004710   0.343869   5.181100   0.347892  -0.062156
    11  C    0.000035  -0.000084  -0.041646   0.347892   4.639525   0.540436
    12  C   -0.000112  -0.000010  -0.002896  -0.062156   0.540436   4.967996
    13  C    0.000000   0.000000   0.000128   0.006244  -0.017621   0.525622
    14  C    0.000000   0.000000   0.000007   0.000409  -0.034603  -0.035196
    15  C    0.000000   0.000000  -0.000114   0.007123  -0.020126  -0.048025
    16  C    0.000000  -0.000002  -0.003212  -0.052246   0.554002  -0.038542
    17  N    0.000000  -0.000264  -0.000254   0.000018  -0.000001   0.000000
    18  C    0.000000   0.000014   0.000002   0.000000   0.000000   0.000000
    19  C    0.000000  -0.000012   0.000055  -0.000226   0.000004   0.000000
    20  O    0.000000  -0.000020  -0.000102  -0.000001   0.000000   0.000000
    21  H    0.000003  -0.000189  -0.005037  -0.000062  -0.000093   0.000001
    22  H    0.000435   0.010551  -0.007657   0.001794  -0.000064  -0.000009
    23  H    0.001204   0.002269   0.004581   0.000025   0.000002   0.000000
    24  H    0.000055   0.350942  -0.005137   0.000113  -0.000010   0.000000
    25  H    0.001151   0.321430   0.004014  -0.000112   0.000001   0.000000
    26  H    0.028216  -0.005700   0.351533  -0.030184  -0.001852   0.003439
    27  H    0.000318  -0.005935   0.350502  -0.040126  -0.000088  -0.000136
    28  H   -0.000004   0.000136  -0.035225   0.359563  -0.032365   0.004421
    29  H    0.000070   0.000073  -0.043971   0.358926  -0.026512  -0.004776
    30  H    0.000258   0.000004   0.000052  -0.008509  -0.046618   0.356188
    31  H    0.000000   0.000000   0.000000  -0.000183   0.003613  -0.039081
    32  H    0.000000   0.000000   0.000000   0.000007   0.000721   0.004740
    33  H    0.000000   0.000000   0.000000  -0.000186   0.003841   0.000830
    34  H    0.000000   0.000000   0.000203  -0.010861  -0.046404   0.006504
    35  H    0.000000   0.000001   0.000000   0.000000   0.000000   0.000000
    36  H    0.000000   0.000000   0.000000   0.000000   0.000000   0.000000
    37  H    0.000000   0.000000   0.000000   0.000000   0.000000   0.000000
    38  H    0.000000   0.000028  -0.000188   0.000429   0.000019   0.000000
    39  H    0.000000   0.000000  -0.000001   0.000003   0.000000   0.000000
    40  H    0.000000   0.000000   0.000000  -0.000002   0.000000   0.000000
              13         14         15         16         17         18
     1  O    0.000000   0.000000   0.000000   0.000000  -0.053771  -0.004645
     2  S    0.000000   0.000000   0.000000  -0.000001   0.128130  -0.026459
     3  N    0.000000   0.000000   0.000000  -0.000011  -0.043761   0.002413
     4  C    0.000004   0.000000   0.000002   0.000031  -0.005624   0.000057
     5  C    0.000000   0.000000   0.000000  -0.000003   0.001086  -0.000053
     6  S    0.000000   0.000000   0.000000   0.000001   0.000124   0.000005
     7  O    0.000000   0.000000   0.000000   0.000000   0.000000   0.000000
     8  C    0.000000   0.000000   0.000000  -0.000002  -0.000264   0.000014
     9  C    0.000128   0.000007  -0.000114  -0.003212  -0.000254   0.000002
    10  C    0.006244   0.000409   0.007123  -0.052246   0.000018   0.000000
    11  C   -0.017621  -0.034603  -0.020126   0.554002  -0.000001   0.000000
    12  C    0.525622  -0.035196  -0.048025  -0.038542   0.000000   0.000000
    13  C    4.863576   0.547858  -0.025572  -0.046853   0.000000   0.000000
    14  C    0.547858   4.853804   0.552164  -0.036033   0.000000   0.000000
    15  C   -0.025572   0.552164   4.869570   0.521112   0.000000   0.000000
    16  C   -0.046853  -0.036033   0.521112   4.962137   0.000000   0.000000
    17  N    0.000000   0.000000   0.000000   0.000000   7.215423   0.289919
    18  C    0.000000   0.000000   0.000000   0.000000   0.289919   4.996978
    19  C    0.000000   0.000000   0.000000   0.000000   0.273430  -0.050273
    20  O    0.000000   0.000000   0.000000   0.000000  -0.056114  -0.002405
    21  H    0.000000   0.000000   0.000000   0.000003   0.002595  -0.000060
    22  H    0.000000   0.000000   0.000000   0.000001  -0.000110   0.000002
    23  H    0.000000   0.000000   0.000000   0.000000   0.003638  -0.000173
    24  H    0.000000   0.000000   0.000000   0.000000   0.000001   0.000000
    25  H    0.000000   0.000000   0.000000   0.000000   0.000006   0.000010
    26  H   -0.000153   0.000003  -0.000008   0.000016   0.000001   0.000000
    27  H   -0.000035  -0.000006  -0.000094   0.002659   0.000001   0.000000
    28  H   -0.000181   0.000005   0.000175  -0.004523  -0.000063   0.000000
    29  H    0.000025   0.000019  -0.000224   0.003028  -0.000001   0.000000
    30  H   -0.043491   0.004755   0.000380   0.005888   0.000000   0.000000
    31  H    0.357242  -0.043356   0.004568   0.000891   0.000000   0.000000
    32  H   -0.043036   0.359086  -0.043380   0.004724   0.000000   0.000000
    33  H    0.004605  -0.043382   0.356345  -0.039811   0.000000   0.000000
    34  H    0.000326   0.004953  -0.046625   0.352663   0.000000   0.000000
    35  H    0.000000   0.000000   0.000000   0.000000  -0.031244   0.378018
    36  H    0.000000   0.000000   0.000000   0.000000  -0.038839   0.378090
    37  H    0.000000   0.000000   0.000000   0.000000  -0.047111   0.371066
    38  H    0.000000   0.000000   0.000000  -0.000006  -0.032972   0.004739
    39  H    0.000000   0.000000   0.000000   0.000000  -0.045355  -0.002484
    40  H    0.000000   0.000000   0.000000   0.000000  -0.035514  -0.003501
              19         20         21         22         23         24
     1  O    0.001764  -0.043836  -0.000041   0.000109   0.004686   0.000185
     2  S   -0.010932   0.448817  -0.017646   0.000009   0.007960   0.000312
     3  N   -0.009228  -0.057702   0.296091   0.001392  -0.006796   0.001473
     4  C    0.000551   0.001849  -0.024592  -0.029258  -0.024714  -0.031017
     5  C   -0.000028  -0.000061   0.005239   0.350211   0.322547   0.010390
     6  S    0.000001  -0.000002  -0.000209  -0.018576  -0.004366  -0.018047
     7  O    0.000000   0.000000   0.000003   0.000435   0.001204   0.000055
     8  C   -0.000012  -0.000020  -0.000189   0.010551   0.002269   0.350942
     9  C    0.000055  -0.000102  -0.005037  -0.007657   0.004581  -0.005137
    10  C   -0.000226  -0.000001  -0.000062   0.001794   0.000025   0.000113
    11  C    0.000004   0.000000  -0.000093  -0.000064   0.000002  -0.000010
    12  C    0.000000   0.000000   0.000001  -0.000009   0.000000   0.000000
    13  C    0.000000   0.000000   0.000000   0.000000   0.000000   0.000000
    14  C    0.000000   0.000000   0.000000   0.000000   0.000000   0.000000
    15  C    0.000000   0.000000   0.000000   0.000000   0.000000   0.000000
    16  C    0.000000   0.000000   0.000003   0.000001   0.000000   0.000000
    17  N    0.273430  -0.056114   0.002595  -0.000110   0.003638   0.000001
    18  C   -0.050273  -0.002405  -0.000060   0.000002  -0.000173   0.000000
    19  C    4.999056   0.001764  -0.000247   0.000003   0.000005   0.000000
    20  O    0.001764   8.225846   0.005596   0.000001   0.000023   0.000001
    21  H   -0.000247   0.005596   0.374280  -0.000063   0.000037   0.000506
    22  H    0.000003   0.000001  -0.000063   0.510110  -0.018711  -0.000347
    23  H    0.000005   0.000023   0.000037  -0.018711   0.495775  -0.000307
    24  H    0.000000   0.000001   0.000506  -0.000347  -0.000307   0.513380
    25  H   -0.000004  -0.000180  -0.000106  -0.000315  -0.000017  -0.018237
    26  H   -0.000001   0.000000   0.000108   0.000103   0.000083   0.000018
    27  H    0.000001  -0.000004   0.006420   0.000148  -0.000143   0.004402
    28  H   -0.000279  -0.000002   0.000178   0.000049  -0.000042  -0.000005
    29  H    0.000001   0.000000   0.000131   0.006969  -0.000171   0.000011
    30  H    0.000000   0.000000   0.000000   0.000184   0.000000   0.000000
    31  H    0.000000   0.000000   0.000000   0.000000   0.000000   0.000000
    32  H    0.000000   0.000000   0.000000   0.000000   0.000000   0.000000
    33  H    0.000000   0.000000   0.000000   0.000000   0.000000   0.000000
    34  H    0.000000   0.000000   0.000028   0.000000   0.000000   0.000000
    35  H    0.004666  -0.000227  -0.000004   0.000000   0.000333   0.000000
    36  H   -0.002891  -0.000109   0.000001   0.000001  -0.000142   0.000000
    37  H   -0.002805   0.002760   0.000008   0.000000   0.000039   0.000000
    38  H    0.375607  -0.001548  -0.000630   0.000031  -0.000065   0.000000
    39  H    0.372290   0.005494   0.000098   0.000000   0.000022   0.000000
    40  H    0.374332   0.000032   0.000000   0.000007  -0.000104   0.000000
              25         26         27         28         29         30
     1  O    0.016125   0.000001   0.000000   0.000002   0.000000   0.000000
     2  S    0.000808   0.000044  -0.000223   0.000270  -0.000090   0.000000
     3  N   -0.004755   0.002989  -0.007162   0.008029  -0.000139  -0.000001
     4  C   -0.024459  -0.029820  -0.032645  -0.008090  -0.004864  -0.000127
     5  C    0.002960  -0.008714   0.006232  -0.000381   0.003055  -0.000004
     6  S   -0.003450   0.005336  -0.000278  -0.000040  -0.000055  -0.000005
     7  O    0.001151   0.028216   0.000318  -0.000004   0.000070   0.000258
     8  C    0.321430  -0.005700  -0.005935   0.000136   0.000073   0.000004
     9  C    0.004014   0.351533   0.350502  -0.035225  -0.043971   0.000052
    10  C   -0.000112  -0.030184  -0.040126   0.359563   0.358926  -0.008509
    11  C    0.000001  -0.001852  -0.000088  -0.032365  -0.026512  -0.046618
    12  C    0.000000   0.003439  -0.000136   0.004421  -0.004776   0.356188
    13  C    0.000000  -0.000153  -0.000035  -0.000181   0.000025  -0.043491
    14  C    0.000000   0.000003  -0.000006   0.000005   0.000019   0.004755
    15  C    0.000000  -0.000008  -0.000094   0.000175  -0.000224   0.000380
    16  C    0.000000   0.000016   0.002659  -0.004523   0.003028   0.005888
    17  N    0.000006   0.000001   0.000001  -0.000063  -0.000001   0.000000
    18  C    0.000010   0.000000   0.000000   0.000000   0.000000   0.000000
    19  C   -0.000004  -0.000001   0.000001  -0.000279   0.000001   0.000000
    20  O   -0.000180   0.000000  -0.000004  -0.000002   0.000000   0.000000
    21  H   -0.000106   0.000108   0.006420   0.000178   0.000131   0.000000
    22  H   -0.000315   0.000103   0.000148   0.000049   0.006969   0.000184
    23  H   -0.000017   0.000083  -0.000143  -0.000042  -0.000171   0.000000
    24  H   -0.018237   0.000018   0.004402  -0.000005   0.000011   0.000000
    25  H    0.478173   0.000203   0.000016   0.000002   0.000000   0.000000
    26  H    0.000203   0.500388  -0.024519   0.004525  -0.003397   0.001745
    27  H    0.000016  -0.024519   0.600670  -0.004784   0.005886   0.000083
    28  H    0.000002   0.004525  -0.004784   0.584439  -0.035103   0.000034
    29  H    0.000000  -0.003397   0.005886  -0.035103   0.590075   0.003600
    30  H    0.000000   0.001745   0.000083   0.000034   0.003600   0.594409
    31  H    0.000000   0.000003   0.000000   0.000003  -0.000004  -0.005536
    32  H    0.000000   0.000000   0.000000   0.000000   0.000000  -0.000179
    33  H    0.000000   0.000000   0.000002  -0.000009   0.000003   0.000018
    34  H    0.000000   0.000022   0.000266   0.007186   0.000096  -0.000181
    35  H    0.000003   0.000000   0.000000   0.000000   0.000000   0.000000
    36  H    0.000000   0.000000   0.000000   0.000000   0.000000   0.000000
    37  H    0.000000   0.000000   0.000000   0.000000   0.000000   0.000000
    38  H    0.000000   0.000004   0.000000   0.002646   0.000170   0.000000
    39  H    0.000000   0.000000   0.000000  -0.000006   0.000000   0.000000
    40  H    0.000000   0.000000   0.000000  -0.000001   0.000005   0.000000
              31         32         33         34         35         36
     1  O    0.000000   0.000000   0.000000   0.000000   0.012538   0.000215
     2  S    0.000000   0.000000   0.000000   0.000000  -0.005246   0.002097
     3  N    0.000000   0.000000   0.000000  -0.000011   0.000131  -0.000082
     4  C    0.000000   0.000000   0.000000  -0.000033   0.000016   0.000001
     5  C    0.000000   0.000000   0.000000   0.000001  -0.000048   0.000022
     6  S    0.000000   0.000000   0.000000   0.000000   0.000005  -0.000002
     7  O    0.000000   0.000000   0.000000   0.000000   0.000000   0.000000
     8  C    0.000000   0.000000   0.000000   0.000000   0.000001   0.000000
     9  C    0.000000   0.000000   0.000000   0.000203   0.000000   0.000000
    10  C   -0.000183   0.000007  -0.000186  -0.010861   0.000000   0.000000
    11  C    0.003613   0.000721   0.003841  -0.046404   0.000000   0.000000
    12  C   -0.039081   0.004740   0.000830   0.006504   0.000000   0.000000
    13  C    0.357242  -0.043036   0.004605   0.000326   0.000000   0.000000
    14  C   -0.043356   0.359086  -0.043382   0.004953   0.000000   0.000000
    15  C    0.004568  -0.043380   0.356345  -0.046625   0.000000   0.000000
    16  C    0.000891   0.004724  -0.039811   0.352663   0.000000   0.000000
    17  N    0.000000   0.000000   0.000000   0.000000  -0.031244  -0.038839
    18  C    0.000000   0.000000   0.000000   0.000000   0.378018   0.378090
    19  C    0.000000   0.000000   0.000000   0.000000   0.004666  -0.002891
    20  O    0.000000   0.000000   0.000000   0.000000  -0.000227  -0.000109
    21  H    0.000000   0.000000   0.000000   0.000028  -0.000004   0.000001
    22  H    0.000000   0.000000   0.000000   0.000000   0.000000   0.000001
    23  H    0.000000   0.000000   0.000000   0.000000   0.000333  -0.000142
    24  H    0.000000   0.000000   0.000000   0.000000   0.000000   0.000000
    25  H    0.000000   0.000000   0.000000   0.000000   0.000003   0.000000
    26  H    0.000003   0.000000   0.000000   0.000022   0.000000   0.000000
    27  H    0.000000   0.000000   0.000002   0.000266   0.000000   0.000000
    28  H    0.000003   0.000000  -0.000009   0.007186   0.000000   0.000000
    29  H   -0.000004   0.000000   0.000003   0.000096   0.000000   0.000000
    30  H   -0.005536  -0.000179   0.000018  -0.000181   0.000000   0.000000
    31  H    0.594894  -0.005507  -0.000191   0.000018   0.000000   0.000000
    32  H   -0.005507   0.599203  -0.005608  -0.000184   0.000000   0.000000
    33  H   -0.000191  -0.005608   0.600587  -0.005763   0.000000   0.000000
    34  H    0.000018  -0.000184  -0.005763   0.620323   0.000000   0.000000
    35  H    0.000000   0.000000   0.000000   0.000000   0.486594  -0.020872
    36  H    0.000000   0.000000   0.000000   0.000000  -0.020872   0.551536
    37  H    0.000000   0.000000   0.000000   0.000000  -0.030046  -0.041320
    38  H    0.000000   0.000000   0.000000   0.000001  -0.000192   0.000046
    39  H    0.000000   0.000000   0.000000   0.000000  -0.000184  -0.001788
    40  H    0.000000   0.000000   0.000000   0.000000  -0.000008   0.005186
              37         38         39         40
     1  O   -0.000502   0.000022  -0.000044  -0.000051
     2  S   -0.003217  -0.003670  -0.007460   0.003207
     3  N   -0.000079   0.011990  -0.000192  -0.000007
     4  C   -0.000009  -0.000022  -0.000034   0.000008
     5  C    0.000000  -0.000063   0.000005   0.000042
     6  S    0.000000   0.000001   0.000000  -0.000001
     7  O    0.000000   0.000000   0.000000   0.000000
     8  C    0.000000   0.000028   0.000000   0.000000
     9  C    0.000000  -0.000188  -0.000001   0.000000
    10  C    0.000000   0.000429   0.000003  -0.000002
    11  C    0.000000   0.000019   0.000000   0.000000
    12  C    0.000000   0.000000   0.000000   0.000000
    13  C    0.000000   0.000000   0.000000   0.000000
    14  C    0.000000   0.000000   0.000000   0.000000
    15  C    0.000000   0.000000   0.000000   0.000000
    16  C    0.000000  -0.000006   0.000000   0.000000
    17  N   -0.047111  -0.032972  -0.045355  -0.035514
    18  C    0.371066   0.004739  -0.002484  -0.003501
    19  C   -0.002805   0.375607   0.372290   0.374332
    20  O    0.002760  -0.001548   0.005494   0.000032
    21  H    0.000008  -0.000630   0.000098   0.000000
    22  H    0.000000   0.000031   0.000000   0.000007
    23  H    0.000039  -0.000065   0.000022  -0.000104
    24  H    0.000000   0.000000   0.000000   0.000000
    25  H    0.000000   0.000000   0.000000   0.000000
    26  H    0.000000   0.000004   0.000000   0.000000
    27  H    0.000000   0.000000   0.000000   0.000000
    28  H    0.000000   0.002646  -0.000006  -0.000001
    29  H    0.000000   0.000170   0.000000   0.000005
    30  H    0.000000   0.000000   0.000000   0.000000
    31  H    0.000000   0.000000   0.000000   0.000000
    32  H    0.000000   0.000000   0.000000   0.000000
    33  H    0.000000   0.000000   0.000000   0.000000
    34  H    0.000000   0.000001   0.000000   0.000000
    35  H   -0.030046  -0.000192  -0.000184  -0.000008
    36  H   -0.041320   0.000046  -0.001788   0.005186
    37  H    0.578292  -0.000195   0.009181  -0.001489
    38  H   -0.000195   0.506012  -0.030311  -0.023029
    39  H    0.009181  -0.030311   0.567169  -0.037259
    40  H   -0.001489  -0.023029  -0.037259   0.550146
 Mulliken charges:
               1
     1  O   -0.564280
     2  S    1.349650
     3  N   -0.734603
     4  C    0.214344
     5  C   -0.481900
     6  S    0.749805
     7  O   -0.620790
     8  C   -0.491628
     9  C   -0.310863
    10  C   -0.358499
    11  C    0.174388
    12  C   -0.179447
    13  C   -0.128688
    14  C   -0.130485
    15  C   -0.127272
    16  C   -0.185914
    17  N   -0.523374
    18  C   -0.331262
    19  C   -0.326604
    20  O   -0.529870
    21  H    0.357654
    22  H    0.192998
    23  H    0.212526
    24  H    0.191319
    25  H    0.226732
    26  H    0.205568
    27  H    0.138570
    28  H    0.149441
    29  H    0.147164
    30  H    0.137050
    31  H    0.132625
    32  H    0.129414
    33  H    0.128719
    34  H    0.117470
    35  H    0.205766
    36  H    0.168849
    37  H    0.165426
    38  H    0.191146
    39  H    0.170856
    40  H    0.167999
 Sum of Mulliken charges =   0.00000
 Mulliken charges with hydrogens summed into heavy atoms:
               1
     1  O   -0.564280
     2  S    1.349650
     3  N   -0.376949
     4  C    0.214344
     5  C   -0.076377
     6  S    0.749805
     7  O   -0.620790
     8  C   -0.073577
     9  C    0.033276
    10  C   -0.061894
    11  C    0.174388
    12  C   -0.042396
    13  C    0.003937
    14  C   -0.001072
    15  C    0.001447
    16  C   -0.068444
    17  N   -0.523374
    18  C    0.208779
    19  C    0.203397
    20  O   -0.529870
 Electronic spatial extent (au):  <R**2>=           8163.9242
 Charge=              0.0000 electrons
 Dipole moment (field-independent basis, Debye):
    X=             -0.1626    Y=             -3.3358    Z=              1.9185  Tot=              3.8516
 Quadrupole moment (field-independent basis, Debye-Ang):
   XX=           -133.6519   YY=           -144.5156   ZZ=           -128.7965
   XY=             -4.1982   XZ=            -13.7420   YZ=             -5.2666
 Traceless Quadrupole moment (field-independent basis, Debye-Ang):
   XX=              2.0028   YY=             -8.8609   ZZ=              6.8582
   XY=             -4.1982   XZ=            -13.7420   YZ=             -5.2666
 Octapole moment (field-independent basis, Debye-Ang**2):
  XXX=             14.4157  YYY=            -58.5704  ZZZ=              0.6038  XYY=            -31.0101
  XXY=             -8.5133  XXZ=             48.4586  XZZ=            -19.9760  YZZ=             10.3371
  YYZ=             -3.7294  XYZ=             33.4790
 Hexadecapole moment (field-independent basis, Debye-Ang**3):
 XXXX=          -7098.0434 YYYY=          -2677.0059 ZZZZ=           -737.2597 XXXY=             69.2401
 XXXZ=           -184.6896 YYYX=            -54.3887 YYYZ=            -44.2939 ZZZX=            -19.4294
 ZZZY=             -8.5274 XXYY=          -1666.5272 XXZZ=          -1429.1003 YYZZ=           -518.7800
 XXYZ=             11.4891 YYXZ=            -66.0644 ZZXY=             11.4618
 N-N= 1.973754591393D+03 E-N=-7.797629190422D+03  KE= 1.628146623831D+03
 No NMR shielding tensors so no spin-rotation constants.
 Leave Link  601 at Sat Aug  8 07:18:07 2020, MaxMem=    33554432 cpu:         0.3
 (Enter /prod/apps/gaussian/g09d1/l9999.exe)
 1\1\GINC-PIRINEUS13\SP\RB3LYP\6-31G(d)\C13H20N2O3S2\UBAFAR01\08-Aug-20
 20\0\\#p b3lyp/6-31G(d)\\SM37.n.5.pdb.xyz\\0,1\O,0,4.594,-2.692,0.843\
 S,0,4.179,-1.32,0.527\N,0,3.395,-1.216,-0.947\C,0,2.726,-2.361,-1.585\
 C,0,1.715,-3.108,-0.694\S,0,2.158,-4.754,-1.469\O,0,1.3,-4.98,-2.703\C
 ,0,3.587,-3.613,-1.894\C,0,2.067,-1.849,-2.875\C,0,1.038,-0.727,-2.666
 \C,0,0.395,-0.291,-3.963\C,0,-0.602,-1.067,-4.571\C,0,-1.176,-0.675,-5
 .78\C,0,-0.762,0.504,-6.404\C,0,0.228,1.286,-5.808\C,0,0.799,0.889,-4.
 598\N,0,2.903,-0.983,1.58\C,0,3.179,-1.378,2.971\C,0,2.369,0.382,1.453
 \O,0,5.188,-0.252,0.494\H,0,3.982,-0.678,-1.584\H,0,0.662,-2.848,-0.80
 5\H,0,1.993,-3.139,0.358\H,0,3.947,-3.738,-2.916\H,0,4.375,-3.774,-1.1
 59\H,0,1.595,-2.715,-3.349\H,0,2.856,-1.506,-3.556\H,0,1.527,0.128,-2.
 191\H,0,0.267,-1.076,-1.968\H,0,-0.932,-1.985,-4.092\H,0,-1.948,-1.288
 ,-6.233\H,0,-1.21,0.811,-7.343\H,0,0.554,2.206,-6.282\H,0,1.565,1.504,
 -4.135\H,0,3.562,-2.396,2.988\H,0,2.234,-1.342,3.515\H,0,3.894,-0.708,
 3.465\H,0,2.173,0.59,0.401\H,0,3.054,1.137,1.858\H,0,1.427,0.419,2.003
 \\Version=AM64L-G09RevD.01\State=1-A\HF=-1638.8364693\RMSD=3.417e-09\D
 ipole=-0.5232484,1.24105,0.6944374\Quadrupole=-5.5897275,-5.2022038,10
 .7919313,-3.7275423,-7.2128829,-3.458093\PG=C01 [X(C13H20N2O3S2)]\\@


 THE 2ND LAW OF THERMODYNAMICS HAS THE SAME
 DEGREE OF TRUTH AS THE STATEMENT THAT IF YOU THROW
 A TUMBLERFULL OF WATER INTO THE SEA, YOU CANNOT GET
 THE SAME TUMBLERFULL OF WATER OUT AGAIN.
          - J.C. MAXWELL, LETTER TO LORD RAYLEIGH, DECEMBER 6,1870
 Job cpu time:       0 days  0 hours  6 minutes  2.7 seconds.
 File lengths (MBytes):  RWF=     67 Int=      0 D2E=      0 Chk=      5 Scr=      1
 Normal termination of Gaussian 09 at Sat Aug  8 07:18:07 2020.
 Initial command:
 /prod/apps/gaussian/g09d1/l1.exe "/tmp/ubafar01/1449207/Gau-183157.inp" -scrdir="/tmp/ubafar01/1449207/"
 Entering Link 1 = /prod/apps/gaussian/g09d1/l1.exe PID=    184391.
  
 Copyright (c) 1988,1990,1992,1993,1995,1998,2003,2009,2013,
            Gaussian, Inc.  All Rights Reserved.
  
 This is part of the Gaussian(R) 09 program.  It is based on
 the Gaussian(R) 03 system (copyright 2003, Gaussian, Inc.),
 the Gaussian(R) 98 system (copyright 1998, Gaussian, Inc.),
 the Gaussian(R) 94 system (copyright 1995, Gaussian, Inc.),
 the Gaussian 92(TM) system (copyright 1992, Gaussian, Inc.),
 the Gaussian 90(TM) system (copyright 1990, Gaussian, Inc.),
 the Gaussian 88(TM) system (copyright 1988, Gaussian, Inc.),
 the Gaussian 86(TM) system (copyright 1986, Carnegie Mellon
 University), and the Gaussian 82(TM) system (copyright 1983,
 Carnegie Mellon University). Gaussian is a federally registered
 trademark of Gaussian, Inc.
  
 This software contains proprietary and confidential information,
 including trade secrets, belonging to Gaussian, Inc.
  
 This software is provided under written license and may be
 used, copied, transmitted, or stored only in accord with that
 written license.
  
 The following legend is applicable only to US Government
 contracts under FAR:
  
                    RESTRICTED RIGHTS LEGEND
  
 Use, reproduction and disclosure by the US Government is
 subject to restrictions as set forth in subparagraphs (a)
 and (c) of the Commercial Computer Software - Restricted
 Rights clause in FAR 52.227-19.
  
 Gaussian, Inc.
 340 Quinnipiac St., Bldg. 40, Wallingford CT 06492
  
  
 ---------------------------------------------------------------
 Warning -- This program may not be used in any manner that
 competes with the business of Gaussian, Inc. or will provide
 assistance to any competitor of Gaussian, Inc.  The licensee
 of this program is prohibited from giving any competitor of
 Gaussian, Inc. access to this program.  By using this program,
[...]
    39  H    0.000000   0.000000  -0.000001   0.000003   0.000000   0.000000
    40  H    0.000000   0.000000   0.000000  -0.000001   0.000000   0.000000
              13         14         15         16         17         18
     1  O    0.000000   0.000000   0.000000   0.000000  -0.054472  -0.004765
     2  S    0.000000   0.000000   0.000000  -0.000001   0.139122  -0.025914
     3  N    0.000000   0.000000   0.000000  -0.000009  -0.044991   0.002357
     4  C    0.000004   0.000000   0.000002   0.000029  -0.005569   0.000054
     5  C    0.000000   0.000000   0.000000  -0.000004   0.001030  -0.000054
     6  S    0.000000   0.000000   0.000000   0.000001   0.000131   0.000004
     7  O    0.000000   0.000000   0.000000   0.000000   0.000000   0.000000
     8  C    0.000000   0.000000   0.000000  -0.000002  -0.000279   0.000014
     9  C    0.000122   0.000008  -0.000118  -0.003123  -0.000251   0.000002
    10  C    0.006240   0.000380   0.007081  -0.051995   0.000017   0.000000
    11  C   -0.018291  -0.034583  -0.021537   0.553467  -0.000001   0.000000
    12  C    0.523460  -0.036484  -0.047797  -0.039288   0.000000   0.000000
    13  C    4.879674   0.545860  -0.027088  -0.046941   0.000000   0.000000
    14  C    0.545860   4.868879   0.549724  -0.037190   0.000000   0.000000
    15  C   -0.027088   0.549724   4.884765   0.518618   0.000000   0.000000
    16  C   -0.046941  -0.037190   0.518618   4.970962   0.000000   0.000000
    17  N    0.000000   0.000000   0.000000   0.000000   7.211655   0.285449
    18  C    0.000000   0.000000   0.000000   0.000000   0.285449   4.999877
    19  C    0.000000   0.000000   0.000000   0.000000   0.271153  -0.049803
    20  O    0.000000   0.000000   0.000000   0.000000  -0.056483  -0.002307
    21  H    0.000000   0.000000   0.000000   0.000002   0.002402  -0.000053
    22  H    0.000000   0.000000   0.000000   0.000001  -0.000113   0.000003
    23  H    0.000000   0.000000   0.000000   0.000000   0.003854  -0.000203
    24  H    0.000000   0.000000   0.000000   0.000000   0.000000   0.000000
    25  H    0.000000   0.000000   0.000000   0.000000   0.000003   0.000010
    26  H   -0.000159   0.000002  -0.000007   0.000026   0.000001   0.000000
    27  H   -0.000033  -0.000006  -0.000092   0.002549   0.000001   0.000000
    28  H   -0.000180   0.000004   0.000186  -0.004288  -0.000063   0.000000
    29  H    0.000032   0.000019  -0.000224   0.002938  -0.000001   0.000000
    30  H   -0.044214   0.004811   0.000325   0.005951   0.000000   0.000000
    31  H    0.359026  -0.042773   0.004543   0.000828   0.000000   0.000000
    32  H   -0.042581   0.361108  -0.042740   0.004657   0.000000   0.000000
    33  H    0.004544  -0.042909   0.358494  -0.038978   0.000000   0.000000
    34  H    0.000302   0.004834  -0.045668   0.355731   0.000000   0.000000
    35  H    0.000000   0.000000   0.000000   0.000000  -0.031869   0.377355
    36  H    0.000000   0.000000   0.000000   0.000000  -0.037482   0.380504
    37  H    0.000000   0.000000   0.000000   0.000000  -0.047160   0.371388
    38  H    0.000000   0.000000   0.000000  -0.000005  -0.033221   0.004681
    39  H    0.000000   0.000000   0.000000   0.000000  -0.045562  -0.002460
    40  H    0.000000   0.000000   0.000000   0.000000  -0.034401  -0.003394
              19         20         21         22         23         24
     1  O    0.001696  -0.043469  -0.000080   0.000106   0.004533   0.000179
     2  S   -0.011852   0.447315  -0.016353   0.000002   0.008020   0.000305
     3  N   -0.009017  -0.057985   0.297780   0.001368  -0.006777   0.001424
     4  C    0.000541   0.001808  -0.023427  -0.029411  -0.024965  -0.030610
     5  C   -0.000030  -0.000061   0.004877   0.351595   0.324978   0.010122
     6  S    0.000000  -0.000002  -0.000242  -0.018556  -0.005014  -0.018115
     7  O    0.000000   0.000000   0.000002   0.000364   0.001188  -0.000004
     8  C   -0.000012  -0.000018  -0.000211   0.010332   0.002180   0.351960
     9  C    0.000053  -0.000102  -0.004791  -0.007436   0.004527  -0.004810
    10  C   -0.000223   0.000000  -0.000089   0.001923   0.000018   0.000108
    11  C    0.000004   0.000000  -0.000087  -0.000071   0.000002  -0.000009
    12  C    0.000000   0.000000   0.000000  -0.000008   0.000000   0.000000
    13  C    0.000000   0.000000   0.000000   0.000000   0.000000   0.000000
    14  C    0.000000   0.000000   0.000000   0.000000   0.000000   0.000000
    15  C    0.000000   0.000000   0.000000   0.000000   0.000000   0.000000
    16  C    0.000000   0.000000   0.000002   0.000001   0.000000   0.000000
    17  N    0.271153  -0.056483   0.002402  -0.000113   0.003854   0.000000
    18  C   -0.049803  -0.002307  -0.000053   0.000003  -0.000203   0.000000
    19  C    5.001648   0.001675  -0.000270   0.000002  -0.000014   0.000000
    20  O    0.001675   8.245815   0.005093   0.000001   0.000022   0.000001
    21  H   -0.000270   0.005093   0.350643  -0.000057   0.000036   0.000456
    22  H    0.000002   0.000001  -0.000057   0.498425  -0.017281  -0.000337
    23  H   -0.000014   0.000022   0.000036  -0.017281   0.485702  -0.000293
    24  H    0.000000   0.000001   0.000456  -0.000337  -0.000293   0.502381
    25  H   -0.000004  -0.000178  -0.000100  -0.000305  -0.000031  -0.017145
    26  H   -0.000001   0.000000   0.000107   0.000099   0.000077   0.000040
    27  H    0.000001  -0.000004   0.005670   0.000145  -0.000135   0.004216
    28  H   -0.000238  -0.000002   0.000207   0.000048  -0.000040  -0.000005
    29  H    0.000003   0.000000   0.000112   0.006797  -0.000162   0.000011
    30  H    0.000000   0.000000   0.000000   0.000182   0.000000   0.000000
    31  H    0.000000   0.000000   0.000000   0.000000   0.000000   0.000000
    32  H    0.000000   0.000000   0.000000   0.000000   0.000000   0.000000
    33  H    0.000000   0.000000   0.000000   0.000000   0.000000   0.000000
    34  H    0.000000   0.000000   0.000024   0.000000   0.000000   0.000000
    35  H    0.004635  -0.000223  -0.000004   0.000000   0.000310   0.000000
    36  H   -0.002728  -0.000106   0.000001   0.000001  -0.000141   0.000000
    37  H   -0.002671   0.002739   0.000008   0.000000   0.000040   0.000000
    38  H    0.375401  -0.001552  -0.000595   0.000029  -0.000066   0.000000
    39  H    0.372860   0.005510   0.000096   0.000000   0.000022   0.000000
    40  H    0.376836   0.000028   0.000000   0.000007  -0.000102   0.000000
              25         26         27         28         29         30
     1  O    0.016254   0.000001   0.000000   0.000002   0.000000   0.000000
     2  S    0.000946   0.000041  -0.000193   0.000255  -0.000089   0.000000
     3  N   -0.004889   0.003090  -0.006668   0.007737  -0.000146  -0.000001
     4  C   -0.024726  -0.030029  -0.031332  -0.007958  -0.004773  -0.000126
     5  C    0.002974  -0.008732   0.006060  -0.000356   0.003080  -0.000002
     6  S   -0.004441   0.004799  -0.000358  -0.000040  -0.000085  -0.000008
     7  O    0.001163   0.027695   0.000299  -0.000004   0.000065   0.000260
     8  C    0.322602  -0.005587  -0.005793   0.000135   0.000075   0.000005
     9  C    0.003998   0.350638   0.354232  -0.034540  -0.043465   0.000038
    10  C   -0.000112  -0.031278  -0.039105   0.361840   0.360491  -0.008421
    11  C    0.000001  -0.001976  -0.000166  -0.032050  -0.026952  -0.046912
    12  C    0.000000   0.003596  -0.000103   0.004370  -0.004599   0.357121
    13  C    0.000000  -0.000159  -0.000033  -0.000180   0.000032  -0.044214
    14  C    0.000000   0.000002  -0.000006   0.000004   0.000019   0.004811
    15  C    0.000000  -0.000007  -0.000092   0.000186  -0.000224   0.000325
    16  C    0.000000   0.000026   0.002549  -0.004288   0.002938   0.005951
    17  N    0.000003   0.000001   0.000001  -0.000063  -0.000001   0.000000
    18  C    0.000010   0.000000   0.000000   0.000000   0.000000   0.000000
    19  C   -0.000004  -0.000001   0.000001  -0.000238   0.000003   0.000000
    20  O   -0.000178   0.000000  -0.000004  -0.000002   0.000000   0.000000
    21  H   -0.000100   0.000107   0.005670   0.000207   0.000112   0.000000
    22  H   -0.000305   0.000099   0.000145   0.000048   0.006797   0.000182
    23  H   -0.000031   0.000077  -0.000135  -0.000040  -0.000162   0.000000
    24  H   -0.017145   0.000040   0.004216  -0.000005   0.000011   0.000000
    25  H    0.478642   0.000201   0.000015   0.000002   0.000000   0.000000
    26  H    0.000201   0.516741  -0.025211   0.004570  -0.003465   0.001810
    27  H    0.000015  -0.025211   0.582859  -0.004639   0.005666   0.000081
    28  H    0.000002   0.004570  -0.004639   0.570785  -0.034076   0.000036
    29  H    0.000000  -0.003465   0.005666  -0.034076   0.581762   0.003519
    30  H    0.000000   0.001810   0.000081   0.000036   0.003519   0.593907
    31  H    0.000000   0.000003   0.000000   0.000003  -0.000004  -0.005491
    32  H    0.000000   0.000000   0.000000   0.000000   0.000000  -0.000175
    33  H    0.000000   0.000000   0.000002  -0.000009   0.000003   0.000017
    34  H    0.000000   0.000021   0.000249   0.006813   0.000096  -0.000175
    35  H    0.000004   0.000000   0.000000   0.000000   0.000000   0.000000
    36  H    0.000000   0.000000   0.000000   0.000000   0.000000   0.000000
    37  H    0.000000   0.000000   0.000000   0.000000   0.000000   0.000000
    38  H    0.000000   0.000003   0.000000   0.002532   0.000158   0.000000
    39  H    0.000000   0.000000   0.000000  -0.000006   0.000000   0.000000
    40  H    0.000000   0.000000   0.000000  -0.000002   0.000005   0.000000
              31         32         33         34         35         36
     1  O    0.000000   0.000000   0.000000   0.000000   0.012132   0.000207
     2  S    0.000000   0.000000   0.000000   0.000000  -0.005209   0.002178
     3  N    0.000000   0.000000   0.000000  -0.000010   0.000128  -0.000084
     4  C    0.000000   0.000000   0.000000  -0.000032   0.000016   0.000002
     5  C    0.000000   0.000000   0.000000   0.000001  -0.000046   0.000020
     6  S    0.000000   0.000000   0.000000   0.000000   0.000005  -0.000002
     7  O    0.000000   0.000000   0.000000   0.000000   0.000000   0.000000
     8  C    0.000000   0.000000   0.000000   0.000000   0.000001   0.000000
     9  C    0.000000   0.000000   0.000000   0.000207   0.000000   0.000000
    10  C   -0.000178   0.000006  -0.000181  -0.010343   0.000000   0.000000
    11  C    0.003605   0.000680   0.003759  -0.044745   0.000000   0.000000
    12  C   -0.039121   0.004677   0.000800   0.006355   0.000000   0.000000
    13  C    0.359026  -0.042581   0.004544   0.000302   0.000000   0.000000
    14  C   -0.042773   0.361108  -0.042909   0.004834   0.000000   0.000000
    15  C    0.004543  -0.042740   0.358494  -0.045668   0.000000   0.000000
    16  C    0.000828   0.004657  -0.038978   0.355731   0.000000   0.000000
    17  N    0.000000   0.000000   0.000000   0.000000  -0.031869  -0.037482
    18  C    0.000000   0.000000   0.000000   0.000000   0.377355   0.380504
    19  C    0.000000   0.000000   0.000000   0.000000   0.004635  -0.002728
    20  O    0.000000   0.000000   0.000000   0.000000  -0.000223  -0.000106
    21  H    0.000000   0.000000   0.000000   0.000024  -0.000004   0.000001
    22  H    0.000000   0.000000   0.000000   0.000000   0.000000   0.000001
    23  H    0.000000   0.000000   0.000000   0.000000   0.000310  -0.000141
    24  H    0.000000   0.000000   0.000000   0.000000   0.000000   0.000000
    25  H    0.000000   0.000000   0.000000   0.000000   0.000004   0.000000
    26  H    0.000003   0.000000   0.000000   0.000021   0.000000   0.000000
    27  H    0.000000   0.000000   0.000002   0.000249   0.000000   0.000000
    28  H    0.000003   0.000000  -0.000009   0.006813   0.000000   0.000000
    29  H   -0.000004   0.000000   0.000003   0.000096   0.000000   0.000000
    30  H   -0.005491  -0.000175   0.000017  -0.000175   0.000000   0.000000
    31  H    0.584825  -0.005348  -0.000184   0.000017   0.000000   0.000000
    32  H   -0.005348   0.586487  -0.005412  -0.000176   0.000000   0.000000
    33  H   -0.000184  -0.005412   0.586351  -0.005481   0.000000   0.000000
    34  H    0.000017  -0.000176  -0.005481   0.600013   0.000000   0.000000
    35  H    0.000000   0.000000   0.000000   0.000000   0.493810  -0.020368
    36  H    0.000000   0.000000   0.000000   0.000000  -0.020368   0.531868
    37  H    0.000000   0.000000   0.000000   0.000000  -0.030750  -0.039352
    38  H    0.000000   0.000000   0.000000   0.000001  -0.000195   0.000043
    39  H    0.000000   0.000000   0.000000   0.000000  -0.000179  -0.001714
    40  H    0.000000   0.000000   0.000000   0.000000  -0.000002   0.004875
              37         38         39         40
     1  O   -0.000489   0.000022  -0.000043  -0.000051
     2  S   -0.003494  -0.003324  -0.007952   0.003200
     3  N   -0.000078   0.011462  -0.000197  -0.000005
     4  C   -0.000009  -0.000016  -0.000034   0.000009
     5  C    0.000000  -0.000061   0.000005   0.000039
     6  S    0.000000   0.000000   0.000000  -0.000001
     7  O    0.000000   0.000000   0.000000   0.000000
     8  C    0.000000   0.000026   0.000000   0.000000
     9  C    0.000000  -0.000179  -0.000001   0.000000
    10  C    0.000000   0.000430   0.000003  -0.000001
    11  C    0.000000   0.000019   0.000000   0.000000
    12  C    0.000000   0.000000   0.000000   0.000000
    13  C    0.000000   0.000000   0.000000   0.000000
    14  C    0.000000   0.000000   0.000000   0.000000
    15  C    0.000000   0.000000   0.000000   0.000000
    16  C    0.000000  -0.000005   0.000000   0.000000
    17  N   -0.047160  -0.033221  -0.045562  -0.034401
    18  C    0.371388   0.004681  -0.002460  -0.003394
    19  C   -0.002671   0.375401   0.372860   0.376836
    20  O    0.002739  -0.001552   0.005510   0.000028
    21  H    0.000008  -0.000595   0.000096   0.000000
    22  H    0.000000   0.000029   0.000000   0.000007
    23  H    0.000040  -0.000066   0.000022  -0.000102
    24  H    0.000000   0.000000   0.000000   0.000000
    25  H    0.000000   0.000000   0.000000   0.000000
    26  H    0.000000   0.000003   0.000000   0.000000
    27  H    0.000000   0.000000   0.000000   0.000000
    28  H    0.000000   0.002532  -0.000006  -0.000002
    29  H    0.000000   0.000158   0.000000   0.000005
    30  H    0.000000   0.000000   0.000000   0.000000
    31  H    0.000000   0.000000   0.000000   0.000000
    32  H    0.000000   0.000000   0.000000   0.000000
    33  H    0.000000   0.000000   0.000000   0.000000
    34  H    0.000000   0.000001   0.000000   0.000000
    35  H   -0.030750  -0.000195  -0.000179  -0.000002
    36  H   -0.039352   0.000043  -0.001714   0.004875
    37  H    0.575783  -0.000186   0.008982  -0.001425
    38  H   -0.000186   0.504194  -0.030498  -0.022252
    39  H    0.008982  -0.030498   0.566534  -0.035637
    40  H   -0.001425  -0.022252  -0.035637   0.531376
 Mulliken charges:
               1
     1  O   -0.575367
     2  S    1.346323
     3  N   -0.738230
     4  C    0.215427
     5  C   -0.481732
     6  S    0.742504
     7  O   -0.650399
     8  C   -0.485979
     9  C   -0.312139
    10  C   -0.361335
    11  C    0.170129
    12  C   -0.186713
    13  C   -0.139777
    14  C   -0.141684
    15  C   -0.138467
    16  C   -0.193937
    17  N   -0.522902
    18  C   -0.332746
    19  C   -0.329643
    20  O   -0.547516
    21  H    0.378840
    22  H    0.202146
    23  H    0.219718
    24  H    0.200125
    25  H    0.225113
    26  H    0.192882
    27  H    0.151790
    28  H    0.158969
    29  H    0.153209
    30  H    0.137463
    31  H    0.140249
    32  H    0.138817
    33  H    0.139184
    34  H    0.131962
    35  H    0.200449
    36  H    0.182279
    37  H    0.166674
    38  H    0.193145
    39  H    0.170271
    40  H    0.180898
 Sum of Mulliken charges =   0.00000
 Mulliken charges with hydrogens summed into heavy atoms:
               1
     1  O   -0.575367
     2  S    1.346323
     3  N   -0.359390
     4  C    0.215427
     5  C   -0.059868
     6  S    0.742504
     7  O   -0.650399
     8  C   -0.060741
     9  C    0.032534
    10  C   -0.049157
    11  C    0.170129
    12  C   -0.049250
    13  C    0.000472
    14  C   -0.002868
    15  C    0.000717
    16  C   -0.061975
    17  N   -0.522902
    18  C    0.216656
    19  C    0.214670
    20  O   -0.547516
 Electronic spatial extent (au):  <R**2>=           8165.2256
 Charge=              0.0000 electrons
 Dipole moment (field-independent basis, Debye):
    X=             -0.3051    Y=             -4.0846    Z=              2.1077  Tot=              4.6065
 Quadrupole moment (field-independent basis, Debye-Ang):
   XX=           -135.0108   YY=           -145.9748   ZZ=           -127.7286
   XY=             -4.9821   XZ=            -15.5385   YZ=             -6.0190
 Traceless Quadrupole moment (field-independent basis, Debye-Ang):
   XX=              1.2273   YY=             -9.7368   ZZ=              8.5095
   XY=             -4.9821   XZ=            -15.5385   YZ=             -6.0190
 Octapole moment (field-independent basis, Debye-Ang**2):
  XXX=             17.0467  YYY=            -69.7881  ZZZ=              2.3232  XYY=            -31.7181
  XXY=            -11.0249  XXZ=             52.8351  XZZ=            -21.0980  YZZ=              9.4501
  YYZ=             -3.4658  XYZ=             36.4928
 Hexadecapole moment (field-independent basis, Debye-Ang**3):
 XXXX=          -7095.3003 YYYY=          -2708.4851 ZZZZ=           -728.7550 XXXY=             62.9332
 XXXZ=           -211.9148 YYYX=            -63.8703 YYYZ=            -51.3360 ZZZX=            -29.3181
 ZZZY=            -13.6941 XXYY=          -1663.3105 XXZZ=          -1423.8885 YYZZ=           -515.7118
 XXYZ=              7.4607 YYXZ=            -74.0526 ZZXY=             12.4972
 N-N= 1.973739473894D+03 E-N=-7.797701437013D+03  KE= 1.628154051540D+03
 No NMR shielding tensors so no spin-rotation constants.
 Leave Link  601 at Sat Aug  8 07:22:33 2020, MaxMem=    33554432 cpu:         0.3
 (Enter /prod/apps/gaussian/g09d1/l9999.exe)
 1\1\GINC-PIRINEUS13\SP\RB3LYP\6-31G(d)\C13H20N2O3S2\UBAFAR01\08-Aug-20
 20\0\\#p b3lyp/6-31G(d) scrf=(iefpcm,read,solvent=n-Octanol) geom=allc
 heck guess=read\\SM37.n.5.pdb.xyz\\0,1\O,0,4.594,-2.692,0.843\S,0,4.17
 9,-1.32,0.527\N,0,3.395,-1.216,-0.947\C,0,2.726,-2.361,-1.585\C,0,1.71
 5,-3.108,-0.694\S,0,2.158,-4.754,-1.469\O,0,1.3,-4.98,-2.703\C,0,3.587
 ,-3.613,-1.894\C,0,2.067,-1.849,-2.875\C,0,1.038,-0.727,-2.666\C,0,0.3
 95,-0.291,-3.963\C,0,-0.602,-1.067,-4.571\C,0,-1.176,-0.675,-5.78\C,0,
 -0.762,0.504,-6.404\C,0,0.228,1.286,-5.808\C,0,0.799,0.889,-4.598\N,0,
 2.903,-0.983,1.58\C,0,3.179,-1.378,2.971\C,0,2.369,0.382,1.453\O,0,5.1
 88,-0.252,0.494\H,0,3.982,-0.678,-1.584\H,0,0.662,-2.848,-0.805\H,0,1.
 993,-3.139,0.358\H,0,3.947,-3.738,-2.916\H,0,4.375,-3.774,-1.159\H,0,1
 .595,-2.715,-3.349\H,0,2.856,-1.506,-3.556\H,0,1.527,0.128,-2.191\H,0,
 0.267,-1.076,-1.968\H,0,-0.932,-1.985,-4.092\H,0,-1.948,-1.288,-6.233\
 H,0,-1.21,0.811,-7.343\H,0,0.554,2.206,-6.282\H,0,1.565,1.504,-4.135\H
 ,0,3.562,-2.396,2.988\H,0,2.234,-1.342,3.515\H,0,3.894,-0.708,3.465\H,
 0,2.173,0.59,0.401\H,0,3.054,1.137,1.858\H,0,1.427,0.419,2.003\\Versio
 n=AM64L-G09RevD.01\State=1-A\HF=-1638.8626751\RMSD=3.823e-09\Dipole=-0
 .5380875,1.5154063,0.8357685\Quadrupole=-6.133822,-5.6461732,11.779995
 2,-4.2282272,-8.7666384,-3.8690326\PG=C01 [X(C13H20N2O3S2)]\\@


 ... THE UNIVERSE IS NOT ONLY QUEERER THAN WE SUPPOSE,
 BUT QUEERER THAN WE CAN SUPPOSE ... 

                                   -- J. B. S. HALDANE
 Job cpu time:       0 days  0 hours  4 minutes 26.5 seconds.
 File lengths (MBytes):  RWF=    251 Int=      0 D2E=      0 Chk=      7 Scr=      1
 Normal termination of Gaussian 09 at Sat Aug  8 07:22:33 2020.
