 Entering Gaussian System, Link 0=g09
 Initial command:
 /prod/apps/gaussian/g09d1/l1.exe "/tmp/ubafar01/1449172/Gau-196054.inp" -scrdir="/tmp/ubafar01/1449172/"
 Entering Link 1 = /prod/apps/gaussian/g09d1/l1.exe PID=    196062.
  
 Copyright (c) 1988,1990,1992,1993,1995,1998,2003,2009,2013,
            Gaussian, Inc.  All Rights Reserved.
  
 This is part of the Gaussian(R) 09 program.  It is based on
 the Gaussian(R) 03 system (copyright 2003, Gaussian, Inc.),
 the Gaussian(R) 98 system (copyright 1998, Gaussian, Inc.),
 the Gaussian(R) 94 system (copyright 1995, Gaussian, Inc.),
 the Gaussian 92(TM) system (copyright 1992, Gaussian, Inc.),
 the Gaussian 90(TM) system (copyright 1990, Gaussian, Inc.),
 the Gaussian 88(TM) system (copyright 1988, Gaussian, Inc.),
 the Gaussian 86(TM) system (copyright 1986, Carnegie Mellon
 University), and the Gaussian 82(TM) system (copyright 1983,
 Carnegie Mellon University). Gaussian is a federally registered
 trademark of Gaussian, Inc.
  
 This software contains proprietary and confidential information,
 including trade secrets, belonging to Gaussian, Inc.
  
 This software is provided under written license and may be
 used, copied, transmitted, or stored only in accord with that
 written license.
  
 The following legend is applicable only to US Government
 contracts under FAR:
  
                    RESTRICTED RIGHTS LEGEND
  
 Use, reproduction and disclosure by the US Government is
 subject to restrictions as set forth in subparagraphs (a)
 and (c) of the Commercial Computer Software - Restricted
 Rights clause in FAR 52.227-19.
  
 Gaussian, Inc.
 340 Quinnipiac St., Bldg. 40, Wallingford CT 06492
  
  
 ---------------------------------------------------------------
 Warning -- This program may not be used in any manner that
 competes with the business of Gaussian, Inc. or will provide
 assistance to any competitor of Gaussian, Inc.  The licensee
 of this program is prohibited from giving any competitor of
 Gaussian, Inc. access to this program.  By using this program,
 the user acknowledges that Gaussian, Inc. is engaged in the
 business of creating and licensing software in the field of
 computational chemistry and represents and warrants to the
 licensee that it is not a competitor of Gaussian, Inc. and that
 it will not use this program in any manner prohibited above.
 ---------------------------------------------------------------
  

 Cite this work as:
 Gaussian 09, Revision D.01,
 M. J. Frisch, G. W. Trucks, H. B. Schlegel, G. E. Scuseria, 
 M. A. Robb, J. R. Cheeseman, G. Scalmani, V. Barone, B. Mennucci, 
 G. A. Petersson, H. Nakatsuji, M. Caricato, X. Li, H. P. Hratchian, 
 A. F. Izmaylov, J. Bloino, G. Zheng, J. L. Sonnenberg, M. Hada, 
 M. Ehara, K. Toyota, R. Fukuda, J. Hasegawa, M. Ishida, T. Nakajima, 
 Y. Honda, O. Kitao, H. Nakai, T. Vreven, J. A. Montgomery, Jr., 
 J. E. Peralta, F. Ogliaro, M. Bearpark, J. J. Heyd, E. Brothers, 
 K. N. Kudin, V. N. Staroverov, T. Keith, R. Kobayashi, J. Normand, 
 K. Raghavachari, A. Rendell, J. C. Burant, S. S. Iyengar, J. Tomasi, 
 M. Cossi, N. Rega, J. M. Millam, M. Klene, J. E. Knox, J. B. Cross, 
 V. Bakken, C. Adamo, J. Jaramillo, R. Gomperts, R. E. Stratmann, 
 O. Yazyev, A. J. Austin, R. Cammi, C. Pomelli, J. W. Ochterski, 
 R. L. Martin, K. Morokuma, V. G. Zakrzewski, G. A. Voth, 
 P. Salvador, J. J. Dannenberg, S. Dapprich, A. D. Daniels, 
 O. Farkas, J. B. Foresman, J. V. Ortiz, J. Cioslowski, 
 and D. J. Fox, Gaussian, Inc., Wallingford CT, 2013.
 
 ******************************************
 Gaussian 09:  AM64L-G09RevD.01 24-Apr-2013
                 8-Aug-2020 
 ******************************************
 %nproc=1
 Will use up to    1 processors via shared memory.
 %Chk=SM37.n.14.pdb.xyz.mst.n.w.chk
 -----------------
 #p b3lyp/6-31G(d)
 -----------------
 1/38=1/1;
 2/12=2,17=6,18=5,40=1/2;
 3/5=1,6=6,7=1,11=2,16=1,25=1,30=1,74=-5/1,2,3;
 4//1;
 5/5=2,38=5/2;
 6/7=2,8=2,9=2,10=2,28=1/1;
 99/5=1,9=1/99;
 Leave Link    1 at Sat Aug  8 02:35:30 2020, MaxMem=           0 cpu:         0.0
 (Enter /prod/apps/gaussian/g09d1/l101.exe)
 -----------------
 SM37.n.14.pdb.xyz
 -----------------
 Symbolic Z-matrix:
 Charge =  0 Multiplicity = 1
 O                     3.777    -1.675     1.516 
 S                     4.474    -0.843     0.529 
 N                     3.467    -0.747    -0.817 
 C                     2.707    -1.911    -1.312 
 C                     1.52     -2.311    -0.406 
 S                     1.784    -4.129    -0.746 
 O                     0.978    -4.544    -1.975 
 C                     3.377    -3.31     -1.281 
 C                     2.181    -1.577    -2.721 
 C                     3.221    -1.429    -3.849 
 C                     4.006    -0.131    -3.88 
 C                     5.408    -0.14     -3.865 
 C                     6.137     1.051    -3.924 
 C                     5.471     2.275    -3.999 
 C                     4.074     2.3      -4.015 
 C                     3.351     1.108    -3.958 
 N                     4.542     0.713     1.133 
 C                     5.343     1.673     0.357 
 C                     3.26      1.253     1.614 
 O                     5.845    -1.203     0.141 
 H                     3.976    -0.264    -1.563 
 H                     0.53     -1.957    -0.696 
 H                     1.713    -2.137     0.651 
 H                     3.771    -3.705    -2.218 
 H                     4.103    -3.443    -0.479 
 H                     1.569    -0.671    -2.65 
 H                     1.506    -2.397    -2.983 
 H                     2.673    -1.525    -4.794 
 H                     3.922    -2.27     -3.821 
 H                     5.929    -1.091    -3.807 
 H                     7.221     1.019    -3.912 
 H                     6.034     3.201    -4.046 
 H                     3.547     3.247    -4.078 
 H                     2.265     1.138    -3.975 
 H                     6.279     1.207     0.055 
 H                     5.565     2.518     1.011 
 H                     4.811     2.044    -0.528 
 H                     2.755     0.499     2.216 
 H                     2.609     1.566     0.789 
 H                     3.485     2.117     2.243 
 
 NAtoms=     40 NQM=       40 NQMF=       0 NMMI=      0 NMMIF=      0
                NMic=       0 NMicF=      0.
                    Isotopes and Nuclear Properties:
 (Nuclear quadrupole moments (NQMom) in fm**2, nuclear magnetic moments (NMagM)
  in nuclear magnetons)

  Atom         1           2           3           4           5           6           7           8           9          10
 IAtWgt=          16          32          14          12          12          32          16          12          12          12
 AtmWgt=  15.9949146  31.9720718  14.0030740  12.0000000  12.0000000  31.9720718  15.9949146  12.0000000  12.0000000  12.0000000
 NucSpn=           0           0           2           0           0           0           0           0           0           0
 AtZEff=   0.0000000   0.0000000   0.0000000   0.0000000   0.0000000   0.0000000   0.0000000   0.0000000   0.0000000   0.0000000
 NQMom=    0.0000000   0.0000000   2.0440000   0.0000000   0.0000000   0.0000000   0.0000000   0.0000000   0.0000000   0.0000000
 NMagM=    0.0000000   0.0000000   0.4037610   0.0000000   0.0000000   0.0000000   0.0000000   0.0000000   0.0000000   0.0000000
 AtZNuc=   8.0000000  16.0000000   7.0000000   6.0000000   6.0000000  16.0000000   8.0000000   6.0000000   6.0000000   6.0000000

  Atom        11          12          13          14          15          16          17          18          19          20
 IAtWgt=          12          12          12          12          12          12          14          12          12          16
 AtmWgt=  12.0000000  12.0000000  12.0000000  12.0000000  12.0000000  12.0000000  14.0030740  12.0000000  12.0000000  15.9949146
 NucSpn=           0           0           0           0           0           0           2           0           0           0
 AtZEff=   0.0000000   0.0000000   0.0000000   0.0000000   0.0000000   0.0000000   0.0000000   0.0000000   0.0000000   0.0000000
 NQMom=    0.0000000   0.0000000   0.0000000   0.0000000   0.0000000   0.0000000   2.0440000   0.0000000   0.0000000   0.0000000
 NMagM=    0.0000000   0.0000000   0.0000000   0.0000000   0.0000000   0.0000000   0.4037610   0.0000000   0.0000000   0.0000000
 AtZNuc=   6.0000000   6.0000000   6.0000000   6.0000000   6.0000000   6.0000000   7.0000000   6.0000000   6.0000000   8.0000000

  Atom        21          22          23          24          25          26          27          28          29          30
 IAtWgt=           1           1           1           1           1           1           1           1           1           1
 AtmWgt=   1.0078250   1.0078250   1.0078250   1.0078250   1.0078250   1.0078250   1.0078250   1.0078250   1.0078250   1.0078250
 NucSpn=           1           1           1           1           1           1           1           1           1           1
 AtZEff=   0.0000000   0.0000000   0.0000000   0.0000000   0.0000000   0.0000000   0.0000000   0.0000000   0.0000000   0.0000000
 NQMom=    0.0000000   0.0000000   0.0000000   0.0000000   0.0000000   0.0000000   0.0000000   0.0000000   0.0000000   0.0000000
 NMagM=    2.7928460   2.7928460   2.7928460   2.7928460   2.7928460   2.7928460   2.7928460   2.7928460   2.7928460   2.7928460
 AtZNuc=   1.0000000   1.0000000   1.0000000   1.0000000   1.0000000   1.0000000   1.0000000   1.0000000   1.0000000   1.0000000

  Atom        31          32          33          34          35          36          37          38          39          40
 IAtWgt=           1           1           1           1           1           1           1           1           1           1
 AtmWgt=   1.0078250   1.0078250   1.0078250   1.0078250   1.0078250   1.0078250   1.0078250   1.0078250   1.0078250   1.0078250
 NucSpn=           1           1           1           1           1           1           1           1           1           1
 AtZEff=   0.0000000   0.0000000   0.0000000   0.0000000   0.0000000   0.0000000   0.0000000   0.0000000   0.0000000   0.0000000
 NQMom=    0.0000000   0.0000000   0.0000000   0.0000000   0.0000000   0.0000000   0.0000000   0.0000000   0.0000000   0.0000000
 NMagM=    2.7928460   2.7928460   2.7928460   2.7928460   2.7928460   2.7928460   2.7928460   2.7928460   2.7928460   2.7928460
 AtZNuc=   1.0000000   1.0000000   1.0000000   1.0000000   1.0000000   1.0000000   1.0000000   1.0000000   1.0000000   1.0000000
 Leave Link  101 at Sat Aug  8 02:35:30 2020, MaxMem=    33554432 cpu:         0.1
 (Enter /prod/apps/gaussian/g09d1/l202.exe)
                          Input orientation:                          
 ---------------------------------------------------------------------
 Center     Atomic      Atomic             Coordinates (Angstroms)
 Number     Number       Type             X           Y           Z
 ---------------------------------------------------------------------
      1          8           0        3.777000   -1.675000    1.516000
      2         16           0        4.474000   -0.843000    0.529000
      3          7           0        3.467000   -0.747000   -0.817000
      4          6           0        2.707000   -1.911000   -1.312000
      5          6           0        1.520000   -2.311000   -0.406000
      6         16           0        1.784000   -4.129000   -0.746000
      7          8           0        0.978000   -4.544000   -1.975000
      8          6           0        3.377000   -3.310000   -1.281000
      9          6           0        2.181000   -1.577000   -2.721000
     10          6           0        3.221000   -1.429000   -3.849000
     11          6           0        4.006000   -0.131000   -3.880000
     12          6           0        5.408000   -0.140000   -3.865000
     13          6           0        6.137000    1.051000   -3.924000
     14          6           0        5.471000    2.275000   -3.999000
     15          6           0        4.074000    2.300000   -4.015000
     16          6           0        3.351000    1.108000   -3.958000
     17          7           0        4.542000    0.713000    1.133000
     18          6           0        5.343000    1.673000    0.357000
     19          6           0        3.260000    1.253000    1.614000
     20          8           0        5.845000   -1.203000    0.141000
     21          1           0        3.976000   -0.264000   -1.563000
     22          1           0        0.530000   -1.957000   -0.696000
     23          1           0        1.713000   -2.137000    0.651000
     24          1           0        3.771000   -3.705000   -2.218000
     25          1           0        4.103000   -3.443000   -0.479000
     26          1           0        1.569000   -0.671000   -2.650000
     27          1           0        1.506000   -2.397000   -2.983000
     28          1           0        2.673000   -1.525000   -4.794000
     29          1           0        3.922000   -2.270000   -3.821000
     30          1           0        5.929000   -1.091000   -3.807000
     31          1           0        7.221000    1.019000   -3.912000
     32          1           0        6.034000    3.201000   -4.046000
     33          1           0        3.547000    3.247000   -4.078000
     34          1           0        2.265000    1.138000   -3.975000
     35          1           0        6.279000    1.207000    0.055000
     36          1           0        5.565000    2.518000    1.011000
     37          1           0        4.811000    2.044000   -0.528000
     38          1           0        2.755000    0.499000    2.216000
     39          1           0        2.609000    1.566000    0.789000
     40          1           0        3.485000    2.117000    2.243000
 ---------------------------------------------------------------------
                    Distance matrix (angstroms):
                    1          2          3          4          5
     1  O    0.000000
     2  S    1.467039   0.000000
     3  N    2.529856   1.683740   0.000000
     4  C    3.032850   2.766260   1.475643   0.000000
     5  C    3.031935   3.428610   2.530973   1.545899   0.000000
     6  S    3.887262   4.433906   3.778287   2.468159   1.868267
     7  O    5.315322   5.673573   4.685434   3.218959   2.782412
     8  C    3.264419   3.250477   2.606217   1.551471   2.282997
     9  C    4.528685   4.044639   2.442931   1.540621   2.516923
    10  C    5.399340   4.591328   3.117477   2.633038   3.940250
    11  C    5.617223   4.490573   3.170480   3.383848   4.795964
    12  C    5.828512   4.546845   3.664183   4.116995   5.638658
    13  C    6.526429   5.116836   4.473830   5.230764   6.707910
    14  C    6.991950   5.587371   4.824274   5.690541   7.039279
    15  C    6.817683   5.539529   4.458684   5.187236   6.388201
    16  C    6.155586   5.020030   3.649707   4.065761   5.259166
    17  N    2.536623   1.670502   2.662654   4.028725   4.543741
    18  C    3.873595   2.667396   3.279337   4.751748   5.574025
    19  C    2.974908   2.654098   3.154776   4.344903   4.450853
    20  O    2.527851   1.469621   2.603955   3.529804   4.498055
    21  H    3.392752   2.227040   1.024151   2.094271   3.400117
    22  H    3.938969   4.277471   3.178791   2.262941   1.090649
    23  H    2.285118   3.051629   2.676498   2.211895   1.088473
    24  H    4.250140   4.028804   3.287093   2.274064   3.208361
    25  H    2.685540   2.813131   2.790548   2.233770   2.821107
    26  H    4.820668   4.309832   2.639710   2.150090   2.779845
    27  H    5.091142   4.853667   3.355529   2.114436   2.578473
    28  H    6.407606   5.660658   4.129437   3.503495   4.604536
    29  H    5.372022   4.611240   3.398613   2.810727   4.175345
    30  H    5.771177   4.580330   3.888429   4.156767   5.700393
    31  H    6.970076   5.543964   5.175934   5.976713   7.475449
    32  H    7.733387   6.302235   5.709872   6.684028   8.000496
    33  H    7.454651   6.229918   5.156797   5.912810   6.963022
    34  H    6.352180   5.393520   3.869237   4.072264   5.018803
    35  H    4.086618   2.772220   3.533531   4.934551   5.936070
    36  H    4.586199   3.566360   4.289920   5.760255   6.456714
    37  H    4.367843   3.092828   3.111196   4.547911   5.459999
    38  H    2.502151   2.757153   3.355376   4.272843   4.036856
    39  H    3.520914   3.057631   2.943700   4.063660   4.200604
    40  H    3.872087   3.560550   4.191231   5.428452   5.521378
                    6          7          8          9         10
     6  S    0.000000
     7  O    1.527188   0.000000
     8  C    1.869394   2.785605   0.000000
     9  C    3.251298   3.287372   2.550942   0.000000
    10  C    4.357015   4.271551   3.187024   1.541392   0.000000
    11  C    5.544659   5.680878   4.154092   2.600927   1.517231
    12  C    6.226850   6.526271   4.566280   3.713116   2.538650
    13  C    7.475339   7.856075   5.798394   4.899340   3.828718
    14  C    8.073859   8.413227   6.554738   5.224489   4.336429
    15  C    7.567199   7.783775   6.279543   4.504333   3.828917
    16  C    6.340237   6.442711   5.165823   3.179354   2.542666
    17  N    5.880661   7.070913   4.834165   5.066728   5.581535
    18  C    6.895382   7.946228   5.601651   5.480404   5.640543
    19  C    6.059216   7.189830   5.405153   5.288229   6.085969
    20  O    5.083303   6.271158   3.542959   4.664313   4.780853
    21  H    4.517807   5.241770   3.117121   2.507381   2.674518
    22  H    2.508506   2.920465   3.205970   2.640232   4.178717
    23  H    2.434074   3.637272   2.806679   3.450074   4.798471
    24  H    2.508930   2.926400   1.090518   2.703607   2.853566
    25  H    2.433032   3.635360   1.089940   3.493223   4.023807
    26  H    3.953379   3.975555   3.479561   1.095637   2.177446
    27  H    2.842759   2.429909   2.689054   1.093924   2.151326
    28  H    4.894634   4.464767   4.002875   2.131220   1.096606
    29  H    4.181214   4.152822   2.798254   2.172862   1.095201
    30  H    5.981654   6.308077   4.221059   3.932314   2.729335
    31  H    8.129356   8.583355   6.359146   5.793039   4.690061
    32  H    9.092931   9.478249   7.556322   6.279372   5.421133
    33  H    8.283464   8.468887   7.130663   5.194072   4.692941
    34  H    6.196700   6.159667   5.317789   2.991788   2.742134
    35  H    7.022786   8.080563   5.532611   5.678947   5.616144
    36  H    7.846376   8.934686   6.633716   6.492173   6.685263
    37  H    6.878676   7.758057   5.593629   4.983753   5.061509
    38  H    5.579845   6.793678   5.208107   5.386392   6.381110
    39  H    5.955659   6.901591   5.352579   4.730934   5.554783
    40  H    7.130220   8.273179   6.471674   6.323555   7.053813
                   11         12         13         14         15
    11  C    0.000000
    12  C    1.402109   0.000000
    13  C    2.437257   1.397642   0.000000
    14  C    2.819436   2.419535   1.395477   0.000000
    15  C    2.435695   2.784898   2.413349   1.397315   0.000000
    16  C    1.403649   2.407779   2.786790   2.420324   1.395293
    17  N    5.111732   5.143692   5.313334   5.444291   5.407356
    18  C    4.795222   4.595267   4.398213   4.399264   4.595419
    19  C    5.714544   6.047627   6.243987   6.118723   5.783117
    20  O    4.549675   4.167610   4.657253   5.419959   5.716624
    21  H    2.321008   2.713891   3.460270   3.823041   3.549085
    22  H    5.055166   6.094172   7.134879   7.296103   6.457379
    23  H    5.460023   6.167276   7.117987   7.430398   6.858050
    24  H    3.948537   4.254598   5.579241   6.467021   6.275432
    25  H    4.748216   4.906917   6.016745   6.852543   6.744345
    26  H    2.782709   4.061540   5.045293   5.071915   4.118870
    27  H    3.491327   4.593210   5.849816   6.211366   5.451739
    28  H    2.134367   3.203356   4.403632   4.785481   4.147320
    29  H    2.141462   2.597505   3.993229   4.805009   4.576641
    30  H    2.150548   1.085913   2.155253   3.402438   3.870810
    31  H    3.414637   2.152315   1.084539   2.155830   3.399291
    32  H    3.904173   3.403956   2.155920   1.084737   2.157397
    33  H    3.414787   3.870460   3.399152   2.157035   1.085591
    34  H    2.156494   3.394677   3.873313   3.401732   2.150424
    35  H    4.737193   4.235499   3.984588   4.269474   4.756214
    36  H    5.776639   5.555627   5.180106   5.016770   5.247026
    37  H    4.076095   4.032596   3.778510   3.540735   3.573216
    38  H    6.254847   6.665230   7.031517   7.011209   6.618816
    39  H    5.160521   5.692500   5.909685   5.623048   5.075766
    40  H    6.543399   6.789672   6.797157   6.552230   6.288320
                   16         17         18         19         20
    16  C    0.000000
    17  N    5.243356   0.000000
    18  C    4.786075   1.471522   0.000000
    19  C    5.574629   1.471898   2.468874   0.000000
    20  O    5.325651   2.520502   2.927462   3.857964   0.000000
    21  H    2.830024   2.922893   3.050747   3.592669   2.697869
    22  H    5.290833   5.154637   6.119696   4.805528   5.433076
    23  H    5.869919   4.044510   5.270620   3.848724   4.266835
    24  H    5.135072   5.598425   6.166417   6.287059   4.015764
    25  H    5.777590   4.479241   5.330099   5.209963   2.904576
    26  H    2.837469   5.006523   5.364649   4.974229   5.133895
    27  H    4.079176   5.985888   6.514835   6.126290   5.478315
    28  H    2.844516   6.605387   6.624870   7.008874   5.875329
    29  H    3.428658   5.815910   5.917954   6.510683   4.531430
    30  H    3.391826   5.438914   5.032096   6.481137   3.950481
    31  H    3.871297   5.720376   4.709454   6.803011   4.822600
    32  H    3.403951   5.936181   4.711547   6.597377   6.079630
    33  H    2.151311   5.879260   5.037094   6.037986   6.548532
    34  H    1.086547   5.608656   5.341024   5.678043   5.936172
    35  H    4.968617   2.103162   1.088327   3.398082   2.450276
    36  H    5.619685   2.078326   1.091341   2.697565   3.831598
    37  H    3.843513   2.145424   1.097219   2.760334   3.472712
    38  H    6.232525   2.100489   3.395865   1.089011   4.092741
    39  H    4.826421   2.140662   2.769987   1.096538   4.308011
    40  H    6.283983   2.078597   2.684455   1.092136   4.583711
                   21         22         23         24         25
    21  H    0.000000
    22  H    3.936096   0.000000
    23  H    3.678464   1.801749   0.000000
    24  H    3.508779   3.984479   3.863308   0.000000
    25  H    3.361135   3.875773   2.948667   1.789690   0.000000
    26  H    2.672240   2.559577   3.614760   3.773670   4.338016
    27  H    3.559071   2.525182   3.649165   2.725126   3.756134
    28  H    3.705036   4.644640   5.562748   3.548772   4.933847
    29  H    3.020847   4.622689   4.989605   2.156765   3.546499
    30  H    3.087665   6.291063   6.224350   3.743645   4.465620
    31  H    4.206414   7.998044   7.817888   6.090017   6.435593
    32  H    4.733590   8.253574   8.320282   7.493703   7.784278
    33  H    4.340091   6.900857   7.396922   7.200006   7.616957
    34  H    3.272746   4.831262   5.694752   5.367470   6.048621
    35  H    3.175779   6.604990   5.690862   5.965261   5.161650
    36  H    4.109735   6.949151   6.052812   7.236754   6.315937
    37  H    2.663703   5.862012   5.335579   6.081834   5.532706
    38  H    4.043989   4.411610   3.237821   6.194048   4.961803
    39  H    3.278642   4.351896   3.812357   6.178651   5.378656
    40  H    4.516180   5.828141   4.875548   7.340164   6.221319
                   26         27         28         29         30
    26  H    0.000000
    27  H    1.758958   0.000000
    28  H    2.558294   2.324219   0.000000
    29  H    3.076467   2.560357   1.749787   0.000000
    30  H    4.530414   4.684820   3.429878   2.327721   0.000000
    31  H    6.032731   6.722598   5.285278   4.659314   2.476366
    32  H    6.072679   7.278074   5.847299   5.868817   4.299931
    33  H    4.615451   6.100774   4.903929   5.535699   4.956371
    34  H    2.347876   3.749183   2.815811   3.792602   4.292035
    35  H    5.747000   6.708188   6.631731   5.715624   4.507588
    36  H    6.288136   7.522283   7.642482   6.998044   6.030796
    37  H    4.731244   6.055785   5.958822   5.499524   4.672257
    38  H    5.143292   6.080824   7.296808   6.743487   6.991345
    39  H    4.232315   5.581215   6.381870   6.139297   6.261411
    40  H    5.948567   7.183572   7.965104   7.497255   7.270963
                   31         32         33         34         35
    31  H    0.000000
    32  H    2.487579   0.000000
    33  H    4.299979   2.487631   0.000000
    34  H    4.957829   4.297252   2.470225   0.000000
    35  H    4.081641   4.566647   5.357902   5.688397   0.000000
    36  H    5.406040   5.124422   5.522833   6.136334   1.772697
    37  H    4.279040   3.900090   3.955680   4.380041   1.787591
    38  H    7.600522   7.567383   6.913263   6.243148   4.194015
    39  H    6.608264   6.146631   5.233860   4.795541   3.759859
    40  H    7.283359   6.871970   6.421510   6.411737   3.663588
                   36         37         38         39         40
    36  H    0.000000
    37  H    1.778121   0.000000
    38  H    3.663944   3.760811   0.000000
    39  H    3.113442   2.609938   1.787773   0.000000
    40  H    2.450515   3.072791   1.775261   1.784683   0.000000
 Stoichiometry    C13H20N2O3S2
 Framework group  C1[X(C13H20N2O3S2)]
 Deg. of freedom   114
 Full point group                 C1      NOp   1
 Largest Abelian subgroup         C1      NOp   1
 Largest concise Abelian subgroup C1      NOp   1
                         Standard orientation:                         
 ---------------------------------------------------------------------
 Center     Atomic      Atomic             Coordinates (Angstroms)
 Number     Number       Type             X           Y           Z
 ---------------------------------------------------------------------
      1          8           0        1.591356    2.474945   -0.328619
      2         16           0        0.238734    1.944549   -0.531830
      3          7           0        0.175862    0.465526    0.270367
      4          6           0        1.300687   -0.489235    0.243507
      5          6           0        2.517633   -0.042016    1.085435
      6         16           0        3.722109   -0.770995   -0.142673
      7          8           0        4.011272   -2.225323    0.222863
      8          6           0        2.104030   -0.661972   -1.072496
      9          6           0        0.791497   -1.845852    0.766795
     10          6           0       -0.231041   -2.602568   -0.103657
     11          6           0       -1.661013   -2.097165   -0.061975
     12          6           0       -2.330103   -1.739451   -1.241072
     13          6           0       -3.657230   -1.302064   -1.212260
     14          6           0       -4.338205   -1.215299    0.002689
     15          6           0       -3.684687   -1.568514    1.186177
     16          6           0       -2.360384   -2.006548    1.151655
     17          7           0       -0.824446    2.933018    0.294701
     18          6           0       -2.255357    2.658710    0.088240
     19          6           0       -0.462784    3.206940    1.694934
     20          8           0       -0.277186    1.826578   -1.902849
     21          1           0       -0.721262    0.021978    0.052839
     22          1           0        2.613508   -0.464050    2.086539
     23          1           0        2.658305    1.037312    1.091451
     24          1           0        1.897026   -1.542438   -1.681723
     25          1           0        2.140822    0.230502   -1.697080
     26          1           0        0.390021   -1.692990    1.774699
     27          1           0        1.682413   -2.472021    0.870948
     28          1           0       -0.221885   -3.644582    0.237908
     29          1           0        0.110207   -2.624053   -1.144115
     30          1           0       -1.802831   -1.806243   -2.188030
     31          1           0       -4.154402   -1.031681   -2.137429
     32          1           0       -5.368596   -0.877221    0.028194
     33          1           0       -4.207612   -1.508917    2.135653
     34          1           0       -1.862409   -2.282613    2.077070
     35          1           0       -2.444690    2.485776   -0.969448
     36          1           0       -2.807487    3.545298    0.404686
     37          1           0       -2.606010    1.799140    0.673108
     38          1           0        0.598092    3.446044    1.752524
     39          1           0       -0.688026    2.358749    2.352379
     40          1           0       -1.040394    4.075932    2.017396
 ---------------------------------------------------------------------
 Rotational constants (GHZ):      0.3608213      0.2442643      0.1714054
 Leave Link  202 at Sat Aug  8 02:35:30 2020, MaxMem=    33554432 cpu:         0.0
 (Enter /prod/apps/gaussian/g09d1/l301.exe)
 Standard basis: 6-31G(d) (6D, 7F)
 Ernie: Thresh=  0.10000D-02 Tol=  0.10000D-05 Strict=F.
 There are   348 symmetry adapted cartesian basis functions of A   symmetry.
 There are   348 symmetry adapted basis functions of A   symmetry.
   348 basis functions,   688 primitive gaussians,   348 cartesian basis functions
    84 alpha electrons       84 beta electrons
       nuclear repulsion energy      2047.4926900929 Hartrees.
 IExCor=  402 DFT=T Ex+Corr=B3LYP ExCW=0 ScaHFX=  0.200000
 ScaDFX=  0.800000  0.720000  1.000000  0.810000 ScalE2=  1.000000  1.000000
 IRadAn=      0 IRanWt=     -1 IRanGd=            0 ICorTp=0 IEmpDi=  4
 NAtoms=   40 NActive=   40 NUniq=   40 SFac= 1.00D+00 NAtFMM=   60 NAOKFM=F Big=F
 Integral buffers will be    131072 words long.
 Raffenetti 2 integral format.
 Two-electron integral symmetry is turned on.
 Leave Link  301 at Sat Aug  8 02:35:30 2020, MaxMem=    33554432 cpu:         0.0
 (Enter /prod/apps/gaussian/g09d1/l302.exe)
 NPDir=0 NMtPBC=     1 NCelOv=     1 NCel=       1 NClECP=     1 NCelD=      1
         NCelK=      1 NCelE2=     1 NClLst=     1 CellRange=     0.0.
 One-electron integrals computed using PRISM.
 NBasis=   348 RedAO= T EigKep=  4.70D-04  NBF=   348
 NBsUse=   348 1.00D-06 EigRej= -1.00D+00 NBFU=   348
 Precomputing XC quadrature grid using
 IXCGrd= 4 IRadAn=           0 IRanWt=          -1 IRanGd=           0 AccXCQ= 0.00D+00.
 Generated NRdTot=       0 NPtTot=           0 NUsed=           0 NTot=          32
 NSgBfM=   345   345   345   345   346 MxSgAt=    40 MxSgA2=    40.
 Leave Link  302 at Sat Aug  8 02:35:31 2020, MaxMem=    33554432 cpu:         1.3
 (Enter /prod/apps/gaussian/g09d1/l303.exe)
 DipDrv:  MaxL=1.
 Leave Link  303 at Sat Aug  8 02:35:31 2020, MaxMem=    33554432 cpu:         0.0
 (Enter /prod/apps/gaussian/g09d1/l401.exe)
 ExpMin= 1.17D-01 ExpMax= 2.19D+04 ExpMxC= 3.30D+03 IAcc=1 IRadAn=         1 AccDes= 0.00D+00
 Harris functional with IExCor=  402 and IRadAn=       1 diagonalized for initial guess.
 HarFok:  IExCor=  402 AccDes= 0.00D+00 IRadAn=         1 IDoV= 1 UseB2=F ITyADJ=14
 ICtDFT=  3500011 ScaDFX=  1.000000  1.000000  1.000000  1.000000
 FoFCou: FMM=F IPFlag=           0 FMFlag=      100000 FMFlg1=           0
         NFxFlg=           0 DoJE=T BraDBF=F KetDBF=T FulRan=T
         wScrn=  0.000000 ICntrl=     500 IOpCl=  0 I1Cent=   200000004 NGrid=           0
         NMat0=    1 NMatS0=      1 NMatT0=    0 NMatD0=    1 NMtDS0=    0 NMtDT0=    0
 Petite list used in FoFCou.
 Harris En= -1638.91069910309    
 JPrj=0 DoOrth=F DoCkMO=F.
 Leave Link  401 at Sat Aug  8 02:35:36 2020, MaxMem=    33554432 cpu:         5.2
 (Enter /prod/apps/gaussian/g09d1/l502.exe)
 Closed shell SCF:
 Using DIIS extrapolation, IDIIS=  1040.
 Integral symmetry usage will be decided dynamically.
 IVT=      386588 IEndB=      386588 NGot=    33554432 MDV=    33305937
 LenX=    33305937 LenY=    33184392
 Requested convergence on RMS density matrix=1.00D-08 within 128 cycles.
 Requested convergence on MAX density matrix=1.00D-06.
 Requested convergence on             energy=1.00D-06.
 No special actions if energy rises.
 Fock matrices will be formed incrementally for  20 cycles.
 Integral accuracy reduced to 1.0D-05 until final iterations.

 Cycle   1  Pass 0  IDiag  1:
 FoFJK:  IHMeth= 1 ICntrl=       0 DoSepK=F KAlg= 0 I1Cent=   0 FoldK=F
 IRaf= 810000000 NMat=   1 IRICut=       1 DoRegI=T DoRafI=F ISym2E= 0.
 FoFCou: FMM=F IPFlag=           0 FMFlag=      100000 FMFlg1=           0
         NFxFlg=           0 DoJE=F BraDBF=F KetDBF=F FulRan=T
         wScrn=  0.000000 ICntrl=       0 IOpCl=  0 I1Cent=           0 NGrid=           0
         NMat0=    1 NMatS0=      1 NMatT0=    0 NMatD0=    1 NMtDS0=    0 NMtDT0=    0
 Symmetry not used in FoFCou.
 E= -1638.05873049079    
 DIIS: error= 3.62D-02 at cycle   1 NSaved=   1.
 NSaved= 1 IEnMin= 1 EnMin= -1638.05873049079     IErMin= 1 ErrMin= 3.62D-02
 ErrMax= 3.62D-02  0.00D+00 EMaxC= 1.00D-01 BMatC= 8.83D-01 BMatP= 8.83D-01
 IDIUse=3 WtCom= 6.38D-01 WtEn= 3.62D-01
 Coeff-Com:  0.100D+01
 Coeff-En:   0.100D+01
 Coeff:      0.100D+01
 Gap=     0.302 Goal=   None    Shift=    0.000
 GapD=    0.302 DampG=1.000 DampE=0.500 DampFc=0.5000 IDamp=-1.
 Damping current iteration by 5.00D-01
 RMSDP=7.55D-03 MaxDP=5.99D-01              OVMax= 3.41D-01

 Cycle   2  Pass 0  IDiag  1:
 RMSU=  3.77D-03    CP:  9.98D-01
 E= -1638.19594184078     Delta-E=       -0.137211349992 Rises=F Damp=T
 DIIS: error= 1.89D-02 at cycle   2 NSaved=   2.
 NSaved= 2 IEnMin= 2 EnMin= -1638.19594184078     IErMin= 2 ErrMin= 1.89D-02
 ErrMax= 1.89D-02  0.00D+00 EMaxC= 1.00D-01 BMatC= 1.73D-01 BMatP= 8.83D-01
 IDIUse=3 WtCom= 8.11D-01 WtEn= 1.89D-01
 Coeff-Com:  0.261D+00 0.739D+00
 Coeff-En:   0.414D+00 0.586D+00
 Coeff:      0.290D+00 0.710D+00
 Gap=     0.340 Goal=   None    Shift=    0.000
 RMSDP=2.72D-03 MaxDP=1.31D-01 DE=-1.37D-01 OVMax= 2.45D-01

 Cycle   3  Pass 0  IDiag  1:
 RMSU=  2.05D-03    CP:  9.86D-01  5.29D-01
 E= -1638.70154535635     Delta-E=       -0.505603515569 Rises=F Damp=F
 DIIS: error= 1.81D-02 at cycle   3 NSaved=   3.
 NSaved= 3 IEnMin= 3 EnMin= -1638.70154535635     IErMin= 3 ErrMin= 1.81D-02
 ErrMax= 1.81D-02  0.00D+00 EMaxC= 1.00D-01 BMatC= 1.42D-01 BMatP= 1.73D-01
 IDIUse=3 WtCom= 8.19D-01 WtEn= 1.81D-01
 Coeff-Com:  0.119D+00 0.468D+00 0.413D+00
 Coeff-En:   0.000D+00 0.000D+00 0.100D+01
 Coeff:      0.977D-01 0.383D+00 0.520D+00
 Gap=     0.248 Goal=   None    Shift=    0.000
 RMSDP=1.97D-03 MaxDP=8.99D-02 DE=-5.06D-01 OVMax= 1.82D-01

 Cycle   4  Pass 0  IDiag  1:
 RMSU=  1.01D-03    CP:  9.95D-01  7.07D-01  2.48D-01
 E= -1638.79397430759     Delta-E=       -0.092428951243 Rises=F Damp=F
 DIIS: error= 1.15D-02 at cycle   4 NSaved=   4.
 NSaved= 4 IEnMin= 4 EnMin= -1638.79397430759     IErMin= 4 ErrMin= 1.15D-02
 ErrMax= 1.15D-02  0.00D+00 EMaxC= 1.00D-01 BMatC= 4.55D-02 BMatP= 1.42D-01
 IDIUse=3 WtCom= 8.85D-01 WtEn= 1.15D-01
 Coeff-Com:  0.273D-01 0.106D+00 0.352D+00 0.514D+00
 Coeff-En:   0.000D+00 0.000D+00 0.279D+00 0.721D+00
 Coeff:      0.242D-01 0.937D-01 0.344D+00 0.538D+00
 Gap=     0.209 Goal=   None    Shift=    0.000
 RMSDP=8.97D-04 MaxDP=4.47D-02 DE=-9.24D-02 OVMax= 6.93D-02

 Cycle   5  Pass 0  IDiag  1:
 RMSU=  3.39D-04    CP:  9.93D-01  6.27D-01  5.43D-01  5.24D-01
 E= -1638.83098394464     Delta-E=       -0.037009637043 Rises=F Damp=F
 DIIS: error= 2.76D-03 at cycle   5 NSaved=   5.
 NSaved= 5 IEnMin= 5 EnMin= -1638.83098394464     IErMin= 5 ErrMin= 2.76D-03
 ErrMax= 2.76D-03  0.00D+00 EMaxC= 1.00D-01 BMatC= 3.91D-03 BMatP= 4.55D-02
 IDIUse=3 WtCom= 9.72D-01 WtEn= 2.76D-02
 Coeff-Com:  0.261D-02 0.121D-01 0.161D+00 0.343D+00 0.481D+00
 Coeff-En:   0.000D+00 0.000D+00 0.000D+00 0.455D-01 0.954D+00
 Coeff:      0.254D-02 0.117D-01 0.156D+00 0.335D+00 0.495D+00
 Gap=     0.203 Goal=   None    Shift=    0.000
 RMSDP=2.45D-04 MaxDP=1.10D-02 DE=-3.70D-02 OVMax= 1.61D-02

 Cycle   6  Pass 0  IDiag  1:
 RMSU=  1.21D-04    CP:  9.92D-01  6.43D-01  5.07D-01  6.11D-01  5.03D-01
 E= -1638.83398760220     Delta-E=       -0.003003657564 Rises=F Damp=F
 DIIS: error= 7.49D-04 at cycle   6 NSaved=   6.
 NSaved= 6 IEnMin= 6 EnMin= -1638.83398760220     IErMin= 6 ErrMin= 7.49D-04
 ErrMax= 7.49D-04  0.00D+00 EMaxC= 1.00D-01 BMatC= 4.14D-04 BMatP= 3.91D-03
 IDIUse=3 WtCom= 9.93D-01 WtEn= 7.49D-03
 Coeff-Com: -0.110D-02-0.353D-02 0.441D-01 0.120D+00 0.299D+00 0.542D+00
 Coeff-En:   0.000D+00 0.000D+00 0.000D+00 0.000D+00 0.705D-01 0.929D+00
 Coeff:     -0.109D-02-0.350D-02 0.438D-01 0.119D+00 0.297D+00 0.545D+00
 Gap=     0.203 Goal=   None    Shift=    0.000
 RMSDP=7.24D-05 MaxDP=3.68D-03 DE=-3.00D-03 OVMax= 3.18D-03

 Cycle   7  Pass 0  IDiag  1:
 RMSU=  3.86D-05    CP:  9.92D-01  6.41D-01  5.11D-01  6.18D-01  5.83D-01
                    CP:  5.62D-01
 E= -1638.83429792933     Delta-E=       -0.000310327124 Rises=F Damp=F
 DIIS: error= 1.71D-04 at cycle   7 NSaved=   7.
 NSaved= 7 IEnMin= 7 EnMin= -1638.83429792933     IErMin= 7 ErrMin= 1.71D-04
 ErrMax= 1.71D-04  0.00D+00 EMaxC= 1.00D-01 BMatC= 3.32D-05 BMatP= 4.14D-04
 IDIUse=3 WtCom= 9.98D-01 WtEn= 1.71D-03
 Coeff-Com: -0.603D-03-0.284D-02 0.606D-02 0.239D-01 0.107D+00 0.298D+00
 Coeff-Com:  0.568D+00
 Coeff-En:   0.000D+00 0.000D+00 0.000D+00 0.000D+00 0.000D+00 0.749D-02
 Coeff-En:   0.993D+00
 Coeff:     -0.602D-03-0.283D-02 0.605D-02 0.239D-01 0.107D+00 0.297D+00
 Coeff:      0.569D+00
 Gap=     0.203 Goal=   None    Shift=    0.000
 RMSDP=2.04D-05 MaxDP=8.32D-04 DE=-3.10D-04 OVMax= 9.27D-04

 Cycle   8  Pass 0  IDiag  1:
 RMSU=  1.03D-05    CP:  9.92D-01  6.40D-01  5.11D-01  6.14D-01  5.91D-01
                    CP:  6.29D-01  6.17D-01
 E= -1638.83432737781     Delta-E=       -0.000029448486 Rises=F Damp=F
 DIIS: error= 4.65D-05 at cycle   8 NSaved=   8.
 NSaved= 8 IEnMin= 8 EnMin= -1638.83432737781     IErMin= 8 ErrMin= 4.65D-05
 ErrMax= 4.65D-05  0.00D+00 EMaxC= 1.00D-01 BMatC= 1.71D-06 BMatP= 3.32D-05
 IDIUse=1 WtCom= 1.00D+00 WtEn= 0.00D+00
 Coeff-Com: -0.124D-03-0.950D-03-0.122D-03 0.250D-02 0.296D-01 0.102D+00
 Coeff-Com:  0.268D+00 0.599D+00
 Coeff:     -0.124D-03-0.950D-03-0.122D-03 0.250D-02 0.296D-01 0.102D+00
 Coeff:      0.268D+00 0.599D+00
 Gap=     0.203 Goal=   None    Shift=    0.000
 RMSDP=5.92D-06 MaxDP=2.28D-04 DE=-2.94D-05 OVMax= 3.55D-04

 Initial convergence to 1.0D-05 achieved.  Increase integral accuracy.
 Cycle   9  Pass 1  IDiag  1:
 E= -1638.83442339836     Delta-E=       -0.000096020545 Rises=F Damp=F
 DIIS: error= 5.42D-05 at cycle   1 NSaved=   1.
 NSaved= 1 IEnMin= 1 EnMin= -1638.83442339836     IErMin= 1 ErrMin= 5.42D-05
 ErrMax= 5.42D-05  0.00D+00 EMaxC= 1.00D-01 BMatC= 1.05D-06 BMatP= 1.05D-06
 IDIUse=1 WtCom= 1.00D+00 WtEn= 0.00D+00
 Coeff-Com:  0.100D+01
 Coeff:      0.100D+01
 Gap=     0.203 Goal=   None    Shift=    0.000
 RMSDP=5.92D-06 MaxDP=2.28D-04 DE=-9.60D-05 OVMax= 4.31D-04

 Cycle  10  Pass 1  IDiag  1:
 RMSU=  2.54D-05    CP:  1.00D+00
 E= -1638.83442306420     Delta-E=        0.000000334156 Rises=F Damp=F
 DIIS: error= 6.58D-05 at cycle   2 NSaved=   2.
 NSaved= 2 IEnMin= 1 EnMin= -1638.83442339836     IErMin= 1 ErrMin= 5.42D-05
 ErrMax= 6.58D-05  0.00D+00 EMaxC= 1.00D-01 BMatC= 1.57D-06 BMatP= 1.05D-06
 IDIUse=1 WtCom= 1.00D+00 WtEn= 0.00D+00
 Coeff-Com:  0.563D+00 0.437D+00
 Coeff:      0.563D+00 0.437D+00
 Gap=     0.203 Goal=   None    Shift=    0.000
 RMSDP=5.04D-06 MaxDP=1.70D-04 DE= 3.34D-07 OVMax= 3.79D-04

 Cycle  11  Pass 1  IDiag  1:
 RMSU=  4.95D-06    CP:  1.00D+00  9.63D-01
 E= -1638.83442435226     Delta-E=       -0.000001288064 Rises=F Damp=F
 DIIS: error= 2.35D-05 at cycle   3 NSaved=   3.
 NSaved= 3 IEnMin= 3 EnMin= -1638.83442435226     IErMin= 3 ErrMin= 2.35D-05
 ErrMax= 2.35D-05  0.00D+00 EMaxC= 1.00D-01 BMatC= 1.91D-07 BMatP= 1.05D-06
 IDIUse=1 WtCom= 1.00D+00 WtEn= 0.00D+00
 Coeff-Com:  0.233D-01 0.257D+00 0.720D+00
 Coeff:      0.233D-01 0.257D+00 0.720D+00
 Gap=     0.203 Goal=   None    Shift=    0.000
 RMSDP=1.41D-06 MaxDP=7.54D-05 DE=-1.29D-06 OVMax= 9.96D-05

 Cycle  12  Pass 1  IDiag  1:
 RMSU=  7.87D-07    CP:  1.00D+00  9.80D-01  7.79D-01
 E= -1638.83442450746     Delta-E=       -0.000000155193 Rises=F Damp=F
 DIIS: error= 5.86D-06 at cycle   4 NSaved=   4.
 NSaved= 4 IEnMin= 4 EnMin= -1638.83442450746     IErMin= 4 ErrMin= 5.86D-06
 ErrMax= 5.86D-06  0.00D+00 EMaxC= 1.00D-01 BMatC= 2.06D-08 BMatP= 1.91D-07
 IDIUse=1 WtCom= 1.00D+00 WtEn= 0.00D+00
 Coeff-Com: -0.753D-02 0.144D+00 0.447D+00 0.417D+00
 Coeff:     -0.753D-02 0.144D+00 0.447D+00 0.417D+00
 Gap=     0.203 Goal=   None    Shift=    0.000
 RMSDP=4.56D-07 MaxDP=2.47D-05 DE=-1.55D-07 OVMax= 2.61D-05

 Cycle  13  Pass 1  IDiag  1:
 RMSU=  2.25D-07    CP:  1.00D+00  9.81D-01  7.75D-01  4.99D-01
 E= -1638.83442452398     Delta-E=       -0.000000016526 Rises=F Damp=F
 DIIS: error= 1.54D-06 at cycle   5 NSaved=   5.
 NSaved= 5 IEnMin= 5 EnMin= -1638.83442452398     IErMin= 5 ErrMin= 1.54D-06
 ErrMax= 1.54D-06  0.00D+00 EMaxC= 1.00D-01 BMatC= 7.69D-10 BMatP= 2.06D-08
 IDIUse=1 WtCom= 1.00D+00 WtEn= 0.00D+00
 Coeff-Com: -0.541D-02 0.646D-01 0.205D+00 0.235D+00 0.501D+00
 Coeff:     -0.541D-02 0.646D-01 0.205D+00 0.235D+00 0.501D+00
 Gap=     0.203 Goal=   None    Shift=    0.000
 RMSDP=9.98D-08 MaxDP=5.01D-06 DE=-1.65D-08 OVMax= 4.80D-06

 Cycle  14  Pass 1  IDiag  1:
 RMSU=  7.54D-08    CP:  1.00D+00  9.81D-01  7.75D-01  5.11D-01  7.15D-01
 E= -1638.83442452470     Delta-E=       -0.000000000719 Rises=F Damp=F
 DIIS: error= 3.21D-07 at cycle   6 NSaved=   6.
 NSaved= 6 IEnMin= 6 EnMin= -1638.83442452470     IErMin= 6 ErrMin= 3.21D-07
 ErrMax= 3.21D-07  0.00D+00 EMaxC= 1.00D-01 BMatC= 4.27D-11 BMatP= 7.69D-10
 IDIUse=1 WtCom= 1.00D+00 WtEn= 0.00D+00
 Coeff-Com: -0.178D-02 0.164D-01 0.525D-01 0.708D-01 0.238D+00 0.624D+00
 Coeff:     -0.178D-02 0.164D-01 0.525D-01 0.708D-01 0.238D+00 0.624D+00
 Gap=     0.203 Goal=   None    Shift=    0.000
 RMSDP=2.89D-08 MaxDP=1.59D-06 DE=-7.19D-10 OVMax= 2.44D-06

 Cycle  15  Pass 1  IDiag  1:
 RMSU=  2.42D-08    CP:  1.00D+00  9.81D-01  7.75D-01  5.16D-01  7.54D-01
                    CP:  8.42D-01
 E= -1638.83442452472     Delta-E=       -0.000000000021 Rises=F Damp=F
 DIIS: error= 1.94D-07 at cycle   7 NSaved=   7.
 NSaved= 7 IEnMin= 7 EnMin= -1638.83442452472     IErMin= 7 ErrMin= 1.94D-07
 ErrMax= 1.94D-07  0.00D+00 EMaxC= 1.00D-01 BMatC= 9.87D-12 BMatP= 4.27D-11
 IDIUse=1 WtCom= 1.00D+00 WtEn= 0.00D+00
 Coeff-Com: -0.410D-03 0.190D-02 0.624D-02 0.132D-01 0.803D-01 0.374D+00
 Coeff-Com:  0.525D+00
 Coeff:     -0.410D-03 0.190D-02 0.624D-02 0.132D-01 0.803D-01 0.374D+00
 Coeff:      0.525D+00
 Gap=     0.203 Goal=   None    Shift=    0.000
 RMSDP=1.26D-08 MaxDP=4.38D-07 DE=-2.09D-11 OVMax= 1.18D-06

 Cycle  16  Pass 1  IDiag  1:
 RMSU=  7.13D-09    CP:  1.00D+00  9.81D-01  7.75D-01  5.19D-01  7.60D-01
                    CP:  8.74D-01  6.06D-01
 E= -1638.83442452475     Delta-E=       -0.000000000027 Rises=F Damp=F
 DIIS: error= 5.39D-08 at cycle   8 NSaved=   8.
 NSaved= 8 IEnMin= 8 EnMin= -1638.83442452475     IErMin= 8 ErrMin= 5.39D-08
 ErrMax= 5.39D-08  0.00D+00 EMaxC= 1.00D-01 BMatC= 1.09D-12 BMatP= 9.87D-12
 IDIUse=1 WtCom= 1.00D+00 WtEn= 0.00D+00
 Coeff-Com: -0.198D-04-0.916D-03-0.284D-02-0.117D-02 0.176D-01 0.141D+00
 Coeff-Com:  0.304D+00 0.542D+00
 Coeff:     -0.198D-04-0.916D-03-0.284D-02-0.117D-02 0.176D-01 0.141D+00
 Coeff:      0.304D+00 0.542D+00
 Gap=     0.203 Goal=   None    Shift=    0.000
 RMSDP=3.90D-09 MaxDP=1.73D-07 DE=-2.73D-11 OVMax= 2.90D-07

 SCF Done:  E(RB3LYP) =  -1638.83442452     A.U. after   16 cycles
            NFock= 16  Conv=0.39D-08     -V/T= 2.0066
 KE= 1.628102716510D+03 PE=-7.945015104481D+03 EE= 2.630585273354D+03
 Leave Link  502 at Sat Aug  8 02:42:26 2020, MaxMem=    33554432 cpu:       409.2
 (Enter /prod/apps/gaussian/g09d1/l601.exe)
 Copying SCF densities to generalized density rwf, IOpCl= 0 IROHF=0.

 **********************************************************************

            Population analysis using the SCF density.

 **********************************************************************

 Orbital symmetries:
       Occupied  (A) (A) (A) (A) (A) (A) (A) (A) (A) (A) (A) (A)
                 (A) (A) (A) (A) (A) (A) (A) (A) (A) (A) (A) (A)
                 (A) (A) (A) (A) (A) (A) (A) (A) (A) (A) (A) (A)
                 (A) (A) (A) (A) (A) (A) (A) (A) (A) (A) (A) (A)
                 (A) (A) (A) (A) (A) (A) (A) (A) (A) (A) (A) (A)
                 (A) (A) (A) (A) (A) (A) (A) (A) (A) (A) (A) (A)
                 (A) (A) (A) (A) (A) (A) (A) (A) (A) (A) (A) (A)
       Virtual   (A) (A) (A) (A) (A) (A) (A) (A) (A) (A) (A) (A)
                 (A) (A) (A) (A) (A) (A) (A) (A) (A) (A) (A) (A)
                 (A) (A) (A) (A) (A) (A) (A) (A) (A) (A) (A) (A)
                 (A) (A) (A) (A) (A) (A) (A) (A) (A) (A) (A) (A)
                 (A) (A) (A) (A) (A) (A) (A) (A) (A) (A) (A) (A)
                 (A) (A) (A) (A) (A) (A) (A) (A) (A) (A) (A) (A)
                 (A) (A) (A) (A) (A) (A) (A) (A) (A) (A) (A) (A)
                 (A) (A) (A) (A) (A) (A) (A) (A) (A) (A) (A) (A)
                 (A) (A) (A) (A) (A) (A) (A) (A) (A) (A) (A) (A)
                 (A) (A) (A) (A) (A) (A) (A) (A) (A) (A) (A) (A)
                 (A) (A) (A) (A) (A) (A) (A) (A) (A) (A) (A) (A)
                 (A) (A) (A) (A) (A) (A) (A) (A) (A) (A) (A) (A)
                 (A) (A) (A) (A) (A) (A) (A) (A) (A) (A) (A) (A)
                 (A) (A) (A) (A) (A) (A) (A) (A) (A) (A) (A) (A)
                 (A) (A) (A) (A) (A) (A) (A) (A) (A) (A) (A) (A)
                 (A) (A) (A) (A) (A) (A) (A) (A) (A) (A) (A) (A)
                 (A) (A) (A) (A) (A) (A) (A) (A) (A) (A) (A) (A)
                 (A) (A) (A) (A) (A) (A) (A) (A) (A) (A) (A) (A)
                 (A) (A) (A) (A) (A) (A) (A) (A) (A) (A) (A) (A)
                 (A) (A) (A) (A) (A) (A) (A) (A) (A) (A) (A) (A)
                 (A) (A) (A) (A) (A) (A) (A) (A) (A) (A) (A) (A)
                 (A) (A) (A) (A) (A) (A) (A) (A) (A) (A) (A) (A)
 The electronic state is 1-A.
 Alpha  occ. eigenvalues --  -89.13149 -88.97858 -19.14692 -19.14506 -19.10563
 Alpha  occ. eigenvalues --  -14.38114 -14.37206 -10.26472 -10.23079 -10.22901
 Alpha  occ. eigenvalues --  -10.21347 -10.21253 -10.20986 -10.20631 -10.20566
 Alpha  occ. eigenvalues --  -10.20487 -10.20441 -10.20412 -10.20336 -10.20216
 Alpha  occ. eigenvalues --   -8.15391  -8.02662  -6.11861  -6.11822  -6.11790
 Alpha  occ. eigenvalues --   -5.99065  -5.98897  -5.98440  -1.12341  -1.00376
 Alpha  occ. eigenvalues --   -0.99419  -0.94920  -0.93635  -0.87090  -0.84313
 Alpha  occ. eigenvalues --   -0.80095  -0.75857  -0.74789  -0.73469  -0.71651
 Alpha  occ. eigenvalues --   -0.70039  -0.67768  -0.63107  -0.61832  -0.61023
 Alpha  occ. eigenvalues --   -0.59080  -0.55914  -0.54883  -0.52602  -0.51872
 Alpha  occ. eigenvalues --   -0.50773  -0.49021  -0.48027  -0.47640  -0.46919
 Alpha  occ. eigenvalues --   -0.46324  -0.45861  -0.44214  -0.44006  -0.43517
 Alpha  occ. eigenvalues --   -0.43366  -0.41938  -0.41862  -0.40975  -0.39714
 Alpha  occ. eigenvalues --   -0.39597  -0.39337  -0.38761  -0.38168  -0.36645
 Alpha  occ. eigenvalues --   -0.36382  -0.35063  -0.34927  -0.34668  -0.33989
 Alpha  occ. eigenvalues --   -0.33004  -0.31708  -0.30358  -0.28175  -0.26696
 Alpha  occ. eigenvalues --   -0.26337  -0.25746  -0.25052  -0.22296
 Alpha virt. eigenvalues --   -0.02006  -0.01615   0.01385   0.03712   0.05371
 Alpha virt. eigenvalues --    0.06266   0.07439   0.07730   0.08061   0.09454
 Alpha virt. eigenvalues --    0.09592   0.10178   0.10775   0.11535   0.12483
 Alpha virt. eigenvalues --    0.13057   0.13106   0.14268   0.14598   0.15046
 Alpha virt. eigenvalues --    0.15378   0.15832   0.16265   0.16694   0.17429
 Alpha virt. eigenvalues --    0.18152   0.18844   0.19603   0.19862   0.20046
 Alpha virt. eigenvalues --    0.20957   0.21116   0.21953   0.22989   0.24240
 Alpha virt. eigenvalues --    0.25052   0.27018   0.28006   0.29222   0.31255
 Alpha virt. eigenvalues --    0.33146   0.33478   0.34617   0.35883   0.36701
 Alpha virt. eigenvalues --    0.39447   0.42508   0.44108   0.44405   0.46097
 Alpha virt. eigenvalues --    0.46407   0.48271   0.48687   0.49166   0.50725
 Alpha virt. eigenvalues --    0.51907   0.52480   0.53586   0.54177   0.55188
 Alpha virt. eigenvalues --    0.55566   0.56286   0.57027   0.58067   0.58263
 Alpha virt. eigenvalues --    0.58855   0.59483   0.59963   0.60482   0.61003
 Alpha virt. eigenvalues --    0.61721   0.62918   0.63589   0.63845   0.65725
 Alpha virt. eigenvalues --    0.66209   0.67323   0.69090   0.69963   0.71779
 Alpha virt. eigenvalues --    0.72916   0.73471   0.74172   0.76026   0.76696
 Alpha virt. eigenvalues --    0.77562   0.79645   0.80270   0.80685   0.81003
 Alpha virt. eigenvalues --    0.82191   0.82752   0.83050   0.83302   0.84321
 Alpha virt. eigenvalues --    0.84448   0.85487   0.85897   0.86830   0.88308
 Alpha virt. eigenvalues --    0.88579   0.89483   0.89845   0.90639   0.90734
 Alpha virt. eigenvalues --    0.91755   0.91807   0.92350   0.93080   0.93490
 Alpha virt. eigenvalues --    0.94528   0.96538   0.96769   0.97000   0.98920
 Alpha virt. eigenvalues --    1.00013   1.01238   1.01611   1.02908   1.03319
 Alpha virt. eigenvalues --    1.04727   1.06432   1.07015   1.08073   1.09035
 Alpha virt. eigenvalues --    1.10045   1.12011   1.12400   1.13398   1.14329
 Alpha virt. eigenvalues --    1.14939   1.15313   1.16521   1.17635   1.18300
 Alpha virt. eigenvalues --    1.20489   1.23320   1.23517   1.24068   1.26925
 Alpha virt. eigenvalues --    1.27583   1.31447   1.34161   1.37978   1.38585
 Alpha virt. eigenvalues --    1.41324   1.41956   1.43327   1.44072   1.45558
 Alpha virt. eigenvalues --    1.46697   1.47052   1.48263   1.48581   1.49989
 Alpha virt. eigenvalues --    1.51304   1.53547   1.60299   1.61384   1.67368
 Alpha virt. eigenvalues --    1.68339   1.71919   1.73307   1.74677   1.76037
 Alpha virt. eigenvalues --    1.76671   1.79059   1.79528   1.79896   1.81351
 Alpha virt. eigenvalues --    1.82375   1.82874   1.84663   1.85944   1.87276
 Alpha virt. eigenvalues --    1.87800   1.88089   1.89079   1.90213   1.91026
 Alpha virt. eigenvalues --    1.92496   1.92947   1.93794   1.94075   1.95484
 Alpha virt. eigenvalues --    1.96234   1.97400   1.98862   1.99471   2.02078
 Alpha virt. eigenvalues --    2.03521   2.04290   2.06014   2.07153   2.07686
 Alpha virt. eigenvalues --    2.09315   2.10294   2.11562   2.11977   2.12688
 Alpha virt. eigenvalues --    2.13486   2.14602   2.15262   2.17336   2.18701
 Alpha virt. eigenvalues --    2.19735   2.22268   2.22962   2.23532   2.25723
 Alpha virt. eigenvalues --    2.27008   2.28193   2.28890   2.30303   2.32892
 Alpha virt. eigenvalues --    2.33946   2.35622   2.37097   2.39174   2.42016
 Alpha virt. eigenvalues --    2.42117   2.44553   2.47420   2.50636   2.56462
 Alpha virt. eigenvalues --    2.57307   2.58406   2.59490   2.63206   2.67851
 Alpha virt. eigenvalues --    2.70890   2.71296   2.72334   2.72723   2.74086
 Alpha virt. eigenvalues --    2.74641   2.76272   2.77362   2.78065   2.85958
 Alpha virt. eigenvalues --    2.87371   2.88981   3.04325   3.39291   3.79468
 Alpha virt. eigenvalues --    3.86006   3.93860   3.96249   4.02435   4.04897
 Alpha virt. eigenvalues --    4.07703   4.10056   4.11449   4.16567   4.25037
 Alpha virt. eigenvalues --    4.27043   4.27650   4.30039   4.32411   4.35386
 Alpha virt. eigenvalues --    4.44035   4.52855   4.69171   4.72696
          Condensed to atoms (all electrons):
               1          2          3          4          5          6
     1  O    8.298236   0.407194  -0.052816   0.004284  -0.009075   0.000389
     2  S    0.407194  13.565492   0.124923  -0.008668  -0.006192   0.001003
     3  N   -0.052816   0.124923   7.436271   0.241787  -0.048226   0.003229
     4  C    0.004284  -0.008668   0.241787   4.805426   0.332907  -0.060821
     5  C   -0.009075  -0.006192  -0.048226   0.332907   5.687013   0.060715
     6  S    0.000389   0.001003   0.003229  -0.060821   0.060715  14.929214
     7  O    0.000000   0.000008  -0.000054  -0.000691  -0.039531   0.297422
     8  C   -0.004576  -0.002714  -0.053154   0.333456  -0.129972   0.055785
     9  C    0.000166  -0.000011  -0.050133   0.371442  -0.046242   0.004520
    10  C   -0.000002   0.000006  -0.002963  -0.032201   0.004929  -0.000400
    11  C   -0.000001  -0.000308  -0.005794  -0.003734  -0.000050  -0.000005
    12  C   -0.000001   0.000659  -0.002792   0.001007  -0.000007  -0.000001
    13  C    0.000000   0.000102  -0.000148  -0.000003   0.000000   0.000000
    14  C    0.000000   0.000019   0.000099   0.000001   0.000000   0.000000
    15  C    0.000000  -0.000024  -0.000005  -0.000026   0.000000   0.000000
    16  C    0.000000  -0.000131  -0.001141  -0.000978  -0.000022   0.000004
    17  N   -0.051111   0.157166  -0.056157   0.002439  -0.000023  -0.000002
    18  C    0.001406  -0.009832  -0.000618   0.000002   0.000000   0.000000
    19  C   -0.006808  -0.011576  -0.000092  -0.000132  -0.000012   0.000002
    20  O   -0.043728   0.445334  -0.056763  -0.002824  -0.000094   0.000009
    21  H    0.001534  -0.005341   0.266743  -0.028221   0.004258  -0.000297
    22  H    0.000251   0.000313   0.001614  -0.030991   0.350119  -0.018532
    23  H    0.014873   0.001254  -0.004410  -0.023976   0.322329  -0.005250
    24  H    0.000125   0.000053   0.001984  -0.027833   0.010747  -0.018341
    25  H    0.005297   0.008660  -0.008636  -0.023598   0.002537  -0.005564
    26  H   -0.000003  -0.000006  -0.002797  -0.033888  -0.006397  -0.000182
    27  H    0.000001   0.000050   0.002996  -0.033202  -0.009653   0.006632
    28  H    0.000000   0.000009  -0.000043   0.004458  -0.000153   0.000028
    29  H    0.000000  -0.000008  -0.000323  -0.007674   0.000095  -0.000017
    30  H    0.000000   0.000110   0.000030  -0.000036   0.000001   0.000002
    31  H    0.000000  -0.000003  -0.000003   0.000000   0.000000   0.000000
    32  H    0.000000   0.000000   0.000000   0.000000   0.000000   0.000000
    33  H    0.000000   0.000000  -0.000002   0.000000   0.000000   0.000000
    34  H    0.000000   0.000000  -0.000026   0.000155   0.000000   0.000000
    35  H    0.000050   0.000200  -0.000335   0.000003   0.000000   0.000000
    36  H   -0.000043   0.002259  -0.000092   0.000004   0.000000   0.000000
    37  H   -0.000061  -0.009571   0.003625  -0.000111  -0.000003   0.000000
    38  H    0.011122   0.000789  -0.001273  -0.000052   0.000074  -0.000001
    39  H   -0.000291  -0.008783   0.008393  -0.000361   0.000014   0.000005
    40  H    0.000080   0.002260   0.000055   0.000006  -0.000001   0.000000
               7          8          9         10         11         12
     1  O    0.000000  -0.004576   0.000166  -0.000002  -0.000001  -0.000001
     2  S    0.000008  -0.002714  -0.000011   0.000006  -0.000308   0.000659
     3  N   -0.000054  -0.053154  -0.050133  -0.002963  -0.005794  -0.002792
     4  C   -0.000691   0.333456   0.371442  -0.032201  -0.003734   0.001007
     5  C   -0.039531  -0.129972  -0.046242   0.004929  -0.000050  -0.000007
     6  S    0.297422   0.055785   0.004520  -0.000400  -0.000005  -0.000001
     7  O    8.387125  -0.039041  -0.008180   0.000013  -0.000003   0.000000
     8  C   -0.039041   5.713729  -0.060030  -0.009860  -0.000424   0.000029
     9  C   -0.008180  -0.060030   5.205730   0.331376  -0.032563   0.000282
    10  C    0.000013  -0.009860   0.331376   5.174404   0.348378  -0.050547
    11  C   -0.000003  -0.000424  -0.032563   0.348378   4.717022   0.538759
    12  C    0.000000   0.000029   0.000282  -0.050547   0.538759   4.973256
    13  C    0.000000   0.000001  -0.000177   0.006871  -0.022778   0.517464
    14  C    0.000000   0.000000   0.000004   0.000358  -0.035450  -0.035334
    15  C    0.000000   0.000000   0.000187   0.005925  -0.018477  -0.045094
    16  C    0.000000   0.000014  -0.003964  -0.066550   0.532236  -0.047555
    17  N    0.000000  -0.000140  -0.000118   0.000000   0.000014  -0.000019
    18  C    0.000000   0.000005  -0.000007   0.000002  -0.000017   0.000111
    19  C    0.000000   0.000006   0.000002   0.000000   0.000000   0.000000
    20  O    0.000000   0.001079  -0.000128   0.000007  -0.000114   0.000123
    21  H    0.000002   0.001325  -0.010792  -0.000591   0.023604   0.008569
    22  H    0.000056   0.010480  -0.006532   0.000167  -0.000005   0.000000
    23  H    0.001203   0.003002   0.004208  -0.000111   0.000000   0.000000
    24  H    0.000336   0.345785  -0.007356   0.001446   0.000177  -0.000052
    25  H    0.001180   0.324449   0.004517  -0.000016  -0.000008  -0.000009
    26  H    0.000264   0.006400   0.353084  -0.039722  -0.008480   0.000166
    27  H    0.027288  -0.006570   0.345056  -0.023086   0.003305  -0.000108
    28  H   -0.000003   0.000114  -0.034023   0.365624  -0.031907   0.001297
    29  H    0.000084   0.003663  -0.039720   0.362105  -0.037840  -0.004575
    30  H    0.000000   0.000046   0.000152  -0.010740  -0.043364   0.356477
    31  H    0.000000   0.000000   0.000002  -0.000172   0.003822  -0.038107
    32  H    0.000000   0.000000   0.000000   0.000007   0.000694   0.004643
    33  H    0.000000   0.000000   0.000002  -0.000175   0.003652   0.000781
    34  H    0.000000   0.000000   0.000930  -0.008394  -0.047484   0.005995
    35  H    0.000000   0.000000   0.000000   0.000000   0.000000   0.000093
    36  H    0.000000   0.000000   0.000000   0.000000   0.000000   0.000001
    37  H    0.000000   0.000005   0.000027  -0.000005  -0.000197  -0.000285
    38  H    0.000000  -0.000002  -0.000002   0.000000   0.000000   0.000000
    39  H    0.000000   0.000014   0.000035  -0.000001  -0.000003   0.000000
    40  H    0.000000   0.000000   0.000000   0.000000   0.000000   0.000000
              13         14         15         16         17         18
     1  O    0.000000   0.000000   0.000000   0.000000  -0.051111   0.001406
     2  S    0.000102   0.000019  -0.000024  -0.000131   0.157166  -0.009832
     3  N   -0.000148   0.000099  -0.000005  -0.001141  -0.056157  -0.000618
     4  C   -0.000003   0.000001  -0.000026  -0.000978   0.002439   0.000002
     5  C    0.000000   0.000000   0.000000  -0.000022  -0.000023   0.000000
     6  S    0.000000   0.000000   0.000000   0.000004  -0.000002   0.000000
     7  O    0.000000   0.000000   0.000000   0.000000   0.000000   0.000000
     8  C    0.000001   0.000000   0.000000   0.000014  -0.000140   0.000005
     9  C   -0.000177   0.000004   0.000187  -0.003964  -0.000118  -0.000007
    10  C    0.006871   0.000358   0.005925  -0.066550   0.000000   0.000002
    11  C   -0.022778  -0.035450  -0.018477   0.532236   0.000014  -0.000017
    12  C    0.517464  -0.035334  -0.045094  -0.047555  -0.000019   0.000111
    13  C    4.868640   0.549204  -0.026962  -0.045867   0.000001   0.000027
    14  C    0.549204   4.862752   0.543880  -0.035770   0.000004  -0.000343
    15  C   -0.026962   0.543880   4.866190   0.527335   0.000006  -0.000379
    16  C   -0.045867  -0.035770   0.527335   4.980330   0.000000  -0.000123
    17  N    0.000001   0.000004   0.000006   0.000000   7.178606   0.276341
    18  C    0.000027  -0.000343  -0.000379  -0.000123   0.276341   5.019591
    19  C    0.000000   0.000000  -0.000001  -0.000005   0.277858  -0.052691
    20  O   -0.000023   0.000000   0.000000   0.000004  -0.054801  -0.007571
    21  H   -0.000114  -0.000482  -0.000608   0.003489  -0.001141   0.001215
    22  H    0.000000   0.000000   0.000000  -0.000003   0.000003   0.000000
    23  H    0.000000   0.000000   0.000000   0.000001  -0.000159  -0.000001
    24  H   -0.000001   0.000000   0.000000   0.000002   0.000002   0.000000
    25  H    0.000000   0.000000   0.000000   0.000000   0.000032  -0.000001
    26  H    0.000005  -0.000002  -0.000073   0.003933  -0.000010   0.000000
    27  H    0.000002   0.000000   0.000001   0.000182   0.000001   0.000000
    28  H   -0.000229   0.000033  -0.000021  -0.005014   0.000000   0.000000
    29  H    0.000258  -0.000002  -0.000165   0.004982   0.000000   0.000000
    30  H   -0.043880   0.004742   0.000307   0.006374   0.000000  -0.000001
    31  H    0.358865  -0.043130   0.004570   0.000755   0.000000  -0.000004
    32  H   -0.042511   0.360446  -0.042842   0.004687   0.000000  -0.000001
    33  H    0.004575  -0.042643   0.358620  -0.039926   0.000000  -0.000002
    34  H    0.000325   0.004759  -0.043535   0.356630   0.000000   0.000000
    35  H    0.000265   0.000036  -0.000011  -0.000010  -0.031346   0.374937
    36  H    0.000005   0.000012   0.000002   0.000000  -0.036342   0.374133
    37  H    0.000152   0.001665   0.001940   0.000586  -0.047126   0.364685
    38  H    0.000000   0.000000   0.000000   0.000000  -0.032155   0.004596
    39  H    0.000000  -0.000001   0.000001   0.000026  -0.047592  -0.001823
    40  H    0.000000   0.000000   0.000000   0.000000  -0.035291  -0.003875
              19         20         21         22         23         24
     1  O   -0.006808  -0.043728   0.001534   0.000251   0.014873   0.000125
     2  S   -0.011576   0.445334  -0.005341   0.000313   0.001254   0.000053
     3  N   -0.000092  -0.056763   0.266743   0.001614  -0.004410   0.001984
     4  C   -0.000132  -0.002824  -0.028221  -0.030991  -0.023976  -0.027833
     5  C   -0.000012  -0.000094   0.004258   0.350119   0.322329   0.010747
     6  S    0.000002   0.000009  -0.000297  -0.018532  -0.005250  -0.018341
     7  O    0.000000   0.000000   0.000002   0.000056   0.001203   0.000336
     8  C    0.000006   0.001079   0.001325   0.010480   0.003002   0.345785
     9  C    0.000002  -0.000128  -0.010792  -0.006532   0.004208  -0.007356
    10  C    0.000000   0.000007  -0.000591   0.000167  -0.000111   0.001446
    11  C    0.000000  -0.000114   0.023604  -0.000005   0.000000   0.000177
    12  C    0.000000   0.000123   0.008569   0.000000   0.000000  -0.000052
    13  C    0.000000  -0.000023  -0.000114   0.000000   0.000000  -0.000001
    14  C    0.000000   0.000000  -0.000482   0.000000   0.000000   0.000000
    15  C   -0.000001   0.000000  -0.000608   0.000000   0.000000   0.000000
    16  C   -0.000005   0.000004   0.003489  -0.000003   0.000001   0.000002
    17  N    0.277858  -0.054801  -0.001141   0.000003  -0.000159   0.000002
    18  C   -0.052691  -0.007571   0.001215   0.000000  -0.000001   0.000000
    19  C    4.999319   0.001643   0.000125   0.000000  -0.000014   0.000000
    20  O    0.001643   8.243563   0.001924   0.000001   0.000021  -0.000095
    21  H    0.000125   0.001924   0.366880  -0.000040   0.000070   0.000215
    22  H    0.000000   0.000001  -0.000040   0.519331  -0.018688  -0.000352
    23  H   -0.000014   0.000021   0.000070  -0.018688   0.481855  -0.000298
    24  H    0.000000  -0.000095   0.000215  -0.000352  -0.000298   0.512926
    25  H    0.000000   0.001113  -0.000026  -0.000310  -0.000010  -0.019192
    26  H   -0.000002   0.000002   0.000254   0.004418   0.000007   0.000088
    27  H    0.000000   0.000001   0.000377   0.000421   0.000235  -0.000185
    28  H    0.000000   0.000000   0.000213  -0.000015   0.000002  -0.000221
    29  H    0.000000  -0.000008   0.000072   0.000013  -0.000001   0.007034
    30  H    0.000000   0.000100  -0.000011   0.000000   0.000000   0.000057
    31  H    0.000000  -0.000001   0.000013   0.000000   0.000000   0.000000
    32  H    0.000000   0.000000  -0.000001   0.000000   0.000000   0.000000
    33  H    0.000000   0.000000   0.000002   0.000000   0.000000   0.000000
    34  H    0.000000   0.000000   0.000053  -0.000001   0.000000   0.000000
    35  H    0.004480   0.011028   0.000053   0.000000   0.000000   0.000000
    36  H   -0.003231   0.000146  -0.000050   0.000000   0.000000   0.000000
    37  H   -0.002187   0.000039   0.001702   0.000000   0.000002   0.000000
    38  H    0.375866   0.000024  -0.000013  -0.000008   0.000308   0.000000
    39  H    0.367761  -0.000023   0.000201   0.000009   0.000085   0.000000
    40  H    0.374562  -0.000047  -0.000017   0.000000  -0.000001   0.000000
              25         26         27         28         29         30
     1  O    0.005297  -0.000003   0.000001   0.000000   0.000000   0.000000
     2  S    0.008660  -0.000006   0.000050   0.000009  -0.000008   0.000110
     3  N   -0.008636  -0.002797   0.002996  -0.000043  -0.000323   0.000030
     4  C   -0.023598  -0.033888  -0.033202   0.004458  -0.007674  -0.000036
     5  C    0.002537  -0.006397  -0.009653  -0.000153   0.000095   0.000001
     6  S   -0.005564  -0.000182   0.006632   0.000028  -0.000017   0.000002
     7  O    0.001180   0.000264   0.027288  -0.000003   0.000084   0.000000
     8  C    0.324449   0.006400  -0.006570   0.000114   0.003663   0.000046
     9  C    0.004517   0.353084   0.345056  -0.034023  -0.039720   0.000152
    10  C   -0.000016  -0.039722  -0.023086   0.365624   0.362105  -0.010740
    11  C   -0.000008  -0.008480   0.003305  -0.031907  -0.037840  -0.043364
    12  C   -0.000009   0.000166  -0.000108   0.001297  -0.004575   0.356477
    13  C    0.000000   0.000005   0.000002  -0.000229   0.000258  -0.043880
    14  C    0.000000  -0.000002   0.000000   0.000033  -0.000002   0.004742
    15  C    0.000000  -0.000073   0.000001  -0.000021  -0.000165   0.000307
    16  C    0.000000   0.003933   0.000182  -0.005014   0.004982   0.006374
    17  N    0.000032  -0.000010   0.000001   0.000000   0.000000   0.000000
    18  C   -0.000001   0.000000   0.000000   0.000000   0.000000  -0.000001
    19  C    0.000000  -0.000002   0.000000   0.000000   0.000000   0.000000
    20  O    0.001113   0.000002   0.000001   0.000000  -0.000008   0.000100
    21  H   -0.000026   0.000254   0.000377   0.000213   0.000072  -0.000011
    22  H   -0.000310   0.004418   0.000421  -0.000015   0.000013   0.000000
    23  H   -0.000010   0.000007   0.000235   0.000002  -0.000001   0.000000
    24  H   -0.019192   0.000088  -0.000185  -0.000221   0.007034   0.000057
    25  H    0.488625  -0.000129   0.000107   0.000002  -0.000194   0.000001
    26  H   -0.000129   0.587876  -0.023528  -0.001110   0.005124   0.000008
    27  H    0.000107  -0.023528   0.517708  -0.005677  -0.000694  -0.000008
    28  H    0.000002  -0.001110  -0.005677   0.565270  -0.031266   0.000116
    29  H   -0.000194   0.005124  -0.000694  -0.031266   0.578373   0.007517
    30  H    0.000001   0.000008  -0.000008   0.000116   0.007517   0.586858
    31  H    0.000000   0.000000   0.000000   0.000003  -0.000009  -0.005393
    32  H    0.000000   0.000000   0.000000   0.000000   0.000000  -0.000171
    33  H    0.000000   0.000006   0.000000  -0.000001   0.000003   0.000017
    34  H    0.000000   0.004026  -0.000136   0.001710   0.000032  -0.000173
    35  H    0.000000   0.000000   0.000000   0.000000   0.000000  -0.000001
    36  H    0.000000   0.000000   0.000000   0.000000   0.000000   0.000000
    37  H    0.000001   0.000011   0.000000   0.000000   0.000000  -0.000001
    38  H   -0.000003  -0.000001   0.000000   0.000000   0.000000   0.000000
    39  H    0.000001   0.000062   0.000000   0.000000   0.000000   0.000000
    40  H    0.000000   0.000000   0.000000   0.000000   0.000000   0.000000
              31         32         33         34         35         36
     1  O    0.000000   0.000000   0.000000   0.000000   0.000050  -0.000043
     2  S   -0.000003   0.000000   0.000000   0.000000   0.000200   0.002259
     3  N   -0.000003   0.000000  -0.000002  -0.000026  -0.000335  -0.000092
     4  C    0.000000   0.000000   0.000000   0.000155   0.000003   0.000004
     5  C    0.000000   0.000000   0.000000   0.000000   0.000000   0.000000
     6  S    0.000000   0.000000   0.000000   0.000000   0.000000   0.000000
     7  O    0.000000   0.000000   0.000000   0.000000   0.000000   0.000000
     8  C    0.000000   0.000000   0.000000   0.000000   0.000000   0.000000
     9  C    0.000002   0.000000   0.000002   0.000930   0.000000   0.000000
    10  C   -0.000172   0.000007  -0.000175  -0.008394   0.000000   0.000000
    11  C    0.003822   0.000694   0.003652  -0.047484   0.000000   0.000000
    12  C   -0.038107   0.004643   0.000781   0.005995   0.000093   0.000001
    13  C    0.358865  -0.042511   0.004575   0.000325   0.000265   0.000005
    14  C   -0.043130   0.360446  -0.042643   0.004759   0.000036   0.000012
    15  C    0.004570  -0.042842   0.358620  -0.043535  -0.000011   0.000002
    16  C    0.000755   0.004687  -0.039926   0.356630  -0.000010   0.000000
    17  N    0.000000   0.000000   0.000000   0.000000  -0.031346  -0.036342
    18  C   -0.000004  -0.000001  -0.000002   0.000000   0.374937   0.374133
    19  C    0.000000   0.000000   0.000000   0.000000   0.004480  -0.003231
    20  O   -0.000001   0.000000   0.000000   0.000000   0.011028   0.000146
    21  H    0.000013  -0.000001   0.000002   0.000053   0.000053  -0.000050
    22  H    0.000000   0.000000   0.000000  -0.000001   0.000000   0.000000
    23  H    0.000000   0.000000   0.000000   0.000000   0.000000   0.000000
    24  H    0.000000   0.000000   0.000000   0.000000   0.000000   0.000000
    25  H    0.000000   0.000000   0.000000   0.000000   0.000000   0.000000
    26  H    0.000000   0.000000   0.000006   0.004026   0.000000   0.000000
    27  H    0.000000   0.000000   0.000000  -0.000136   0.000000   0.000000
    28  H    0.000003   0.000000  -0.000001   0.001710   0.000000   0.000000
    29  H   -0.000009   0.000000   0.000003   0.000032   0.000000   0.000000
    30  H   -0.005393  -0.000171   0.000017  -0.000173  -0.000001   0.000000
    31  H    0.583714  -0.005457  -0.000181   0.000017   0.000020   0.000000
    32  H   -0.005457   0.590147  -0.005407  -0.000177   0.000000   0.000000
    33  H   -0.000181  -0.005407   0.590006  -0.005476   0.000000   0.000000
    34  H    0.000017  -0.000177  -0.005476   0.596847   0.000000   0.000000
    35  H    0.000020   0.000000   0.000000   0.000000   0.482730  -0.020168
    36  H    0.000000   0.000000   0.000000   0.000000  -0.020168   0.547462
    37  H   -0.000002   0.000008   0.000011  -0.000002  -0.030308  -0.039664
    38  H    0.000000   0.000000   0.000000   0.000000  -0.000192  -0.000019
    39  H    0.000000   0.000000   0.000000   0.000000  -0.000160  -0.001675
    40  H    0.000000   0.000000   0.000000   0.000000  -0.000018   0.005478
              37         38         39         40
     1  O   -0.000061   0.011122  -0.000291   0.000080
     2  S   -0.009571   0.000789  -0.008783   0.002260
     3  N    0.003625  -0.001273   0.008393   0.000055
     4  C   -0.000111  -0.000052  -0.000361   0.000006
     5  C   -0.000003   0.000074   0.000014  -0.000001
     6  S    0.000000  -0.000001   0.000005   0.000000
     7  O    0.000000   0.000000   0.000000   0.000000
     8  C    0.000005  -0.000002   0.000014   0.000000
     9  C    0.000027  -0.000002   0.000035   0.000000
    10  C   -0.000005   0.000000  -0.000001   0.000000
    11  C   -0.000197   0.000000  -0.000003   0.000000
    12  C   -0.000285   0.000000   0.000000   0.000000
    13  C    0.000152   0.000000   0.000000   0.000000
    14  C    0.001665   0.000000  -0.000001   0.000000
    15  C    0.001940   0.000000   0.000001   0.000000
    16  C    0.000586   0.000000   0.000026   0.000000
    17  N   -0.047126  -0.032155  -0.047592  -0.035291
    18  C    0.364685   0.004596  -0.001823  -0.003875
    19  C   -0.002187   0.375866   0.367761   0.374562
    20  O    0.000039   0.000024  -0.000023  -0.000047
    21  H    0.001702  -0.000013   0.000201  -0.000017
    22  H    0.000000  -0.000008   0.000009   0.000000
    23  H    0.000002   0.000308   0.000085  -0.000001
    24  H    0.000000   0.000000   0.000000   0.000000
    25  H    0.000001  -0.000003   0.000001   0.000000
    26  H    0.000011  -0.000001   0.000062   0.000000
    27  H    0.000000   0.000000   0.000000   0.000000
    28  H    0.000000   0.000000   0.000000   0.000000
    29  H    0.000000   0.000000   0.000000   0.000000
    30  H   -0.000001   0.000000   0.000000   0.000000
    31  H   -0.000002   0.000000   0.000000   0.000000
    32  H    0.000008   0.000000   0.000000   0.000000
    33  H    0.000011   0.000000   0.000000   0.000000
    34  H   -0.000002   0.000000   0.000000   0.000000
    35  H   -0.030308  -0.000192  -0.000160  -0.000018
    36  H   -0.039664  -0.000019  -0.001675   0.005478
    37  H    0.590978  -0.000179   0.008947  -0.001450
    38  H   -0.000179   0.493233  -0.030396  -0.021811
    39  H    0.008947  -0.030396   0.586596  -0.038449
    40  H   -0.001450  -0.021811  -0.038449   0.549612
 Mulliken charges:
               1
     1  O   -0.576492
     2  S    1.345305
     3  N   -0.742954
     4  C    0.222644
     5  C   -0.480084
     6  S    0.750454
     7  O   -0.627479
     8  C   -0.492905
     9  C   -0.321743
    10  C   -0.356082
    11  C    0.117346
    12  C   -0.185229
    13  C   -0.124069
    14  C   -0.134859
    15  C   -0.130739
    16  C   -0.174510
    17  N   -0.498939
    18  C   -0.339760
    19  C   -0.324871
    20  O   -0.539943
    21  H    0.364851
    22  H    0.188280
    23  H    0.223465
    24  H    0.192949
    25  H    0.221172
    26  H    0.150597
    27  H    0.198485
    28  H    0.170806
    29  H    0.153142
    30  H    0.140866
    31  H    0.140682
    32  H    0.135937
    33  H    0.136139
    34  H    0.133925
    35  H    0.208656
    36  H    0.171783
    37  H    0.156767
    38  H    0.200094
    39  H    0.157409
    40  H    0.168905
 Sum of Mulliken charges =   0.00000
 Mulliken charges with hydrogens summed into heavy atoms:
               1
     1  O   -0.576492
     2  S    1.345305
     3  N   -0.378103
     4  C    0.222644
     5  C   -0.068340
     6  S    0.750454
     7  O   -0.627479
     8  C   -0.078784
     9  C    0.027338
    10  C   -0.032134
    11  C    0.117346
    12  C   -0.044363
    13  C    0.016613
    14  C    0.001078
    15  C    0.005400
    16  C   -0.040585
    17  N   -0.498939
    18  C    0.197445
    19  C    0.201538
    20  O   -0.539943
 Electronic spatial extent (au):  <R**2>=           6514.9280
 Charge=              0.0000 electrons
 Dipole moment (field-independent basis, Debye):
    X=             -5.8533    Y=              0.4378    Z=              2.8018  Tot=              6.5041
 Quadrupole moment (field-independent basis, Debye-Ang):
   XX=           -140.4160   YY=           -141.5773   ZZ=           -128.6350
   XY=              3.9350   XZ=             -1.7785   YZ=              9.8355
 Traceless Quadrupole moment (field-independent basis, Debye-Ang):
   XX=             -3.5399   YY=             -4.7012   ZZ=              8.2411
   XY=              3.9350   XZ=             -1.7785   YZ=              9.8355
 Octapole moment (field-independent basis, Debye-Ang**2):
  XXX=            -96.4437  YYY=             42.0064  ZZZ=              6.3364  XYY=            -38.8682
  XXY=             74.1909  XXZ=             -4.9371  XZZ=              7.4670  YZZ=             -5.7895
  YYZ=             23.8038  XYZ=              7.2332
 Hexadecapole moment (field-independent basis, Debye-Ang**3):
 XXXX=          -4814.4357 YYYY=          -3070.7750 ZZZZ=           -831.4633 XXXY=            158.2887
 XXXZ=            -12.3772 YYYX=            -70.8508 YYYZ=             65.0833 ZZZX=             -0.3298
 ZZZY=             14.8448 XXYY=          -1477.7852 XXZZ=           -851.8393 YYZZ=           -624.6825
 XXYZ=             15.3254 YYXZ=            -23.8272 ZZXY=             -2.5927
 N-N= 2.047492690093D+03 E-N=-7.945015088089D+03  KE= 1.628102716510D+03
 No NMR shielding tensors so no spin-rotation constants.
 Leave Link  601 at Sat Aug  8 02:42:26 2020, MaxMem=    33554432 cpu:         0.3
 (Enter /prod/apps/gaussian/g09d1/l9999.exe)
 1\1\GINC-PIRINEUS7\SP\RB3LYP\6-31G(d)\C13H20N2O3S2\UBAFAR01\08-Aug-202
 0\0\\#p b3lyp/6-31G(d)\\SM37.n.14.pdb.xyz\\0,1\O,0,3.777,-1.675,1.516\
 S,0,4.474,-0.843,0.529\N,0,3.467,-0.747,-0.817\C,0,2.707,-1.911,-1.312
 \C,0,1.52,-2.311,-0.406\S,0,1.784,-4.129,-0.746\O,0,0.978,-4.544,-1.97
 5\C,0,3.377,-3.31,-1.281\C,0,2.181,-1.577,-2.721\C,0,3.221,-1.429,-3.8
 49\C,0,4.006,-0.131,-3.88\C,0,5.408,-0.14,-3.865\C,0,6.137,1.051,-3.92
 4\C,0,5.471,2.275,-3.999\C,0,4.074,2.3,-4.015\C,0,3.351,1.108,-3.958\N
 ,0,4.542,0.713,1.133\C,0,5.343,1.673,0.357\C,0,3.26,1.253,1.614\O,0,5.
 845,-1.203,0.141\H,0,3.976,-0.264,-1.563\H,0,0.53,-1.957,-0.696\H,0,1.
 713,-2.137,0.651\H,0,3.771,-3.705,-2.218\H,0,4.103,-3.443,-0.479\H,0,1
 .569,-0.671,-2.65\H,0,1.506,-2.397,-2.983\H,0,2.673,-1.525,-4.794\H,0,
 3.922,-2.27,-3.821\H,0,5.929,-1.091,-3.807\H,0,7.221,1.019,-3.912\H,0,
 6.034,3.201,-4.046\H,0,3.547,3.247,-4.078\H,0,2.265,1.138,-3.975\H,0,6
 .279,1.207,0.055\H,0,5.565,2.518,1.011\H,0,4.811,2.044,-0.528\H,0,2.75
 5,0.499,2.216\H,0,2.609,1.566,0.789\H,0,3.485,2.117,2.243\\Version=AM6
 4L-G09RevD.01\State=1-A\HF=-1638.8344245\RMSD=3.905e-09\Dipole=0.23801
 1,2.4817626,-0.5763363\Quadrupole=-1.3356145,1.8608685,-0.525254,-6.14
 71168,-6.9383249,1.8525996\PG=C01 [X(C13H20N2O3S2)]\\@


 KNOWLEDGE IS EXPERIMENT'S DAUGHTER.
 -- LEONARDO DA VINCI, IN "PENSIERI" CA. 1492
 Job cpu time:       0 days  0 hours  6 minutes 56.3 seconds.
 File lengths (MBytes):  RWF=     67 Int=      0 D2E=      0 Chk=      5 Scr=      1
 Normal termination of Gaussian 09 at Sat Aug  8 02:42:26 2020.
 Initial command:
 /prod/apps/gaussian/g09d1/l1.exe "/tmp/ubafar01/1449172/Gau-196054.inp" -scrdir="/tmp/ubafar01/1449172/"
 Entering Link 1 = /prod/apps/gaussian/g09d1/l1.exe PID=    197599.
  
 Copyright (c) 1988,1990,1992,1993,1995,1998,2003,2009,2013,
            Gaussian, Inc.  All Rights Reserved.
  
 This is part of the Gaussian(R) 09 program.  It is based on
 the Gaussian(R) 03 system (copyright 2003, Gaussian, Inc.),
 the Gaussian(R) 98 system (copyright 1998, Gaussian, Inc.),
 the Gaussian(R) 94 system (copyright 1995, Gaussian, Inc.),
 the Gaussian 92(TM) system (copyright 1992, Gaussian, Inc.),
 the Gaussian 90(TM) system (copyright 1990, Gaussian, Inc.),
 the Gaussian 88(TM) system (copyright 1988, Gaussian, Inc.),
 the Gaussian 86(TM) system (copyright 1986, Carnegie Mellon
 University), and the Gaussian 82(TM) system (copyright 1983,
 Carnegie Mellon University). Gaussian is a federally registered
 trademark of Gaussian, Inc.
  
 This software contains proprietary and confidential information,
 including trade secrets, belonging to Gaussian, Inc.
  
 This software is provided under written license and may be
 used, copied, transmitted, or stored only in accord with that
 written license.
  
 The following legend is applicable only to US Government
 contracts under FAR:
  
                    RESTRICTED RIGHTS LEGEND
  
 Use, reproduction and disclosure by the US Government is
 subject to restrictions as set forth in subparagraphs (a)
 and (c) of the Commercial Computer Software - Restricted
 Rights clause in FAR 52.227-19.
  
 Gaussian, Inc.
 340 Quinnipiac St., Bldg. 40, Wallingford CT 06492
  
  
 ---------------------------------------------------------------
 Warning -- This program may not be used in any manner that
 competes with the business of Gaussian, Inc. or will provide
 assistance to any competitor of Gaussian, Inc.  The licensee
 of this program is prohibited from giving any competitor of
 Gaussian, Inc. access to this program.  By using this program,
 the user acknowledges that Gaussian, Inc. is engaged in the
 business of creating and licensing software in the field of
 computational chemistry and represents and warrants to the
[...]
    38  H    0.000000  -0.000002  -0.000002   0.000000   0.000000   0.000000
    39  H    0.000000   0.000013   0.000036  -0.000001  -0.000003   0.000000
    40  H    0.000000   0.000000   0.000000   0.000000   0.000000   0.000000
              13         14         15         16         17         18
     1  O    0.000000   0.000000   0.000000   0.000000  -0.051719   0.001309
     2  S    0.000113   0.000021  -0.000025  -0.000144   0.178803  -0.012266
     3  N   -0.000149   0.000101   0.000004  -0.001173  -0.058743  -0.000495
     4  C   -0.000004   0.000002  -0.000027  -0.000975   0.002379  -0.000001
     5  C    0.000000   0.000000   0.000000  -0.000022  -0.000026  -0.000001
     6  S    0.000000   0.000000   0.000000   0.000003  -0.000001   0.000000
     7  O    0.000000   0.000000   0.000000   0.000000   0.000000   0.000000
     8  C    0.000001   0.000000   0.000000   0.000013  -0.000139   0.000005
     9  C   -0.000182   0.000005   0.000175  -0.003934  -0.000119  -0.000005
    10  C    0.006882   0.000304   0.005873  -0.067019   0.000000   0.000002
    11  C   -0.024468  -0.035238  -0.020342   0.530143   0.000013  -0.000024
    12  C    0.513454  -0.036787  -0.045070  -0.048012  -0.000019   0.000107
    13  C    4.889095   0.545937  -0.028583  -0.045754   0.000000   0.000022
    14  C    0.545937   4.879170   0.540282  -0.037220   0.000004  -0.000335
    15  C   -0.028583   0.540282   4.881634   0.525021   0.000006  -0.000371
    16  C   -0.045754  -0.037220   0.525021   4.994183   0.000000  -0.000121
    17  N    0.000000   0.000004   0.000006   0.000000   7.195024   0.266745
    18  C    0.000022  -0.000335  -0.000371  -0.000121   0.266745   5.023407
    19  C    0.000000   0.000000  -0.000001  -0.000005   0.268472  -0.050634
    20  O   -0.000023   0.000000   0.000000   0.000003  -0.055890  -0.007491
    21  H   -0.000103  -0.000520  -0.000629   0.003669  -0.001355   0.001437
    22  H    0.000000   0.000000   0.000000  -0.000003   0.000003   0.000000
    23  H    0.000000   0.000000   0.000000   0.000001  -0.000162  -0.000001
    24  H   -0.000001   0.000000   0.000000   0.000002   0.000002   0.000000
    25  H    0.000000   0.000000   0.000000   0.000000   0.000031   0.000000
    26  H    0.000006  -0.000002  -0.000070   0.004131  -0.000010   0.000000
    27  H    0.000002   0.000000   0.000002   0.000195   0.000001   0.000000
    28  H   -0.000226   0.000035  -0.000021  -0.004902   0.000000   0.000000
    29  H    0.000272  -0.000003  -0.000159   0.004867   0.000000   0.000000
    30  H   -0.043533   0.004688   0.000244   0.006250   0.000000  -0.000001
    31  H    0.361519  -0.041848   0.004513   0.000684   0.000000  -0.000004
    32  H   -0.041809   0.363533  -0.041631   0.004621   0.000000  -0.000001
    33  H    0.004497  -0.041551   0.361891  -0.038910   0.000000  -0.000002
    34  H    0.000274   0.004644  -0.041504   0.360189   0.000000   0.000000
    35  H    0.000272   0.000036  -0.000011  -0.000010  -0.032770   0.374112
    36  H    0.000005   0.000012   0.000002   0.000000  -0.034711   0.378101
    37  H    0.000156   0.001643   0.001915   0.000583  -0.046094   0.368705
    38  H    0.000000   0.000000   0.000000   0.000000  -0.033292   0.004476
    39  H    0.000000  -0.000001   0.000002   0.000024  -0.046409  -0.001509
    40  H    0.000000   0.000000   0.000000   0.000000  -0.033730  -0.003738
              19         20         21         22         23         24
     1  O   -0.006734  -0.042954   0.001436   0.000228   0.013890   0.000118
     2  S   -0.013964   0.441069  -0.006159   0.000273   0.001279   0.000042
     3  N    0.000140  -0.057378   0.267522   0.001489  -0.004380   0.001872
     4  C   -0.000174  -0.002657  -0.027830  -0.030656  -0.025110  -0.027840
     5  C   -0.000005  -0.000098   0.004073   0.353649   0.326587   0.010150
     6  S    0.000002   0.000006  -0.000343  -0.018230  -0.006947  -0.017577
     7  O    0.000000   0.000000   0.000002  -0.000066   0.001194   0.000203
     8  C    0.000006   0.000915   0.001326   0.009930   0.003079   0.348713
     9  C    0.000003  -0.000125  -0.010694  -0.005800   0.004140  -0.006807
    10  C    0.000000   0.000008  -0.000538   0.000157  -0.000110   0.001945
    11  C   -0.000001  -0.000110   0.024912  -0.000005   0.000000   0.000140
    12  C    0.000000   0.000112   0.009313   0.000000   0.000000  -0.000044
    13  C    0.000000  -0.000023  -0.000103   0.000000   0.000000  -0.000001
    14  C    0.000000   0.000000  -0.000520   0.000000   0.000000   0.000000
    15  C   -0.000001   0.000000  -0.000629   0.000000   0.000000   0.000000
    16  C   -0.000005   0.000003   0.003669  -0.000003   0.000001   0.000002
    17  N    0.268472  -0.055890  -0.001355   0.000003  -0.000162   0.000002
    18  C   -0.050634  -0.007491   0.001437   0.000000  -0.000001   0.000000
    19  C    5.003900   0.001533   0.000143  -0.000001  -0.000006   0.000000
    20  O    0.001533   8.279110   0.001724   0.000001   0.000017  -0.000092
    21  H    0.000143   0.001724   0.358158  -0.000037   0.000063   0.000202
    22  H   -0.000001   0.000001  -0.000037   0.492178  -0.016285  -0.000324
    23  H   -0.000006   0.000017   0.000063  -0.016285   0.475009  -0.000279
    24  H    0.000000  -0.000092   0.000202  -0.000324  -0.000279   0.485697
    25  H    0.000000   0.001131  -0.000020  -0.000290  -0.000040  -0.017135
    26  H   -0.000001   0.000002   0.000217   0.004062   0.000006   0.000093
    27  H    0.000000   0.000001   0.000385   0.000395   0.000226  -0.000213
    28  H    0.000000   0.000000   0.000209  -0.000014   0.000002  -0.000225
    29  H    0.000000  -0.000008   0.000041   0.000013  -0.000001   0.006638
    30  H    0.000000   0.000095  -0.000010   0.000000   0.000000   0.000054
    31  H    0.000000  -0.000001   0.000013   0.000000   0.000000   0.000000
    32  H    0.000000   0.000000  -0.000001   0.000000   0.000000   0.000000
    33  H    0.000000   0.000000   0.000003   0.000000   0.000000   0.000000
    34  H    0.000000   0.000000   0.000046  -0.000001   0.000000   0.000000
    35  H    0.004378   0.010270   0.000015   0.000000   0.000000   0.000000
    36  H   -0.003077   0.000128  -0.000053   0.000000   0.000000   0.000000
    37  H   -0.001724   0.000017   0.001794   0.000000   0.000002   0.000000
    38  H    0.375170   0.000025  -0.000010  -0.000008   0.000270   0.000000
    39  H    0.373140  -0.000026   0.000226   0.000007   0.000087   0.000000
    40  H    0.377898  -0.000045  -0.000017   0.000000  -0.000001   0.000000
              25         26         27         28         29         30
     1  O    0.005041  -0.000003   0.000001   0.000000   0.000000   0.000000
     2  S    0.009665  -0.000032   0.000040   0.000010  -0.000012   0.000113
     3  N   -0.008818  -0.002899   0.003164  -0.000042  -0.000306   0.000027
     4  C   -0.025376  -0.033720  -0.034751   0.004482  -0.007652  -0.000032
     5  C    0.002632  -0.006050  -0.009650  -0.000150   0.000085   0.000001
     6  S   -0.007121  -0.000347   0.006048   0.000029  -0.000059   0.000001
     7  O    0.001177   0.000240   0.026163  -0.000005   0.000072   0.000000
     8  C    0.327172   0.006186  -0.006695   0.000101   0.003561   0.000041
     9  C    0.004410   0.358965   0.345750  -0.032746  -0.039844   0.000154
    10  C   -0.000023  -0.037960  -0.023934   0.366069   0.364535  -0.010377
    11  C   -0.000008  -0.007958   0.003308  -0.030328  -0.037777  -0.043343
    12  C   -0.000010   0.000170  -0.000114   0.001327  -0.004172   0.359185
    13  C    0.000000   0.000006   0.000002  -0.000226   0.000272  -0.043533
    14  C    0.000000  -0.000002   0.000000   0.000035  -0.000003   0.004688
    15  C    0.000000  -0.000070   0.000002  -0.000021  -0.000159   0.000244
    16  C    0.000000   0.004131   0.000195  -0.004902   0.004867   0.006250
    17  N    0.000031  -0.000010   0.000001   0.000000   0.000000   0.000000
    18  C    0.000000   0.000000   0.000000   0.000000   0.000000  -0.000001
    19  C    0.000000  -0.000001   0.000000   0.000000   0.000000   0.000000
    20  O    0.001131   0.000002   0.000001   0.000000  -0.000008   0.000095
    21  H   -0.000020   0.000217   0.000385   0.000209   0.000041  -0.000010
    22  H   -0.000290   0.004062   0.000395  -0.000014   0.000013   0.000000
    23  H   -0.000040   0.000006   0.000226   0.000002  -0.000001   0.000000
    24  H   -0.017135   0.000093  -0.000213  -0.000225   0.006638   0.000054
    25  H    0.487069  -0.000125   0.000096   0.000002  -0.000186   0.000001
    26  H   -0.000125   0.560625  -0.023355  -0.001148   0.004822   0.000007
    27  H    0.000096  -0.023355   0.540358  -0.005979  -0.000688  -0.000009
    28  H    0.000002  -0.001148  -0.005979   0.552659  -0.030174   0.000124
    29  H   -0.000186   0.004822  -0.000688  -0.030174   0.565448   0.007092
    30  H    0.000001   0.000007  -0.000009   0.000124   0.007092   0.573807
    31  H    0.000000   0.000000   0.000000   0.000003  -0.000009  -0.005179
    32  H    0.000000   0.000000   0.000000   0.000000   0.000000  -0.000162
    33  H    0.000000   0.000006   0.000000  -0.000001   0.000003   0.000016
    34  H    0.000000   0.003780  -0.000136   0.001620   0.000029  -0.000162
    35  H    0.000000   0.000000   0.000000   0.000000   0.000000  -0.000001
    36  H    0.000000   0.000000   0.000000   0.000000   0.000000   0.000000
    37  H    0.000001   0.000010   0.000000   0.000000   0.000000   0.000000
    38  H   -0.000002  -0.000001   0.000000   0.000000   0.000000   0.000000
    39  H    0.000001   0.000054   0.000000   0.000000   0.000000   0.000000
    40  H    0.000000   0.000000   0.000000   0.000000   0.000000   0.000000
              31         32         33         34         35         36
     1  O    0.000000   0.000000   0.000000   0.000000   0.000050  -0.000041
     2  S   -0.000003   0.000000   0.000000   0.000000   0.000068   0.002097
     3  N   -0.000002   0.000000  -0.000002  -0.000024  -0.000374  -0.000086
     4  C    0.000000   0.000000   0.000000   0.000152   0.000001   0.000003
     5  C    0.000000   0.000000   0.000000   0.000000   0.000000   0.000000
     6  S    0.000000   0.000000   0.000000   0.000000   0.000000   0.000000
     7  O    0.000000   0.000000   0.000000   0.000000   0.000000   0.000000
     8  C    0.000000   0.000000   0.000000  -0.000001   0.000000   0.000000
     9  C    0.000002   0.000000   0.000002   0.000911   0.000000   0.000000
    10  C   -0.000166   0.000007  -0.000169  -0.008078   0.000000   0.000000
    11  C    0.003782   0.000632   0.003591  -0.046834   0.000001   0.000000
    12  C   -0.038306   0.004581   0.000722   0.005819   0.000098   0.000001
    13  C    0.361519  -0.041809   0.004497   0.000274   0.000272   0.000005
    14  C   -0.041848   0.363533  -0.041551   0.004644   0.000036   0.000012
    15  C    0.004513  -0.041631   0.361891  -0.041504  -0.000011   0.000002
    16  C    0.000684   0.004621  -0.038910   0.360189  -0.000010   0.000000
    17  N    0.000000   0.000000   0.000000   0.000000  -0.032770  -0.034711
    18  C   -0.000004  -0.000001  -0.000002   0.000000   0.374112   0.378101
    19  C    0.000000   0.000000   0.000000   0.000000   0.004378  -0.003077
    20  O   -0.000001   0.000000   0.000000   0.000000   0.010270   0.000128
    21  H    0.000013  -0.000001   0.000003   0.000046   0.000015  -0.000053
    22  H    0.000000   0.000000   0.000000  -0.000001   0.000000   0.000000
    23  H    0.000000   0.000000   0.000000   0.000000   0.000000   0.000000
    24  H    0.000000   0.000000   0.000000   0.000000   0.000000   0.000000
    25  H    0.000000   0.000000   0.000000   0.000000   0.000000   0.000000
    26  H    0.000000   0.000000   0.000006   0.003780   0.000000   0.000000
    27  H    0.000000   0.000000   0.000000  -0.000136   0.000000   0.000000
    28  H    0.000003   0.000000  -0.000001   0.001620   0.000000   0.000000
    29  H   -0.000009   0.000000   0.000003   0.000029   0.000000   0.000000
    30  H   -0.005179  -0.000162   0.000016  -0.000162  -0.000001   0.000000
    31  H    0.566840  -0.005222  -0.000170   0.000016   0.000020   0.000000
    32  H   -0.005222   0.568351  -0.005133  -0.000165   0.000000   0.000000
    33  H   -0.000170  -0.005133   0.566668  -0.005160   0.000000   0.000000
    34  H    0.000016  -0.000165  -0.005160   0.572195   0.000000   0.000000
    35  H    0.000020   0.000000   0.000000   0.000000   0.493166  -0.020048
    36  H    0.000000   0.000000   0.000000   0.000000  -0.020048   0.515512
    37  H   -0.000002   0.000009   0.000012  -0.000002  -0.030083  -0.035159
    38  H    0.000000   0.000000   0.000000   0.000000  -0.000198  -0.000012
    39  H    0.000000   0.000000   0.000000   0.000001  -0.000141  -0.001495
    40  H    0.000000   0.000000   0.000000   0.000000  -0.000007   0.004937
              37         38         39         40
     1  O   -0.000063   0.010315  -0.000292   0.000071
     2  S   -0.009130   0.000690  -0.008421   0.002212
     3  N    0.003525  -0.001343   0.007913   0.000051
     4  C   -0.000097  -0.000046  -0.000340   0.000006
     5  C   -0.000003   0.000063   0.000014  -0.000001
     6  S    0.000000  -0.000001   0.000004   0.000000
     7  O    0.000000   0.000000   0.000000   0.000000
     8  C    0.000004  -0.000002   0.000013   0.000000
     9  C    0.000026  -0.000002   0.000036   0.000000
    10  C   -0.000005   0.000000  -0.000001   0.000000
    11  C   -0.000196   0.000000  -0.000003   0.000000
    12  C   -0.000282   0.000000   0.000000   0.000000
    13  C    0.000156   0.000000   0.000000   0.000000
    14  C    0.001643   0.000000  -0.000001   0.000000
    15  C    0.001915   0.000000   0.000002   0.000000
    16  C    0.000583   0.000000   0.000024   0.000000
    17  N   -0.046094  -0.033292  -0.046409  -0.033730
    18  C    0.368705   0.004476  -0.001509  -0.003738
    19  C   -0.001724   0.375170   0.373140   0.377898
    20  O    0.000017   0.000025  -0.000026  -0.000045
    21  H    0.001794  -0.000010   0.000226  -0.000017
    22  H    0.000000  -0.000008   0.000007   0.000000
    23  H    0.000002   0.000270   0.000087  -0.000001
    24  H    0.000000   0.000000   0.000000   0.000000
    25  H    0.000001  -0.000002   0.000001   0.000000
    26  H    0.000010  -0.000001   0.000054   0.000000
    27  H    0.000000   0.000000   0.000000   0.000000
    28  H    0.000000   0.000000   0.000000   0.000000
    29  H    0.000000   0.000000   0.000000   0.000000
    30  H    0.000000   0.000000   0.000000   0.000000
    31  H   -0.000002   0.000000   0.000000   0.000000
    32  H    0.000009   0.000000   0.000000   0.000000
    33  H    0.000012   0.000000   0.000000   0.000000
    34  H   -0.000002   0.000000   0.000001   0.000000
    35  H   -0.030083  -0.000198  -0.000141  -0.000007
    36  H   -0.035159  -0.000012  -0.001495   0.004937
    37  H    0.568491  -0.000158   0.008080  -0.001305
    38  H   -0.000158   0.499920  -0.029475  -0.021788
    39  H    0.008080  -0.029475   0.559363  -0.034145
    40  H   -0.001305  -0.021788  -0.034145   0.520131
 Mulliken charges:
               1
     1  O   -0.598393
     2  S    1.336939
     3  N   -0.736972
     4  C    0.215379
     5  C   -0.472792
     6  S    0.750027
     7  O   -0.689848
     8  C   -0.488585
     9  C   -0.316195
    10  C   -0.358083
    11  C    0.108438
    12  C   -0.201965
    13  C   -0.137674
    14  C   -0.146914
    15  C   -0.143117
    16  C   -0.186380
    17  N   -0.516293
    18  C   -0.341425
    19  C   -0.328461
    20  O   -0.569270
    21  H    0.371389
    22  H    0.209335
    23  H    0.227472
    24  H    0.214665
    25  H    0.220726
    26  H    0.170300
    27  H    0.179391
    28  H    0.179289
    29  H    0.163569
    30  H    0.150910
    31  H    0.153520
    32  H    0.152392
    33  H    0.153689
    34  H    0.152391
    35  H    0.201156
    36  H    0.193884
    37  H    0.169331
    38  H    0.195411
    39  H    0.173295
    40  H    0.189470
 Sum of Mulliken charges =   0.00000
 Mulliken charges with hydrogens summed into heavy atoms:
               1
     1  O   -0.598393
     2  S    1.336939
     3  N   -0.365584
     4  C    0.215379
     5  C   -0.035986
     6  S    0.750027
     7  O   -0.689848
     8  C   -0.053194
     9  C    0.033497
    10  C   -0.015225
    11  C    0.108438
    12  C   -0.051054
    13  C    0.015846
    14  C    0.005478
    15  C    0.010572
    16  C   -0.033989
    17  N   -0.516293
    18  C    0.222945
    19  C    0.229716
    20  O   -0.569270
 Electronic spatial extent (au):  <R**2>=           6516.0499
 Charge=              0.0000 electrons
 Dipole moment (field-independent basis, Debye):
    X=             -7.2583    Y=              0.7446    Z=              3.8219  Tot=              8.2367
 Quadrupole moment (field-independent basis, Debye-Ang):
   XX=           -142.2334   YY=           -142.8006   ZZ=           -127.1033
   XY=              4.8296   XZ=             -2.7801   YZ=             11.9046
 Traceless Quadrupole moment (field-independent basis, Debye-Ang):
   XX=             -4.8543   YY=             -5.4215   ZZ=             10.2758
   XY=              4.8296   XZ=             -2.7801   YZ=             11.9046
 Octapole moment (field-independent basis, Debye-Ang**2):
  XXX=           -126.2536  YYY=             46.6530  ZZZ=             12.1781  XYY=            -51.0801
  XXY=             88.7897  XXZ=             -2.3802  XZZ=              6.2233  YZZ=             -6.8116
  YYZ=             30.2445  XYZ=              7.7410
 Hexadecapole moment (field-independent basis, Debye-Ang**3):
 XXXX=          -4851.2702 YYYY=          -3065.5067 ZZZZ=           -819.7698 XXXY=            200.3666
 XXXZ=            -22.7334 YYYX=            -73.9118 YYYZ=             86.4677 ZZZX=             -3.5534
 ZZZY=             24.4705 XXYY=          -1502.9198 XXZZ=           -840.8837 YYZZ=           -616.9249
 XXYZ=             20.6762 YYXZ=            -33.3290 ZZXY=             -2.8852
 N-N= 2.047495759198D+03 E-N=-7.945298413525D+03  KE= 1.628119964403D+03
 No NMR shielding tensors so no spin-rotation constants.
 Leave Link  601 at Sat Aug  8 02:47:35 2020, MaxMem=    33554432 cpu:         0.3
 (Enter /prod/apps/gaussian/g09d1/l9999.exe)
 1\1\GINC-PIRINEUS7\SP\RB3LYP\6-31G(d)\C13H20N2O3S2\UBAFAR01\08-Aug-202
 0\0\\#p b3lyp/6-31G(d) scrf=(iefpcm,read,solvent=Water) geom=allcheck 
 guess=read\\SM37.n.14.pdb.xyz\\0,1\O,0,3.777,-1.675,1.516\S,0,4.474,-0
 .843,0.529\N,0,3.467,-0.747,-0.817\C,0,2.707,-1.911,-1.312\C,0,1.52,-2
 .311,-0.406\S,0,1.784,-4.129,-0.746\O,0,0.978,-4.544,-1.975\C,0,3.377,
 -3.31,-1.281\C,0,2.181,-1.577,-2.721\C,0,3.221,-1.429,-3.849\C,0,4.006
 ,-0.131,-3.88\C,0,5.408,-0.14,-3.865\C,0,6.137,1.051,-3.924\C,0,5.471,
 2.275,-3.999\C,0,4.074,2.3,-4.015\C,0,3.351,1.108,-3.958\N,0,4.542,0.7
 13,1.133\C,0,5.343,1.673,0.357\C,0,3.26,1.253,1.614\O,0,5.845,-1.203,0
 .141\H,0,3.976,-0.264,-1.563\H,0,0.53,-1.957,-0.696\H,0,1.713,-2.137,0
 .651\H,0,3.771,-3.705,-2.218\H,0,4.103,-3.443,-0.479\H,0,1.569,-0.671,
 -2.65\H,0,1.506,-2.397,-2.983\H,0,2.673,-1.525,-4.794\H,0,3.922,-2.27,
 -3.821\H,0,5.929,-1.091,-3.807\H,0,7.221,1.019,-3.912\H,0,6.034,3.201,
 -4.046\H,0,3.547,3.247,-4.078\H,0,2.265,1.138,-3.975\H,0,6.279,1.207,0
 .055\H,0,5.565,2.518,1.011\H,0,4.811,2.044,-0.528\H,0,2.755,0.499,2.21
 6\H,0,2.609,1.566,0.789\H,0,3.485,2.117,2.243\\Version=AM64L-G09RevD.0
 1\State=1-A\HF=-1638.8523807\RMSD=5.759e-09\Dipole=0.2000867,3.1722316
 ,-0.6311016\Quadrupole=-1.9394199,2.4433893,-0.5039694,-7.8994367,-8.1
 564719,2.3237487\PG=C01 [X(C13H20N2O3S2)]\\@


 CHEMISTRY BEGAN BY SAYING IT WOULD CHANGE THE BASER
 METALS INTO GOLD.  BY NOT DOING THAT IT HAS DONE MUCH
 GREATER THINGS.  --  RALPH WALDO EMERSON
 Job cpu time:       0 days  0 hours  5 minutes  9.0 seconds.
 File lengths (MBytes):  RWF=    254 Int=      0 D2E=      0 Chk=      7 Scr=      1
 Normal termination of Gaussian 09 at Sat Aug  8 02:47:35 2020.
