 Entering Gaussian System, Link 0=g09
 Initial command:
 /prod/apps/gaussian/g09d1/l1.exe "/tmp/ubafar01/1449177/Gau-88567.inp" -scrdir="/tmp/ubafar01/1449177/"
 Entering Link 1 = /prod/apps/gaussian/g09d1/l1.exe PID=     88569.
  
 Copyright (c) 1988,1990,1992,1993,1995,1998,2003,2009,2013,
            Gaussian, Inc.  All Rights Reserved.
  
 This is part of the Gaussian(R) 09 program.  It is based on
 the Gaussian(R) 03 system (copyright 2003, Gaussian, Inc.),
 the Gaussian(R) 98 system (copyright 1998, Gaussian, Inc.),
 the Gaussian(R) 94 system (copyright 1995, Gaussian, Inc.),
 the Gaussian 92(TM) system (copyright 1992, Gaussian, Inc.),
 the Gaussian 90(TM) system (copyright 1990, Gaussian, Inc.),
 the Gaussian 88(TM) system (copyright 1988, Gaussian, Inc.),
 the Gaussian 86(TM) system (copyright 1986, Carnegie Mellon
 University), and the Gaussian 82(TM) system (copyright 1983,
 Carnegie Mellon University). Gaussian is a federally registered
 trademark of Gaussian, Inc.
  
 This software contains proprietary and confidential information,
 including trade secrets, belonging to Gaussian, Inc.
  
 This software is provided under written license and may be
 used, copied, transmitted, or stored only in accord with that
 written license.
  
 The following legend is applicable only to US Government
 contracts under FAR:
  
                    RESTRICTED RIGHTS LEGEND
  
 Use, reproduction and disclosure by the US Government is
 subject to restrictions as set forth in subparagraphs (a)
 and (c) of the Commercial Computer Software - Restricted
 Rights clause in FAR 52.227-19.
  
 Gaussian, Inc.
 340 Quinnipiac St., Bldg. 40, Wallingford CT 06492
  
  
 ---------------------------------------------------------------
 Warning -- This program may not be used in any manner that
 competes with the business of Gaussian, Inc. or will provide
 assistance to any competitor of Gaussian, Inc.  The licensee
 of this program is prohibited from giving any competitor of
 Gaussian, Inc. access to this program.  By using this program,
 the user acknowledges that Gaussian, Inc. is engaged in the
 business of creating and licensing software in the field of
 computational chemistry and represents and warrants to the
 licensee that it is not a competitor of Gaussian, Inc. and that
 it will not use this program in any manner prohibited above.
 ---------------------------------------------------------------
  

 Cite this work as:
 Gaussian 09, Revision D.01,
 M. J. Frisch, G. W. Trucks, H. B. Schlegel, G. E. Scuseria, 
 M. A. Robb, J. R. Cheeseman, G. Scalmani, V. Barone, B. Mennucci, 
 G. A. Petersson, H. Nakatsuji, M. Caricato, X. Li, H. P. Hratchian, 
 A. F. Izmaylov, J. Bloino, G. Zheng, J. L. Sonnenberg, M. Hada, 
 M. Ehara, K. Toyota, R. Fukuda, J. Hasegawa, M. Ishida, T. Nakajima, 
 Y. Honda, O. Kitao, H. Nakai, T. Vreven, J. A. Montgomery, Jr., 
 J. E. Peralta, F. Ogliaro, M. Bearpark, J. J. Heyd, E. Brothers, 
 K. N. Kudin, V. N. Staroverov, T. Keith, R. Kobayashi, J. Normand, 
 K. Raghavachari, A. Rendell, J. C. Burant, S. S. Iyengar, J. Tomasi, 
 M. Cossi, N. Rega, J. M. Millam, M. Klene, J. E. Knox, J. B. Cross, 
 V. Bakken, C. Adamo, J. Jaramillo, R. Gomperts, R. E. Stratmann, 
 O. Yazyev, A. J. Austin, R. Cammi, C. Pomelli, J. W. Ochterski, 
 R. L. Martin, K. Morokuma, V. G. Zakrzewski, G. A. Voth, 
 P. Salvador, J. J. Dannenberg, S. Dapprich, A. D. Daniels, 
 O. Farkas, J. B. Foresman, J. V. Ortiz, J. Cioslowski, 
 and D. J. Fox, Gaussian, Inc., Wallingford CT, 2013.
 
 ******************************************
 Gaussian 09:  AM64L-G09RevD.01 24-Apr-2013
                 8-Aug-2020 
 ******************************************
 %nproc=1
 Will use up to    1 processors via shared memory.
 %Chk=SM37.n.4.pdb.xyz.mst.n.w.chk
 -----------------
 #p b3lyp/6-31G(d)
 -----------------
 1/38=1/1;
 2/12=2,17=6,18=5,40=1/2;
 3/5=1,6=6,7=1,11=2,16=1,25=1,30=1,74=-5/1,2,3;
 4//1;
 5/5=2,38=5/2;
 6/7=2,8=2,9=2,10=2,28=1/1;
 99/5=1,9=1/99;
 Leave Link    1 at Sat Aug  8 02:35:30 2020, MaxMem=           0 cpu:         0.0
 (Enter /prod/apps/gaussian/g09d1/l101.exe)
 ----------------
 SM37.n.4.pdb.xyz
 ----------------
 Symbolic Z-matrix:
 Charge =  0 Multiplicity = 1
 O                     4.206    -1.722     1.075 
 S                     4.744    -0.762     0.105 
 N                     3.592    -0.634    -1.113 
 C                     2.804    -1.792    -1.575 
 C                     1.703    -2.234    -0.587 
 S                     1.936    -4.034    -1.033 
 O                     1.044    -4.389    -2.222 
 C                     3.485    -3.185    -1.643 
 C                     2.166    -1.413    -2.923 
 C                     3.139    -1.217    -4.099 
 C                     2.4      -0.974    -5.398 
 C                     2.307     0.315    -5.938 
 C                     1.605     0.547    -7.124 
 C                     0.984    -0.511    -7.788 
 C                     1.071    -1.802    -7.26 
 C                     1.773    -2.029    -6.076 
 N                     4.781     0.736     0.843 
 C                     5.458     1.812     0.102 
 C                     3.521     1.147     1.483 
 O                     6.084    -0.987    -0.453 
 H                     3.977    -0.072    -1.875 
 H                     0.691    -1.867    -0.763 
 H                     1.998    -2.113     0.455 
 H                     3.82     -3.544    -2.616 
 H                     4.256    -3.336    -0.888 
 H                     1.571    -0.505    -2.774 
 H                     1.469    -2.22     -3.167 
 H                     3.771    -2.107    -4.196 
 H                     3.81     -0.372    -3.917 
 H                     2.792     1.141    -5.426 
 H                     1.547     1.553    -7.527 
 H                     0.44     -0.334    -8.71 
 H                     0.596    -2.633    -7.772 
 H                     1.839    -3.036    -5.674 
 H                     6.388     1.437    -0.319 
 H                     5.688     2.606     0.815 
 H                     4.832     2.229    -0.697 
 H                     3.115     0.309     2.048 
 H                     2.781     1.494     0.752 
 H                     3.754     1.96      2.173 
 
 NAtoms=     40 NQM=       40 NQMF=       0 NMMI=      0 NMMIF=      0
                NMic=       0 NMicF=      0.
                    Isotopes and Nuclear Properties:
 (Nuclear quadrupole moments (NQMom) in fm**2, nuclear magnetic moments (NMagM)
  in nuclear magnetons)

  Atom         1           2           3           4           5           6           7           8           9          10
 IAtWgt=          16          32          14          12          12          32          16          12          12          12
 AtmWgt=  15.9949146  31.9720718  14.0030740  12.0000000  12.0000000  31.9720718  15.9949146  12.0000000  12.0000000  12.0000000
 NucSpn=           0           0           2           0           0           0           0           0           0           0
 AtZEff=   0.0000000   0.0000000   0.0000000   0.0000000   0.0000000   0.0000000   0.0000000   0.0000000   0.0000000   0.0000000
 NQMom=    0.0000000   0.0000000   2.0440000   0.0000000   0.0000000   0.0000000   0.0000000   0.0000000   0.0000000   0.0000000
 NMagM=    0.0000000   0.0000000   0.4037610   0.0000000   0.0000000   0.0000000   0.0000000   0.0000000   0.0000000   0.0000000
 AtZNuc=   8.0000000  16.0000000   7.0000000   6.0000000   6.0000000  16.0000000   8.0000000   6.0000000   6.0000000   6.0000000

  Atom        11          12          13          14          15          16          17          18          19          20
 IAtWgt=          12          12          12          12          12          12          14          12          12          16
 AtmWgt=  12.0000000  12.0000000  12.0000000  12.0000000  12.0000000  12.0000000  14.0030740  12.0000000  12.0000000  15.9949146
 NucSpn=           0           0           0           0           0           0           2           0           0           0
 AtZEff=   0.0000000   0.0000000   0.0000000   0.0000000   0.0000000   0.0000000   0.0000000   0.0000000   0.0000000   0.0000000
 NQMom=    0.0000000   0.0000000   0.0000000   0.0000000   0.0000000   0.0000000   2.0440000   0.0000000   0.0000000   0.0000000
 NMagM=    0.0000000   0.0000000   0.0000000   0.0000000   0.0000000   0.0000000   0.4037610   0.0000000   0.0000000   0.0000000
 AtZNuc=   6.0000000   6.0000000   6.0000000   6.0000000   6.0000000   6.0000000   7.0000000   6.0000000   6.0000000   8.0000000

  Atom        21          22          23          24          25          26          27          28          29          30
 IAtWgt=           1           1           1           1           1           1           1           1           1           1
 AtmWgt=   1.0078250   1.0078250   1.0078250   1.0078250   1.0078250   1.0078250   1.0078250   1.0078250   1.0078250   1.0078250
 NucSpn=           1           1           1           1           1           1           1           1           1           1
 AtZEff=   0.0000000   0.0000000   0.0000000   0.0000000   0.0000000   0.0000000   0.0000000   0.0000000   0.0000000   0.0000000
 NQMom=    0.0000000   0.0000000   0.0000000   0.0000000   0.0000000   0.0000000   0.0000000   0.0000000   0.0000000   0.0000000
 NMagM=    2.7928460   2.7928460   2.7928460   2.7928460   2.7928460   2.7928460   2.7928460   2.7928460   2.7928460   2.7928460
 AtZNuc=   1.0000000   1.0000000   1.0000000   1.0000000   1.0000000   1.0000000   1.0000000   1.0000000   1.0000000   1.0000000

  Atom        31          32          33          34          35          36          37          38          39          40
 IAtWgt=           1           1           1           1           1           1           1           1           1           1
 AtmWgt=   1.0078250   1.0078250   1.0078250   1.0078250   1.0078250   1.0078250   1.0078250   1.0078250   1.0078250   1.0078250
 NucSpn=           1           1           1           1           1           1           1           1           1           1
 AtZEff=   0.0000000   0.0000000   0.0000000   0.0000000   0.0000000   0.0000000   0.0000000   0.0000000   0.0000000   0.0000000
 NQMom=    0.0000000   0.0000000   0.0000000   0.0000000   0.0000000   0.0000000   0.0000000   0.0000000   0.0000000   0.0000000
 NMagM=    2.7928460   2.7928460   2.7928460   2.7928460   2.7928460   2.7928460   2.7928460   2.7928460   2.7928460   2.7928460
 AtZNuc=   1.0000000   1.0000000   1.0000000   1.0000000   1.0000000   1.0000000   1.0000000   1.0000000   1.0000000   1.0000000
 Leave Link  101 at Sat Aug  8 02:35:30 2020, MaxMem=    33554432 cpu:         0.1
 (Enter /prod/apps/gaussian/g09d1/l202.exe)
                          Input orientation:                          
 ---------------------------------------------------------------------
 Center     Atomic      Atomic             Coordinates (Angstroms)
 Number     Number       Type             X           Y           Z
 ---------------------------------------------------------------------
      1          8           0        4.206000   -1.722000    1.075000
      2         16           0        4.744000   -0.762000    0.105000
      3          7           0        3.592000   -0.634000   -1.113000
      4          6           0        2.804000   -1.792000   -1.575000
      5          6           0        1.703000   -2.234000   -0.587000
      6         16           0        1.936000   -4.034000   -1.033000
      7          8           0        1.044000   -4.389000   -2.222000
      8          6           0        3.485000   -3.185000   -1.643000
      9          6           0        2.166000   -1.413000   -2.923000
     10          6           0        3.139000   -1.217000   -4.099000
     11          6           0        2.400000   -0.974000   -5.398000
     12          6           0        2.307000    0.315000   -5.938000
     13          6           0        1.605000    0.547000   -7.124000
     14          6           0        0.984000   -0.511000   -7.788000
     15          6           0        1.071000   -1.802000   -7.260000
     16          6           0        1.773000   -2.029000   -6.076000
     17          7           0        4.781000    0.736000    0.843000
     18          6           0        5.458000    1.812000    0.102000
     19          6           0        3.521000    1.147000    1.483000
     20          8           0        6.084000   -0.987000   -0.453000
     21          1           0        3.977000   -0.072000   -1.875000
     22          1           0        0.691000   -1.867000   -0.763000
     23          1           0        1.998000   -2.113000    0.455000
     24          1           0        3.820000   -3.544000   -2.616000
     25          1           0        4.256000   -3.336000   -0.888000
     26          1           0        1.571000   -0.505000   -2.774000
     27          1           0        1.469000   -2.220000   -3.167000
     28          1           0        3.771000   -2.107000   -4.196000
     29          1           0        3.810000   -0.372000   -3.917000
     30          1           0        2.792000    1.141000   -5.426000
     31          1           0        1.547000    1.553000   -7.527000
     32          1           0        0.440000   -0.334000   -8.710000
     33          1           0        0.596000   -2.633000   -7.772000
     34          1           0        1.839000   -3.036000   -5.674000
     35          1           0        6.388000    1.437000   -0.319000
     36          1           0        5.688000    2.606000    0.815000
     37          1           0        4.832000    2.229000   -0.697000
     38          1           0        3.115000    0.309000    2.048000
     39          1           0        2.781000    1.494000    0.752000
     40          1           0        3.754000    1.960000    2.173000
 ---------------------------------------------------------------------
                    Distance matrix (angstroms):
                    1          2          3          4          5
     1  O    0.000000
     2  S    1.466951   0.000000
     3  N    2.519540   1.681372   0.000000
     4  C    2.998834   2.765303   1.474907   0.000000
     5  C    3.047851   3.448671   2.530810   1.543926   0.000000
     6  S    3.865476   4.459360   3.782689   2.464498   1.869012
     7  O    5.289739   5.679794   4.671425   3.203220   2.784157
     8  C    3.169816   3.242147   2.607671   1.552042   2.279268
     9  C    4.499009   4.029723   2.432369   1.538762   2.518989
    10  C    5.306957   4.522905   3.075922   2.610254   3.928171
    11  C    6.761721   5.985172   4.460683   3.930352   5.021865
    12  C    7.545710   6.604298   5.082563   4.870547   5.957803
    13  C    8.895907   7.989070   6.440113   6.140026   7.104642
    14  C    9.507922   8.746431   7.167455   6.599601   7.439092
    15  C    8.905439   8.295526   6.745760   5.943283   6.716768
    16  C    7.559798   6.974015   5.466823   4.623649   5.493273
    17  N    2.534998   1.670334   2.667688   4.018213   4.509976
    18  C    3.873421   2.671195   3.307733   4.779630   5.562811
    19  C    2.977726   2.653091   3.149003   4.301532   4.361328
    20  O    2.530196   1.468873   2.601975   3.558835   4.556987
    21  H    3.387837   2.232664   1.022112   2.103409   3.391794
    22  H    3.969193   4.289669   3.171528   2.264892   1.090784
    23  H    2.326488   3.080295   2.680840   2.207618   1.089693
    24  H    4.134267   3.999643   3.283153   2.277156   3.211640
    25  H    2.541823   2.801726   2.791474   2.228050   2.796929
    26  H    4.820697   4.292158   2.619161   2.148083   2.791027
    27  H    5.072843   4.853594   3.352826   2.121290   2.590628
    28  H    5.302913   4.610245   3.421500   2.811397   4.161446
    29  H    5.186461   4.147402   2.824639   2.917773   4.358370
    30  H    7.242870   6.166334   4.732081   4.840747   5.999372
    31  H    9.580726   8.592291   7.078445   6.942289   7.907547
    32  H   10.576177   9.818952   8.230402   7.656532   8.437316
    33  H    9.598512   9.096905   7.570621   6.632146   7.280719
    34  H    7.271746   6.856161   5.444753   4.390964   5.151628
    35  H    4.084561   2.778149   3.568906   4.984880   5.957960
    36  H    4.582086   3.569126   4.313699   5.776847   6.424284
    37  H    4.375187   3.097907   3.147606   4.588258   5.451707
    38  H    2.502393   2.752441   3.332971   4.199649   3.924770
    39  H    3.532366   3.059659   2.943523   4.026569   4.105239
    40  H    3.868725   3.558934   4.189615   5.387718   5.423452
                    6          7          8          9         10
     6  S    0.000000
     7  O    1.528205   0.000000
     8  C    1.868770   2.782685   0.000000
     9  C    3.239543   3.256818   2.553066   0.000000
    10  C    4.333942   4.239545   3.166177   1.538870   0.000000
    11  C    5.350899   4.856741   4.490631   2.524500   1.514124
    12  C    6.565856   6.126291   5.664337   3.477943   2.534003
    13  C    7.628591   6.979142   6.892284   4.669553   3.823019
    14  C    7.677751   6.784014   7.153062   5.087136   4.330264
    15  C    6.671250   5.663457   6.268235   4.489979   3.822404
    16  C    5.429405   4.577593   4.890682   3.236559   2.536499
    17  N    5.862278   7.044503   4.820171   5.063515   5.561811
    18  C    6.918701   7.958440   5.648696   5.512578   5.674593
    19  C    5.973713   7.107028   5.342228   5.272804   6.073973
    20  O    5.179432   6.332817   3.605843   4.651140   4.692466
    21  H    4.535646   5.230620   3.160167   2.485217   2.638076
    22  H    2.513725   2.934923   3.212158   2.654683   4.188568
    23  H    2.430685   3.640964   2.786029   3.453854   4.779499
    24  H    2.509073   2.928385   1.089878   2.714982   2.842179
    25  H    2.427062   3.633911   1.089618   3.493888   4.006042
    26  H    3.951980   3.958268   3.482091   1.095760   2.172831
    27  H    2.839479   2.403791   2.705191   1.093889   2.159521
    28  H    4.133415   4.067030   2.785981   2.162912   1.095871
    29  H    5.023900   5.163339   3.631759   2.185052   1.094253
    30  H    6.841916   6.625860   5.788403   3.630400   2.727912
    31  H    8.575426   7.981441   7.799099   5.511545   4.685995
    32  H    8.652418   7.674763   8.206261   6.134549   5.415313
    33  H    7.012312   5.838385   6.798210   5.240811   4.686452
    34  H    4.748083   3.791957   4.356659   3.210772   2.734847
    35  H    7.089566   8.131545   5.616339   5.720892   5.646956
    36  H    7.847433   8.928613   6.665632   6.521464   6.727565
    37  H    6.908320   7.776406   5.658685   5.032573   5.129792
    38  H    5.453829   6.677810   5.095922   5.345720   6.333629
    39  H    5.870182   6.817003   5.303271   4.725939   5.568652
    40  H    7.036448   8.183516   6.411337   6.314118   7.057587
                   11         12         13         14         15
    11  C    0.000000
    12  C    1.400632   0.000000
    13  C    2.434038   1.397578   0.000000
    14  C    2.816296   2.419732   1.394956   0.000000
    15  C    2.432873   2.785152   2.412769   1.397510   0.000000
    16  C    1.402083   2.408015   2.786091   2.420287   1.395059
    17  N    6.895168   7.230483   8.578799   9.511382   9.266291
    18  C    6.882090   6.975056   8.286188   9.362965   9.300850
    19  C    7.287211   7.565531   8.838071   9.753808   9.546683
    20  O    6.166445   6.785732   8.180271   8.946441   8.492917
    21  H    3.963844   4.409834   5.793233   6.641863   6.358928
    22  H    5.020095   5.844074   6.864773   7.160671   6.508428
    23  H    5.976331   6.845518   8.041846   8.458230   7.776714
    24  H    4.044852   5.311943   6.478007   6.632614   5.670829
    25  H    5.418845   6.529234   7.809813   8.142273   7.286959
    26  H    2.791519   3.350372   4.475529   5.048247   4.696425
    27  H    2.719676   3.847975   4.830387   4.950712   4.133495
    28  H    2.146656   3.323243   4.506490   4.818407   4.095256
    29  H    2.131634   2.610636   3.998929   4.794814   4.552216
    30  H    2.151203   1.086115   2.155228   3.402501   3.871259
    31  H    3.412621   2.152943   1.085269   2.155269   3.399101
    32  H    3.901352   3.404537   2.156103   1.085057   2.157704
    33  H    3.412121   3.870631   3.398586   2.157240   1.085509
    34  H    2.154702   3.393806   3.872357   3.402300   2.151273
    35  H    6.892990   7.034672   8.365238   9.422520   9.324113
    36  H    7.888518   7.891948   9.161773  10.288582  10.293337
    37  H    6.186537   6.124304   7.385728   8.520386   8.571292
    38  H    7.589482   8.026774   9.298512  10.097547   9.760795
    39  H    6.637672   6.809612   8.019424   8.954375   8.830621
    40  H    8.231750   8.401676   9.646190  10.630158  10.503934
                   16         17         18         19         20
    16  C    0.000000
    17  N    8.035288   0.000000
    18  C    8.154765   1.471457   0.000000
    19  C    8.383374   1.471775   2.470092   0.000000
    20  O    7.161607   2.519157   2.921353   3.856296   0.000000
    21  H    5.131848   2.947338   3.106662   3.601397   2.701621
    22  H    5.424476   5.107146   6.083384   4.705062   5.473111
    23  H    6.535414   4.001554   5.244219   3.742180   4.334482
    24  H    4.296165   5.586287   6.225536   6.236721   4.042588
    25  H    5.898210   4.455690   5.378365   5.124369   3.008091
    26  H    3.642332   4.992682   5.361775   4.965245   5.097699
    27  H    2.931071   5.982255   6.546412   6.096712   5.494025
    28  H    2.744538   5.873182   6.056181   6.549966   4.540310
    29  H    3.399456   4.982781   4.861905   5.617017   4.189105
    30  H    3.392604   6.589424   6.173863   6.947356   6.332170
    31  H    3.871331   9.010169   8.576983   9.232638   8.779376
    32  H    3.404096  10.547464  10.365181  10.750961  10.022933
    33  H    2.150944  10.152961  10.266301  10.416288   9.294903
    34  H    1.086282   8.084221   8.364355   8.458680   7.034008
    35  H    8.151959   2.103353   1.087550   3.398675   2.446661
    36  H    9.181303   2.078541   1.091652   2.696441   3.830703
    37  H    7.511437   2.145519   1.097345   2.764389   3.459725
    38  H    8.559590   2.099979   3.396406   1.089176   4.092625
    39  H    7.749140   2.140758   2.773076   1.096526   4.303161
    40  H    9.374566   2.078895   2.685993   1.091493   4.583621
                   21         22         23         24         25
    21  H    0.000000
    22  H    3.905940   0.000000
    23  H    3.675734   1.803410   0.000000
    24  H    3.553662   4.004570   3.846880   0.000000
    25  H    3.421360   3.857825   2.897920   1.794253   0.000000
    26  H    2.604712   2.583324   3.632414   3.783978   4.333680
    27  H    3.545875   2.551296   3.661990   2.753866   3.769173
    28  H    3.093655   4.618386   4.977486   2.136298   3.562096
    29  H    2.070665   4.680908   5.042699   3.428452   4.261344
    30  H    3.935123   5.933450   6.767947   5.558967   6.540663
    31  H    6.363225   7.627636   8.795185   7.433967   8.678555
    32  H    7.700405   8.097401   9.465169   7.672375   9.206386
    33  H    7.263917   7.051373   8.361790   6.148856   7.828107
    34  H    5.271503   5.177102   6.200149   3.678830   5.370073
    35  H    3.242089   6.600709   5.698568   6.056500   5.258395
    36  H    4.163569   6.889690   6.001222   7.285855   6.344935
    37  H    2.722739   5.824899   5.311462   6.167190   5.597989
    38  H    4.034617   4.302612   3.106674   6.090610   4.817468
    39  H    3.283885   4.237882   3.702938   6.148527   5.309814
    40  H    4.534871   5.713842   4.756510   7.296088   6.137535
                   26         27         28         29         30
    26  H    0.000000
    27  H    1.762407   0.000000
    28  H    3.070584   2.524047   0.000000
    29  H    2.517391   3.075367   1.757722   0.000000
    30  H    3.351606   4.260250   3.608441   2.366976   0.000000
    31  H    5.179474   5.766386   5.425619   4.675350   2.476685
    32  H    6.045205   5.944803   5.883476   5.859283   4.300254
    33  H    5.518968   4.705180   4.810933   5.504811   4.956734
    34  H    3.858469   2.662293   2.603872   3.750838   4.291508
    35  H    5.744726   6.758795   5.868539   4.781649   6.253022
    36  H    6.285613   7.546295   7.141245   5.898067   7.034424
    37  H    4.735273   6.099530   5.671827   4.263577   5.263913
    38  H    5.128179   6.025063   6.727178   6.043841   7.527100
    39  H    4.229985   5.556411   6.199194   5.132286   6.188086
    40  H    5.942602   7.156062   7.556781   6.521461   7.703311
                   31         32         33         34         35
    31  H    0.000000
    32  H    2.487108   0.000000
    33  H    4.299654   2.487887   0.000000
    34  H    4.957600   4.298290   2.471652   0.000000
    35  H    8.683548  10.436667  10.279075   8.329295   0.000000
    36  H    9.372601  11.265466  11.274403   9.420939   1.772715
    37  H    7.609014   9.490353   9.572793   7.838929   1.786417
    38  H    9.781962  11.104217  10.556189   8.511550   4.193758
    39  H    8.370668   9.917223   9.719307   7.918443   3.763076
    40  H    9.956229  11.605375  11.400510   9.497508   3.663543
                   36         37         38         39         40
    36  H    0.000000
    37  H    1.777923   0.000000
    38  H    3.662899   3.764241   0.000000
    39  H    3.113063   2.616568   1.787567   0.000000
    40  H    2.449864   3.077555   1.774753   1.784132   0.000000
 Stoichiometry    C13H20N2O3S2
 Framework group  C1[X(C13H20N2O3S2)]
 Deg. of freedom   114
 Full point group                 C1      NOp   1
 Largest Abelian subgroup         C1      NOp   1
 Largest concise Abelian subgroup C1      NOp   1
                         Standard orientation:                         
 ---------------------------------------------------------------------
 Center     Atomic      Atomic             Coordinates (Angstroms)
 Number     Number       Type             X           Y           Z
 ---------------------------------------------------------------------
      1          8           0       -3.426362    0.816905   -0.168650
      2         16           0       -2.838360   -0.480501   -0.519274
      3          7           0       -1.289035   -0.482479    0.133872
      4          6           0       -0.447569    0.728412    0.165962
      5          6           0       -0.885587    1.767060    1.220977
      6         16           0       -0.389898    3.191758    0.117468
      7          8           0        1.079841    3.537789    0.353139
      8          6           0       -0.511430    1.719332   -1.026864
      9          6           0        0.998015    0.283408    0.448887
     10          6           0        1.682008   -0.534442   -0.660796
     11          6           0        3.134961   -0.808620   -0.334721
     12          6           0        3.539798   -2.068271    0.124795
     13          6           0        4.875896   -2.317893    0.449998
     14          6           0        5.828397   -1.307100    0.319838
     15          6           0        5.437079   -0.046461   -0.139176
     16          6           0        4.102325    0.198168   -0.462873
     17          7           0       -3.676493   -1.658463    0.317360
     18          6           0       -3.363573   -3.053543   -0.030515
     19          6           0       -3.817569   -1.415988    1.762152
     20          8           0       -2.821617   -0.898773   -1.927236
     21          1           0       -0.793754   -1.315300   -0.191426
     22          1           0       -0.369551    1.757744    2.181930
     23          1           0       -1.967127    1.810051    1.346883
     24          1           0        0.287007    1.680669   -1.767699
     25          1           0       -1.486747    1.764520   -1.510582
     26          1           0        1.001942   -0.282178    1.387390
     27          1           0        1.569972    1.199807    0.621140
     28          1           0        1.614337    0.014508   -1.606844
     29          1           0        1.173232   -1.491014   -0.814117
     30          1           0        2.801964   -2.859062    0.224271
     31          1           0        5.169305   -3.301671    0.801993
     32          1           0        6.866742   -1.498762    0.569746
     33          1           0        6.171544    0.745227   -0.249274
     34          1           0        3.806843    1.179717   -0.822400
     35          1           0       -3.299551   -3.155348   -1.111396
     36          1           0       -4.184228   -3.673962    0.334600
     37          1           0       -2.429941   -3.401093    0.429601
     38          1           0       -4.096974   -0.376139    1.926320
     39          1           0       -2.895451   -1.642690    2.310491
     40          1           0       -4.620148   -2.060273    2.125638
 ---------------------------------------------------------------------
 Rotational constants (GHZ):      0.4086525      0.1619597      0.1271134
 Leave Link  202 at Sat Aug  8 02:35:30 2020, MaxMem=    33554432 cpu:         0.0
 (Enter /prod/apps/gaussian/g09d1/l301.exe)
 Standard basis: 6-31G(d) (6D, 7F)
 Ernie: Thresh=  0.10000D-02 Tol=  0.10000D-05 Strict=F.
 There are   348 symmetry adapted cartesian basis functions of A   symmetry.
 There are   348 symmetry adapted basis functions of A   symmetry.
   348 basis functions,   688 primitive gaussians,   348 cartesian basis functions
    84 alpha electrons       84 beta electrons
       nuclear repulsion energy      1961.8635838705 Hartrees.
 IExCor=  402 DFT=T Ex+Corr=B3LYP ExCW=0 ScaHFX=  0.200000
 ScaDFX=  0.800000  0.720000  1.000000  0.810000 ScalE2=  1.000000  1.000000
 IRadAn=      0 IRanWt=     -1 IRanGd=            0 ICorTp=0 IEmpDi=  4
 NAtoms=   40 NActive=   40 NUniq=   40 SFac= 1.00D+00 NAtFMM=   60 NAOKFM=F Big=F
 Integral buffers will be    131072 words long.
 Raffenetti 2 integral format.
 Two-electron integral symmetry is turned on.
 Leave Link  301 at Sat Aug  8 02:35:30 2020, MaxMem=    33554432 cpu:         0.0
 (Enter /prod/apps/gaussian/g09d1/l302.exe)
 NPDir=0 NMtPBC=     1 NCelOv=     1 NCel=       1 NClECP=     1 NCelD=      1
         NCelK=      1 NCelE2=     1 NClLst=     1 CellRange=     0.0.
 One-electron integrals computed using PRISM.
 NBasis=   348 RedAO= T EigKep=  4.67D-04  NBF=   348
 NBsUse=   348 1.00D-06 EigRej= -1.00D+00 NBFU=   348
 Precomputing XC quadrature grid using
 IXCGrd= 4 IRadAn=           0 IRanWt=          -1 IRanGd=           0 AccXCQ= 0.00D+00.
 Generated NRdTot=       0 NPtTot=           0 NUsed=           0 NTot=          32
 NSgBfM=   343   343   343   343   343 MxSgAt=    40 MxSgA2=    40.
 Leave Link  302 at Sat Aug  8 02:35:31 2020, MaxMem=    33554432 cpu:         1.2
 (Enter /prod/apps/gaussian/g09d1/l303.exe)
 DipDrv:  MaxL=1.
 Leave Link  303 at Sat Aug  8 02:35:31 2020, MaxMem=    33554432 cpu:         0.0
 (Enter /prod/apps/gaussian/g09d1/l401.exe)
 ExpMin= 1.17D-01 ExpMax= 2.19D+04 ExpMxC= 3.30D+03 IAcc=1 IRadAn=         1 AccDes= 0.00D+00
 Harris functional with IExCor=  402 and IRadAn=       1 diagonalized for initial guess.
 HarFok:  IExCor=  402 AccDes= 0.00D+00 IRadAn=         1 IDoV= 1 UseB2=F ITyADJ=14
 ICtDFT=  3500011 ScaDFX=  1.000000  1.000000  1.000000  1.000000
 FoFCou: FMM=F IPFlag=           0 FMFlag=      100000 FMFlg1=           0
         NFxFlg=           0 DoJE=T BraDBF=F KetDBF=T FulRan=T
         wScrn=  0.000000 ICntrl=     500 IOpCl=  0 I1Cent=   200000004 NGrid=           0
         NMat0=    1 NMatS0=      1 NMatT0=    0 NMatD0=    1 NMtDS0=    0 NMtDT0=    0
 Petite list used in FoFCou.
 Harris En= -1638.91450404899    
 JPrj=0 DoOrth=F DoCkMO=F.
 Leave Link  401 at Sat Aug  8 02:35:36 2020, MaxMem=    33554432 cpu:         4.6
 (Enter /prod/apps/gaussian/g09d1/l502.exe)
 Closed shell SCF:
 Using DIIS extrapolation, IDIIS=  1040.
 Integral symmetry usage will be decided dynamically.
 IVT=      386588 IEndB=      386588 NGot=    33554432 MDV=    33305937
 LenX=    33305937 LenY=    33184392
 Requested convergence on RMS density matrix=1.00D-08 within 128 cycles.
 Requested convergence on MAX density matrix=1.00D-06.
 Requested convergence on             energy=1.00D-06.
 No special actions if energy rises.
 Fock matrices will be formed incrementally for  20 cycles.
 Integral accuracy reduced to 1.0D-05 until final iterations.

 Cycle   1  Pass 0  IDiag  1:
 FoFJK:  IHMeth= 1 ICntrl=       0 DoSepK=F KAlg= 0 I1Cent=   0 FoldK=F
 IRaf= 740000000 NMat=   1 IRICut=       1 DoRegI=T DoRafI=F ISym2E= 0.
 FoFCou: FMM=F IPFlag=           0 FMFlag=      100000 FMFlg1=           0
         NFxFlg=           0 DoJE=F BraDBF=F KetDBF=F FulRan=T
         wScrn=  0.000000 ICntrl=       0 IOpCl=  0 I1Cent=           0 NGrid=           0
         NMat0=    1 NMatS0=      1 NMatT0=    0 NMatD0=    1 NMtDS0=    0 NMtDT0=    0
 Symmetry not used in FoFCou.
 E= -1638.04696921678    
 DIIS: error= 3.72D-02 at cycle   1 NSaved=   1.
 NSaved= 1 IEnMin= 1 EnMin= -1638.04696921678     IErMin= 1 ErrMin= 3.72D-02
 ErrMax= 3.72D-02  0.00D+00 EMaxC= 1.00D-01 BMatC= 8.90D-01 BMatP= 8.90D-01
 IDIUse=3 WtCom= 6.28D-01 WtEn= 3.72D-01
 Coeff-Com:  0.100D+01
 Coeff-En:   0.100D+01
 Coeff:      0.100D+01
 Gap=     0.336 Goal=   None    Shift=    0.000
 GapD=    0.336 DampG=1.000 DampE=0.500 DampFc=0.5000 IDamp=-1.
 Damping current iteration by 5.00D-01
 RMSDP=7.74D-03 MaxDP=6.01D-01              OVMax= 3.49D-01

 Cycle   2  Pass 0  IDiag  1:
 RMSU=  3.87D-03    CP:  9.99D-01
 E= -1638.17674884061     Delta-E=       -0.129779623833 Rises=F Damp=T
 DIIS: error= 1.83D-02 at cycle   2 NSaved=   2.
 NSaved= 2 IEnMin= 2 EnMin= -1638.17674884061     IErMin= 2 ErrMin= 1.83D-02
 ErrMax= 1.83D-02  0.00D+00 EMaxC= 1.00D-01 BMatC= 1.81D-01 BMatP= 8.90D-01
 IDIUse=3 WtCom= 8.17D-01 WtEn= 1.83D-01
 Coeff-Com:  0.265D+00 0.735D+00
 Coeff-En:   0.421D+00 0.579D+00
 Coeff:      0.294D+00 0.706D+00
 Gap=     0.337 Goal=   None    Shift=    0.000
 RMSDP=2.83D-03 MaxDP=1.35D-01 DE=-1.30D-01 OVMax= 2.51D-01

 Cycle   3  Pass 0  IDiag  1:
 RMSU=  2.10D-03    CP:  9.86D-01  5.16D-01
 E= -1638.69366465146     Delta-E=       -0.516915810848 Rises=F Damp=F
 DIIS: error= 1.82D-02 at cycle   3 NSaved=   3.
 NSaved= 3 IEnMin= 3 EnMin= -1638.69366465146     IErMin= 3 ErrMin= 1.82D-02
 ErrMax= 1.82D-02  0.00D+00 EMaxC= 1.00D-01 BMatC= 1.48D-01 BMatP= 1.81D-01
 IDIUse=3 WtCom= 8.18D-01 WtEn= 1.82D-01
 Coeff-Com:  0.122D+00 0.468D+00 0.410D+00
 Coeff-En:   0.000D+00 0.000D+00 0.100D+01
 Coeff:      0.100D+00 0.382D+00 0.517D+00
 Gap=     0.245 Goal=   None    Shift=    0.000
 RMSDP=2.01D-03 MaxDP=9.32D-02 DE=-5.17D-01 OVMax= 1.85D-01

 Cycle   4  Pass 0  IDiag  1:
 RMSU=  1.01D-03    CP:  9.95D-01  6.96D-01  2.49D-01
 E= -1638.79199565965     Delta-E=       -0.098331008195 Rises=F Damp=F
 DIIS: error= 1.12D-02 at cycle   4 NSaved=   4.
 NSaved= 4 IEnMin= 4 EnMin= -1638.79199565965     IErMin= 4 ErrMin= 1.12D-02
 ErrMax= 1.12D-02  0.00D+00 EMaxC= 1.00D-01 BMatC= 4.62D-02 BMatP= 1.48D-01
 IDIUse=3 WtCom= 8.88D-01 WtEn= 1.12D-01
 Coeff-Com:  0.277D-01 0.105D+00 0.349D+00 0.518D+00
 Coeff-En:   0.000D+00 0.000D+00 0.273D+00 0.727D+00
 Coeff:      0.246D-01 0.931D-01 0.341D+00 0.542D+00
 Gap=     0.227 Goal=   None    Shift=    0.000
 RMSDP=9.05D-04 MaxDP=4.62D-02 DE=-9.83D-02 OVMax= 8.27D-02

 Cycle   5  Pass 0  IDiag  1:
 RMSU=  3.51D-04    CP:  9.93D-01  6.15D-01  5.41D-01  5.36D-01
 E= -1638.82929819946     Delta-E=       -0.037302539801 Rises=F Damp=F
 DIIS: error= 2.89D-03 at cycle   5 NSaved=   5.
 NSaved= 5 IEnMin= 5 EnMin= -1638.82929819946     IErMin= 5 ErrMin= 2.89D-03
 ErrMax= 2.89D-03  0.00D+00 EMaxC= 1.00D-01 BMatC= 4.17D-03 BMatP= 4.62D-02
 IDIUse=3 WtCom= 9.71D-01 WtEn= 2.89D-02
 Coeff-Com:  0.234D-02 0.109D-01 0.160D+00 0.349D+00 0.478D+00
 Coeff-En:   0.000D+00 0.000D+00 0.000D+00 0.510D-01 0.949D+00
 Coeff:      0.227D-02 0.106D-01 0.156D+00 0.340D+00 0.492D+00
 Gap=     0.222 Goal=   None    Shift=    0.000
 RMSDP=2.53D-04 MaxDP=1.14D-02 DE=-3.73D-02 OVMax= 1.81D-02

 Cycle   6  Pass 0  IDiag  1:
 RMSU=  1.23D-04    CP:  9.93D-01  6.32D-01  5.05D-01  6.25D-01  5.01D-01
 E= -1638.83248565920     Delta-E=       -0.003187459745 Rises=F Damp=F
 DIIS: error= 8.97D-04 at cycle   6 NSaved=   6.
 NSaved= 6 IEnMin= 6 EnMin= -1638.83248565920     IErMin= 6 ErrMin= 8.97D-04
 ErrMax= 8.97D-04  0.00D+00 EMaxC= 1.00D-01 BMatC= 4.32D-04 BMatP= 4.17D-03
 IDIUse=3 WtCom= 9.91D-01 WtEn= 8.97D-03
 Coeff-Com: -0.120D-02-0.396D-02 0.436D-01 0.120D+00 0.296D+00 0.545D+00
 Coeff-En:   0.000D+00 0.000D+00 0.000D+00 0.000D+00 0.707D-01 0.929D+00
 Coeff:     -0.119D-02-0.393D-02 0.432D-01 0.119D+00 0.294D+00 0.549D+00
 Gap=     0.222 Goal=   None    Shift=    0.000
 RMSDP=7.39D-05 MaxDP=3.81D-03 DE=-3.19D-03 OVMax= 3.31D-03

 Cycle   7  Pass 0  IDiag  1:
 RMSU=  4.00D-05    CP:  9.93D-01  6.30D-01  5.09D-01  6.30D-01  5.80D-01
                    CP:  5.62D-01
 E= -1638.83280892476     Delta-E=       -0.000323265561 Rises=F Damp=F
 DIIS: error= 1.73D-04 at cycle   7 NSaved=   7.
 NSaved= 7 IEnMin= 7 EnMin= -1638.83280892476     IErMin= 7 ErrMin= 1.73D-04
 ErrMax= 1.73D-04  0.00D+00 EMaxC= 1.00D-01 BMatC= 3.38D-05 BMatP= 4.32D-04
 IDIUse=3 WtCom= 9.98D-01 WtEn= 1.73D-03
 Coeff-Com: -0.594D-03-0.290D-02 0.560D-02 0.229D-01 0.104D+00 0.297D+00
 Coeff-Com:  0.574D+00
 Coeff-En:   0.000D+00 0.000D+00 0.000D+00 0.000D+00 0.000D+00 0.553D-02
 Coeff-En:   0.994D+00
 Coeff:     -0.593D-03-0.290D-02 0.559D-02 0.229D-01 0.104D+00 0.296D+00
 Coeff:      0.574D+00
 Gap=     0.222 Goal=   None    Shift=    0.000
 RMSDP=2.12D-05 MaxDP=8.65D-04 DE=-3.23D-04 OVMax= 9.04D-04

 Cycle   8  Pass 0  IDiag  1:
 RMSU=  1.05D-05    CP:  9.93D-01  6.29D-01  5.10D-01  6.26D-01  5.87D-01
                    CP:  6.31D-01  6.11D-01
 E= -1638.83283928672     Delta-E=       -0.000030361956 Rises=F Damp=F
 DIIS: error= 4.19D-05 at cycle   8 NSaved=   8.
 NSaved= 8 IEnMin= 8 EnMin= -1638.83283928672     IErMin= 8 ErrMin= 4.19D-05
 ErrMax= 4.19D-05  0.00D+00 EMaxC= 1.00D-01 BMatC= 1.48D-06 BMatP= 3.38D-05
 IDIUse=1 WtCom= 1.00D+00 WtEn= 0.00D+00
 Coeff-Com: -0.976D-04-0.893D-03-0.381D-03 0.170D-02 0.264D-01 0.956D-01
 Coeff-Com:  0.257D+00 0.621D+00
 Coeff:     -0.976D-04-0.893D-03-0.381D-03 0.170D-02 0.264D-01 0.956D-01
 Coeff:      0.257D+00 0.621D+00
 Gap=     0.222 Goal=   None    Shift=    0.000
 RMSDP=5.57D-06 MaxDP=2.61D-04 DE=-3.04D-05 OVMax= 2.58D-04

 Initial convergence to 1.0D-05 achieved.  Increase integral accuracy.
 Cycle   9  Pass 1  IDiag  1:
 E= -1638.83293941562     Delta-E=       -0.000100128901 Rises=F Damp=F
 DIIS: error= 5.62D-05 at cycle   1 NSaved=   1.
 NSaved= 1 IEnMin= 1 EnMin= -1638.83293941562     IErMin= 1 ErrMin= 5.62D-05
 ErrMax= 5.62D-05  0.00D+00 EMaxC= 1.00D-01 BMatC= 9.83D-07 BMatP= 9.83D-07
 IDIUse=1 WtCom= 1.00D+00 WtEn= 0.00D+00
 Coeff-Com:  0.100D+01
 Coeff:      0.100D+01
 Gap=     0.222 Goal=   None    Shift=    0.000
 RMSDP=5.57D-06 MaxDP=2.61D-04 DE=-1.00D-04 OVMax= 3.01D-04

 Cycle  10  Pass 1  IDiag  1:
 RMSU=  3.01D-05    CP:  1.00D+00
 E= -1638.83293935284     Delta-E=        0.000000062777 Rises=F Damp=F
 DIIS: error= 3.86D-05 at cycle   2 NSaved=   2.
 NSaved= 2 IEnMin= 1 EnMin= -1638.83293941562     IErMin= 2 ErrMin= 3.86D-05
 ErrMax= 3.86D-05  0.00D+00 EMaxC= 1.00D-01 BMatC= 1.23D-06 BMatP= 9.83D-07
 IDIUse=1 WtCom= 1.00D+00 WtEn= 0.00D+00
 Coeff-Com:  0.535D+00 0.465D+00
 Coeff:      0.535D+00 0.465D+00
 Gap=     0.222 Goal=   None    Shift=    0.000
 RMSDP=4.44D-06 MaxDP=1.70D-04 DE= 6.28D-08 OVMax= 2.55D-04

 Cycle  11  Pass 1  IDiag  1:
 RMSU=  4.39D-06    CP:  1.00D+00  9.80D-01
 E= -1638.83294023994     Delta-E=       -0.000000887097 Rises=F Damp=F
 DIIS: error= 1.89D-05 at cycle   3 NSaved=   3.
 NSaved= 3 IEnMin= 3 EnMin= -1638.83294023994     IErMin= 3 ErrMin= 1.89D-05
 ErrMax= 1.89D-05  0.00D+00 EMaxC= 1.00D-01 BMatC= 1.97D-07 BMatP= 9.83D-07
 IDIUse=1 WtCom= 1.00D+00 WtEn= 0.00D+00
 Coeff-Com:  0.294D-01 0.284D+00 0.687D+00
 Coeff:      0.294D-01 0.284D+00 0.687D+00
 Gap=     0.222 Goal=   None    Shift=    0.000
 RMSDP=1.42D-06 MaxDP=8.21D-05 DE=-8.87D-07 OVMax= 1.06D-04

 Cycle  12  Pass 1  IDiag  1:
 RMSU=  7.98D-07    CP:  1.00D+00  9.93D-01  7.47D-01
 E= -1638.83294038181     Delta-E=       -0.000000141871 Rises=F Damp=F
 DIIS: error= 5.90D-06 at cycle   4 NSaved=   4.
 NSaved= 4 IEnMin= 4 EnMin= -1638.83294038181     IErMin= 4 ErrMin= 5.90D-06
 ErrMax= 5.90D-06  0.00D+00 EMaxC= 1.00D-01 BMatC= 2.35D-08 BMatP= 1.97D-07
 IDIUse=1 WtCom= 1.00D+00 WtEn= 0.00D+00
 Coeff-Com: -0.503D-02 0.160D+00 0.437D+00 0.408D+00
 Coeff:     -0.503D-02 0.160D+00 0.437D+00 0.408D+00
 Gap=     0.222 Goal=   None    Shift=    0.000
 RMSDP=4.83D-07 MaxDP=2.51D-05 DE=-1.42D-07 OVMax= 3.01D-05

 Cycle  13  Pass 1  IDiag  1:
 RMSU=  2.01D-07    CP:  1.00D+00  9.94D-01  7.40D-01  4.53D-01
 E= -1638.83294040075     Delta-E=       -0.000000018940 Rises=F Damp=F
 DIIS: error= 1.49D-06 at cycle   5 NSaved=   5.
 NSaved= 5 IEnMin= 5 EnMin= -1638.83294040075     IErMin= 5 ErrMin= 1.49D-06
 ErrMax= 1.49D-06  0.00D+00 EMaxC= 1.00D-01 BMatC= 7.31D-10 BMatP= 2.35D-08
 IDIUse=1 WtCom= 1.00D+00 WtEn= 0.00D+00
 Coeff-Com: -0.426D-02 0.789D-01 0.219D+00 0.236D+00 0.470D+00
 Coeff:     -0.426D-02 0.789D-01 0.219D+00 0.236D+00 0.470D+00
 Gap=     0.222 Goal=   None    Shift=    0.000
 RMSDP=9.19D-08 MaxDP=4.75D-06 DE=-1.89D-08 OVMax= 4.36D-06

 Cycle  14  Pass 1  IDiag  1:
 RMSU=  6.33D-08    CP:  1.00D+00  9.94D-01  7.40D-01  4.65D-01  6.74D-01
 E= -1638.83294040137     Delta-E=       -0.000000000626 Rises=F Damp=F
 DIIS: error= 1.35D-07 at cycle   6 NSaved=   6.
 NSaved= 6 IEnMin= 6 EnMin= -1638.83294040137     IErMin= 6 ErrMin= 1.35D-07
 ErrMax= 1.35D-07  0.00D+00 EMaxC= 1.00D-01 BMatC= 1.92D-11 BMatP= 7.31D-10
 IDIUse=1 WtCom= 1.00D+00 WtEn= 0.00D+00
 Coeff-Com: -0.123D-02 0.176D-01 0.497D-01 0.591D-01 0.182D+00 0.693D+00
 Coeff:     -0.123D-02 0.176D-01 0.497D-01 0.591D-01 0.182D+00 0.693D+00
 Gap=     0.222 Goal=   None    Shift=    0.000
 RMSDP=2.12D-08 MaxDP=8.51D-07 DE=-6.26D-10 OVMax= 1.55D-06

 Cycle  15  Pass 1  IDiag  1:
 RMSU=  1.90D-08    CP:  1.00D+00  9.94D-01  7.41D-01  4.65D-01  7.03D-01
                    CP:  8.90D-01
 E= -1638.83294040143     Delta-E=       -0.000000000059 Rises=F Damp=F
 DIIS: error= 1.06D-07 at cycle   7 NSaved=   7.
 NSaved= 7 IEnMin= 7 EnMin= -1638.83294040143     IErMin= 7 ErrMin= 1.06D-07
 ErrMax= 1.06D-07  0.00D+00 EMaxC= 1.00D-01 BMatC= 6.17D-12 BMatP= 1.92D-11
 IDIUse=1 WtCom= 1.00D+00 WtEn= 0.00D+00
 Coeff-Com: -0.292D-03 0.210D-02 0.631D-02 0.988D-02 0.563D-01 0.410D+00
 Coeff-Com:  0.516D+00
 Coeff:     -0.292D-03 0.210D-02 0.631D-02 0.988D-02 0.563D-01 0.410D+00
 Coeff:      0.516D+00
 Gap=     0.222 Goal=   None    Shift=    0.000
 RMSDP=1.16D-08 MaxDP=4.55D-07 DE=-5.87D-11 OVMax= 8.58D-07

 Cycle  16  Pass 1  IDiag  1:
 RMSU=  6.86D-09    CP:  1.00D+00  9.94D-01  7.41D-01  4.68D-01  7.12D-01
                    CP:  9.38D-01  5.68D-01
 E= -1638.83294040141     Delta-E=        0.000000000025 Rises=F Damp=F
 DIIS: error= 5.67D-08 at cycle   8 NSaved=   8.
 NSaved= 8 IEnMin= 7 EnMin= -1638.83294040143     IErMin= 8 ErrMin= 5.67D-08
 ErrMax= 5.67D-08  0.00D+00 EMaxC= 1.00D-01 BMatC= 1.31D-12 BMatP= 6.17D-12
 IDIUse=1 WtCom= 1.00D+00 WtEn= 0.00D+00
 Coeff-Com: -0.886D-05-0.126D-02-0.334D-02-0.236D-02 0.103D-01 0.175D+00
 Coeff-Com:  0.344D+00 0.477D+00
 Coeff:     -0.886D-05-0.126D-02-0.334D-02-0.236D-02 0.103D-01 0.175D+00
 Coeff:      0.344D+00 0.477D+00
 Gap=     0.222 Goal=   None    Shift=    0.000
 RMSDP=4.37D-09 MaxDP=2.66D-07 DE= 2.55D-11 OVMax= 4.03D-07

 SCF Done:  E(RB3LYP) =  -1638.83294040     A.U. after   16 cycles
            NFock= 16  Conv=0.44D-08     -V/T= 2.0066
 KE= 1.628092035691D+03 PE=-7.773742248194D+03 EE= 2.544953688231D+03
 Leave Link  502 at Sat Aug  8 02:41:31 2020, MaxMem=    33554432 cpu:       354.9
 (Enter /prod/apps/gaussian/g09d1/l601.exe)
 Copying SCF densities to generalized density rwf, IOpCl= 0 IROHF=0.

 **********************************************************************

            Population analysis using the SCF density.

 **********************************************************************

 Orbital symmetries:
       Occupied  (A) (A) (A) (A) (A) (A) (A) (A) (A) (A) (A) (A)
                 (A) (A) (A) (A) (A) (A) (A) (A) (A) (A) (A) (A)
                 (A) (A) (A) (A) (A) (A) (A) (A) (A) (A) (A) (A)
                 (A) (A) (A) (A) (A) (A) (A) (A) (A) (A) (A) (A)
                 (A) (A) (A) (A) (A) (A) (A) (A) (A) (A) (A) (A)
                 (A) (A) (A) (A) (A) (A) (A) (A) (A) (A) (A) (A)
                 (A) (A) (A) (A) (A) (A) (A) (A) (A) (A) (A) (A)
       Virtual   (A) (A) (A) (A) (A) (A) (A) (A) (A) (A) (A) (A)
                 (A) (A) (A) (A) (A) (A) (A) (A) (A) (A) (A) (A)
                 (A) (A) (A) (A) (A) (A) (A) (A) (A) (A) (A) (A)
                 (A) (A) (A) (A) (A) (A) (A) (A) (A) (A) (A) (A)
                 (A) (A) (A) (A) (A) (A) (A) (A) (A) (A) (A) (A)
                 (A) (A) (A) (A) (A) (A) (A) (A) (A) (A) (A) (A)
                 (A) (A) (A) (A) (A) (A) (A) (A) (A) (A) (A) (A)
                 (A) (A) (A) (A) (A) (A) (A) (A) (A) (A) (A) (A)
                 (A) (A) (A) (A) (A) (A) (A) (A) (A) (A) (A) (A)
                 (A) (A) (A) (A) (A) (A) (A) (A) (A) (A) (A) (A)
                 (A) (A) (A) (A) (A) (A) (A) (A) (A) (A) (A) (A)
                 (A) (A) (A) (A) (A) (A) (A) (A) (A) (A) (A) (A)
                 (A) (A) (A) (A) (A) (A) (A) (A) (A) (A) (A) (A)
                 (A) (A) (A) (A) (A) (A) (A) (A) (A) (A) (A) (A)
                 (A) (A) (A) (A) (A) (A) (A) (A) (A) (A) (A) (A)
                 (A) (A) (A) (A) (A) (A) (A) (A) (A) (A) (A) (A)
                 (A) (A) (A) (A) (A) (A) (A) (A) (A) (A) (A) (A)
                 (A) (A) (A) (A) (A) (A) (A) (A) (A) (A) (A) (A)
                 (A) (A) (A) (A) (A) (A) (A) (A) (A) (A) (A) (A)
                 (A) (A) (A) (A) (A) (A) (A) (A) (A) (A) (A) (A)
                 (A) (A) (A) (A) (A) (A) (A) (A) (A) (A) (A) (A)
                 (A) (A) (A) (A) (A) (A) (A) (A) (A) (A) (A) (A)
 The electronic state is 1-A.
 Alpha  occ. eigenvalues --  -89.13811 -88.98125 -19.15261 -19.15147 -19.10805
 Alpha  occ. eigenvalues --  -14.38719 -14.38174 -10.26776 -10.23849 -10.23412
 Alpha  occ. eigenvalues --  -10.21555 -10.21337 -10.20460 -10.20104 -10.20069
 Alpha  occ. eigenvalues --  -10.19241 -10.19181 -10.19118 -10.19023 -10.18912
 Alpha  occ. eigenvalues --   -8.16045  -8.02928  -6.12521  -6.12473  -6.12443
 Alpha  occ. eigenvalues --   -5.99330  -5.99162  -5.98707  -1.12993  -1.01021
 Alpha  occ. eigenvalues --   -0.99636  -0.95523  -0.94295  -0.85915  -0.84621
 Alpha  occ. eigenvalues --   -0.79673  -0.74503  -0.74341  -0.74084  -0.71866
 Alpha  occ. eigenvalues --   -0.70267  -0.67696  -0.62749  -0.61725  -0.60679
 Alpha  occ. eigenvalues --   -0.58317  -0.56308  -0.55570  -0.52252  -0.51636
 Alpha  occ. eigenvalues --   -0.51170  -0.49502  -0.48253  -0.48146  -0.46907
 Alpha  occ. eigenvalues --   -0.46331  -0.45061  -0.44376  -0.43742  -0.42813
 Alpha  occ. eigenvalues --   -0.42494  -0.42392  -0.42085  -0.41497  -0.40233
 Alpha  occ. eigenvalues --   -0.39853  -0.39397  -0.38333  -0.37343  -0.36443
 Alpha  occ. eigenvalues --   -0.35522  -0.35384  -0.34946  -0.34077  -0.33890
 Alpha  occ. eigenvalues --   -0.33305  -0.32195  -0.30948  -0.28866  -0.26887
 Alpha  occ. eigenvalues --   -0.25390  -0.25103  -0.24481  -0.22574
 Alpha virt. eigenvalues --   -0.00398  -0.00190   0.01126   0.03209   0.04118
 Alpha virt. eigenvalues --    0.05616   0.06304   0.07222   0.08359   0.08922
 Alpha virt. eigenvalues --    0.09630   0.10002   0.10483   0.11946   0.12396
 Alpha virt. eigenvalues --    0.12476   0.13678   0.14403   0.14786   0.14847
 Alpha virt. eigenvalues --    0.15569   0.15720   0.16800   0.17300   0.17917
 Alpha virt. eigenvalues --    0.18308   0.18869   0.19048   0.19756   0.19984
 Alpha virt. eigenvalues --    0.20423   0.20713   0.22138   0.23384   0.25296
 Alpha virt. eigenvalues --    0.26007   0.27186   0.27994   0.30447   0.32021
 Alpha virt. eigenvalues --    0.33033   0.33176   0.34553   0.35879   0.36272
 Alpha virt. eigenvalues --    0.38698   0.42923   0.43145   0.44184   0.45747
 Alpha virt. eigenvalues --    0.46464   0.47922   0.48816   0.49691   0.51474
 Alpha virt. eigenvalues --    0.52094   0.52781   0.53813   0.54572   0.54928
 Alpha virt. eigenvalues --    0.55343   0.56944   0.57419   0.58241   0.59440
 Alpha virt. eigenvalues --    0.59545   0.60302   0.60540   0.61122   0.61523
 Alpha virt. eigenvalues --    0.61918   0.63025   0.63799   0.65028   0.65668
 Alpha virt. eigenvalues --    0.66365   0.66544   0.67980   0.68464   0.70811
 Alpha virt. eigenvalues --    0.71400   0.72491   0.73420   0.75867   0.76510
 Alpha virt. eigenvalues --    0.76720   0.79511   0.80653   0.81574   0.81780
 Alpha virt. eigenvalues --    0.82617   0.82898   0.83377   0.83773   0.84023
 Alpha virt. eigenvalues --    0.84971   0.85302   0.85841   0.86674   0.87052
 Alpha virt. eigenvalues --    0.87874   0.88477   0.88935   0.89544   0.90740
 Alpha virt. eigenvalues --    0.91210   0.91636   0.92765   0.93082   0.94087
 Alpha virt. eigenvalues --    0.94476   0.95408   0.95945   0.97705   0.98654
 Alpha virt. eigenvalues --    0.98882   1.00307   1.00825   1.03050   1.03200
 Alpha virt. eigenvalues --    1.04295   1.04743   1.05797   1.07163   1.08439
 Alpha virt. eigenvalues --    1.10759   1.11713   1.12474   1.12878   1.13620
 Alpha virt. eigenvalues --    1.14749   1.15357   1.16373   1.17020   1.17745
 Alpha virt. eigenvalues --    1.20615   1.22806   1.24548   1.25281   1.26880
 Alpha virt. eigenvalues --    1.29101   1.31606   1.35398   1.37363   1.39091
 Alpha virt. eigenvalues --    1.41369   1.42460   1.42822   1.43379   1.46394
 Alpha virt. eigenvalues --    1.46522   1.47950   1.48696   1.50053   1.51319
 Alpha virt. eigenvalues --    1.52227   1.52629   1.59131   1.60630   1.66254
 Alpha virt. eigenvalues --    1.68254   1.71614   1.72264   1.74350   1.75295
 Alpha virt. eigenvalues --    1.77565   1.78890   1.79996   1.80532   1.81139
 Alpha virt. eigenvalues --    1.81257   1.82977   1.83316   1.85395   1.86352
 Alpha virt. eigenvalues --    1.86964   1.88579   1.89173   1.91085   1.91625
 Alpha virt. eigenvalues --    1.92086   1.92593   1.93384   1.94155   1.95417
 Alpha virt. eigenvalues --    1.96369   1.97751   1.98405   1.99533   2.01893
 Alpha virt. eigenvalues --    2.03368   2.04113   2.05465   2.06382   2.07026
 Alpha virt. eigenvalues --    2.08303   2.09388   2.09893   2.11231   2.12391
 Alpha virt. eigenvalues --    2.13798   2.14121   2.14808   2.17556   2.18278
 Alpha virt. eigenvalues --    2.20568   2.21569   2.22774   2.23408   2.25597
 Alpha virt. eigenvalues --    2.26539   2.27524   2.29124   2.30766   2.32245
 Alpha virt. eigenvalues --    2.32943   2.36458   2.37438   2.40738   2.41612
 Alpha virt. eigenvalues --    2.42777   2.46007   2.46658   2.50256   2.56218
 Alpha virt. eigenvalues --    2.57602   2.57842   2.59901   2.65818   2.68290
 Alpha virt. eigenvalues --    2.70622   2.71761   2.72172   2.73420   2.74161
 Alpha virt. eigenvalues --    2.74818   2.76215   2.76697   2.80921   2.85024
 Alpha virt. eigenvalues --    2.85574   2.94361   3.05015   3.40752   3.77175
 Alpha virt. eigenvalues --    3.85418   3.93186   3.95025   4.00879   4.04009
 Alpha virt. eigenvalues --    4.07948   4.09221   4.11400   4.14564   4.21066
 Alpha virt. eigenvalues --    4.25311   4.26450   4.28998   4.32632   4.35471
 Alpha virt. eigenvalues --    4.40527   4.51541   4.69821   4.72295
          Condensed to atoms (all electrons):
               1          2          3          4          5          6
     1  O    8.303192   0.399956  -0.052265   0.005175  -0.008606   0.000226
     2  S    0.399956  13.574923   0.117735  -0.008639  -0.005919   0.001129
     3  N   -0.052265   0.117735   7.420034   0.231214  -0.047385   0.003380
     4  C    0.005175  -0.008639   0.231214   4.842278   0.329762  -0.059313
     5  C   -0.008606  -0.005919  -0.047385   0.329762   5.681854   0.057640
     6  S    0.000226   0.001129   0.003380  -0.059313   0.057640  14.929255
     7  O    0.000000   0.000010  -0.000055  -0.000691  -0.039380   0.297106
     8  C   -0.006942  -0.001969  -0.051598   0.331498  -0.126211   0.056465
     9  C    0.000227  -0.000068  -0.050778   0.340303  -0.044965   0.005026
    10  C   -0.000003  -0.000208  -0.004800  -0.029129   0.004719  -0.000538
    11  C    0.000000   0.000015   0.000241   0.003545  -0.000093   0.000044
    12  C    0.000000   0.000000   0.000003   0.000011  -0.000001   0.000001
    13  C    0.000000   0.000000   0.000000   0.000002   0.000000   0.000000
    14  C    0.000000   0.000000   0.000000   0.000000   0.000000   0.000000
    15  C    0.000000   0.000000   0.000000   0.000003   0.000000   0.000000
    16  C    0.000000   0.000000  -0.000002   0.000275  -0.000012  -0.000002
    17  N   -0.050999   0.157773  -0.056676   0.002168   0.000008  -0.000004
    18  C    0.001444  -0.009490  -0.000529   0.000019   0.000000   0.000000
    19  C   -0.006733  -0.011594   0.000294  -0.000155  -0.000025   0.000002
    20  O   -0.043527   0.454618  -0.057380  -0.002178  -0.000064   0.000010
    21  H    0.001826  -0.008676   0.285723  -0.033893   0.004683  -0.000351
    22  H    0.000221   0.000303   0.001643  -0.030439   0.351081  -0.018247
    23  H    0.013445   0.001287  -0.004440  -0.024512   0.322819  -0.005105
    24  H    0.000185   0.000077   0.001900  -0.028815   0.010625  -0.018469
    25  H    0.008843   0.007448  -0.008398  -0.023483   0.002202  -0.005415
    26  H   -0.000002   0.000011  -0.003297  -0.033510  -0.006184  -0.000194
    27  H    0.000001   0.000047   0.002872  -0.030092  -0.009373   0.006325
    28  H    0.000000   0.000066  -0.000335  -0.005154   0.000044  -0.000082
    29  H    0.000000  -0.000014   0.000796  -0.004610  -0.000010  -0.000015
    30  H    0.000000   0.000000  -0.000009  -0.000024   0.000000   0.000000
    31  H    0.000000   0.000000   0.000000   0.000000   0.000000   0.000000
    32  H    0.000000   0.000000   0.000000   0.000000   0.000000   0.000000
    33  H    0.000000   0.000000   0.000000   0.000000   0.000000   0.000000
    34  H    0.000000   0.000000   0.000000  -0.000151   0.000006  -0.000005
    35  H    0.000049  -0.000070  -0.000257   0.000001   0.000000   0.000000
    36  H   -0.000042   0.002391  -0.000103   0.000003   0.000000   0.000000
    37  H   -0.000063  -0.009751   0.003469  -0.000089  -0.000003   0.000000
    38  H    0.010884   0.001037  -0.001376  -0.000062   0.000088   0.000000
    39  H   -0.000268  -0.009179   0.008469  -0.000341   0.000036   0.000007
    40  H    0.000070   0.002221   0.000058   0.000006  -0.000001   0.000000
               7          8          9         10         11         12
     1  O    0.000000  -0.006942   0.000227  -0.000003   0.000000   0.000000
     2  S    0.000010  -0.001969  -0.000068  -0.000208   0.000015   0.000000
     3  N   -0.000055  -0.051598  -0.050778  -0.004800   0.000241   0.000003
     4  C   -0.000691   0.331498   0.340303  -0.029129   0.003545   0.000011
     5  C   -0.039380  -0.126211  -0.044965   0.004719  -0.000093  -0.000001
     6  S    0.297106   0.056465   0.005026  -0.000538   0.000044   0.000001
     7  O    8.387255  -0.039307  -0.008425  -0.000012   0.000043   0.000000
     8  C   -0.039307   5.707620  -0.057828  -0.010178   0.000045  -0.000004
     9  C   -0.008425  -0.057828   5.232364   0.343424  -0.043454  -0.002493
    10  C   -0.000012  -0.010178   0.343424   5.200155   0.344070  -0.053847
    11  C    0.000043   0.000045  -0.043454   0.344070   4.643538   0.552553
    12  C    0.000000  -0.000004  -0.002493  -0.053847   0.552553   4.960365
    13  C    0.000000   0.000000  -0.000091   0.007187  -0.019377   0.521141
    14  C    0.000000   0.000000   0.000001   0.000389  -0.034746  -0.035906
    15  C   -0.000001   0.000000   0.000167   0.006418  -0.017811  -0.047101
    16  C   -0.000235   0.000006  -0.003865  -0.062334   0.542539  -0.036447
    17  N    0.000000  -0.000136  -0.000116   0.000002   0.000000   0.000000
    18  C    0.000000   0.000005  -0.000006  -0.000002   0.000000   0.000000
    19  C    0.000000   0.000005   0.000002   0.000000   0.000000   0.000000
    20  O    0.000000   0.001200  -0.000129  -0.000023   0.000000   0.000000
    21  H    0.000002   0.001837  -0.008740   0.006839  -0.000115  -0.000032
    22  H   -0.000027   0.010465  -0.006047   0.000137  -0.000010   0.000000
    23  H    0.001207   0.002571   0.004134  -0.000112   0.000001   0.000000
    24  H    0.000301   0.346569  -0.006832   0.001831  -0.000044   0.000001
    25  H    0.001186   0.323064   0.004565  -0.000017   0.000002   0.000000
    26  H    0.000275   0.006409   0.351657  -0.038544  -0.000758   0.002390
    27  H    0.027293  -0.005811   0.351030  -0.032529  -0.002607   0.000020
    28  H    0.000088   0.003495  -0.042877   0.359917  -0.025902   0.002788
    29  H   -0.000003  -0.000106  -0.039784   0.350404  -0.030615  -0.004333
    30  H    0.000000   0.000000   0.000161  -0.011385  -0.047065   0.352398
    31  H    0.000000   0.000000   0.000000  -0.000186   0.003847  -0.039944
    32  H    0.000000   0.000000   0.000000   0.000007   0.000708   0.004721
    33  H    0.000000   0.000000   0.000000  -0.000186   0.003618   0.000903
    34  H    0.000640  -0.000014  -0.000310  -0.008699  -0.046223   0.005838
    35  H    0.000000  -0.000001   0.000000   0.000000   0.000000   0.000000
    36  H    0.000000   0.000000   0.000000   0.000000   0.000000   0.000000
    37  H    0.000000   0.000004   0.000019  -0.000004   0.000000   0.000000
    38  H    0.000000  -0.000003  -0.000003   0.000000   0.000000   0.000000
    39  H    0.000000   0.000016   0.000030  -0.000001   0.000000   0.000000
    40  H    0.000000   0.000000   0.000000   0.000000   0.000000   0.000000
              13         14         15         16         17         18
     1  O    0.000000   0.000000   0.000000   0.000000  -0.050999   0.001444
     2  S    0.000000   0.000000   0.000000   0.000000   0.157773  -0.009490
     3  N    0.000000   0.000000   0.000000  -0.000002  -0.056676  -0.000529
     4  C    0.000002   0.000000   0.000003   0.000275   0.002168   0.000019
     5  C    0.000000   0.000000   0.000000  -0.000012   0.000008   0.000000
     6  S    0.000000   0.000000   0.000000  -0.000002  -0.000004   0.000000
     7  O    0.000000   0.000000  -0.000001  -0.000235   0.000000   0.000000
     8  C    0.000000   0.000000   0.000000   0.000006  -0.000136   0.000005
     9  C   -0.000091   0.000001   0.000167  -0.003865  -0.000116  -0.000006
    10  C    0.007187   0.000389   0.006418  -0.062334   0.000002  -0.000002
    11  C   -0.019377  -0.034746  -0.017811   0.542539   0.000000   0.000000
    12  C    0.521141  -0.035906  -0.047101  -0.036447   0.000000   0.000000
    13  C    4.868796   0.552241  -0.025065  -0.048495   0.000000   0.000000
    14  C    0.552241   4.853078   0.546589  -0.034807   0.000000   0.000000
    15  C   -0.025065   0.546589   4.863866   0.525636   0.000000   0.000000
    16  C   -0.048495  -0.034807   0.525636   4.963764   0.000000   0.000000
    17  N    0.000000   0.000000   0.000000   0.000000   7.175734   0.279753
    18  C    0.000000   0.000000   0.000000   0.000000   0.279753   5.005724
    19  C    0.000000   0.000000   0.000000   0.000000   0.276505  -0.052655
    20  O    0.000000   0.000000   0.000000   0.000000  -0.055586  -0.007453
    21  H   -0.000001   0.000000   0.000000   0.000005  -0.000562   0.000797
    22  H    0.000000   0.000000   0.000000   0.000000   0.000003   0.000000
    23  H    0.000000   0.000000   0.000000   0.000000  -0.000205  -0.000001
    24  H    0.000000   0.000000   0.000000  -0.000011   0.000002   0.000000
    25  H    0.000000   0.000000   0.000000  -0.000001   0.000029  -0.000001
    26  H   -0.000078  -0.000006  -0.000028  -0.000162  -0.000011   0.000000
    27  H   -0.000016   0.000005  -0.000191   0.003868   0.000001   0.000000
    28  H   -0.000213   0.000018   0.000022  -0.004299   0.000000   0.000000
    29  H    0.000120   0.000007  -0.000197   0.004469   0.000010  -0.000010
    30  H   -0.046344   0.004969   0.000313   0.006449   0.000000   0.000000
    31  H    0.356379  -0.043144   0.004602   0.000811   0.000000   0.000000
    32  H   -0.043327   0.359268  -0.042874   0.004745   0.000000   0.000000
    33  H    0.004516  -0.043140   0.357337  -0.038522   0.000000   0.000000
    34  H    0.000356   0.004728  -0.042428   0.355690   0.000000   0.000000
    35  H    0.000000   0.000000   0.000000   0.000000  -0.031204   0.375562
    36  H    0.000000   0.000000   0.000000   0.000000  -0.036348   0.377627
    37  H    0.000000   0.000000   0.000000   0.000000  -0.048934   0.365564
    38  H    0.000000   0.000000   0.000000   0.000000  -0.032205   0.004622
    39  H    0.000000   0.000000   0.000000   0.000000  -0.047594  -0.002203
    40  H    0.000000   0.000000   0.000000   0.000000  -0.034951  -0.003755
              19         20         21         22         23         24
     1  O   -0.006733  -0.043527   0.001826   0.000221   0.013445   0.000185
     2  S   -0.011594   0.454618  -0.008676   0.000303   0.001287   0.000077
     3  N    0.000294  -0.057380   0.285723   0.001643  -0.004440   0.001900
     4  C   -0.000155  -0.002178  -0.033893  -0.030439  -0.024512  -0.028815
     5  C   -0.000025  -0.000064   0.004683   0.351081   0.322819   0.010625
     6  S    0.000002   0.000010  -0.000351  -0.018247  -0.005105  -0.018469
     7  O    0.000000   0.000000   0.000002  -0.000027   0.001207   0.000301
     8  C    0.000005   0.001200   0.001837   0.010465   0.002571   0.346569
     9  C    0.000002  -0.000129  -0.008740  -0.006047   0.004134  -0.006832
    10  C    0.000000  -0.000023   0.006839   0.000137  -0.000112   0.001831
    11  C    0.000000   0.000000  -0.000115  -0.000010   0.000001  -0.000044
    12  C    0.000000   0.000000  -0.000032   0.000000   0.000000   0.000001
    13  C    0.000000   0.000000  -0.000001   0.000000   0.000000   0.000000
    14  C    0.000000   0.000000   0.000000   0.000000   0.000000   0.000000
    15  C    0.000000   0.000000   0.000000   0.000000   0.000000   0.000000
    16  C    0.000000   0.000000   0.000005   0.000000   0.000000  -0.000011
    17  N    0.276505  -0.055586  -0.000562   0.000003  -0.000205   0.000002
    18  C   -0.052655  -0.007453   0.000797   0.000000  -0.000001   0.000000
    19  C    5.000072   0.001636   0.000114  -0.000003   0.000013   0.000000
    20  O    0.001636   8.226664   0.001990   0.000001   0.000015  -0.000097
    21  H    0.000114   0.001990   0.387103  -0.000022   0.000003   0.000190
    22  H   -0.000003   0.000001  -0.000022   0.515185  -0.019021  -0.000343
    23  H    0.000013   0.000015   0.000003  -0.019021   0.489324  -0.000296
    24  H    0.000000  -0.000097   0.000190  -0.000343  -0.000296   0.510113
    25  H    0.000001  -0.000196  -0.000053  -0.000315   0.000000  -0.018343
    26  H   -0.000003   0.000002   0.000530   0.004217  -0.000015   0.000089
    27  H    0.000000   0.000001   0.000412   0.000473   0.000234  -0.000200
    28  H    0.000000  -0.000001  -0.000157   0.000013  -0.000001   0.006948
    29  H    0.000000   0.000014   0.010685  -0.000002   0.000002   0.000032
    30  H    0.000000   0.000000   0.000065   0.000000   0.000000   0.000000
    31  H    0.000000   0.000000   0.000000   0.000000   0.000000   0.000000
    32  H    0.000000   0.000000   0.000000   0.000000   0.000000   0.000000
    33  H    0.000000   0.000000   0.000000   0.000000   0.000000   0.000000
    34  H    0.000000   0.000000   0.000001   0.000000   0.000000   0.000235
    35  H    0.004443   0.010951   0.000004   0.000000   0.000000   0.000000
    36  H   -0.003102   0.000156  -0.000038   0.000000   0.000000   0.000000
    37  H   -0.002101   0.000066   0.001911   0.000000   0.000002   0.000000
    38  H    0.375976   0.000023  -0.000017  -0.000010   0.000472   0.000000
    39  H    0.368219  -0.000021   0.000181   0.000015   0.000102   0.000000
    40  H    0.375168  -0.000047  -0.000013   0.000000  -0.000001   0.000000
              25         26         27         28         29         30
     1  O    0.008843  -0.000002   0.000001   0.000000   0.000000   0.000000
     2  S    0.007448   0.000011   0.000047   0.000066  -0.000014   0.000000
     3  N   -0.008398  -0.003297   0.002872  -0.000335   0.000796  -0.000009
     4  C   -0.023483  -0.033510  -0.030092  -0.005154  -0.004610  -0.000024
     5  C    0.002202  -0.006184  -0.009373   0.000044  -0.000010   0.000000
     6  S   -0.005415  -0.000194   0.006325  -0.000082  -0.000015   0.000000
     7  O    0.001186   0.000275   0.027293   0.000088  -0.000003   0.000000
     8  C    0.323064   0.006409  -0.005811   0.003495  -0.000106   0.000000
     9  C    0.004565   0.351657   0.351030  -0.042877  -0.039784   0.000161
    10  C   -0.000017  -0.038544  -0.032529   0.359917   0.350404  -0.011385
    11  C    0.000002  -0.000758  -0.002607  -0.025902  -0.030615  -0.047065
    12  C    0.000000   0.002390   0.000020   0.002788  -0.004333   0.352398
    13  C    0.000000  -0.000078  -0.000016  -0.000213   0.000120  -0.046344
    14  C    0.000000  -0.000006   0.000005   0.000018   0.000007   0.004969
    15  C    0.000000  -0.000028  -0.000191   0.000022  -0.000197   0.000313
    16  C   -0.000001  -0.000162   0.003868  -0.004299   0.004469   0.006449
    17  N    0.000029  -0.000011   0.000001   0.000000   0.000010   0.000000
    18  C   -0.000001   0.000000   0.000000   0.000000  -0.000010   0.000000
    19  C    0.000001  -0.000003   0.000000   0.000000   0.000000   0.000000
    20  O   -0.000196   0.000002   0.000001  -0.000001   0.000014   0.000000
    21  H   -0.000053   0.000530   0.000412  -0.000157   0.010685   0.000065
    22  H   -0.000315   0.004217   0.000473   0.000013  -0.000002   0.000000
    23  H    0.000000  -0.000015   0.000234  -0.000001   0.000002   0.000000
    24  H   -0.018343   0.000089  -0.000200   0.006948   0.000032   0.000000
    25  H    0.486748  -0.000127   0.000070  -0.000158  -0.000033   0.000000
    26  H   -0.000127   0.589261  -0.022773   0.005717  -0.005112   0.000216
    27  H    0.000070  -0.022773   0.500397  -0.003125   0.004643   0.000026
    28  H   -0.000158   0.005717  -0.003125   0.575192  -0.035467   0.000097
    29  H   -0.000033  -0.005112   0.004643  -0.035467   0.610181   0.007562
    30  H    0.000000   0.000216   0.000026   0.000097   0.007562   0.623902
    31  H    0.000000   0.000001   0.000000   0.000003  -0.000010  -0.005760
    32  H    0.000000   0.000000   0.000000   0.000000   0.000000  -0.000183
    33  H    0.000000   0.000000   0.000004  -0.000004   0.000003   0.000018
    34  H    0.000001   0.000079   0.002233   0.003449   0.000047  -0.000178
    35  H    0.000000   0.000000   0.000000   0.000000   0.000001   0.000000
    36  H    0.000000   0.000000   0.000000   0.000000   0.000000   0.000000
    37  H    0.000001   0.000011   0.000000   0.000000  -0.000015   0.000000
    38  H   -0.000005  -0.000001   0.000000   0.000000   0.000000   0.000000
    39  H    0.000001   0.000064  -0.000001   0.000000  -0.000001   0.000000
    40  H    0.000000   0.000000   0.000000   0.000000   0.000000   0.000000
              31         32         33         34         35         36
     1  O    0.000000   0.000000   0.000000   0.000000   0.000049  -0.000042
     2  S    0.000000   0.000000   0.000000   0.000000  -0.000070   0.002391
     3  N    0.000000   0.000000   0.000000   0.000000  -0.000257  -0.000103
     4  C    0.000000   0.000000   0.000000  -0.000151   0.000001   0.000003
     5  C    0.000000   0.000000   0.000000   0.000006   0.000000   0.000000
     6  S    0.000000   0.000000   0.000000  -0.000005   0.000000   0.000000
     7  O    0.000000   0.000000   0.000000   0.000640   0.000000   0.000000
     8  C    0.000000   0.000000   0.000000  -0.000014  -0.000001   0.000000
     9  C    0.000000   0.000000   0.000000  -0.000310   0.000000   0.000000
    10  C   -0.000186   0.000007  -0.000186  -0.008699   0.000000   0.000000
    11  C    0.003847   0.000708   0.003618  -0.046223   0.000000   0.000000
    12  C   -0.039944   0.004721   0.000903   0.005838   0.000000   0.000000
    13  C    0.356379  -0.043327   0.004516   0.000356   0.000000   0.000000
    14  C   -0.043144   0.359268  -0.043140   0.004728   0.000000   0.000000
    15  C    0.004602  -0.042874   0.357337  -0.042428   0.000000   0.000000
    16  C    0.000811   0.004745  -0.038522   0.355690   0.000000   0.000000
    17  N    0.000000   0.000000   0.000000   0.000000  -0.031204  -0.036348
    18  C    0.000000   0.000000   0.000000   0.000000   0.375562   0.377627
    19  C    0.000000   0.000000   0.000000   0.000000   0.004443  -0.003102
    20  O    0.000000   0.000000   0.000000   0.000000   0.010951   0.000156
    21  H    0.000000   0.000000   0.000000   0.000001   0.000004  -0.000038
    22  H    0.000000   0.000000   0.000000   0.000000   0.000000   0.000000
    23  H    0.000000   0.000000   0.000000   0.000000   0.000000   0.000000
    24  H    0.000000   0.000000   0.000000   0.000235   0.000000   0.000000
    25  H    0.000000   0.000000   0.000000   0.000001   0.000000   0.000000
    26  H    0.000001   0.000000   0.000000   0.000079   0.000000   0.000000
    27  H    0.000000   0.000000   0.000004   0.002233   0.000000   0.000000
    28  H    0.000003   0.000000  -0.000004   0.003449   0.000000   0.000000
    29  H   -0.000010   0.000000   0.000003   0.000047   0.000001   0.000000
    30  H   -0.005760  -0.000183   0.000018  -0.000178   0.000000   0.000000
    31  H    0.600210  -0.005597  -0.000189   0.000017   0.000000   0.000000
    32  H   -0.005597   0.597581  -0.005438  -0.000175   0.000000   0.000000
    33  H   -0.000189  -0.005438   0.591524  -0.005457   0.000000   0.000000
    34  H    0.000017  -0.000175  -0.005457   0.587030   0.000000   0.000000
    35  H    0.000000   0.000000   0.000000   0.000000   0.480867  -0.019631
    36  H    0.000000   0.000000   0.000000   0.000000  -0.019631   0.538702
    37  H    0.000000   0.000000   0.000000   0.000000  -0.031525  -0.040510
    38  H    0.000000   0.000000   0.000000   0.000000  -0.000189  -0.000022
    39  H    0.000000   0.000000   0.000000   0.000000  -0.000161  -0.001633
    40  H    0.000000   0.000000   0.000000   0.000000  -0.000015   0.005365
              37         38         39         40
     1  O   -0.000063   0.010884  -0.000268   0.000070
     2  S   -0.009751   0.001037  -0.009179   0.002221
     3  N    0.003469  -0.001376   0.008469   0.000058
     4  C   -0.000089  -0.000062  -0.000341   0.000006
     5  C   -0.000003   0.000088   0.000036  -0.000001
     6  S    0.000000   0.000000   0.000007   0.000000
     7  O    0.000000   0.000000   0.000000   0.000000
     8  C    0.000004  -0.000003   0.000016   0.000000
     9  C    0.000019  -0.000003   0.000030   0.000000
    10  C   -0.000004   0.000000  -0.000001   0.000000
    11  C    0.000000   0.000000   0.000000   0.000000
    12  C    0.000000   0.000000   0.000000   0.000000
    13  C    0.000000   0.000000   0.000000   0.000000
    14  C    0.000000   0.000000   0.000000   0.000000
    15  C    0.000000   0.000000   0.000000   0.000000
    16  C    0.000000   0.000000   0.000000   0.000000
    17  N   -0.048934  -0.032205  -0.047594  -0.034951
    18  C    0.365564   0.004622  -0.002203  -0.003755
    19  C   -0.002101   0.375976   0.368219   0.375168
    20  O    0.000066   0.000023  -0.000021  -0.000047
    21  H    0.001911  -0.000017   0.000181  -0.000013
    22  H    0.000000  -0.000010   0.000015   0.000000
    23  H    0.000002   0.000472   0.000102  -0.000001
    24  H    0.000000   0.000000   0.000000   0.000000
    25  H    0.000001  -0.000005   0.000001   0.000000
    26  H    0.000011  -0.000001   0.000064   0.000000
    27  H    0.000000   0.000000  -0.000001   0.000000
    28  H    0.000000   0.000000   0.000000   0.000000
    29  H   -0.000015   0.000000  -0.000001   0.000000
    30  H    0.000000   0.000000   0.000000   0.000000
    31  H    0.000000   0.000000   0.000000   0.000000
    32  H    0.000000   0.000000   0.000000   0.000000
    33  H    0.000000   0.000000   0.000000   0.000000
    34  H    0.000000   0.000000   0.000000   0.000000
    35  H   -0.031525  -0.000189  -0.000161  -0.000015
    36  H   -0.040510  -0.000022  -0.001633   0.005365
    37  H    0.609831  -0.000191   0.009101  -0.001464
    38  H   -0.000191   0.491408  -0.030397  -0.021527
    39  H    0.009101  -0.030397   0.586342  -0.038135
    40  H   -0.001464  -0.021527  -0.038135   0.545327
 Mulliken charges:
               1
     1  O   -0.576295
     2  S    1.344530
     3  N   -0.738147
     4  C    0.229018
     5  C   -0.477335
     6  S    0.751125
     7  O   -0.627270
     8  C   -0.491167
     9  C   -0.316300
    10  C   -0.372760
    11  C    0.174010
    12  C   -0.183023
    13  C   -0.127730
    14  C   -0.129542
    15  C   -0.129257
    16  C   -0.179064
    17  N   -0.496457
    18  C   -0.335013
    19  C   -0.326079
    20  O   -0.530645
    21  H    0.347769
    22  H    0.190729
    23  H    0.218078
    24  H    0.194353
    25  H    0.222382
    26  H    0.149876
    27  H    0.206763
    28  H    0.159918
    29  H    0.131360
    30  H    0.114773
    31  H    0.128959
    32  H    0.130564
    33  H    0.135013
    34  H    0.143291
    35  H    0.211176
    36  H    0.177185
    37  H    0.144671
    38  H    0.201497
    39  H    0.157351
    40  H    0.171694
 Sum of Mulliken charges =   0.00000
 Mulliken charges with hydrogens summed into heavy atoms:
               1
     1  O   -0.576295
     2  S    1.344530
     3  N   -0.390378
     4  C    0.229018
     5  C   -0.068528
     6  S    0.751125
     7  O   -0.627270
     8  C   -0.074432
     9  C    0.040339
    10  C   -0.081482
    11  C    0.174010
    12  C   -0.068250
    13  C    0.001229
    14  C    0.001022
    15  C    0.005755
    16  C   -0.035773
    17  N   -0.496457
    18  C    0.198019
    19  C    0.204464
    20  O   -0.530645
 Electronic spatial extent (au):  <R**2>=           8357.9617
 Charge=              0.0000 electrons
 Dipole moment (field-independent basis, Debye):
    X=             -0.2050    Y=             -5.3239    Z=              2.4505  Tot=              5.8644
 Quadrupole moment (field-independent basis, Debye-Ang):
   XX=           -135.4447   YY=           -135.0729   ZZ=           -134.3729
   XY=              2.1561   XZ=            -11.5247   YZ=             -6.4942
 Traceless Quadrupole moment (field-independent basis, Debye-Ang):
   XX=             -0.4812   YY=             -0.1094   ZZ=              0.5906
   XY=              2.1561   XZ=            -11.5247   YZ=             -6.4942
 Octapole moment (field-independent basis, Debye-Ang**2):
  XXX=             32.7127  YYY=            -79.6307  ZZZ=             10.8903  XYY=            -56.9717
  XXY=            -39.7742  XXZ=             47.8458  XZZ=            -21.9596  YZZ=             17.3589
  YYZ=             -2.4531  XYZ=             -3.4019
 Hexadecapole moment (field-independent basis, Debye-Ang**3):
 XXXX=          -7296.7385 YYYY=          -2865.4560 ZZZZ=           -656.2479 XXXY=            157.7088
 XXXZ=            -60.9930 YYYX=            -10.9690 YYYZ=            -32.5950 ZZZX=            -32.8432
 ZZZY=             -1.9899 XXYY=          -1623.3623 XXZZ=          -1443.4450 YYZZ=           -548.9547
 XXYZ=            -95.7354 YYXZ=             -0.9622 ZZXY=             19.3442
 N-N= 1.961863583871D+03 E-N=-7.773742241075D+03  KE= 1.628092035691D+03
 No NMR shielding tensors so no spin-rotation constants.
 Leave Link  601 at Sat Aug  8 02:41:31 2020, MaxMem=    33554432 cpu:         0.3
 (Enter /prod/apps/gaussian/g09d1/l9999.exe)
 1\1\GINC-PIRINEUS22\SP\RB3LYP\6-31G(d)\C13H20N2O3S2\UBAFAR01\08-Aug-20
 20\0\\#p b3lyp/6-31G(d)\\SM37.n.4.pdb.xyz\\0,1\O,0,4.206,-1.722,1.075\
 S,0,4.744,-0.762,0.105\N,0,3.592,-0.634,-1.113\C,0,2.804,-1.792,-1.575
 \C,0,1.703,-2.234,-0.587\S,0,1.936,-4.034,-1.033\O,0,1.044,-4.389,-2.2
 22\C,0,3.485,-3.185,-1.643\C,0,2.166,-1.413,-2.923\C,0,3.139,-1.217,-4
 .099\C,0,2.4,-0.974,-5.398\C,0,2.307,0.315,-5.938\C,0,1.605,0.547,-7.1
 24\C,0,0.984,-0.511,-7.788\C,0,1.071,-1.802,-7.26\C,0,1.773,-2.029,-6.
 076\N,0,4.781,0.736,0.843\C,0,5.458,1.812,0.102\C,0,3.521,1.147,1.483\
 O,0,6.084,-0.987,-0.453\H,0,3.977,-0.072,-1.875\H,0,0.691,-1.867,-0.76
 3\H,0,1.998,-2.113,0.455\H,0,3.82,-3.544,-2.616\H,0,4.256,-3.336,-0.88
 8\H,0,1.571,-0.505,-2.774\H,0,1.469,-2.22,-3.167\H,0,3.771,-2.107,-4.1
 96\H,0,3.81,-0.372,-3.917\H,0,2.792,1.141,-5.426\H,0,1.547,1.553,-7.52
 7\H,0,0.44,-0.334,-8.71\H,0,0.596,-2.633,-7.772\H,0,1.839,-3.036,-5.67
 4\H,0,6.388,1.437,-0.319\H,0,5.688,2.606,0.815\H,0,4.832,2.229,-0.697\
 H,0,3.115,0.309,2.048\H,0,2.781,1.494,0.752\H,0,3.754,1.96,2.173\\Vers
 ion=AM64L-G09RevD.01\State=1-A\HF=-1638.8329404\RMSD=4.369e-09\Dipole=
 -0.0336001,2.3024822,-0.1440775\Quadrupole=-7.8721869,4.7075547,3.1646
 322,-1.839306,-3.9462699,5.7821087\PG=C01 [X(C13H20N2O3S2)]\\@


 EDUCATION IS NOT TRAINING BUT RATHER THE PROCESS THAT EQUIPS YOU TO
 ENTERTAIN YOURSELF, A FRIEND, OR AN IDEA.  -- WALLACE STERLING
 Job cpu time:       0 days  0 hours  6 minutes  1.5 seconds.
 File lengths (MBytes):  RWF=     67 Int=      0 D2E=      0 Chk=      5 Scr=      1
 Normal termination of Gaussian 09 at Sat Aug  8 02:41:31 2020.
 Initial command:
 /prod/apps/gaussian/g09d1/l1.exe "/tmp/ubafar01/1449177/Gau-88567.inp" -scrdir="/tmp/ubafar01/1449177/"
 Entering Link 1 = /prod/apps/gaussian/g09d1/l1.exe PID=     89263.
  
 Copyright (c) 1988,1990,1992,1993,1995,1998,2003,2009,2013,
            Gaussian, Inc.  All Rights Reserved.
  
 This is part of the Gaussian(R) 09 program.  It is based on
 the Gaussian(R) 03 system (copyright 2003, Gaussian, Inc.),
 the Gaussian(R) 98 system (copyright 1998, Gaussian, Inc.),
 the Gaussian(R) 94 system (copyright 1995, Gaussian, Inc.),
 the Gaussian 92(TM) system (copyright 1992, Gaussian, Inc.),
 the Gaussian 90(TM) system (copyright 1990, Gaussian, Inc.),
 the Gaussian 88(TM) system (copyright 1988, Gaussian, Inc.),
 the Gaussian 86(TM) system (copyright 1986, Carnegie Mellon
 University), and the Gaussian 82(TM) system (copyright 1983,
 Carnegie Mellon University). Gaussian is a federally registered
 trademark of Gaussian, Inc.
  
 This software contains proprietary and confidential information,
 including trade secrets, belonging to Gaussian, Inc.
  
 This software is provided under written license and may be
 used, copied, transmitted, or stored only in accord with that
 written license.
  
 The following legend is applicable only to US Government
 contracts under FAR:
  
                    RESTRICTED RIGHTS LEGEND
  
 Use, reproduction and disclosure by the US Government is
 subject to restrictions as set forth in subparagraphs (a)
 and (c) of the Commercial Computer Software - Restricted
 Rights clause in FAR 52.227-19.
  
 Gaussian, Inc.
 340 Quinnipiac St., Bldg. 40, Wallingford CT 06492
  
  
 ---------------------------------------------------------------
 Warning -- This program may not be used in any manner that
 competes with the business of Gaussian, Inc. or will provide
 assistance to any competitor of Gaussian, Inc.  The licensee
 of this program is prohibited from giving any competitor of
 Gaussian, Inc. access to this program.  By using this program,
 the user acknowledges that Gaussian, Inc. is engaged in the
 business of creating and licensing software in the field of
[...]
    38  H    0.000000  -0.000003  -0.000003   0.000000   0.000000   0.000000
    39  H    0.000000   0.000014   0.000032  -0.000001   0.000000   0.000000
    40  H    0.000000   0.000000   0.000000   0.000000   0.000000   0.000000
              13         14         15         16         17         18
     1  O    0.000000   0.000000   0.000000   0.000000  -0.051613   0.001332
     2  S    0.000000   0.000000   0.000000   0.000000   0.182625  -0.012649
     3  N    0.000000   0.000000   0.000000  -0.000002  -0.059574  -0.000239
     4  C    0.000002   0.000000   0.000003   0.000265   0.002174   0.000013
     5  C    0.000000   0.000000   0.000000  -0.000012   0.000004  -0.000001
     6  S    0.000000   0.000000   0.000000   0.000002  -0.000003   0.000000
     7  O    0.000000   0.000000  -0.000001  -0.000237   0.000000   0.000000
     8  C    0.000000   0.000000   0.000000   0.000007  -0.000139   0.000005
     9  C   -0.000098   0.000002   0.000154  -0.004146  -0.000119  -0.000004
    10  C    0.007111   0.000331   0.006412  -0.062610   0.000002  -0.000002
    11  C   -0.022430  -0.034805  -0.019283   0.537982   0.000000   0.000000
    12  C    0.515258  -0.038130  -0.047351  -0.038047   0.000000   0.000000
    13  C    4.900210   0.546685  -0.028001  -0.048090   0.000000   0.000000
    14  C    0.546685   4.883797   0.542011  -0.037357   0.000000   0.000000
    15  C   -0.028001   0.542011   4.895614   0.521270   0.000000   0.000000
    16  C   -0.048090  -0.037357   0.521270   4.989671   0.000000   0.000000
    17  N    0.000000   0.000000   0.000000   0.000000   7.189267   0.269370
    18  C    0.000000   0.000000   0.000000   0.000000   0.269370   5.008699
    19  C    0.000000   0.000000   0.000000   0.000000   0.268272  -0.050350
    20  O    0.000000   0.000000   0.000000   0.000000  -0.056815  -0.007374
    21  H   -0.000001   0.000000   0.000000   0.000004  -0.000735   0.000853
    22  H    0.000000   0.000000   0.000000   0.000000   0.000003   0.000000
    23  H    0.000000   0.000000   0.000000   0.000000  -0.000204  -0.000001
    24  H    0.000000   0.000000   0.000000  -0.000009   0.000002   0.000000
    25  H    0.000000   0.000000   0.000000  -0.000001   0.000029  -0.000001
    26  H   -0.000077  -0.000005  -0.000026  -0.000106  -0.000011   0.000000
    27  H   -0.000014   0.000004  -0.000206   0.004164   0.000001   0.000000
    28  H   -0.000215   0.000019   0.000033  -0.004076   0.000000   0.000000
    29  H    0.000153   0.000006  -0.000188   0.004282   0.000009  -0.000009
    30  H   -0.044624   0.004741   0.000259   0.006168   0.000000   0.000000
    31  H    0.360577  -0.042280   0.004509   0.000742   0.000000   0.000000
    32  H   -0.042215   0.363187  -0.042067   0.004664   0.000000   0.000000
    33  H    0.004496  -0.042110   0.360827  -0.038638   0.000000   0.000000
    34  H    0.000243   0.004846  -0.043578   0.357793   0.000000   0.000000
    35  H    0.000000   0.000000   0.000000   0.000000  -0.032664   0.374905
    36  H    0.000000   0.000000   0.000000   0.000000  -0.034831   0.378997
    37  H    0.000000   0.000000   0.000000   0.000000  -0.046608   0.374033
    38  H    0.000000   0.000000   0.000000   0.000000  -0.033494   0.004488
    39  H    0.000000   0.000000   0.000000   0.000000  -0.046432  -0.001470
    40  H    0.000000   0.000000   0.000000   0.000000  -0.033497  -0.003727
              19         20         21         22         23         24
     1  O   -0.006670  -0.042578   0.001584   0.000203   0.012789   0.000175
     2  S   -0.013914   0.450602  -0.008551   0.000271   0.001260   0.000087
     3  N    0.000472  -0.057808   0.290817   0.001536  -0.004399   0.001811
     4  C   -0.000198  -0.002072  -0.031696  -0.030261  -0.025414  -0.028606
     5  C   -0.000015  -0.000068   0.004204   0.353858   0.327413   0.010116
     6  S    0.000002   0.000008  -0.000386  -0.018061  -0.006802  -0.017806
     7  O    0.000000   0.000000   0.000002  -0.000128   0.001194   0.000173
     8  C    0.000005   0.001088   0.001690   0.010015   0.002583   0.348701
     9  C    0.000004  -0.000128  -0.007946  -0.005533   0.004077  -0.006507
    10  C    0.000000  -0.000022   0.006905   0.000127  -0.000110   0.002128
    11  C    0.000000   0.000000  -0.000108  -0.000010   0.000001  -0.000060
    12  C    0.000000   0.000000  -0.000026   0.000000   0.000000   0.000001
    13  C    0.000000   0.000000  -0.000001   0.000000   0.000000   0.000000
    14  C    0.000000   0.000000   0.000000   0.000000   0.000000   0.000000
    15  C    0.000000   0.000000   0.000000   0.000000   0.000000   0.000000
    16  C    0.000000   0.000000   0.000004   0.000000   0.000000  -0.000009
    17  N    0.268272  -0.056815  -0.000735   0.000003  -0.000204   0.000002
    18  C   -0.050350  -0.007374   0.000853   0.000000  -0.000001   0.000000
    19  C    5.003337   0.001532   0.000128  -0.000004   0.000027   0.000000
    20  O    0.001532   8.266585   0.001629   0.000001   0.000012  -0.000095
    21  H    0.000128   0.001629   0.349415  -0.000018   0.000000   0.000167
    22  H   -0.000004   0.000001  -0.000018   0.491615  -0.016481  -0.000322
    23  H    0.000027   0.000012   0.000000  -0.016481   0.478992  -0.000276
    24  H    0.000000  -0.000095   0.000167  -0.000322  -0.000276   0.487483
    25  H    0.000001  -0.000098  -0.000037  -0.000294  -0.000025  -0.016533
    26  H   -0.000001   0.000002   0.000370   0.003951  -0.000016   0.000092
    27  H    0.000000   0.000001   0.000385   0.000476   0.000223  -0.000199
    28  H    0.000000  -0.000001  -0.000183   0.000013   0.000000   0.006614
    29  H    0.000000   0.000013   0.009421  -0.000002   0.000002   0.000023
    30  H    0.000000   0.000000   0.000054   0.000000   0.000000   0.000000
    31  H    0.000000   0.000000   0.000000   0.000000   0.000000   0.000000
    32  H    0.000000   0.000000   0.000000   0.000000   0.000000   0.000000
    33  H    0.000000   0.000000   0.000000   0.000000   0.000000   0.000000
    34  H    0.000000   0.000000   0.000001   0.000000   0.000000   0.000230
    35  H    0.004368   0.010227  -0.000018   0.000000   0.000000   0.000000
    36  H   -0.003120   0.000135  -0.000039   0.000000   0.000000   0.000000
    37  H   -0.001620   0.000015   0.001699   0.000000   0.000002   0.000000
    38  H    0.375055   0.000023  -0.000014  -0.000010   0.000422   0.000000
    39  H    0.373439  -0.000025   0.000196   0.000012   0.000105   0.000000
    40  H    0.378158  -0.000045  -0.000013   0.000000  -0.000002   0.000000
              25         26         27         28         29         30
     1  O    0.008606  -0.000002   0.000001   0.000000   0.000000   0.000000
     2  S    0.008416  -0.000020   0.000044   0.000057   0.000020   0.000000
     3  N   -0.008601  -0.003314   0.003055  -0.000316   0.001332  -0.000007
     4  C   -0.025240  -0.031342  -0.030607  -0.005081  -0.004541  -0.000023
     5  C    0.002227  -0.005915  -0.009162   0.000046  -0.000001   0.000000
     6  S   -0.006919  -0.000349   0.005417  -0.000136  -0.000011   0.000000
     7  O    0.001185   0.000250   0.026221   0.000074  -0.000003   0.000000
     8  C    0.325992   0.006202  -0.005853   0.003443  -0.000100   0.000000
     9  C    0.004529   0.356533   0.350394  -0.042225  -0.037093   0.000173
    10  C   -0.000024  -0.037425  -0.034853   0.361561   0.357376  -0.010265
    11  C    0.000002  -0.000742  -0.002790  -0.026629  -0.029599  -0.043689
    12  C    0.000000   0.002235   0.000057   0.002646  -0.003600   0.358669
    13  C    0.000000  -0.000077  -0.000014  -0.000215   0.000153  -0.044624
    14  C    0.000000  -0.000005   0.000004   0.000019   0.000006   0.004741
    15  C    0.000000  -0.000026  -0.000206   0.000033  -0.000188   0.000259
    16  C   -0.000001  -0.000106   0.004164  -0.004076   0.004282   0.006168
    17  N    0.000029  -0.000011   0.000001   0.000000   0.000009   0.000000
    18  C   -0.000001   0.000000   0.000000   0.000000  -0.000009   0.000000
    19  C    0.000001  -0.000001   0.000000   0.000000   0.000000   0.000000
    20  O   -0.000098   0.000002   0.000001  -0.000001   0.000013   0.000000
    21  H   -0.000037   0.000370   0.000385  -0.000183   0.009421   0.000054
    22  H   -0.000294   0.003951   0.000476   0.000013  -0.000002   0.000000
    23  H   -0.000025  -0.000016   0.000223   0.000000   0.000002   0.000000
    24  H   -0.016533   0.000092  -0.000199   0.006614   0.000023   0.000000
    25  H    0.485437  -0.000123   0.000061  -0.000151  -0.000030   0.000000
    26  H   -0.000123   0.564603  -0.023888   0.005397  -0.004777   0.000195
    27  H    0.000061  -0.023888   0.528120  -0.003208   0.004612   0.000024
    28  H   -0.000151   0.005397  -0.003208   0.564085  -0.033173   0.000094
    29  H   -0.000030  -0.004777   0.004612  -0.033173   0.569394   0.006656
    30  H    0.000000   0.000195   0.000024   0.000094   0.006656   0.582565
    31  H    0.000000   0.000001   0.000000   0.000003  -0.000008  -0.005237
    32  H    0.000000   0.000000   0.000000   0.000000   0.000000  -0.000166
    33  H    0.000000   0.000000   0.000004  -0.000004   0.000003   0.000016
    34  H    0.000001   0.000077   0.002374   0.003298   0.000052  -0.000165
    35  H    0.000000   0.000000   0.000000   0.000000   0.000001   0.000000
    36  H    0.000000   0.000000   0.000000   0.000000   0.000000   0.000000
    37  H    0.000001   0.000010   0.000000   0.000000  -0.000015   0.000000
    38  H   -0.000004  -0.000001   0.000000   0.000000   0.000000   0.000000
    39  H    0.000001   0.000057  -0.000001   0.000000  -0.000001   0.000000
    40  H    0.000000   0.000000   0.000000   0.000000   0.000000   0.000000
              31         32         33         34         35         36
     1  O    0.000000   0.000000   0.000000   0.000000   0.000049  -0.000041
     2  S    0.000000   0.000000   0.000000   0.000000  -0.000507   0.002216
     3  N    0.000000   0.000000   0.000000   0.000000  -0.000286  -0.000101
     4  C    0.000000   0.000000   0.000000  -0.000150   0.000000   0.000003
     5  C    0.000000   0.000000   0.000000   0.000006   0.000000   0.000000
     6  S    0.000000   0.000000   0.000000  -0.000010   0.000000   0.000000
     7  O    0.000000   0.000000   0.000000   0.000649   0.000000   0.000000
     8  C    0.000000   0.000000   0.000000  -0.000008   0.000000   0.000000
     9  C    0.000000   0.000000   0.000000  -0.000332   0.000000   0.000000
    10  C   -0.000176   0.000006  -0.000176  -0.008579   0.000000   0.000000
    11  C    0.003724   0.000616   0.003641  -0.046955   0.000000   0.000000
    12  C   -0.038422   0.004623   0.000772   0.005962   0.000000   0.000000
    13  C    0.360577  -0.042215   0.004496   0.000243   0.000000   0.000000
    14  C   -0.042280   0.363187  -0.042110   0.004846   0.000000   0.000000
    15  C    0.004509  -0.042067   0.360827  -0.043578   0.000000   0.000000
    16  C    0.000742   0.004664  -0.038638   0.357793   0.000000   0.000000
    17  N    0.000000   0.000000   0.000000   0.000000  -0.032664  -0.034831
    18  C    0.000000   0.000000   0.000000   0.000000   0.374905   0.378997
    19  C    0.000000   0.000000   0.000000   0.000000   0.004368  -0.003120
    20  O    0.000000   0.000000   0.000000   0.000000   0.010227   0.000135
    21  H    0.000000   0.000000   0.000000   0.000001  -0.000018  -0.000039
    22  H    0.000000   0.000000   0.000000   0.000000   0.000000   0.000000
    23  H    0.000000   0.000000   0.000000   0.000000   0.000000   0.000000
    24  H    0.000000   0.000000   0.000000   0.000230   0.000000   0.000000
    25  H    0.000000   0.000000   0.000000   0.000001   0.000000   0.000000
    26  H    0.000001   0.000000   0.000000   0.000077   0.000000   0.000000
    27  H    0.000000   0.000000   0.000004   0.002374   0.000000   0.000000
    28  H    0.000003   0.000000  -0.000004   0.003298   0.000000   0.000000
    29  H   -0.000008   0.000000   0.000003   0.000052   0.000001   0.000000
    30  H   -0.005237  -0.000166   0.000016  -0.000165   0.000000   0.000000
    31  H    0.572478  -0.005264  -0.000175   0.000016   0.000000   0.000000
    32  H   -0.005264   0.573240  -0.005180  -0.000166   0.000000   0.000000
    33  H   -0.000175  -0.005180   0.571933  -0.005400   0.000000   0.000000
    34  H    0.000016  -0.000166  -0.005400   0.584752   0.000000   0.000000
    35  H    0.000000   0.000000   0.000000   0.000000   0.494013  -0.020424
    36  H    0.000000   0.000000   0.000000   0.000000  -0.020424   0.516266
    37  H    0.000000   0.000000   0.000000   0.000000  -0.029762  -0.035904
    38  H    0.000000   0.000000   0.000000   0.000000  -0.000197  -0.000010
    39  H    0.000000   0.000000   0.000000   0.000000  -0.000141  -0.001490
    40  H    0.000000   0.000000   0.000000   0.000000  -0.000007   0.004866
              37         38         39         40
     1  O   -0.000063   0.010117  -0.000270   0.000063
     2  S   -0.008720   0.000889  -0.008681   0.002179
     3  N    0.003284  -0.001450   0.007981   0.000055
     4  C   -0.000078  -0.000055  -0.000332   0.000006
     5  C   -0.000003   0.000071   0.000035  -0.000001
     6  S    0.000000  -0.000001   0.000006   0.000000
     7  O    0.000000   0.000000   0.000000   0.000000
     8  C    0.000004  -0.000003   0.000014   0.000000
     9  C    0.000017  -0.000003   0.000032   0.000000
    10  C   -0.000003   0.000000  -0.000001   0.000000
    11  C    0.000000   0.000000   0.000000   0.000000
    12  C    0.000000   0.000000   0.000000   0.000000
    13  C    0.000000   0.000000   0.000000   0.000000
    14  C    0.000000   0.000000   0.000000   0.000000
    15  C    0.000000   0.000000   0.000000   0.000000
    16  C    0.000000   0.000000   0.000000   0.000000
    17  N   -0.046608  -0.033494  -0.046432  -0.033497
    18  C    0.374033   0.004488  -0.001470  -0.003727
    19  C   -0.001620   0.375055   0.373439   0.378158
    20  O    0.000015   0.000023  -0.000025  -0.000045
    21  H    0.001699  -0.000014   0.000196  -0.000013
    22  H    0.000000  -0.000010   0.000012   0.000000
    23  H    0.000002   0.000422   0.000105  -0.000002
    24  H    0.000000   0.000000   0.000000   0.000000
    25  H    0.000001  -0.000004   0.000001   0.000000
    26  H    0.000010  -0.000001   0.000057   0.000000
    27  H    0.000000   0.000000  -0.000001   0.000000
    28  H    0.000000   0.000000   0.000000   0.000000
    29  H   -0.000015   0.000000  -0.000001   0.000000
    30  H    0.000000   0.000000   0.000000   0.000000
    31  H    0.000000   0.000000   0.000000   0.000000
    32  H    0.000000   0.000000   0.000000   0.000000
    33  H    0.000000   0.000000   0.000000   0.000000
    34  H    0.000000   0.000000   0.000000   0.000000
    35  H   -0.029762  -0.000197  -0.000141  -0.000007
    36  H   -0.035904  -0.000010  -0.001490   0.004866
    37  H    0.565220  -0.000162   0.007986  -0.001281
    38  H   -0.000162   0.500797  -0.029655  -0.021757
    39  H    0.007986  -0.029655   0.559200  -0.034012
    40  H   -0.001281  -0.021757  -0.034012   0.518499
 Mulliken charges:
               1
     1  O   -0.599953
     2  S    1.338125
     3  N   -0.737819
     4  C    0.222553
     5  C   -0.470093
     6  S    0.749188
     7  O   -0.688248
     8  C   -0.485694
     9  C   -0.313091
    10  C   -0.380392
    11  C    0.164269
    12  C   -0.201182
    13  C   -0.148967
    14  C   -0.150939
    15  C   -0.150389
    16  C   -0.193683
    17  N   -0.515018
    18  C   -0.336869
    19  C   -0.328910
    20  O   -0.564744
    21  H    0.380249
    22  H    0.209041
    23  H    0.224627
    24  H    0.212610
    25  H    0.221592
    26  H    0.168166
    27  H    0.185142
    28  H    0.168018
    29  H    0.159797
    30  H    0.144560
    31  H    0.149512
    32  H    0.148723
    33  H    0.149991
    34  H    0.145046
    35  H    0.200444
    36  H    0.193477
    37  H    0.171949
    38  H    0.194951
    39  H    0.173447
    40  H    0.190514
 Sum of Mulliken charges =   0.00000
 Mulliken charges with hydrogens summed into heavy atoms:
               1
     1  O   -0.599953
     2  S    1.338125
     3  N   -0.357570
     4  C    0.222553
     5  C   -0.036425
     6  S    0.749188
     7  O   -0.688248
     8  C   -0.051493
     9  C    0.040218
    10  C   -0.052577
    11  C    0.164269
    12  C   -0.056622
    13  C    0.000545
    14  C   -0.002216
    15  C   -0.000397
    16  C   -0.048637
    17  N   -0.515018
    18  C    0.229000
    19  C    0.230002
    20  O   -0.564744
 Electronic spatial extent (au):  <R**2>=           8359.7104
 Charge=              0.0000 electrons
 Dipole moment (field-independent basis, Debye):
    X=             -0.5771    Y=             -7.1546    Z=              3.2094  Tot=              7.8627
 Quadrupole moment (field-independent basis, Debye-Ang):
   XX=           -138.4948   YY=           -135.1100   ZZ=           -133.6378
   XY=              1.8246   XZ=            -14.2593   YZ=             -8.0515
 Traceless Quadrupole moment (field-independent basis, Debye-Ang):
   XX=             -2.7473   YY=              0.6376   ZZ=              2.1097
   XY=              1.8246   XZ=            -14.2593   YZ=             -8.0515
 Octapole moment (field-independent basis, Debye-Ang**2):
  XXX=             37.5108  YYY=           -106.9040  ZZZ=             15.7388  XYY=            -65.2023
  XXY=            -51.2683  XXZ=             58.6951  XZZ=            -22.3522  YZZ=             16.8567
  YYZ=             -0.5581  XYZ=             -1.4657
 Hexadecapole moment (field-independent basis, Debye-Ang**3):
 XXXX=          -7294.8831 YYYY=          -2882.4100 ZZZZ=           -650.8234 XXXY=            167.9801
 XXXZ=            -87.2840 YYYX=            -19.2996 YYYZ=            -47.6261 ZZZX=            -48.0954
 ZZZY=             -7.7139 XXYY=          -1593.4996 XXZZ=          -1442.9835 YYZZ=           -544.3415
 XXYZ=           -116.7116 YYXZ=            -10.6003 ZZXY=             20.9730
 N-N= 1.961866663605D+03 E-N=-7.774001673395D+03  KE= 1.628111650912D+03
 No NMR shielding tensors so no spin-rotation constants.
 Leave Link  601 at Sat Aug  8 02:46:06 2020, MaxMem=    33554432 cpu:         0.3
 (Enter /prod/apps/gaussian/g09d1/l9999.exe)
 1\1\GINC-PIRINEUS22\SP\RB3LYP\6-31G(d)\C13H20N2O3S2\UBAFAR01\08-Aug-20
 20\0\\#p b3lyp/6-31G(d) scrf=(iefpcm,read,solvent=Water) geom=allcheck
  guess=read\\SM37.n.4.pdb.xyz\\0,1\O,0,4.206,-1.722,1.075\S,0,4.744,-0
 .762,0.105\N,0,3.592,-0.634,-1.113\C,0,2.804,-1.792,-1.575\C,0,1.703,-
 2.234,-0.587\S,0,1.936,-4.034,-1.033\O,0,1.044,-4.389,-2.222\C,0,3.485
 ,-3.185,-1.643\C,0,2.166,-1.413,-2.923\C,0,3.139,-1.217,-4.099\C,0,2.4
 ,-0.974,-5.398\C,0,2.307,0.315,-5.938\C,0,1.605,0.547,-7.124\C,0,0.984
 ,-0.511,-7.788\C,0,1.071,-1.802,-7.26\C,0,1.773,-2.029,-6.076\N,0,4.78
 1,0.736,0.843\C,0,5.458,1.812,0.102\C,0,3.521,1.147,1.483\O,0,6.084,-0
 .987,-0.453\H,0,3.977,-0.072,-1.875\H,0,0.691,-1.867,-0.763\H,0,1.998,
 -2.113,0.455\H,0,3.82,-3.544,-2.616\H,0,4.256,-3.336,-0.888\H,0,1.571,
 -0.505,-2.774\H,0,1.469,-2.22,-3.167\H,0,3.771,-2.107,-4.196\H,0,3.81,
 -0.372,-3.917\H,0,2.792,1.141,-5.426\H,0,1.547,1.553,-7.527\H,0,0.44,-
 0.334,-8.71\H,0,0.596,-2.633,-7.772\H,0,1.839,-3.036,-5.674\H,0,6.388,
 1.437,-0.319\H,0,5.688,2.606,0.815\H,0,4.832,2.229,-0.697\H,0,3.115,0.
 309,2.048\H,0,2.781,1.494,0.752\H,0,3.754,1.96,2.173\\Version=AM64L-G0
 9RevD.01\State=1-A\HF=-1638.8533338\RMSD=6.750e-09\Dipole=0.0286622,3.
 091822,-0.0950345\Quadrupole=-9.3459274,6.3587466,2.9871808,-2.768204,
 -5.9150108,6.5184561\PG=C01 [X(C13H20N2O3S2)]\\@


 ABSOLUTISM, OBSOLETISM -- IF IT WORKS, IT'S OUT OF DATE

                          -- STAFFORD BEER
 Job cpu time:       0 days  0 hours  4 minutes 34.7 seconds.
 File lengths (MBytes):  RWF=    268 Int=      0 D2E=      0 Chk=      7 Scr=      1
 Normal termination of Gaussian 09 at Sat Aug  8 02:46:06 2020.
