 Entering Gaussian System, Link 0=g09
 Initial command:
 /prod/apps/gaussian/g09d1/l1.exe "/tmp/ubafar01/1448985/Gau-51458.inp" -scrdir="/tmp/ubafar01/1448985/"
 Entering Link 1 = /prod/apps/gaussian/g09d1/l1.exe PID=     51462.
  
 Copyright (c) 1988,1990,1992,1993,1995,1998,2003,2009,2013,
            Gaussian, Inc.  All Rights Reserved.
  
 This is part of the Gaussian(R) 09 program.  It is based on
 the Gaussian(R) 03 system (copyright 2003, Gaussian, Inc.),
 the Gaussian(R) 98 system (copyright 1998, Gaussian, Inc.),
 the Gaussian(R) 94 system (copyright 1995, Gaussian, Inc.),
 the Gaussian 92(TM) system (copyright 1992, Gaussian, Inc.),
 the Gaussian 90(TM) system (copyright 1990, Gaussian, Inc.),
 the Gaussian 88(TM) system (copyright 1988, Gaussian, Inc.),
 the Gaussian 86(TM) system (copyright 1986, Carnegie Mellon
 University), and the Gaussian 82(TM) system (copyright 1983,
 Carnegie Mellon University). Gaussian is a federally registered
 trademark of Gaussian, Inc.
  
 This software contains proprietary and confidential information,
 including trade secrets, belonging to Gaussian, Inc.
  
 This software is provided under written license and may be
 used, copied, transmitted, or stored only in accord with that
 written license.
  
 The following legend is applicable only to US Government
 contracts under FAR:
  
                    RESTRICTED RIGHTS LEGEND
  
 Use, reproduction and disclosure by the US Government is
 subject to restrictions as set forth in subparagraphs (a)
 and (c) of the Commercial Computer Software - Restricted
 Rights clause in FAR 52.227-19.
  
 Gaussian, Inc.
 340 Quinnipiac St., Bldg. 40, Wallingford CT 06492
  
  
 ---------------------------------------------------------------
 Warning -- This program may not be used in any manner that
 competes with the business of Gaussian, Inc. or will provide
 assistance to any competitor of Gaussian, Inc.  The licensee
 of this program is prohibited from giving any competitor of
 Gaussian, Inc. access to this program.  By using this program,
 the user acknowledges that Gaussian, Inc. is engaged in the
 business of creating and licensing software in the field of
 computational chemistry and represents and warrants to the
 licensee that it is not a competitor of Gaussian, Inc. and that
 it will not use this program in any manner prohibited above.
 ---------------------------------------------------------------
  

 Cite this work as:
 Gaussian 09, Revision D.01,
 M. J. Frisch, G. W. Trucks, H. B. Schlegel, G. E. Scuseria, 
 M. A. Robb, J. R. Cheeseman, G. Scalmani, V. Barone, B. Mennucci, 
 G. A. Petersson, H. Nakatsuji, M. Caricato, X. Li, H. P. Hratchian, 
 A. F. Izmaylov, J. Bloino, G. Zheng, J. L. Sonnenberg, M. Hada, 
 M. Ehara, K. Toyota, R. Fukuda, J. Hasegawa, M. Ishida, T. Nakajima, 
 Y. Honda, O. Kitao, H. Nakai, T. Vreven, J. A. Montgomery, Jr., 
 J. E. Peralta, F. Ogliaro, M. Bearpark, J. J. Heyd, E. Brothers, 
 K. N. Kudin, V. N. Staroverov, T. Keith, R. Kobayashi, J. Normand, 
 K. Raghavachari, A. Rendell, J. C. Burant, S. S. Iyengar, J. Tomasi, 
 M. Cossi, N. Rega, J. M. Millam, M. Klene, J. E. Knox, J. B. Cross, 
 V. Bakken, C. Adamo, J. Jaramillo, R. Gomperts, R. E. Stratmann, 
 O. Yazyev, A. J. Austin, R. Cammi, C. Pomelli, J. W. Ochterski, 
 R. L. Martin, K. Morokuma, V. G. Zakrzewski, G. A. Voth, 
 P. Salvador, J. J. Dannenberg, S. Dapprich, A. D. Daniels, 
 O. Farkas, J. B. Foresman, J. V. Ortiz, J. Cioslowski, 
 and D. J. Fox, Gaussian, Inc., Wallingford CT, 2013.
 
 ******************************************
 Gaussian 09:  AM64L-G09RevD.01 24-Apr-2013
                 7-Aug-2020 
 ******************************************
 %nproc=1
 Will use up to    1 processors via shared memory.
 %Chk=SM38.n.14.pdb.xyz.mst.n.w.chk
 -----------------
 #p b3lyp/6-31G(d)
 -----------------
 1/38=1/1;
 2/12=2,17=6,18=5,40=1/2;
 3/5=1,6=6,7=1,11=2,16=1,25=1,30=1,74=-5/1,2,3;
 4//1;
 5/5=2,38=5/2;
 6/7=2,8=2,9=2,10=2,28=1/1;
 99/5=1,9=1/99;
 Leave Link    1 at Fri Aug  7 23:23:41 2020, MaxMem=           0 cpu:         0.0
 (Enter /prod/apps/gaussian/g09d1/l101.exe)
 -----------------
 SM38.n.14.pdb.xyz
 -----------------
 Symbolic Z-matrix:
 Charge =  0 Multiplicity = 1
 C                     5.887    -0.867    -2.745 
 S                     4.509    -0.063    -1.916 
 N                     3.738    -1.186    -0.934 
 C                     2.918    -2.316    -1.403 
 C                     2.524    -3.187    -0.157 
 S                     2.984    -4.701    -1.056 
 C                     3.689    -3.453    -2.176 
 O                     3.985    -5.536    -0.367 
 O                     1.803    -5.366    -1.646 
 C                     1.688    -1.861    -2.212 
 C                     0.802    -0.774    -1.574 
 C                     0.015    -1.175    -0.343 
 C                     0.308    -0.61      0.905 
 C                    -0.419    -0.963     2.044 
 C                    -1.458    -1.89      1.951 
 C                    -1.767    -2.456     0.711 
 C                    -1.04     -2.098    -0.425 
 O                     5.069     0.923    -0.981 
 O                     3.556     0.373    -2.946 
 H                     6.569    -1.263    -1.993 
 H                     6.383    -0.1      -3.341 
 H                     5.509    -1.657    -3.39 
 H                     4.359    -1.421    -0.157 
 H                     1.48     -3.149     0.142 
 H                     3.178    -3.058     0.707 
 H                     3.427    -3.601    -3.224 
 H                     4.771    -3.421    -2.045 
 H                     1.094    -2.755    -2.427 
 H                     2.044    -1.48     -3.171 
 H                     0.101    -0.451    -2.353 
 H                     1.424     0.091    -1.337 
 H                     1.116     0.111     0.98 
 H                    -0.174    -0.513     3.001 
 H                    -2.026    -2.167     2.834 
 H                    -2.579    -3.17      0.627 
 H                    -1.295    -2.537    -1.385 
 
 NAtoms=     36 NQM=       36 NQMF=       0 NMMI=      0 NMMIF=      0
                NMic=       0 NMicF=      0.
                    Isotopes and Nuclear Properties:
 (Nuclear quadrupole moments (NQMom) in fm**2, nuclear magnetic moments (NMagM)
  in nuclear magnetons)

  Atom         1           2           3           4           5           6           7           8           9          10
 IAtWgt=          12          32          14          12          12          32          12          16          16          12
 AtmWgt=  12.0000000  31.9720718  14.0030740  12.0000000  12.0000000  31.9720718  12.0000000  15.9949146  15.9949146  12.0000000
 NucSpn=           0           0           2           0           0           0           0           0           0           0
 AtZEff=   0.0000000   0.0000000   0.0000000   0.0000000   0.0000000   0.0000000   0.0000000   0.0000000   0.0000000   0.0000000
 NQMom=    0.0000000   0.0000000   2.0440000   0.0000000   0.0000000   0.0000000   0.0000000   0.0000000   0.0000000   0.0000000
 NMagM=    0.0000000   0.0000000   0.4037610   0.0000000   0.0000000   0.0000000   0.0000000   0.0000000   0.0000000   0.0000000
 AtZNuc=   6.0000000  16.0000000   7.0000000   6.0000000   6.0000000  16.0000000   6.0000000   8.0000000   8.0000000   6.0000000

  Atom        11          12          13          14          15          16          17          18          19          20
 IAtWgt=          12          12          12          12          12          12          12          16          16           1
 AtmWgt=  12.0000000  12.0000000  12.0000000  12.0000000  12.0000000  12.0000000  12.0000000  15.9949146  15.9949146   1.0078250
 NucSpn=           0           0           0           0           0           0           0           0           0           1
 AtZEff=   0.0000000   0.0000000   0.0000000   0.0000000   0.0000000   0.0000000   0.0000000   0.0000000   0.0000000   0.0000000
 NQMom=    0.0000000   0.0000000   0.0000000   0.0000000   0.0000000   0.0000000   0.0000000   0.0000000   0.0000000   0.0000000
 NMagM=    0.0000000   0.0000000   0.0000000   0.0000000   0.0000000   0.0000000   0.0000000   0.0000000   0.0000000   2.7928460
 AtZNuc=   6.0000000   6.0000000   6.0000000   6.0000000   6.0000000   6.0000000   6.0000000   8.0000000   8.0000000   1.0000000

  Atom        21          22          23          24          25          26          27          28          29          30
 IAtWgt=           1           1           1           1           1           1           1           1           1           1
 AtmWgt=   1.0078250   1.0078250   1.0078250   1.0078250   1.0078250   1.0078250   1.0078250   1.0078250   1.0078250   1.0078250
 NucSpn=           1           1           1           1           1           1           1           1           1           1
 AtZEff=   0.0000000   0.0000000   0.0000000   0.0000000   0.0000000   0.0000000   0.0000000   0.0000000   0.0000000   0.0000000
 NQMom=    0.0000000   0.0000000   0.0000000   0.0000000   0.0000000   0.0000000   0.0000000   0.0000000   0.0000000   0.0000000
 NMagM=    2.7928460   2.7928460   2.7928460   2.7928460   2.7928460   2.7928460   2.7928460   2.7928460   2.7928460   2.7928460
 AtZNuc=   1.0000000   1.0000000   1.0000000   1.0000000   1.0000000   1.0000000   1.0000000   1.0000000   1.0000000   1.0000000

  Atom        31          32          33          34          35          36
 IAtWgt=           1           1           1           1           1           1
 AtmWgt=   1.0078250   1.0078250   1.0078250   1.0078250   1.0078250   1.0078250
 NucSpn=           1           1           1           1           1           1
 AtZEff=   0.0000000   0.0000000   0.0000000   0.0000000   0.0000000   0.0000000
 NQMom=    0.0000000   0.0000000   0.0000000   0.0000000   0.0000000   0.0000000
 NMagM=    2.7928460   2.7928460   2.7928460   2.7928460   2.7928460   2.7928460
 AtZNuc=   1.0000000   1.0000000   1.0000000   1.0000000   1.0000000   1.0000000
 Leave Link  101 at Fri Aug  7 23:23:41 2020, MaxMem=    33554432 cpu:         0.1
 (Enter /prod/apps/gaussian/g09d1/l202.exe)
                          Input orientation:                          
 ---------------------------------------------------------------------
 Center     Atomic      Atomic             Coordinates (Angstroms)
 Number     Number       Type             X           Y           Z
 ---------------------------------------------------------------------
      1          6           0        5.887000   -0.867000   -2.745000
      2         16           0        4.509000   -0.063000   -1.916000
      3          7           0        3.738000   -1.186000   -0.934000
      4          6           0        2.918000   -2.316000   -1.403000
      5          6           0        2.524000   -3.187000   -0.157000
      6         16           0        2.984000   -4.701000   -1.056000
      7          6           0        3.689000   -3.453000   -2.176000
      8          8           0        3.985000   -5.536000   -0.367000
      9          8           0        1.803000   -5.366000   -1.646000
     10          6           0        1.688000   -1.861000   -2.212000
     11          6           0        0.802000   -0.774000   -1.574000
     12          6           0        0.015000   -1.175000   -0.343000
     13          6           0        0.308000   -0.610000    0.905000
     14          6           0       -0.419000   -0.963000    2.044000
     15          6           0       -1.458000   -1.890000    1.951000
     16          6           0       -1.767000   -2.456000    0.711000
     17          6           0       -1.040000   -2.098000   -0.425000
     18          8           0        5.069000    0.923000   -0.981000
     19          8           0        3.556000    0.373000   -2.946000
     20          1           0        6.569000   -1.263000   -1.993000
     21          1           0        6.383000   -0.100000   -3.341000
     22          1           0        5.509000   -1.657000   -3.390000
     23          1           0        4.359000   -1.421000   -0.157000
     24          1           0        1.480000   -3.149000    0.142000
     25          1           0        3.178000   -3.058000    0.707000
     26          1           0        3.427000   -3.601000   -3.224000
     27          1           0        4.771000   -3.421000   -2.045000
     28          1           0        1.094000   -2.755000   -2.427000
     29          1           0        2.044000   -1.480000   -3.171000
     30          1           0        0.101000   -0.451000   -2.353000
     31          1           0        1.424000    0.091000   -1.337000
     32          1           0        1.116000    0.111000    0.980000
     33          1           0       -0.174000   -0.513000    3.001000
     34          1           0       -2.026000   -2.167000    2.834000
     35          1           0       -2.579000   -3.170000    0.627000
     36          1           0       -1.295000   -2.537000   -1.385000
 ---------------------------------------------------------------------
                    Distance matrix (angstroms):
                    1          2          3          4          5
     1  C    0.000000
     2  S    1.797927   0.000000
     3  N    2.828371   1.679254   0.000000
     4  C    3.565884   2.805434   1.472841   0.000000
     5  C    4.836312   4.098010   2.466075   1.570475   0.000000
     6  S    5.097027   4.957446   3.597030   2.411014   1.819889
     7  C    3.441273   3.497442   2.585392   1.576305   2.346133
     8  O    5.574231   5.712067   4.393745   3.546856   2.774243
     9  O    6.174776   5.959626   4.660855   3.256497   2.735873
    10  C    4.347842   3.358342   2.508268   1.540911   2.584608
    11  C    5.218919   3.790031   3.033058   2.623826   3.285687
    12  C    6.351760   4.889469   3.769633   3.294372   3.221463
    13  C    6.671866   5.089759   3.934285   3.879356   3.560819
    14  C    7.918925   6.385670   5.118482   4.984776   4.295559
    15  C    8.777697   7.341438   5.984752   5.529934   4.688518
    16  C    8.547080   7.212195   5.884212   5.141772   4.438521
    17  C    7.408177   6.095548   4.890819   4.082863   3.736287
    18  O    2.642900   1.469701   2.494324   3.911011   4.903886
    19  O    2.647935   1.469423   2.551813   3.165219   4.638658
    20  H    1.089699   2.385273   3.023569   3.845349   4.840940
    21  H    1.090652   2.354542   3.737522   4.546727   5.878716
    22  H    1.087662   2.390295   3.064346   3.331026   4.658692
    23  H    3.056050   2.227273   1.022054   2.104762   2.546759
    24  H    5.741423   4.788904   3.179577   2.269087   1.086637
    25  H    4.904637   4.197823   2.551640   2.251725   1.091262
    26  H    3.708881   3.924160   3.342611   2.286121   3.223863
    27  H    2.873738   3.370675   2.701228   2.250955   2.944199
    28  H    5.161251   4.378380   3.417828   2.137352   2.717430
    29  H    3.914830   3.107916   2.821390   2.142101   3.496919
    30  H    5.814165   4.446569   3.972601   3.509446   4.263689
    31  H    4.776882   3.142639   2.673525   2.833733   3.653448
    32  H    6.131439   4.464251   3.495782   3.849185   3.761919
    33  H    8.359279   6.805136   5.589356   5.675076   4.939883
    34  H    9.768869   8.348386   6.955852   6.512872   5.539764
    35  H    9.399327   8.146167   6.802754   5.921759   5.162902
    36  H    7.497975   6.331592   5.230649   4.218831   4.063895
                    6          7          8          9         10
     6  S    0.000000
     7  C    1.819046   0.000000
     8  O    1.474431   2.774705   0.000000
     9  O    1.478204   2.738150   2.534929   0.000000
    10  C    3.328897   2.557296   4.710187   3.552268   0.000000
    11  C    4.522254   3.984246   5.853630   4.700388   1.540652
    12  C    4.664333   4.695471   5.897440   4.739117   2.600516
    13  C    5.267141   5.385756   6.277244   5.600193   3.631128
    14  C    5.929844   6.394073   6.791205   6.159529   4.833155
    15  C    6.056000   6.779875   6.949294   5.971190   5.218115
    16  C    5.543854   6.252737   6.613168   5.173823   4.564535
    17  C    4.833875   5.221635   6.088829   4.500368   3.269789
    18  O    5.998519   4.741498   6.578049   7.117619   4.549415
    19  O    5.444700   3.904980   6.461545   6.139962   3.003154
    20  H    5.054705   3.622705   5.251615   6.298395   4.922370
    21  H    6.159840   4.456172   6.644184   7.181934   5.139921
    22  H    4.592289   2.830514   5.148567   5.525636   4.003666
    23  H    3.668409   2.941817   4.137294   4.930850   3.398656
    24  H    2.471017   3.216399   3.497410   2.866420   2.691380
    25  H    2.417696   2.954460   2.818725   3.571288   3.489050
    26  H    2.471128   1.090345   3.495431   2.871008   2.660050
    27  H    2.410371   1.090371   2.811886   3.570889   3.459245
    28  H    3.039516   2.698931   4.509484   2.816019   1.094668
    29  H    3.966316   2.754774   5.299154   4.181471   1.091594
    30  H    5.296829   4.681568   6.699767   5.249179   2.127569
    31  H    5.047358   4.288832   6.258015   5.478866   2.155371
    32  H    5.548880   5.411355   6.475661   6.112722   3.795370
    33  H    6.631105   7.097020   7.339703   7.003909   5.697325
    34  H    6.830326   7.708120   7.597939   6.705613   6.272922
    35  H    6.010276   6.872025   7.047843   5.402857   5.289678
    36  H    4.806348   5.128839   6.157006   4.203447   3.168469
                   11         12         13         14         15
    11  C    0.000000
    12  C    1.515101   0.000000
    13  C    2.533056   1.400920   0.000000
    14  C    3.823151   2.435379   1.396588   0.000000
    15  C    4.333438   2.818402   2.418940   1.395528   0.000000
    16  C    3.827546   2.434625   2.784058   2.413098   1.397654
    17  C    2.542861   1.404165   2.408350   2.787441   2.421438
    18  O    4.630199   5.509225   5.345485   6.544140   7.688389
    19  O    3.283673   4.659463   5.132835   6.518099   7.364915
    20  H    5.802842   6.759080   6.930002   8.075860   8.965545
    21  H    5.892718   7.120046   7.429283   8.718383   9.627598
    22  H    5.121855   6.300839   6.825953   8.071628   8.781780
    23  H    3.883136   4.354934   4.265696   5.280478   6.204927
    24  H    3.007485   2.505619   2.898668   3.464448   3.672793
    25  H    4.008116   3.827892   3.777408   4.372071   4.940066
    26  H    4.195838   5.082065   5.976862   7.035807   7.319247
    27  H    4.793893   5.528187   6.043392   7.049666   7.557276
    28  H    2.176519   2.829081   4.039931   5.048789   5.140799
    29  H    2.142757   3.493916   4.514906   5.790499   6.218279
    30  H    1.096618   2.138147   3.268439   4.457146   4.798502
    31  H    1.091457   2.139176   2.600658   3.992333   4.800128
    32  H    2.721165   2.148564   1.085509   2.154483   3.401811
    33  H    4.685224   3.414133   2.152893   1.085529   2.155756
    34  H    5.419271   3.904238   3.404827   2.157815   1.085837
    35  H    4.692161   3.413175   3.868547   3.397696   2.155926
    36  H    2.746143   2.157987   3.395149   3.873357   3.402069
                   16         17         18         19         20
    16  C    0.000000
    17  C    1.395417   0.000000
    18  O    7.810980   6.837796   0.000000
    19  O    7.050618   5.795213   2.540255   0.000000
    20  H    8.844420   7.813625   2.837735   3.558493   0.000000
    21  H    9.401699   8.221678   2.888378   2.893386   1.790047
    22  H    8.390279   7.202438   3.557145   2.851709   1.797344
    23  H    6.273159   5.447876   2.584069   3.412003   2.877492
    24  H    3.368534   2.788636   5.542854   5.123476   5.832079
    25  H    4.981510   4.471526   4.719490   5.025839   4.691578
    26  H    6.616108   5.481560   5.309782   3.985800   4.105334
    27  H    7.160461   6.175957   4.482325   4.084417   2.809354
    28  H    4.256967   2.998935   5.605285   4.014373   5.691225
    29  H    5.526864   4.175344   4.440848   2.402161   4.680854
    30  H    4.110662   2.780589   5.333975   3.601062   6.528703
    31  H    4.567712   3.419760   3.755660   2.685857   5.360474
    32  H    3.869566   3.391466   4.486767   4.629873   6.360960
    33  H    3.399559   3.872939   6.738506   7.075642   8.424404
    34  H    2.158178   3.405589   8.627940   8.427261   9.899049
    35  H    1.084526   2.150444   8.822144   7.934570   9.704996
    36  H    2.150014   1.085977   7.255020   5.868307   7.989696
                   21         22         23         24         25
    21  H    0.000000
    22  H    1.786204   0.000000
    23  H    3.997433   3.439547   0.000000
    24  H    6.742930   5.561828   3.371057   0.000000
    25  H    5.950470   4.917496   2.195683   1.791845   0.000000
    26  H    4.583517   2.853317   3.876534   3.914725   3.976130
    27  H    3.912442   2.337812   2.781059   3.960762   3.200457
    28  H    5.988150   4.650290   4.194363   2.627545   3.775821
    29  H    4.556339   3.476423   3.800908   3.752283   4.337617
    30  H    6.368899   5.637044   4.888137   3.925031   5.062408
    31  H    5.352026   4.894644   3.506105   3.562047   4.143749
    32  H    6.815926   6.443692   3.762558   3.385608   3.790638
    33  H    9.131582   8.628447   5.598707   4.225884   4.793262
    34  H   10.635525   9.786445   7.090192   4.528049   5.692067
    35  H   10.270704   9.156484   7.197882   4.087927   5.758645
    36  H    8.289547   7.147646   5.892466   3.225972   4.965444
                   26         27         28         29         30
    26  H    0.000000
    27  H    1.796880   0.000000
    28  H    2.606495   3.756303   0.000000
    29  H    2.532615   3.531556   1.755466   0.000000
    30  H    4.662984   5.542983   2.509968   2.345893   0.000000
    31  H    4.604741   4.902838   3.065406   2.493190   1.753952
    32  H    6.065747   5.914784   4.452200   4.541285   3.529158
    33  H    7.826466   7.640131   6.008125   6.629344   5.361416
    34  H    8.275925   8.460282   6.144775   7.286762   5.862913
    35  H    7.147587   7.824646   4.794796   6.217156   4.843115
    36  H    5.177963   6.165502   2.615456   3.931408   2.690211
                   31         32         33         34         35
    31  H    0.000000
    32  H    2.337467   0.000000
    33  H    4.662260   2.477482   0.000000
    34  H    5.865007   4.301019   2.488676   0.000000
    35  H    5.524077   4.954048   4.298785   2.486497   0.000000
    36  H    3.781752   4.291626   4.958852   4.297816   2.469309
                   36
    36  H    0.000000
 Stoichiometry    C12H17NO4S2
 Framework group  C1[X(C12H17NO4S2)]
 Deg. of freedom   102
 Full point group                 C1      NOp   1
 Largest Abelian subgroup         C1      NOp   1
 Largest concise Abelian subgroup C1      NOp   1
                         Standard orientation:                         
 ---------------------------------------------------------------------
 Center     Atomic      Atomic             Coordinates (Angstroms)
 Number     Number       Type             X           Y           Z
 ---------------------------------------------------------------------
      1          6           0        4.120024   -0.335587   -0.031853
      2         16           0        2.705874   -1.440980   -0.135906
      3          7           0        1.369325   -0.563566   -0.649400
      4          6           0        0.644239    0.440410    0.147810
      5          6           0       -0.433740    1.114192   -0.774346
      6         16           0        0.072940    2.759219   -0.183448
      7          6           0        1.439150    1.759803    0.482561
      8          8           0        0.467251    3.693954   -1.253370
      9          8           0       -0.819511    3.254188    0.885955
     10          6           0        0.029727   -0.151766    1.430818
     11          6           0       -0.814135   -1.430563    1.269000
     12          6           0       -2.134212   -1.285731    0.539650
     13          6           0       -2.331289   -1.898100   -0.704835
     14          6           0       -3.548112   -1.781557   -1.380275
     15          6           0       -4.593394   -1.048602   -0.816661
     16          6           0       -4.414048   -0.438793    0.428090
     17          6           0       -3.197591   -0.560503    1.100852
     18          8           0        2.965772   -2.391061   -1.226695
     19          8           0        2.428406   -1.945941    1.215845
     20          1           0        4.295241    0.106785   -1.012185
     21          1           0        4.972524   -0.946877    0.266625
     22          1           0        3.926234    0.428934    0.717120
     23          1           0        1.512043   -0.292021   -1.624331
     24          1           0       -1.469493    0.865667   -0.559331
     25          1           0       -0.229584    1.027082   -1.842796
     26          1           0        1.655366    1.951213    1.533971
     27          1           0        2.327565    1.908395   -0.131890
     28          1           0       -0.566796    0.638415    1.897799
     29          1           0        0.848035   -0.377360    2.117155
     30          1           0       -1.008130   -1.802353    2.282267
     31          1           0       -0.208931   -2.189307    0.769687
     32          1           0       -1.519593   -2.468431   -1.145517
     33          1           0       -3.678246   -2.263952   -2.343983
     34          1           0       -5.541214   -0.955758   -1.338255
     35          1           0       -5.223773    0.124765    0.878582
     36          1           0       -3.072623   -0.090395    2.071793
 ---------------------------------------------------------------------
 Rotational constants (GHZ):      0.3805764      0.2483517      0.1755831
 Leave Link  202 at Fri Aug  7 23:23:41 2020, MaxMem=    33554432 cpu:         0.0
 (Enter /prod/apps/gaussian/g09d1/l301.exe)
 Standard basis: 6-31G(d) (6D, 7F)
 Ernie: Thresh=  0.10000D-02 Tol=  0.10000D-05 Strict=F.
 There are   327 symmetry adapted cartesian basis functions of A   symmetry.
 There are   327 symmetry adapted basis functions of A   symmetry.
   327 basis functions,   648 primitive gaussians,   327 cartesian basis functions
    80 alpha electrons       80 beta electrons
       nuclear repulsion energy      1873.1285388588 Hartrees.
 IExCor=  402 DFT=T Ex+Corr=B3LYP ExCW=0 ScaHFX=  0.200000
 ScaDFX=  0.800000  0.720000  1.000000  0.810000 ScalE2=  1.000000  1.000000
 IRadAn=      0 IRanWt=     -1 IRanGd=            0 ICorTp=0 IEmpDi=  4
 NAtoms=   36 NActive=   36 NUniq=   36 SFac= 1.00D+00 NAtFMM=   60 NAOKFM=F Big=F
 Integral buffers will be    131072 words long.
 Raffenetti 2 integral format.
 Two-electron integral symmetry is turned on.
 Leave Link  301 at Fri Aug  7 23:23:41 2020, MaxMem=    33554432 cpu:         0.0
 (Enter /prod/apps/gaussian/g09d1/l302.exe)
 NPDir=0 NMtPBC=     1 NCelOv=     1 NCel=       1 NClECP=     1 NCelD=      1
         NCelK=      1 NCelE2=     1 NClLst=     1 CellRange=     0.0.
 One-electron integrals computed using PRISM.
 NBasis=   327 RedAO= T EigKep=  4.71D-04  NBF=   327
 NBsUse=   327 1.00D-06 EigRej= -1.00D+00 NBFU=   327
 Precomputing XC quadrature grid using
 IXCGrd= 4 IRadAn=           0 IRanWt=          -1 IRanGd=           0 AccXCQ= 0.00D+00.
 Generated NRdTot=       0 NPtTot=           0 NUsed=           0 NTot=          32
 NSgBfM=   323   323   323   324   324 MxSgAt=    36 MxSgA2=    36.
 Leave Link  302 at Fri Aug  7 23:23:42 2020, MaxMem=    33554432 cpu:         1.0
 (Enter /prod/apps/gaussian/g09d1/l303.exe)
 DipDrv:  MaxL=1.
 Leave Link  303 at Fri Aug  7 23:23:42 2020, MaxMem=    33554432 cpu:         0.0
 (Enter /prod/apps/gaussian/g09d1/l401.exe)
 ExpMin= 1.17D-01 ExpMax= 2.19D+04 ExpMxC= 3.30D+03 IAcc=1 IRadAn=         1 AccDes= 0.00D+00
 Harris functional with IExCor=  402 and IRadAn=       1 diagonalized for initial guess.
 HarFok:  IExCor=  402 AccDes= 0.00D+00 IRadAn=         1 IDoV= 1 UseB2=F ITyADJ=14
 ICtDFT=  3500011 ScaDFX=  1.000000  1.000000  1.000000  1.000000
 FoFCou: FMM=F IPFlag=           0 FMFlag=      100000 FMFlg1=           0
         NFxFlg=           0 DoJE=T BraDBF=F KetDBF=T FulRan=T
         wScrn=  0.000000 ICntrl=     500 IOpCl=  0 I1Cent=   200000004 NGrid=           0
         NMat0=    1 NMatS0=      1 NMatT0=    0 NMatD0=    1 NMtDS0=    0 NMtDT0=    0
 Petite list used in FoFCou.
 Harris En= -1619.50362170139    
 JPrj=0 DoOrth=F DoCkMO=F.
 Leave Link  401 at Fri Aug  7 23:23:46 2020, MaxMem=    33554432 cpu:         4.2
 (Enter /prod/apps/gaussian/g09d1/l502.exe)
 Closed shell SCF:
 Using DIIS extrapolation, IDIIS=  1040.
 Integral symmetry usage will be decided dynamically.
 IVT=      343772 IEndB=      343772 NGot=    33554432 MDV=    33334557
 LenX=    33334557 LenY=    33227187
 Requested convergence on RMS density matrix=1.00D-08 within 128 cycles.
 Requested convergence on MAX density matrix=1.00D-06.
 Requested convergence on             energy=1.00D-06.
 No special actions if energy rises.
 Fock matrices will be formed incrementally for  20 cycles.
 Integral accuracy reduced to 1.0D-05 until final iterations.

 Cycle   1  Pass 0  IDiag  1:
 FoFJK:  IHMeth= 1 ICntrl=       0 DoSepK=F KAlg= 0 I1Cent=   0 FoldK=F
 IRaf= 800000000 NMat=   1 IRICut=       1 DoRegI=T DoRafI=F ISym2E= 0.
 FoFCou: FMM=F IPFlag=           0 FMFlag=      100000 FMFlg1=           0
         NFxFlg=           0 DoJE=F BraDBF=F KetDBF=F FulRan=T
         wScrn=  0.000000 ICntrl=       0 IOpCl=  0 I1Cent=           0 NGrid=           0
         NMat0=    1 NMatS0=      1 NMatT0=    0 NMatD0=    1 NMtDS0=    0 NMtDT0=    0
 Symmetry not used in FoFCou.
 E= -1618.58171082091    
 DIIS: error= 3.19D-02 at cycle   1 NSaved=   1.
 NSaved= 1 IEnMin= 1 EnMin= -1618.58171082091     IErMin= 1 ErrMin= 3.19D-02
 ErrMax= 3.19D-02  0.00D+00 EMaxC= 1.00D-01 BMatC= 9.46D-01 BMatP= 9.46D-01
 IDIUse=3 WtCom= 6.81D-01 WtEn= 3.19D-01
 Coeff-Com:  0.100D+01
 Coeff-En:   0.100D+01
 Coeff:      0.100D+01
 Gap=     0.394 Goal=   None    Shift=    0.000
 GapD=    0.394 DampG=1.000 DampE=0.500 DampFc=0.5000 IDamp=-1.
 Damping current iteration by 5.00D-01
 RMSDP=7.91D-03 MaxDP=5.74D-01              OVMax= 2.56D-01

 Cycle   2  Pass 0  IDiag  1:
 RMSU=  3.95D-03    CP:  1.00D+00
 E= -1618.73452540583     Delta-E=       -0.152814584922 Rises=F Damp=T
 DIIS: error= 1.73D-02 at cycle   2 NSaved=   2.
 NSaved= 2 IEnMin= 2 EnMin= -1618.73452540583     IErMin= 2 ErrMin= 1.73D-02
 ErrMax= 1.73D-02  0.00D+00 EMaxC= 1.00D-01 BMatC= 1.70D-01 BMatP= 9.46D-01
 IDIUse=3 WtCom= 8.27D-01 WtEn= 1.73D-01
 Coeff-Com:  0.257D+00 0.743D+00
 Coeff-En:   0.407D+00 0.593D+00
 Coeff:      0.283D+00 0.717D+00
 Gap=     0.268 Goal=   None    Shift=    0.000
 RMSDP=2.31D-03 MaxDP=1.23D-01 DE=-1.53D-01 OVMax= 2.10D-01

 Cycle   3  Pass 0  IDiag  1:
 RMSU=  1.75D-03    CP:  9.92D-01  6.24D-01
 E= -1619.29660316782     Delta-E=       -0.562077761982 Rises=F Damp=F
 DIIS: error= 1.05D-02 at cycle   3 NSaved=   3.
 NSaved= 3 IEnMin= 3 EnMin= -1619.29660316782     IErMin= 3 ErrMin= 1.05D-02
 ErrMax= 1.05D-02  0.00D+00 EMaxC= 1.00D-01 BMatC= 9.02D-02 BMatP= 1.70D-01
 IDIUse=3 WtCom= 8.95D-01 WtEn= 1.05D-01
 Coeff-Com:  0.108D+00 0.431D+00 0.461D+00
 Coeff-En:   0.000D+00 0.000D+00 0.100D+01
 Coeff:      0.965D-01 0.386D+00 0.518D+00
 Gap=     0.238 Goal=   None    Shift=    0.000
 RMSDP=1.34D-03 MaxDP=3.77D-02 DE=-5.62D-01 OVMax= 8.01D-02

 Cycle   4  Pass 0  IDiag  1:
 RMSU=  8.08D-04    CP:  9.97D-01  7.04D-01  4.22D-01
 E= -1619.37190190979     Delta-E=       -0.075298741976 Rises=F Damp=F
 DIIS: error= 4.06D-03 at cycle   4 NSaved=   4.
 NSaved= 4 IEnMin= 4 EnMin= -1619.37190190979     IErMin= 4 ErrMin= 4.06D-03
 ErrMax= 4.06D-03  0.00D+00 EMaxC= 1.00D-01 BMatC= 1.12D-02 BMatP= 9.02D-02
 IDIUse=3 WtCom= 9.59D-01 WtEn= 4.06D-02
 Coeff-Com:  0.113D-01 0.719D-01 0.274D+00 0.643D+00
 Coeff-En:   0.000D+00 0.000D+00 0.101D+00 0.899D+00
 Coeff:      0.109D-01 0.689D-01 0.267D+00 0.653D+00
 Gap=     0.236 Goal=   None    Shift=    0.000
 RMSDP=4.43D-04 MaxDP=1.53D-02 DE=-7.53D-02 OVMax= 2.61D-02

 Cycle   5  Pass 0  IDiag  1:
 RMSU=  2.07D-04    CP:  9.97D-01  6.89D-01  5.64D-01  6.32D-01
 E= -1619.38119632417     Delta-E=       -0.009294414378 Rises=F Damp=F
 DIIS: error= 1.24D-03 at cycle   5 NSaved=   5.
 NSaved= 5 IEnMin= 5 EnMin= -1619.38119632417     IErMin= 5 ErrMin= 1.24D-03
 ErrMax= 1.24D-03  0.00D+00 EMaxC= 1.00D-01 BMatC= 1.09D-03 BMatP= 1.12D-02
 IDIUse=3 WtCom= 9.88D-01 WtEn= 1.24D-02
 Coeff-Com: -0.429D-03 0.155D-01 0.121D+00 0.373D+00 0.491D+00
 Coeff-En:   0.000D+00 0.000D+00 0.000D+00 0.872D-02 0.991D+00
 Coeff:     -0.423D-03 0.154D-01 0.120D+00 0.368D+00 0.497D+00
 Gap=     0.236 Goal=   None    Shift=    0.000
 RMSDP=1.38D-04 MaxDP=4.94D-03 DE=-9.29D-03 OVMax= 7.55D-03

 Cycle   6  Pass 0  IDiag  1:
 RMSU=  6.21D-05    CP:  9.97D-01  6.92D-01  5.54D-01  7.11D-01  5.01D-01
 E= -1619.38213786650     Delta-E=       -0.000941542332 Rises=F Damp=F
 DIIS: error= 3.81D-04 at cycle   6 NSaved=   6.
 NSaved= 6 IEnMin= 6 EnMin= -1619.38213786650     IErMin= 6 ErrMin= 3.81D-04
 ErrMax= 3.81D-04  0.00D+00 EMaxC= 1.00D-01 BMatC= 9.87D-05 BMatP= 1.09D-03
 IDIUse=3 WtCom= 9.96D-01 WtEn= 3.81D-03
 Coeff-Com: -0.115D-02 0.227D-02 0.409D-01 0.140D+00 0.285D+00 0.533D+00
 Coeff-En:   0.000D+00 0.000D+00 0.000D+00 0.000D+00 0.274D-01 0.973D+00
 Coeff:     -0.114D-02 0.226D-02 0.407D-01 0.140D+00 0.284D+00 0.535D+00
 Gap=     0.236 Goal=   None    Shift=    0.000
 RMSDP=3.79D-05 MaxDP=1.58D-03 DE=-9.42D-04 OVMax= 3.01D-03

 Cycle   7  Pass 0  IDiag  1:
 RMSU=  2.33D-05    CP:  9.97D-01  6.92D-01  5.55D-01  7.07D-01  5.68D-01
                    CP:  5.79D-01
 E= -1619.38221800179     Delta-E=       -0.000080135289 Rises=F Damp=F
 DIIS: error= 1.77D-04 at cycle   7 NSaved=   7.
 NSaved= 7 IEnMin= 7 EnMin= -1619.38221800179     IErMin= 7 ErrMin= 1.77D-04
 ErrMax= 1.77D-04  0.00D+00 EMaxC= 1.00D-01 BMatC= 1.17D-05 BMatP= 9.87D-05
 IDIUse=3 WtCom= 9.98D-01 WtEn= 1.77D-03
 Coeff-Com: -0.650D-03-0.128D-03 0.132D-01 0.488D-01 0.127D+00 0.328D+00
 Coeff-Com:  0.484D+00
 Coeff-En:   0.000D+00 0.000D+00 0.000D+00 0.000D+00 0.000D+00 0.486D-01
 Coeff-En:   0.951D+00
 Coeff:     -0.649D-03-0.127D-03 0.132D-01 0.487D-01 0.127D+00 0.327D+00
 Coeff:      0.485D+00
 Gap=     0.236 Goal=   None    Shift=    0.000
 RMSDP=1.27D-05 MaxDP=4.37D-04 DE=-8.01D-05 OVMax= 7.60D-04

 Cycle   8  Pass 0  IDiag  1:
 RMSU=  7.10D-06    CP:  9.97D-01  6.91D-01  5.56D-01  7.07D-01  5.72D-01
                    CP:  6.33D-01  5.78D-01
 E= -1619.38222805047     Delta-E=       -0.000010048677 Rises=F Damp=F
 DIIS: error= 5.64D-05 at cycle   8 NSaved=   8.
 NSaved= 8 IEnMin= 8 EnMin= -1619.38222805047     IErMin= 8 ErrMin= 5.64D-05
 ErrMax= 5.64D-05  0.00D+00 EMaxC= 1.00D-01 BMatC= 1.10D-06 BMatP= 1.17D-05
 IDIUse=1 WtCom= 1.00D+00 WtEn= 0.00D+00
 Coeff-Com: -0.251D-03-0.360D-03 0.266D-02 0.113D-01 0.407D-01 0.130D+00
 Coeff-Com:  0.286D+00 0.530D+00
 Coeff:     -0.251D-03-0.360D-03 0.266D-02 0.113D-01 0.407D-01 0.130D+00
 Coeff:      0.286D+00 0.530D+00
 Gap=     0.236 Goal=   None    Shift=    0.000
 RMSDP=4.01D-06 MaxDP=1.49D-04 DE=-1.00D-05 OVMax= 2.44D-04

 Initial convergence to 1.0D-05 achieved.  Increase integral accuracy.
 Cycle   9  Pass 1  IDiag  1:
 E= -1619.38209938356     Delta-E=        0.000128666906 Rises=F Damp=F
 DIIS: error= 3.51D-05 at cycle   1 NSaved=   1.
 NSaved= 1 IEnMin= 1 EnMin= -1619.38209938356     IErMin= 1 ErrMin= 3.51D-05
 ErrMax= 3.51D-05  0.00D+00 EMaxC= 1.00D-01 BMatC= 7.68D-07 BMatP= 7.68D-07
 IDIUse=1 WtCom= 1.00D+00 WtEn= 0.00D+00
 Coeff-Com:  0.100D+01
 Coeff:      0.100D+01
 Gap=     0.236 Goal=   None    Shift=    0.000
 RMSDP=4.01D-06 MaxDP=1.49D-04 DE= 1.29D-04 OVMax= 2.24D-04

 Cycle  10  Pass 1  IDiag  1:
 RMSU=  2.21D-05    CP:  1.00D+00
 E= -1619.38209980772     Delta-E=       -0.000000424155 Rises=F Damp=F
 DIIS: error= 4.47D-05 at cycle   2 NSaved=   2.
 NSaved= 2 IEnMin= 2 EnMin= -1619.38209980772     IErMin= 1 ErrMin= 3.51D-05
 ErrMax= 4.47D-05  0.00D+00 EMaxC= 1.00D-01 BMatC= 5.15D-07 BMatP= 7.68D-07
 IDIUse=1 WtCom= 1.00D+00 WtEn= 0.00D+00
 Coeff-Com:  0.427D+00 0.573D+00
 Coeff:      0.427D+00 0.573D+00
 Gap=     0.236 Goal=   None    Shift=    0.000
 RMSDP=3.86D-06 MaxDP=1.88D-04 DE=-4.24D-07 OVMax= 2.72D-04

 Cycle  11  Pass 1  IDiag  1:
 RMSU=  3.86D-06    CP:  1.00D+00  9.90D-01
 E= -1619.38209994349     Delta-E=       -0.000000135770 Rises=F Damp=F
 DIIS: error= 4.26D-05 at cycle   3 NSaved=   3.
 NSaved= 3 IEnMin= 3 EnMin= -1619.38209994349     IErMin= 1 ErrMin= 3.51D-05
 ErrMax= 4.26D-05  0.00D+00 EMaxC= 1.00D-01 BMatC= 3.68D-07 BMatP= 5.15D-07
 IDIUse=1 WtCom= 1.00D+00 WtEn= 0.00D+00
 Coeff-Com:  0.399D-02 0.457D+00 0.539D+00
 Coeff:      0.399D-02 0.457D+00 0.539D+00
 Gap=     0.236 Goal=   None    Shift=    0.000
 RMSDP=1.81D-06 MaxDP=9.74D-05 DE=-1.36D-07 OVMax= 1.46D-04

 Cycle  12  Pass 1  IDiag  1:
 RMSU=  6.67D-07    CP:  1.00D+00  1.00D+00  5.72D-01
 E= -1619.38210023514     Delta-E=       -0.000000291653 Rises=F Damp=F
 DIIS: error= 5.63D-06 at cycle   4 NSaved=   4.
 NSaved= 4 IEnMin= 4 EnMin= -1619.38210023514     IErMin= 4 ErrMin= 5.63D-06
 ErrMax= 5.63D-06  0.00D+00 EMaxC= 1.00D-01 BMatC= 1.28D-08 BMatP= 3.68D-07
 IDIUse=1 WtCom= 1.00D+00 WtEn= 0.00D+00
 Coeff-Com: -0.109D-01 0.260D+00 0.327D+00 0.424D+00
 Coeff:     -0.109D-01 0.260D+00 0.327D+00 0.424D+00
 Gap=     0.236 Goal=   None    Shift=    0.000
 RMSDP=3.92D-07 MaxDP=1.56D-05 DE=-2.92D-07 OVMax= 2.13D-05

 Cycle  13  Pass 1  IDiag  1:
 RMSU=  2.17D-07    CP:  1.00D+00  1.01D+00  5.72D-01  5.12D-01
 E= -1619.38210024572     Delta-E=       -0.000000010576 Rises=F Damp=F
 DIIS: error= 1.00D-06 at cycle   5 NSaved=   5.
 NSaved= 5 IEnMin= 5 EnMin= -1619.38210024572     IErMin= 5 ErrMin= 1.00D-06
 ErrMax= 1.00D-06  0.00D+00 EMaxC= 1.00D-01 BMatC= 5.42D-10 BMatP= 1.28D-08
 IDIUse=1 WtCom= 1.00D+00 WtEn= 0.00D+00
 Coeff-Com: -0.603D-02 0.114D+00 0.146D+00 0.236D+00 0.510D+00
 Coeff:     -0.603D-02 0.114D+00 0.146D+00 0.236D+00 0.510D+00
 Gap=     0.236 Goal=   None    Shift=    0.000
 RMSDP=9.59D-08 MaxDP=4.10D-06 DE=-1.06D-08 OVMax= 9.04D-06

 Cycle  14  Pass 1  IDiag  1:
 RMSU=  7.36D-08    CP:  1.00D+00  1.01D+00  5.73D-01  5.41D-01  7.34D-01
 E= -1619.38210024621     Delta-E=       -0.000000000493 Rises=F Damp=F
 DIIS: error= 4.01D-07 at cycle   6 NSaved=   6.
 NSaved= 6 IEnMin= 6 EnMin= -1619.38210024621     IErMin= 6 ErrMin= 4.01D-07
 ErrMax= 4.01D-07  0.00D+00 EMaxC= 1.00D-01 BMatC= 6.09D-11 BMatP= 5.42D-10
 IDIUse=1 WtCom= 1.00D+00 WtEn= 0.00D+00
 Coeff-Com: -0.190D-02 0.290D-01 0.375D-01 0.739D-01 0.287D+00 0.574D+00
 Coeff:     -0.190D-02 0.290D-01 0.375D-01 0.739D-01 0.287D+00 0.574D+00
 Gap=     0.236 Goal=   None    Shift=    0.000
 RMSDP=3.17D-08 MaxDP=1.11D-06 DE=-4.93D-10 OVMax= 2.79D-06

 Cycle  15  Pass 1  IDiag  1:
 RMSU=  2.28D-08    CP:  1.00D+00  1.01D+00  5.72D-01  5.40D-01  7.83D-01
                    CP:  7.45D-01
 E= -1619.38210024632     Delta-E=       -0.000000000113 Rises=F Damp=F
 DIIS: error= 1.11D-07 at cycle   7 NSaved=   7.
 NSaved= 7 IEnMin= 7 EnMin= -1619.38210024632     IErMin= 7 ErrMin= 1.11D-07
 ErrMax= 1.11D-07  0.00D+00 EMaxC= 1.00D-01 BMatC= 6.32D-12 BMatP= 6.09D-11
 IDIUse=1 WtCom= 1.00D+00 WtEn= 0.00D+00
 Coeff-Com: -0.348D-03 0.255D-02 0.358D-02 0.120D-01 0.939D-01 0.304D+00
 Coeff-Com:  0.584D+00
 Coeff:     -0.348D-03 0.255D-02 0.358D-02 0.120D-01 0.939D-01 0.304D+00
 Coeff:      0.584D+00
 Gap=     0.236 Goal=   None    Shift=    0.000
 RMSDP=1.05D-08 MaxDP=3.86D-07 DE=-1.13D-10 OVMax= 5.43D-07

 Cycle  16  Pass 1  IDiag  1:
 RMSU=  6.48D-09    CP:  1.00D+00  1.01D+00  5.73D-01  5.43D-01  7.90D-01
                    CP:  7.77D-01  6.86D-01
 E= -1619.38210024634     Delta-E=       -0.000000000013 Rises=F Damp=F
 DIIS: error= 5.99D-08 at cycle   8 NSaved=   8.
 NSaved= 8 IEnMin= 8 EnMin= -1619.38210024634     IErMin= 8 ErrMin= 5.99D-08
 ErrMax= 5.99D-08  0.00D+00 EMaxC= 1.00D-01 BMatC= 1.05D-12 BMatP= 6.32D-12
 IDIUse=1 WtCom= 1.00D+00 WtEn= 0.00D+00
 Coeff-Com: -0.110D-04-0.156D-02-0.184D-02-0.757D-03 0.251D-01 0.119D+00
 Coeff-Com:  0.348D+00 0.512D+00
 Coeff:     -0.110D-04-0.156D-02-0.184D-02-0.757D-03 0.251D-01 0.119D+00
 Coeff:      0.348D+00 0.512D+00
 Gap=     0.236 Goal=   None    Shift=    0.000
 RMSDP=3.67D-09 MaxDP=2.09D-07 DE=-1.32D-11 OVMax= 2.03D-07

 SCF Done:  E(RB3LYP) =  -1619.38210025     A.U. after   16 cycles
            NFock= 16  Conv=0.37D-08     -V/T= 2.0066
 KE= 1.608777241266D+03 PE=-7.552028425689D+03 EE= 2.450740545318D+03
 Leave Link  502 at Fri Aug  7 23:29:33 2020, MaxMem=    33554432 cpu:       346.8
 (Enter /prod/apps/gaussian/g09d1/l601.exe)
 Copying SCF densities to generalized density rwf, IOpCl= 0 IROHF=0.

 **********************************************************************

            Population analysis using the SCF density.

 **********************************************************************

 Orbital symmetries:
       Occupied  (A) (A) (A) (A) (A) (A) (A) (A) (A) (A) (A) (A)
                 (A) (A) (A) (A) (A) (A) (A) (A) (A) (A) (A) (A)
                 (A) (A) (A) (A) (A) (A) (A) (A) (A) (A) (A) (A)
                 (A) (A) (A) (A) (A) (A) (A) (A) (A) (A) (A) (A)
                 (A) (A) (A) (A) (A) (A) (A) (A) (A) (A) (A) (A)
                 (A) (A) (A) (A) (A) (A) (A) (A) (A) (A) (A) (A)
                 (A) (A) (A) (A) (A) (A) (A) (A)
       Virtual   (A) (A) (A) (A) (A) (A) (A) (A) (A) (A) (A) (A)
                 (A) (A) (A) (A) (A) (A) (A) (A) (A) (A) (A) (A)
                 (A) (A) (A) (A) (A) (A) (A) (A) (A) (A) (A) (A)
                 (A) (A) (A) (A) (A) (A) (A) (A) (A) (A) (A) (A)
                 (A) (A) (A) (A) (A) (A) (A) (A) (A) (A) (A) (A)
                 (A) (A) (A) (A) (A) (A) (A) (A) (A) (A) (A) (A)
                 (A) (A) (A) (A) (A) (A) (A) (A) (A) (A) (A) (A)
                 (A) (A) (A) (A) (A) (A) (A) (A) (A) (A) (A) (A)
                 (A) (A) (A) (A) (A) (A) (A) (A) (A) (A) (A) (A)
                 (A) (A) (A) (A) (A) (A) (A) (A) (A) (A) (A) (A)
                 (A) (A) (A) (A) (A) (A) (A) (A) (A) (A) (A) (A)
                 (A) (A) (A) (A) (A) (A) (A) (A) (A) (A) (A) (A)
                 (A) (A) (A) (A) (A) (A) (A) (A) (A) (A) (A) (A)
                 (A) (A) (A) (A) (A) (A) (A) (A) (A) (A) (A) (A)
                 (A) (A) (A) (A) (A) (A) (A) (A) (A) (A) (A) (A)
                 (A) (A) (A) (A) (A) (A) (A) (A) (A) (A) (A) (A)
                 (A) (A) (A) (A) (A) (A) (A) (A) (A) (A) (A) (A)
                 (A) (A) (A) (A) (A) (A) (A) (A) (A) (A) (A) (A)
                 (A) (A) (A) (A) (A) (A) (A) (A) (A) (A) (A) (A)
                 (A) (A) (A) (A) (A) (A) (A) (A) (A) (A) (A) (A)
                 (A) (A) (A) (A) (A) (A) (A)
 The electronic state is 1-A.
 Alpha  occ. eigenvalues --  -89.13261 -89.10051 -19.15762 -19.15454 -19.15342
 Alpha  occ. eigenvalues --  -19.15030 -14.39776 -10.29325 -10.24926 -10.24633
 Alpha  occ. eigenvalues --  -10.24245 -10.20772 -10.20104 -10.19523 -10.19485
 Alpha  occ. eigenvalues --  -10.19449 -10.19364 -10.19297 -10.19188  -8.15769
 Alpha  occ. eigenvalues --   -8.13096  -6.12285  -6.12163  -6.12079  -6.09509
 Alpha  occ. eigenvalues --   -6.09454  -6.09392  -1.12547  -1.10466  -1.01233
 Alpha  occ. eigenvalues --   -0.99994  -0.96405  -0.87129  -0.85914  -0.80033
 Alpha  occ. eigenvalues --   -0.79367  -0.74820  -0.74683  -0.73939  -0.68995
 Alpha  occ. eigenvalues --   -0.65639  -0.61456  -0.60833  -0.59413  -0.58057
 Alpha  occ. eigenvalues --   -0.55820  -0.53670  -0.52054  -0.51244  -0.50049
 Alpha  occ. eigenvalues --   -0.49240  -0.48809  -0.47917  -0.46821  -0.46655
 Alpha  occ. eigenvalues --   -0.46054  -0.45340  -0.44416  -0.44280  -0.42991
 Alpha  occ. eigenvalues --   -0.42660  -0.42102  -0.41172  -0.39471  -0.38213
 Alpha  occ. eigenvalues --   -0.36711  -0.35620  -0.35058  -0.34125  -0.33792
 Alpha  occ. eigenvalues --   -0.33221  -0.32731  -0.32032  -0.31911  -0.31179
 Alpha  occ. eigenvalues --   -0.30830  -0.30378  -0.28985  -0.25513  -0.24635
 Alpha virt. eigenvalues --   -0.01027  -0.00538   0.01717   0.02277   0.03419
 Alpha virt. eigenvalues --    0.04586   0.05454   0.06319   0.07015   0.07908
 Alpha virt. eigenvalues --    0.08549   0.09079   0.09633   0.11064   0.11272
 Alpha virt. eigenvalues --    0.12078   0.12930   0.13195   0.13636   0.14249
 Alpha virt. eigenvalues --    0.14837   0.15547   0.16176   0.16868   0.17191
 Alpha virt. eigenvalues --    0.18623   0.19345   0.20442   0.20497   0.22243
 Alpha virt. eigenvalues --    0.23364   0.23819   0.27285   0.28298   0.30194
 Alpha virt. eigenvalues --    0.31809   0.33495   0.33723   0.34639   0.34917
 Alpha virt. eigenvalues --    0.36969   0.37843   0.40659   0.42835   0.43219
 Alpha virt. eigenvalues --    0.43434   0.45511   0.47281   0.48611   0.49975
 Alpha virt. eigenvalues --    0.51313   0.51692   0.53300   0.53334   0.53915
 Alpha virt. eigenvalues --    0.54820   0.56191   0.56627   0.57776   0.58778
 Alpha virt. eigenvalues --    0.59344   0.60024   0.60350   0.60856   0.61239
 Alpha virt. eigenvalues --    0.62274   0.63352   0.64163   0.64602   0.66370
 Alpha virt. eigenvalues --    0.67180   0.69418   0.71357   0.72621   0.73072
 Alpha virt. eigenvalues --    0.74283   0.75909   0.77901   0.78692   0.79489
 Alpha virt. eigenvalues --    0.80039   0.80956   0.81686   0.82329   0.82862
 Alpha virt. eigenvalues --    0.83528   0.83691   0.83977   0.84573   0.85533
 Alpha virt. eigenvalues --    0.86030   0.86362   0.86566   0.87466   0.88214
 Alpha virt. eigenvalues --    0.89220   0.89544   0.90768   0.91575   0.93215
 Alpha virt. eigenvalues --    0.93597   0.94052   0.95109   0.96845   0.98247
 Alpha virt. eigenvalues --    0.98892   0.99554   1.00038   1.02290   1.03706
 Alpha virt. eigenvalues --    1.05032   1.06298   1.07047   1.08069   1.08609
 Alpha virt. eigenvalues --    1.09490   1.11204   1.12586   1.13127   1.14881
 Alpha virt. eigenvalues --    1.16018   1.16905   1.17387   1.18514   1.19129
 Alpha virt. eigenvalues --    1.20071   1.20829   1.23580   1.25841   1.26816
 Alpha virt. eigenvalues --    1.30065   1.30484   1.33590   1.36035   1.37596
 Alpha virt. eigenvalues --    1.41030   1.42981   1.43523   1.44713   1.47076
 Alpha virt. eigenvalues --    1.47983   1.48364   1.50386   1.50993   1.55228
 Alpha virt. eigenvalues --    1.59481   1.62272   1.64574   1.66947   1.69267
 Alpha virt. eigenvalues --    1.70304   1.72450   1.73482   1.74258   1.76541
 Alpha virt. eigenvalues --    1.78095   1.79204   1.79792   1.80106   1.80691
 Alpha virt. eigenvalues --    1.81185   1.81451   1.82285   1.83869   1.84495
 Alpha virt. eigenvalues --    1.85919   1.86514   1.87589   1.89565   1.90845
 Alpha virt. eigenvalues --    1.92118   1.93511   1.94029   1.96991   1.97642
 Alpha virt. eigenvalues --    1.98464   2.00754   2.02302   2.03716   2.04188
 Alpha virt. eigenvalues --    2.04984   2.06050   2.07673   2.08094   2.10300
 Alpha virt. eigenvalues --    2.12293   2.12727   2.14206   2.14265   2.15638
 Alpha virt. eigenvalues --    2.16632   2.17602   2.19457   2.20002   2.23127
 Alpha virt. eigenvalues --    2.24104   2.25136   2.26075   2.27970   2.28766
 Alpha virt. eigenvalues --    2.30753   2.31822   2.32793   2.36536   2.36704
 Alpha virt. eigenvalues --    2.38601   2.42120   2.46250   2.49937   2.54680
 Alpha virt. eigenvalues --    2.57951   2.58262   2.64607   2.67782   2.69921
 Alpha virt. eigenvalues --    2.71911   2.72048   2.72625   2.74136   2.74748
 Alpha virt. eigenvalues --    2.75907   2.78118   2.78951   2.81877   2.87053
 Alpha virt. eigenvalues --    2.89060   3.05083   3.40393   3.73850   3.79622
 Alpha virt. eigenvalues --    3.87074   3.93354   3.95510   3.97006   4.06156
 Alpha virt. eigenvalues --    4.09492   4.11872   4.16556   4.18676   4.21627
 Alpha virt. eigenvalues --    4.22151   4.33220   4.35123   4.41880   4.53800
 Alpha virt. eigenvalues --    4.69746   4.72040
          Condensed to atoms (all electrons):
               1          2          3          4          5          6
     1  C    5.589048   0.192353  -0.059712  -0.001340  -0.000223   0.000133
     2  S    0.192353  13.695308   0.107939   0.001576   0.000415   0.000057
     3  N   -0.059712   0.107939   7.390390   0.220523  -0.036235   0.002047
     4  C   -0.001340   0.001576   0.220523   4.885168   0.331076  -0.090155
     5  C   -0.000223   0.000415  -0.036235   0.331076   5.752457   0.126544
     6  S    0.000133   0.000057   0.002047  -0.090155   0.126544  13.902478
     7  C    0.002517  -0.011505  -0.055558   0.349877  -0.194524   0.111529
     8  O   -0.000001  -0.000006  -0.000121   0.002259  -0.046022   0.435366
     9  O    0.000000   0.000000  -0.000027  -0.000041  -0.045309   0.413811
    10  C   -0.000635  -0.004148  -0.059011   0.358726  -0.046397   0.004584
    11  C    0.000022   0.000264  -0.002288  -0.035713  -0.003551  -0.000105
    12  C    0.000001   0.000256  -0.001094  -0.003332  -0.001895   0.000073
    13  C    0.000000  -0.000046   0.000500   0.000827  -0.000339   0.000172
    14  C    0.000000  -0.000002   0.000013  -0.000005   0.000378   0.000009
    15  C    0.000000   0.000000   0.000001   0.000008   0.000070  -0.000002
    16  C    0.000000   0.000000  -0.000001  -0.000003  -0.000447  -0.000027
    17  C    0.000000   0.000004   0.000020  -0.000834  -0.003737  -0.000026
    18  O   -0.059772   0.455932  -0.055092   0.002464  -0.000078   0.000001
    19  O   -0.058311   0.407485  -0.049213  -0.000853   0.000021  -0.000010
    20  H    0.338113  -0.006863   0.000248   0.000385  -0.000008   0.000002
    21  H    0.357617  -0.011948   0.002097  -0.000007   0.000002   0.000000
    22  H    0.332781  -0.005613  -0.000804  -0.000572   0.000051   0.000011
    23  H   -0.000131  -0.003106   0.287342  -0.028183  -0.007023   0.000624
    24  H    0.000001   0.000027   0.001138  -0.022503   0.341824  -0.010627
    25  H   -0.000001  -0.000042  -0.005479  -0.028481   0.327156  -0.003935
    26  H   -0.000455   0.000494   0.002032  -0.024695   0.009713  -0.010082
    27  H   -0.000180  -0.001286  -0.002654  -0.026024   0.004682   0.000178
    28  H   -0.000002   0.000208   0.004380  -0.034777  -0.006929   0.007973
    29  H   -0.000319   0.003882  -0.003645  -0.030501   0.005281  -0.000434
    30  H    0.000001  -0.000129   0.000204   0.005065  -0.000033   0.000025
    31  H    0.000024   0.001046   0.005331  -0.010857  -0.000314  -0.000023
    32  H    0.000001   0.000165   0.001398  -0.000128   0.000016   0.000004
    33  H    0.000000   0.000000  -0.000001   0.000001  -0.000005   0.000000
    34  H    0.000000   0.000000   0.000000   0.000000   0.000000   0.000000
    35  H    0.000000   0.000000   0.000000   0.000000  -0.000005   0.000000
    36  H    0.000000   0.000000   0.000001   0.000123  -0.000041   0.000013
               7          8          9         10         11         12
     1  C    0.002517  -0.000001   0.000000  -0.000635   0.000022   0.000001
     2  S   -0.011505  -0.000006   0.000000  -0.004148   0.000264   0.000256
     3  N   -0.055558  -0.000121  -0.000027  -0.059011  -0.002288  -0.001094
     4  C    0.349877   0.002259  -0.000041   0.358726  -0.035713  -0.003332
     5  C   -0.194524  -0.046022  -0.045309  -0.046397  -0.003551  -0.001895
     6  S    0.111529   0.435366   0.413811   0.004584  -0.000105   0.000073
     7  C    5.777569  -0.045404  -0.044846  -0.058665   0.004140  -0.000027
     8  O   -0.045404   8.206996  -0.046789  -0.000059   0.000000   0.000000
     9  O   -0.044846  -0.046789   8.239874  -0.002586   0.000060  -0.000041
    10  C   -0.058665  -0.000059  -0.002586   5.154792   0.335640  -0.034456
    11  C    0.004140   0.000000   0.000060   0.335640   5.162275   0.345655
    12  C   -0.000027   0.000000  -0.000041  -0.034456   0.345655   4.690209
    13  C   -0.000002   0.000000   0.000000  -0.001419  -0.048221   0.549808
    14  C    0.000000   0.000000   0.000000  -0.000182   0.007109  -0.023267
    15  C    0.000000   0.000000   0.000000   0.000013   0.000371  -0.035113
    16  C    0.000000   0.000000  -0.000003   0.000070   0.005811  -0.018959
    17  C   -0.000020   0.000000   0.000038  -0.003027  -0.063599   0.529409
    18  O   -0.000070   0.000000   0.000000  -0.000118   0.000036  -0.000001
    19  O   -0.000700   0.000000   0.000000  -0.004262  -0.002577   0.000192
    20  H   -0.000399   0.000000   0.000000  -0.000004   0.000001   0.000000
    21  H    0.000012   0.000000   0.000000   0.000008   0.000000   0.000000
    22  H    0.001561   0.000000   0.000000   0.000044  -0.000002   0.000000
    23  H   -0.000228  -0.000065   0.000000   0.005132  -0.000114  -0.000004
    24  H    0.008407   0.000553   0.000217  -0.005578  -0.001945   0.008551
    25  H    0.004777   0.000535   0.001233   0.003585  -0.000004  -0.000048
    26  H    0.342440   0.000699  -0.000323  -0.003045   0.000136   0.000011
    27  H    0.324782   0.000132   0.001206   0.003689  -0.000102   0.000001
    28  H   -0.003230   0.000021   0.005978   0.360541  -0.033549  -0.005773
    29  H   -0.006009   0.000001   0.000063   0.355646  -0.026233   0.003776
    30  H   -0.000130   0.000000  -0.000001  -0.035330   0.361314  -0.032566
    31  H    0.000143   0.000000   0.000000  -0.031574   0.365749  -0.034255
    32  H    0.000005   0.000000   0.000000   0.000134  -0.010188  -0.041866
    33  H    0.000000   0.000000   0.000000   0.000002  -0.000178   0.003831
    34  H    0.000000   0.000000   0.000000   0.000000   0.000007   0.000675
    35  H    0.000000   0.000000   0.000000   0.000001  -0.000174   0.003669
    36  H   -0.000001   0.000000   0.000003   0.000772  -0.008122  -0.048418
              13         14         15         16         17         18
     1  C    0.000000   0.000000   0.000000   0.000000   0.000000  -0.059772
     2  S   -0.000046  -0.000002   0.000000   0.000000   0.000004   0.455932
     3  N    0.000500   0.000013   0.000001  -0.000001   0.000020  -0.055092
     4  C    0.000827  -0.000005   0.000008  -0.000003  -0.000834   0.002464
     5  C   -0.000339   0.000378   0.000070  -0.000447  -0.003737  -0.000078
     6  S    0.000172   0.000009  -0.000002  -0.000027  -0.000026   0.000001
     7  C   -0.000002   0.000000   0.000000   0.000000  -0.000020  -0.000070
     8  O    0.000000   0.000000   0.000000   0.000000   0.000000   0.000000
     9  O    0.000000   0.000000   0.000000  -0.000003   0.000038   0.000000
    10  C   -0.001419  -0.000182   0.000013   0.000070  -0.003027  -0.000118
    11  C   -0.048221   0.007109   0.000371   0.005811  -0.063599   0.000036
    12  C    0.549808  -0.023267  -0.035113  -0.018959   0.529409  -0.000001
    13  C    4.979430   0.514406  -0.035665  -0.045562  -0.046183  -0.000002
    14  C    0.514406   4.879088   0.550248  -0.026661  -0.046197   0.000000
    15  C   -0.035665   0.550248   4.858126   0.546714  -0.035881   0.000000
    16  C   -0.045562  -0.026661   0.546714   4.860491   0.526747   0.000000
    17  C   -0.046183  -0.046197  -0.035881   0.526747   4.987391   0.000000
    18  O   -0.000002   0.000000   0.000000   0.000000   0.000000   8.217229
    19  O   -0.000011   0.000000   0.000000   0.000000   0.000000  -0.044850
    20  H    0.000000   0.000000   0.000000   0.000000   0.000000  -0.000076
    21  H    0.000000   0.000000   0.000000   0.000000   0.000000  -0.000618
    22  H    0.000000   0.000000   0.000000   0.000000   0.000000   0.002073
    23  H    0.000027  -0.000002   0.000000   0.000000   0.000000   0.001500
    24  H   -0.000275  -0.000423   0.000140   0.001470   0.007323   0.000000
    25  H    0.000143  -0.000049  -0.000010   0.000002   0.000076  -0.000010
    26  H    0.000000   0.000000   0.000000   0.000000   0.000001   0.000000
    27  H    0.000000   0.000000   0.000000   0.000000   0.000000  -0.000015
    28  H    0.000143   0.000006   0.000000  -0.000121   0.003657   0.000000
    29  H   -0.000084   0.000002   0.000000   0.000003   0.000043   0.000025
    30  H    0.002319  -0.000235   0.000026   0.000031  -0.005297   0.000000
    31  H   -0.004521   0.000254  -0.000002  -0.000165   0.004537  -0.000434
    32  H    0.355517  -0.045935   0.004715   0.000311   0.006391   0.000016
    33  H   -0.039334   0.357309  -0.043221   0.004590   0.000789   0.000000
    34  H    0.004640  -0.043132   0.359925  -0.042556   0.004726   0.000000
    35  H    0.000784   0.004629  -0.042872   0.358568  -0.039797   0.000000
    36  H    0.006021   0.000340   0.004798  -0.043393   0.357293   0.000000
              19         20         21         22         23         24
     1  C   -0.058311   0.338113   0.357617   0.332781  -0.000131   0.000001
     2  S    0.407485  -0.006863  -0.011948  -0.005613  -0.003106   0.000027
     3  N   -0.049213   0.000248   0.002097  -0.000804   0.287342   0.001138
     4  C   -0.000853   0.000385  -0.000007  -0.000572  -0.028183  -0.022503
     5  C    0.000021  -0.000008   0.000002   0.000051  -0.007023   0.341824
     6  S   -0.000010   0.000002   0.000000   0.000011   0.000624  -0.010627
     7  C   -0.000700  -0.000399   0.000012   0.001561  -0.000228   0.008407
     8  O    0.000000   0.000000   0.000000   0.000000  -0.000065   0.000553
     9  O    0.000000   0.000000   0.000000   0.000000   0.000000   0.000217
    10  C   -0.004262  -0.000004   0.000008   0.000044   0.005132  -0.005578
    11  C   -0.002577   0.000001   0.000000  -0.000002  -0.000114  -0.001945
    12  C    0.000192   0.000000   0.000000   0.000000  -0.000004   0.008551
    13  C   -0.000011   0.000000   0.000000   0.000000   0.000027  -0.000275
    14  C    0.000000   0.000000   0.000000   0.000000  -0.000002  -0.000423
    15  C    0.000000   0.000000   0.000000   0.000000   0.000000   0.000140
    16  C    0.000000   0.000000   0.000000   0.000000   0.000000   0.001470
    17  C    0.000000   0.000000   0.000000   0.000000   0.000000   0.007323
    18  O   -0.044850  -0.000076  -0.000618   0.002073   0.001500   0.000000
    19  O    8.269362   0.001940  -0.000348   0.000568   0.001708   0.000001
    20  H    0.001940   0.508563  -0.018839  -0.026177   0.000072   0.000000
    21  H   -0.000348  -0.018839   0.457951  -0.020459  -0.000007   0.000000
    22  H    0.000568  -0.026177  -0.020459   0.513393   0.000029   0.000000
    23  H    0.001708   0.000072  -0.000007   0.000029   0.383984  -0.000105
    24  H    0.000001   0.000000   0.000000   0.000000  -0.000105   0.437061
    25  H    0.000001  -0.000002   0.000000  -0.000003   0.006957  -0.015927
    26  H   -0.000048   0.000001   0.000010   0.000470  -0.000168  -0.000227
    27  H    0.000015   0.000982   0.000113   0.000796   0.001480  -0.000227
    28  H    0.000272   0.000000   0.000000   0.000003  -0.000105  -0.000070
    29  H    0.008582   0.000002   0.000004   0.000145  -0.000159   0.000226
    30  H    0.000048   0.000000   0.000000   0.000000   0.000006   0.000008
    31  H    0.006496  -0.000001   0.000000   0.000003  -0.000016   0.000125
    32  H   -0.000013   0.000000   0.000000   0.000000  -0.000014   0.000022
    33  H    0.000000   0.000000   0.000000   0.000000   0.000000   0.000007
    34  H    0.000000   0.000000   0.000000   0.000000   0.000000   0.000000
    35  H    0.000000   0.000000   0.000000   0.000000   0.000000   0.000015
    36  H    0.000000   0.000000   0.000000   0.000000   0.000000   0.000067
              25         26         27         28         29         30
     1  C   -0.000001  -0.000455  -0.000180  -0.000002  -0.000319   0.000001
     2  S   -0.000042   0.000494  -0.001286   0.000208   0.003882  -0.000129
     3  N   -0.005479   0.002032  -0.002654   0.004380  -0.003645   0.000204
     4  C   -0.028481  -0.024695  -0.026024  -0.034777  -0.030501   0.005065
     5  C    0.327156   0.009713   0.004682  -0.006929   0.005281  -0.000033
     6  S   -0.003935  -0.010082   0.000178   0.007973  -0.000434   0.000025
     7  C    0.004777   0.342440   0.324782  -0.003230  -0.006009  -0.000130
     8  O    0.000535   0.000699   0.000132   0.000021   0.000001   0.000000
     9  O    0.001233  -0.000323   0.001206   0.005978   0.000063  -0.000001
    10  C    0.003585  -0.003045   0.003689   0.360541   0.355646  -0.035330
    11  C   -0.000004   0.000136  -0.000102  -0.033549  -0.026233   0.361314
    12  C   -0.000048   0.000011   0.000001  -0.005773   0.003776  -0.032566
    13  C    0.000143   0.000000   0.000000   0.000143  -0.000084   0.002319
    14  C   -0.000049   0.000000   0.000000   0.000006   0.000002  -0.000235
    15  C   -0.000010   0.000000   0.000000   0.000000   0.000000   0.000026
    16  C    0.000002   0.000000   0.000000  -0.000121   0.000003   0.000031
    17  C    0.000076   0.000001   0.000000   0.003657   0.000043  -0.005297
    18  O   -0.000010   0.000000  -0.000015   0.000000   0.000025   0.000000
    19  O    0.000001  -0.000048   0.000015   0.000272   0.008582   0.000048
    20  H   -0.000002   0.000001   0.000982   0.000000   0.000002   0.000000
    21  H    0.000000   0.000010   0.000113   0.000000   0.000004   0.000000
    22  H   -0.000003   0.000470   0.000796   0.000003   0.000145   0.000000
    23  H    0.006957  -0.000168   0.001480  -0.000105  -0.000159   0.000006
    24  H   -0.015927  -0.000227  -0.000227  -0.000070   0.000226   0.000008
    25  H    0.513024  -0.000278  -0.000019   0.000164  -0.000115   0.000004
    26  H   -0.000278   0.484302  -0.021924  -0.000341   0.003618  -0.000016
    27  H   -0.000019  -0.021924   0.518033   0.000163   0.000026   0.000002
    28  H    0.000164  -0.000341   0.000163   0.553647  -0.029661  -0.001974
    29  H   -0.000115   0.003618   0.000026  -0.029661   0.544364  -0.004591
    30  H    0.000004  -0.000016   0.000002  -0.001974  -0.004591   0.579250
    31  H    0.000001   0.000001   0.000004   0.004599  -0.003255  -0.029186
    32  H    0.000042   0.000000   0.000000   0.000012  -0.000017   0.000089
    33  H    0.000001   0.000000   0.000000   0.000000   0.000000   0.000003
    34  H    0.000000   0.000000   0.000000   0.000000   0.000000   0.000000
    35  H    0.000000   0.000000   0.000000   0.000004   0.000000  -0.000003
    36  H    0.000000   0.000000   0.000000   0.002249  -0.000119   0.002760
              31         32         33         34         35         36
     1  C    0.000024   0.000001   0.000000   0.000000   0.000000   0.000000
     2  S    0.001046   0.000165   0.000000   0.000000   0.000000   0.000000
     3  N    0.005331   0.001398  -0.000001   0.000000   0.000000   0.000001
     4  C   -0.010857  -0.000128   0.000001   0.000000   0.000000   0.000123
     5  C   -0.000314   0.000016  -0.000005   0.000000  -0.000005  -0.000041
     6  S   -0.000023   0.000004   0.000000   0.000000   0.000000   0.000013
     7  C    0.000143   0.000005   0.000000   0.000000   0.000000  -0.000001
     8  O    0.000000   0.000000   0.000000   0.000000   0.000000   0.000000
     9  O    0.000000   0.000000   0.000000   0.000000   0.000000   0.000003
    10  C   -0.031574   0.000134   0.000002   0.000000   0.000001   0.000772
    11  C    0.365749  -0.010188  -0.000178   0.000007  -0.000174  -0.008122
    12  C   -0.034255  -0.041866   0.003831   0.000675   0.003669  -0.048418
    13  C   -0.004521   0.355517  -0.039334   0.004640   0.000784   0.006021
    14  C    0.000254  -0.045935   0.357309  -0.043132   0.004629   0.000340
    15  C   -0.000002   0.004715  -0.043221   0.359925  -0.042872   0.004798
    16  C   -0.000165   0.000311   0.004590  -0.042556   0.358568  -0.043393
    17  C    0.004537   0.006391   0.000789   0.004726  -0.039797   0.357293
    18  O   -0.000434   0.000016   0.000000   0.000000   0.000000   0.000000
    19  O    0.006496  -0.000013   0.000000   0.000000   0.000000   0.000000
    20  H   -0.000001   0.000000   0.000000   0.000000   0.000000   0.000000
    21  H    0.000000   0.000000   0.000000   0.000000   0.000000   0.000000
    22  H    0.000003   0.000000   0.000000   0.000000   0.000000   0.000000
    23  H   -0.000016  -0.000014   0.000000   0.000000   0.000000   0.000000
    24  H    0.000125   0.000022   0.000007   0.000000   0.000015   0.000067
    25  H    0.000001   0.000042   0.000001   0.000000   0.000000   0.000000
    26  H    0.000001   0.000000   0.000000   0.000000   0.000000   0.000000
    27  H    0.000004   0.000000   0.000000   0.000000   0.000000   0.000000
    28  H    0.004599   0.000012   0.000000   0.000000   0.000004   0.002249
    29  H   -0.003255  -0.000017   0.000000   0.000000   0.000000  -0.000119
    30  H   -0.029186   0.000089   0.000003   0.000000  -0.000003   0.002760
    31  H    0.533871   0.006423  -0.000008   0.000000   0.000003   0.000037
    32  H    0.006423   0.590044  -0.005408  -0.000172   0.000017  -0.000174
    33  H   -0.000008  -0.005408   0.594332  -0.005545  -0.000185   0.000018
    34  H    0.000000  -0.000172  -0.005545   0.594063  -0.005462  -0.000178
    35  H    0.000003   0.000017  -0.000185  -0.005462   0.590363  -0.005570
    36  H    0.000037  -0.000174   0.000018  -0.000178  -0.005570   0.599225
 Mulliken charges:
               1
     1  C   -0.631530
     2  S    1.177283
     3  N   -0.694670
     4  C    0.180928
     5  C   -0.506570
     6  S    1.109794
     7  C   -0.506439
     8  O   -0.508094
     9  O   -0.522515
    10  C   -0.292880
    11  C   -0.351925
    12  C    0.145000
    13  C   -0.193071
    14  C   -0.127701
    15  C   -0.132388
    16  C   -0.126913
    17  C   -0.183847
    18  O   -0.518140
    19  O   -0.535494
    20  H    0.202063
    21  H    0.234411
    22  H    0.201701
    23  H    0.350569
    24  H    0.250726
    25  H    0.196704
    26  H    0.217672
    27  H    0.196146
    28  H    0.172510
    29  H    0.179453
    30  H    0.158337
    31  H    0.185964
    32  H    0.138593
    33  H    0.133003
    34  H    0.133010
    35  H    0.136016
    36  H    0.132296
 Sum of Mulliken charges =   0.00000
 Mulliken charges with hydrogens summed into heavy atoms:
               1
     1  C    0.006645
     2  S    1.177283
     3  N   -0.344101
     4  C    0.180928
     5  C   -0.059141
     6  S    1.109794
     7  C   -0.092621
     8  O   -0.508094
     9  O   -0.522515
    10  C    0.059083
    11  C   -0.007624
    12  C    0.145000
    13  C   -0.054478
    14  C    0.005301
    15  C    0.000622
    16  C    0.009103
    17  C   -0.051551
    18  O   -0.518140
    19  O   -0.535494
 Electronic spatial extent (au):  <R**2>=           6266.6520
 Charge=              0.0000 electrons
 Dipole moment (field-independent basis, Debye):
    X=              1.7857    Y=             -0.1963    Z=             -0.3016  Tot=              1.8216
 Quadrupole moment (field-independent basis, Debye-Ang):
   XX=           -109.0941   YY=           -160.9458   ZZ=           -124.6551
   XY=             13.6169   XZ=              3.6323   YZ=              3.0748
 Traceless Quadrupole moment (field-independent basis, Debye-Ang):
   XX=             22.4709   YY=            -29.3808   ZZ=              6.9099
   XY=             13.6169   XZ=              3.6323   YZ=              3.0748
 Octapole moment (field-independent basis, Debye-Ang**2):
  XXX=             62.8237  YYY=            -54.7125  ZZZ=             -4.5145  XYY=             -3.1363
  XXY=             39.4405  XXZ=             -4.8679  XZZ=             -4.0199  YZZ=              0.6314
  YYZ=             12.5435  XYZ=             -3.6758
 Hexadecapole moment (field-independent basis, Debye-Ang**3):
 XXXX=          -4186.6133 YYYY=          -3062.0422 ZZZZ=           -732.0612 XXXY=            -48.5155
 XXXZ=             61.1088 YYYX=             21.8768 YYYZ=             48.9039 ZZZX=             -7.3534
 ZZZY=             12.4503 XXYY=          -1347.0865 XXZZ=           -907.1496 YYZZ=           -621.2737
 XXYZ=             12.8461 YYXZ=             69.3657 ZZXY=             28.7364
 N-N= 1.873128538859D+03 E-N=-7.552028417277D+03  KE= 1.608777241266D+03
 No NMR shielding tensors so no spin-rotation constants.
 Leave Link  601 at Fri Aug  7 23:29:34 2020, MaxMem=    33554432 cpu:         0.3
 (Enter /prod/apps/gaussian/g09d1/l9999.exe)
 1\1\GINC-PIRINEUS21\SP\RB3LYP\6-31G(d)\C12H17N1O4S2\UBAFAR01\07-Aug-20
 20\0\\#p b3lyp/6-31G(d)\\SM38.n.14.pdb.xyz\\0,1\C,0,5.887,-0.867,-2.74
 5\S,0,4.509,-0.063,-1.916\N,0,3.738,-1.186,-0.934\C,0,2.918,-2.316,-1.
 403\C,0,2.524,-3.187,-0.157\S,0,2.984,-4.701,-1.056\C,0,3.689,-3.453,-
 2.176\O,0,3.985,-5.536,-0.367\O,0,1.803,-5.366,-1.646\C,0,1.688,-1.861
 ,-2.212\C,0,0.802,-0.774,-1.574\C,0,0.015,-1.175,-0.343\C,0,0.308,-0.6
 1,0.905\C,0,-0.419,-0.963,2.044\C,0,-1.458,-1.89,1.951\C,0,-1.767,-2.4
 56,0.711\C,0,-1.04,-2.098,-0.425\O,0,5.069,0.923,-0.981\O,0,3.556,0.37
 3,-2.946\H,0,6.569,-1.263,-1.993\H,0,6.383,-0.1,-3.341\H,0,5.509,-1.65
 7,-3.39\H,0,4.359,-1.421,-0.157\H,0,1.48,-3.149,0.142\H,0,3.178,-3.058
 ,0.707\H,0,3.427,-3.601,-3.224\H,0,4.771,-3.421,-2.045\H,0,1.094,-2.75
 5,-2.427\H,0,2.044,-1.48,-3.171\H,0,0.101,-0.451,-2.353\H,0,1.424,0.09
 1,-1.337\H,0,1.116,0.111,0.98\H,0,-0.174,-0.513,3.001\H,0,-2.026,-2.16
 7,2.834\H,0,-2.579,-3.17,0.627\H,0,-1.295,-2.537,-1.385\\Version=AM64L
 -G09RevD.01\State=1-A\HF=-1619.3821002\RMSD=3.666e-09\Dipole=0.6520922
 ,0.2150811,-0.2052064\Quadrupole=13.6298592,-24.2513091,10.6214499,-0.
 8272166,-7.5028749,2.4506969\PG=C01 [X(C12H17N1O4S2)]\\@


 THE WORLD OF CHEMICAL REACTIONS IS LIKE A STAGE,
 ON WHICH SCENE AFTER SCENE IS CEASELESSLY PLAYED.
 THE ACTORS ON IT ARE THE ELEMENTS.
   -- CLEMENS WINKLER   BER. 30,13(1897)
 (DISCOVERER OF GERMANIUM, FEB 6, 1886)
 Job cpu time:       0 days  0 hours  5 minutes 52.6 seconds.
 File lengths (MBytes):  RWF=     60 Int=      0 D2E=      0 Chk=      5 Scr=      1
 Normal termination of Gaussian 09 at Fri Aug  7 23:29:34 2020.
 Initial command:
 /prod/apps/gaussian/g09d1/l1.exe "/tmp/ubafar01/1448985/Gau-51458.inp" -scrdir="/tmp/ubafar01/1448985/"
 Entering Link 1 = /prod/apps/gaussian/g09d1/l1.exe PID=     52753.
  
 Copyright (c) 1988,1990,1992,1993,1995,1998,2003,2009,2013,
            Gaussian, Inc.  All Rights Reserved.
  
 This is part of the Gaussian(R) 09 program.  It is based on
 the Gaussian(R) 03 system (copyright 2003, Gaussian, Inc.),
 the Gaussian(R) 98 system (copyright 1998, Gaussian, Inc.),
 the Gaussian(R) 94 system (copyright 1995, Gaussian, Inc.),
 the Gaussian 92(TM) system (copyright 1992, Gaussian, Inc.),
 the Gaussian 90(TM) system (copyright 1990, Gaussian, Inc.),
 the Gaussian 88(TM) system (copyright 1988, Gaussian, Inc.),
 the Gaussian 86(TM) system (copyright 1986, Carnegie Mellon
 University), and the Gaussian 82(TM) system (copyright 1983,
 Carnegie Mellon University). Gaussian is a federally registered
 trademark of Gaussian, Inc.
  
 This software contains proprietary and confidential information,
 including trade secrets, belonging to Gaussian, Inc.
  
 This software is provided under written license and may be
 used, copied, transmitted, or stored only in accord with that
 written license.
  
 The following legend is applicable only to US Government
 contracts under FAR:
  
                    RESTRICTED RIGHTS LEGEND
  
 Use, reproduction and disclosure by the US Government is
 subject to restrictions as set forth in subparagraphs (a)
 and (c) of the Commercial Computer Software - Restricted
 Rights clause in FAR 52.227-19.
  
 Gaussian, Inc.
 340 Quinnipiac St., Bldg. 40, Wallingford CT 06492
  
  
 ---------------------------------------------------------------
 Warning -- This program may not be used in any manner that
 competes with the business of Gaussian, Inc. or will provide
 assistance to any competitor of Gaussian, Inc.  The licensee
 of this program is prohibited from giving any competitor of
 Gaussian, Inc. access to this program.  By using this program,
 the user acknowledges that Gaussian, Inc. is engaged in the
 business of creating and licensing software in the field of
 computational chemistry and represents and warrants to the
 licensee that it is not a competitor of Gaussian, Inc. and that
 it will not use this program in any manner prohibited above.
 ---------------------------------------------------------------
  

 Cite this work as:
 Gaussian 09, Revision D.01,
 M. J. Frisch, G. W. Trucks, H. B. Schlegel, G. E. Scuseria, 
 M. A. Robb, J. R. Cheeseman, G. Scalmani, V. Barone, B. Mennucci, 
 G. A. Petersson, H. Nakatsuji, M. Caricato, X. Li, H. P. Hratchian, 
 A. F. Izmaylov, J. Bloino, G. Zheng, J. L. Sonnenberg, M. Hada, 
 M. Ehara, K. Toyota, R. Fukuda, J. Hasegawa, M. Ishida, T. Nakajima, 
 Y. Honda, O. Kitao, H. Nakai, T. Vreven, J. A. Montgomery, Jr., 
 J. E. Peralta, F. Ogliaro, M. Bearpark, J. J. Heyd, E. Brothers, 
 K. N. Kudin, V. N. Staroverov, T. Keith, R. Kobayashi, J. Normand, 
 K. Raghavachari, A. Rendell, J. C. Burant, S. S. Iyengar, J. Tomasi, 
 M. Cossi, N. Rega, J. M. Millam, M. Klene, J. E. Knox, J. B. Cross, 
 V. Bakken, C. Adamo, J. Jaramillo, R. Gomperts, R. E. Stratmann, 
 O. Yazyev, A. J. Austin, R. Cammi, C. Pomelli, J. W. Ochterski, 
 R. L. Martin, K. Morokuma, V. G. Zakrzewski, G. A. Voth, 
 P. Salvador, J. J. Dannenberg, S. Dapprich, A. D. Daniels, 
 O. Farkas, J. B. Foresman, J. V. Ortiz, J. Cioslowski, 
 and D. J. Fox, Gaussian, Inc., Wallingford CT, 2013.
 
 ******************************************
 Gaussian 09:  AM64L-G09RevD.01 24-Apr-2013
                 7-Aug-2020 
 ******************************************
 %nproc=1
 Will use up to    1 processors via shared memory.
 %Chk=SM38.n.14.pdb.xyz.mst.n.w.chk
 %subst l502 /dades/curu/work_g09D01_MST_AddSphPartition_ReadGammas/exe-dir/
 ----------------------------------------------------------------------
 #p b3lyp/6-31G(d) scrf=(iefpcm,read,solvent=Water) geom=allcheck guess
 =read
 ----------------------------------------------------------------------
 1/29=7,38=1,40=2/1;
 2/12=2,40=1/2;
 3/5=1,6=6,7=1,11=2,14=-4,16=1,25=1,30=1,70=2203,72=1,74=-5,116=-2/1,2,3;
 4/5=1/1;
 5/5=2,38=6,53=1/2;
 6/7=2,8=2,9=2,10=2,28=1/1;
 99/5=1,9=1/99;
 Leave Link    1 at Fri Aug  7 23:29:34 2020, MaxMem=           0 cpu:         0.0
 (Enter /prod/apps/gaussian/g09d1/l101.exe)
 Structure from the checkpoint file:  "SM38.n.14.pdb.xyz.mst.n.w.chk"
 -----------------
 SM38.n.14.pdb.xyz
 -----------------
 Charge =  0 Multiplicity = 1
 Z-Matrix found in file.
 C,0,5.887,-0.867,-2.745
 S,0,4.509,-0.063,-1.916
 N,0,3.738,-1.186,-0.934
 C,0,2.918,-2.316,-1.403
 C,0,2.524,-3.187,-0.157
 S,0,2.984,-4.701,-1.056
 C,0,3.689,-3.453,-2.176
 O,0,3.985,-5.536,-0.367
 O,0,1.803,-5.366,-1.646
 C,0,1.688,-1.861,-2.212
 C,0,0.802,-0.774,-1.574
 C,0,0.015,-1.175,-0.343
 C,0,0.308,-0.61,0.905
 C,0,-0.419,-0.963,2.044
 C,0,-1.458,-1.89,1.951
 C,0,-1.767,-2.456,0.711
 C,0,-1.04,-2.098,-0.425
 O,0,5.069,0.923,-0.981
 O,0,3.556,0.373,-2.946
 H,0,6.569,-1.263,-1.993
 H,0,6.383,-0.1,-3.341
 H,0,5.509,-1.657,-3.39
 H,0,4.359,-1.421,-0.157
 H,0,1.48,-3.149,0.142
 H,0,3.178,-3.058,0.707
 H,0,3.427,-3.601,-3.224
 H,0,4.771,-3.421,-2.045
 H,0,1.094,-2.755,-2.427
 H,0,2.044,-1.48,-3.171
 H,0,0.101,-0.451,-2.353
 H,0,1.424,0.091,-1.337
 H,0,1.116,0.111,0.98
 H,0,-0.174,-0.513,3.001
 H,0,-2.026,-2.167,2.834
 H,0,-2.579,-3.17,0.627
 H,0,-1.295,-2.537,-1.385
 Recover connectivity data from disk.
 NAtoms=     36 NQM=       36 NQMF=       0 NMMI=      0 NMMIF=      0
                NMic=       0 NMicF=      0.
                    Isotopes and Nuclear Properties:
 (Nuclear quadrupole moments (NQMom) in fm**2, nuclear magnetic moments (NMagM)
  in nuclear magnetons)

  Atom         1           2           3           4           5           6           7           8           9          10
 IAtWgt=          12          32          14          12          12          32          12          16          16          12
 AtmWgt=  12.0000000  31.9720718  14.0030740  12.0000000  12.0000000  31.9720718  12.0000000  15.9949146  15.9949146  12.0000000
 NucSpn=           0           0           2           0           0           0           0           0           0           0
 AtZEff=  -3.6000000 -13.6000000  -4.5500000  -3.6000000  -3.6000000 -13.6000000  -3.6000000  -5.6000000  -5.6000000  -3.6000000
 NQMom=    0.0000000   0.0000000   2.0440000   0.0000000   0.0000000   0.0000000   0.0000000   0.0000000   0.0000000   0.0000000
 NMagM=    0.0000000   0.0000000   0.4037610   0.0000000   0.0000000   0.0000000   0.0000000   0.0000000   0.0000000   0.0000000
 AtZNuc=   6.0000000  16.0000000   7.0000000   6.0000000   6.0000000  16.0000000   6.0000000   8.0000000   8.0000000   6.0000000

  Atom        11          12          13          14          15          16          17          18          19          20
 IAtWgt=          12          12          12          12          12          12          12          16          16           1
 AtmWgt=  12.0000000  12.0000000  12.0000000  12.0000000  12.0000000  12.0000000  12.0000000  15.9949146  15.9949146   1.0078250
 NucSpn=           0           0           0           0           0           0           0           0           0           1
 AtZEff=  -3.6000000  -3.6000000  -3.6000000  -3.6000000  -3.6000000  -3.6000000  -3.6000000  -5.6000000  -5.6000000  -1.0000000
 NQMom=    0.0000000   0.0000000   0.0000000   0.0000000   0.0000000   0.0000000   0.0000000   0.0000000   0.0000000   0.0000000
 NMagM=    0.0000000   0.0000000   0.0000000   0.0000000   0.0000000   0.0000000   0.0000000   0.0000000   0.0000000   2.7928460
 AtZNuc=   6.0000000   6.0000000   6.0000000   6.0000000   6.0000000   6.0000000   6.0000000   8.0000000   8.0000000   1.0000000

  Atom        21          22          23          24          25          26          27          28          29          30
 IAtWgt=           1           1           1           1           1           1           1           1           1           1
 AtmWgt=   1.0078250   1.0078250   1.0078250   1.0078250   1.0078250   1.0078250   1.0078250   1.0078250   1.0078250   1.0078250
 NucSpn=           1           1           1           1           1           1           1           1           1           1
 AtZEff=  -1.0000000  -1.0000000  -1.0000000  -1.0000000  -1.0000000  -1.0000000  -1.0000000  -1.0000000  -1.0000000  -1.0000000
 NQMom=    0.0000000   0.0000000   0.0000000   0.0000000   0.0000000   0.0000000   0.0000000   0.0000000   0.0000000   0.0000000
 NMagM=    2.7928460   2.7928460   2.7928460   2.7928460   2.7928460   2.7928460   2.7928460   2.7928460   2.7928460   2.7928460
 AtZNuc=   1.0000000   1.0000000   1.0000000   1.0000000   1.0000000   1.0000000   1.0000000   1.0000000   1.0000000   1.0000000

  Atom        31          32          33          34          35          36
 IAtWgt=           1           1           1           1           1           1
 AtmWgt=   1.0078250   1.0078250   1.0078250   1.0078250   1.0078250   1.0078250
 NucSpn=           1           1           1           1           1           1
 AtZEff=  -1.0000000  -1.0000000  -1.0000000  -1.0000000  -1.0000000  -1.0000000
 NQMom=    0.0000000   0.0000000   0.0000000   0.0000000   0.0000000   0.0000000
 NMagM=    2.7928460   2.7928460   2.7928460   2.7928460   2.7928460   2.7928460
 AtZNuc=   1.0000000   1.0000000   1.0000000   1.0000000   1.0000000   1.0000000
 Leave Link  101 at Fri Aug  7 23:29:34 2020, MaxMem=    33554432 cpu:         0.1
 (Enter /prod/apps/gaussian/g09d1/l202.exe)
                          Input orientation:                          
 ---------------------------------------------------------------------
 Center     Atomic      Atomic             Coordinates (Angstroms)
 Number     Number       Type             X           Y           Z
 ---------------------------------------------------------------------
      1          6           0        5.887000   -0.867000   -2.745000
[...]
    25  H   -0.000003   0.000028  -0.004154  -0.025283   0.333542  -0.003437
    26  H   -0.000390   0.000450   0.001861  -0.025970   0.009151  -0.010530
    27  H   -0.000080  -0.001165  -0.002792  -0.024718   0.004239  -0.000807
    28  H   -0.000001   0.000192   0.004377  -0.034997  -0.007140   0.007953
    29  H   -0.000308   0.003741  -0.003396  -0.030555   0.005229  -0.000498
    30  H    0.000001  -0.000125   0.000210   0.004944  -0.000041   0.000025
    31  H    0.000031   0.001741   0.005653  -0.010908  -0.000322  -0.000016
    32  H    0.000001   0.000196   0.001488  -0.000126   0.000005   0.000004
    33  H    0.000000   0.000000  -0.000001   0.000001  -0.000005   0.000000
    34  H    0.000000   0.000000   0.000000   0.000000   0.000000   0.000000
    35  H    0.000000   0.000000   0.000000   0.000000  -0.000005   0.000000
    36  H    0.000000   0.000000   0.000001   0.000109  -0.000041   0.000016
               7          8          9         10         11         12
     1  C    0.002894  -0.000001   0.000000  -0.000659   0.000021   0.000001
     2  S   -0.010677  -0.000006   0.000000  -0.004423   0.000133   0.000290
     3  N   -0.053468  -0.000128  -0.000031  -0.060445  -0.002542  -0.001143
     4  C    0.343887   0.002708   0.000747   0.359800  -0.035454  -0.003248
     5  C   -0.183256  -0.045832  -0.046022  -0.046454  -0.004066  -0.001595
     6  S    0.135782   0.434659   0.414700   0.006618  -0.000194   0.000049
     7  C    5.737222  -0.045620  -0.045539  -0.059563   0.004261  -0.000039
     8  O   -0.045620   8.251567  -0.045582  -0.000061   0.000000   0.000000
     9  O   -0.045539  -0.045582   8.285610  -0.002436   0.000057  -0.000038
    10  C   -0.059563  -0.000061  -0.002436   5.142699   0.337307  -0.034365
    11  C    0.004261   0.000000   0.000057   0.337307   5.162053   0.349486
    12  C   -0.000039   0.000000  -0.000038  -0.034365   0.349486   4.694498
    13  C   -0.000002   0.000000   0.000000  -0.001262  -0.049393   0.547012
    14  C    0.000000   0.000000   0.000000  -0.000183   0.007148  -0.023706
    15  C    0.000000   0.000000   0.000000   0.000012   0.000310  -0.035206
    16  C    0.000000   0.000000  -0.000003   0.000067   0.005910  -0.020436
    17  C   -0.000021   0.000000   0.000036  -0.003059  -0.064713   0.527786
    18  O   -0.000074   0.000000   0.000000  -0.000112   0.000035   0.000000
    19  O   -0.000719   0.000000   0.000000  -0.004428  -0.002410   0.000202
    20  H   -0.000334   0.000000   0.000000  -0.000002   0.000000   0.000000
    21  H    0.000003   0.000000   0.000000   0.000007   0.000000   0.000000
    22  H    0.001423   0.000000   0.000000   0.000029  -0.000002   0.000000
    23  H    0.000055  -0.000059  -0.000001   0.004146  -0.000073  -0.000011
    24  H    0.008413   0.000594   0.000129  -0.005567  -0.001914   0.007814
    25  H    0.003970   0.000317   0.001129   0.003365  -0.000011  -0.000053
    26  H    0.345479   0.000672  -0.000496  -0.002761   0.000132   0.000011
    27  H    0.332929   0.000023   0.001120   0.003406  -0.000092   0.000001
    28  H   -0.003536   0.000018   0.005557   0.361774  -0.033848  -0.005926
    29  H   -0.005876   0.000001   0.000059   0.358181  -0.027501   0.003829
    30  H   -0.000123   0.000000   0.000000  -0.034433   0.362018  -0.031147
    31  H    0.000145   0.000000   0.000000  -0.033048   0.362421  -0.033354
    32  H    0.000005   0.000000   0.000000   0.000120  -0.010331  -0.042532
    33  H    0.000000   0.000000   0.000000   0.000002  -0.000170   0.003768
    34  H    0.000000   0.000000   0.000000   0.000000   0.000006   0.000617
    35  H    0.000000   0.000000   0.000000   0.000001  -0.000168   0.003583
    36  H   -0.000001   0.000000   0.000004   0.000750  -0.007952  -0.046656
              13         14         15         16         17         18
     1  C    0.000000   0.000000   0.000000   0.000000   0.000000  -0.060754
     2  S   -0.000054  -0.000002   0.000000   0.000000   0.000004   0.452695
     3  N    0.000485   0.000013   0.000001  -0.000001   0.000020  -0.055062
     4  C    0.000865  -0.000006   0.000007  -0.000002  -0.000807   0.002388
     5  C   -0.000395   0.000360   0.000066  -0.000454  -0.003619  -0.000075
     6  S    0.000160   0.000009  -0.000002  -0.000024  -0.000010   0.000001
     7  C   -0.000002   0.000000   0.000000   0.000000  -0.000021  -0.000074
     8  O    0.000000   0.000000   0.000000   0.000000   0.000000   0.000000
     9  O    0.000000   0.000000   0.000000  -0.000003   0.000036   0.000000
    10  C   -0.001262  -0.000183   0.000012   0.000067  -0.003059  -0.000112
    11  C   -0.049393   0.007148   0.000310   0.005910  -0.064713   0.000035
    12  C    0.547012  -0.023706  -0.035206  -0.020436   0.527786   0.000000
    13  C    4.991431   0.511557  -0.037556  -0.045526  -0.046182  -0.000002
    14  C    0.511557   4.901391   0.545951  -0.029019  -0.046454   0.000000
    15  C   -0.037556   0.545951   4.885356   0.542364  -0.037591   0.000000
    16  C   -0.045526  -0.029019   0.542364   4.888546   0.521841   0.000000
    17  C   -0.046182  -0.046454  -0.037591   0.521841   5.007521   0.000000
    18  O   -0.000002   0.000000   0.000000   0.000000   0.000000   8.268842
    19  O   -0.000012   0.000000   0.000000   0.000000   0.000000  -0.043207
    20  H    0.000000   0.000000   0.000000   0.000000   0.000000  -0.000137
    21  H    0.000000   0.000000   0.000000   0.000000   0.000000  -0.000434
    22  H    0.000000   0.000000   0.000000   0.000000   0.000000   0.001979
    23  H    0.000020  -0.000002   0.000000   0.000000   0.000000   0.001027
    24  H   -0.000513  -0.000412   0.000172   0.001476   0.006976   0.000000
    25  H    0.000120  -0.000044  -0.000009   0.000003   0.000063  -0.000010
    26  H    0.000000   0.000000   0.000000   0.000000   0.000001   0.000000
    27  H    0.000000   0.000000   0.000000   0.000000   0.000000  -0.000013
    28  H    0.000126   0.000006   0.000000  -0.000117   0.003775   0.000000
    29  H   -0.000083   0.000002   0.000000   0.000003   0.000049   0.000023
    30  H    0.002458  -0.000233   0.000026   0.000033  -0.005534   0.000000
    31  H   -0.005011   0.000242   0.000000  -0.000176   0.004743  -0.000430
    32  H    0.357632  -0.045234   0.004762   0.000239   0.006398   0.000015
    33  H   -0.038382   0.360626  -0.042437   0.004530   0.000709   0.000000
    34  H    0.004554  -0.042129   0.363132  -0.041918   0.004627   0.000000
    35  H    0.000725   0.004556  -0.042054   0.361481  -0.039359   0.000000
    36  H    0.005903   0.000278   0.004709  -0.043224   0.360367   0.000000
              19         20         21         22         23         24
     1  C   -0.058731   0.343478   0.353174   0.338737  -0.000453   0.000001
     2  S    0.409087  -0.008402  -0.010784  -0.006901  -0.003807   0.000018
     3  N   -0.050415   0.000035   0.002104  -0.000926   0.291252   0.001221
     4  C   -0.000481   0.000297   0.000006  -0.000525  -0.022931  -0.024457
     5  C    0.000016  -0.000006   0.000002   0.000034  -0.005992   0.340991
     6  S   -0.000009  -0.000004   0.000000   0.000000   0.000498  -0.010719
     7  C   -0.000719  -0.000334   0.000003   0.001423   0.000055   0.008413
     8  O    0.000000   0.000000   0.000000   0.000000  -0.000059   0.000594
     9  O    0.000000   0.000000   0.000000   0.000000  -0.000001   0.000129
    10  C   -0.004428  -0.000002   0.000007   0.000029   0.004146  -0.005567
    11  C   -0.002410   0.000000   0.000000  -0.000002  -0.000073  -0.001914
    12  C    0.000202   0.000000   0.000000   0.000000  -0.000011   0.007814
    13  C   -0.000012   0.000000   0.000000   0.000000   0.000020  -0.000513
    14  C    0.000000   0.000000   0.000000   0.000000  -0.000002  -0.000412
    15  C    0.000000   0.000000   0.000000   0.000000   0.000000   0.000172
    16  C    0.000000   0.000000   0.000000   0.000000   0.000000   0.001476
    17  C    0.000000   0.000000   0.000000   0.000000   0.000000   0.006976
    18  O   -0.043207  -0.000137  -0.000434   0.001979   0.001027   0.000000
    19  O    8.304896   0.001835  -0.000214   0.000423   0.001344   0.000001
    20  H    0.001835   0.471859  -0.017325  -0.022113   0.000031   0.000000
    21  H   -0.000214  -0.017325   0.449600  -0.018421  -0.000003   0.000000
    22  H    0.000423  -0.022113  -0.018421   0.481026   0.000042   0.000000
    23  H    0.001344   0.000031  -0.000003   0.000042   0.315773  -0.000072
    24  H    0.000001   0.000000   0.000000   0.000000  -0.000072   0.444681
    25  H    0.000001  -0.000001   0.000000  -0.000002   0.005187  -0.014100
    26  H   -0.000050   0.000000   0.000009   0.000279  -0.000133  -0.000243
    27  H    0.000022   0.000752   0.000099   0.000485   0.001104  -0.000206
    28  H    0.000260   0.000000   0.000000   0.000002  -0.000088  -0.000028
    29  H    0.008342   0.000002   0.000004   0.000121  -0.000126   0.000214
    30  H    0.000049   0.000000   0.000000   0.000000   0.000004  -0.000001
    31  H    0.006499  -0.000001   0.000000   0.000002  -0.000011   0.000130
    32  H   -0.000013   0.000000   0.000000   0.000000  -0.000006   0.000028
    33  H    0.000000   0.000000   0.000000   0.000000   0.000000   0.000006
    34  H    0.000000   0.000000   0.000000   0.000000   0.000000   0.000000
    35  H    0.000000   0.000000   0.000000   0.000000   0.000000   0.000014
    36  H    0.000000   0.000000   0.000000   0.000000   0.000000   0.000074
              25         26         27         28         29         30
     1  C   -0.000003  -0.000390  -0.000080  -0.000001  -0.000308   0.000001
     2  S    0.000028   0.000450  -0.001165   0.000192   0.003741  -0.000125
     3  N   -0.004154   0.001861  -0.002792   0.004377  -0.003396   0.000210
     4  C   -0.025283  -0.025970  -0.024718  -0.034997  -0.030555   0.004944
     5  C    0.333542   0.009151   0.004239  -0.007140   0.005229  -0.000041
     6  S   -0.003437  -0.010530  -0.000807   0.007953  -0.000498   0.000025
     7  C    0.003970   0.345479   0.332929  -0.003536  -0.005876  -0.000123
     8  O    0.000317   0.000672   0.000023   0.000018   0.000001   0.000000
     9  O    0.001129  -0.000496   0.001120   0.005557   0.000059   0.000000
    10  C    0.003365  -0.002761   0.003406   0.361774   0.358181  -0.034433
    11  C   -0.000011   0.000132  -0.000092  -0.033848  -0.027501   0.362018
    12  C   -0.000053   0.000011   0.000001  -0.005926   0.003829  -0.031147
    13  C    0.000120   0.000000   0.000000   0.000126  -0.000083   0.002458
    14  C   -0.000044   0.000000   0.000000   0.000006   0.000002  -0.000233
    15  C   -0.000009   0.000000   0.000000   0.000000   0.000000   0.000026
    16  C    0.000003   0.000000   0.000000  -0.000117   0.000003   0.000033
    17  C    0.000063   0.000001   0.000000   0.003775   0.000049  -0.005534
    18  O   -0.000010   0.000000  -0.000013   0.000000   0.000023   0.000000
    19  O    0.000001  -0.000050   0.000022   0.000260   0.008342   0.000049
    20  H   -0.000001   0.000000   0.000752   0.000000   0.000002   0.000000
    21  H    0.000000   0.000009   0.000099   0.000000   0.000004   0.000000
    22  H   -0.000002   0.000279   0.000485   0.000002   0.000121   0.000000
    23  H    0.005187  -0.000133   0.001104  -0.000088  -0.000126   0.000004
    24  H   -0.014100  -0.000243  -0.000206  -0.000028   0.000214  -0.000001
    25  H    0.466229  -0.000230  -0.000039   0.000141  -0.000106   0.000003
    26  H   -0.000230   0.456113  -0.017490  -0.000340   0.003356  -0.000015
    27  H   -0.000039  -0.017490   0.471034   0.000138   0.000025   0.000002
    28  H    0.000141  -0.000340   0.000138   0.556244  -0.028320  -0.002144
    29  H   -0.000106   0.003356   0.000025  -0.028320   0.540176  -0.004550
    30  H    0.000003  -0.000015   0.000002  -0.002144  -0.004550   0.572427
    31  H    0.000002   0.000001   0.000003   0.004763  -0.003140  -0.030722
    32  H    0.000037   0.000000   0.000000   0.000012  -0.000017   0.000101
    33  H    0.000001   0.000000   0.000000   0.000000   0.000000   0.000003
    34  H    0.000000   0.000000   0.000000   0.000000   0.000000   0.000000
    35  H    0.000000   0.000000   0.000000   0.000003   0.000000  -0.000002
    36  H    0.000000   0.000000   0.000000   0.002181  -0.000111   0.002625
              31         32         33         34         35         36
     1  C    0.000031   0.000001   0.000000   0.000000   0.000000   0.000000
     2  S    0.001741   0.000196   0.000000   0.000000   0.000000   0.000000
     3  N    0.005653   0.001488  -0.000001   0.000000   0.000000   0.000001
     4  C   -0.010908  -0.000126   0.000001   0.000000   0.000000   0.000109
     5  C   -0.000322   0.000005  -0.000005   0.000000  -0.000005  -0.000041
     6  S   -0.000016   0.000004   0.000000   0.000000   0.000000   0.000016
     7  C    0.000145   0.000005   0.000000   0.000000   0.000000  -0.000001
     8  O    0.000000   0.000000   0.000000   0.000000   0.000000   0.000000
     9  O    0.000000   0.000000   0.000000   0.000000   0.000000   0.000004
    10  C   -0.033048   0.000120   0.000002   0.000000   0.000001   0.000750
    11  C    0.362421  -0.010331  -0.000170   0.000006  -0.000168  -0.007952
    12  C   -0.033354  -0.042532   0.003768   0.000617   0.003583  -0.046656
    13  C   -0.005011   0.357632  -0.038382   0.004554   0.000725   0.005903
    14  C    0.000242  -0.045234   0.360626  -0.042129   0.004556   0.000278
    15  C    0.000000   0.004762  -0.042437   0.363132  -0.042054   0.004709
    16  C   -0.000176   0.000239   0.004530  -0.041918   0.361481  -0.043224
    17  C    0.004743   0.006398   0.000709   0.004627  -0.039359   0.360367
    18  O   -0.000430   0.000015   0.000000   0.000000   0.000000   0.000000
    19  O    0.006499  -0.000013   0.000000   0.000000   0.000000   0.000000
    20  H   -0.000001   0.000000   0.000000   0.000000   0.000000   0.000000
    21  H    0.000000   0.000000   0.000000   0.000000   0.000000   0.000000
    22  H    0.000002   0.000000   0.000000   0.000000   0.000000   0.000000
    23  H   -0.000011  -0.000006   0.000000   0.000000   0.000000   0.000000
    24  H    0.000130   0.000028   0.000006   0.000000   0.000014   0.000074
    25  H    0.000002   0.000037   0.000001   0.000000   0.000000   0.000000
    26  H    0.000001   0.000000   0.000000   0.000000   0.000000   0.000000
    27  H    0.000003   0.000000   0.000000   0.000000   0.000000   0.000000
    28  H    0.004763   0.000012   0.000000   0.000000   0.000003   0.002181
    29  H   -0.003140  -0.000017   0.000000   0.000000   0.000000  -0.000111
    30  H   -0.030722   0.000101   0.000003   0.000000  -0.000002   0.002625
    31  H    0.550905   0.006484  -0.000008   0.000000   0.000003   0.000043
    32  H    0.006484   0.580731  -0.005265  -0.000164   0.000016  -0.000164
    33  H   -0.000008  -0.005265   0.572498  -0.005250  -0.000174   0.000017
    34  H    0.000000  -0.000164  -0.005250   0.572848  -0.005193  -0.000167
    35  H    0.000003   0.000016  -0.000174  -0.005193   0.571569  -0.005261
    36  H    0.000043  -0.000164   0.000017  -0.000167  -0.005261   0.579306
 Mulliken charges:
               1
     1  C   -0.636110
     2  S    1.177370
     3  N   -0.716258
     4  C    0.179460
     5  C   -0.505500
     6  S    1.112596
     7  C   -0.507620
     8  O   -0.553270
     9  O   -0.568997
    10  C   -0.285023
    11  C   -0.350467
    12  C    0.140511
    13  C   -0.198673
    14  C   -0.144715
    15  C   -0.152012
    16  C   -0.145594
    17  C   -0.197565
    18  O   -0.566696
    19  O   -0.572289
    20  H    0.230036
    21  H    0.242169
    22  H    0.224308
    23  H    0.413286
    24  H    0.245281
    25  H    0.233344
    26  H    0.241135
    27  H    0.232022
    28  H    0.168961
    29  H    0.181230
    30  H    0.164140
    31  H    0.173334
    32  H    0.145579
    33  H    0.149532
    34  H    0.149037
    35  H    0.150264
    36  H    0.147195
 Sum of Mulliken charges =   0.00000
 Mulliken charges with hydrogens summed into heavy atoms:
               1
     1  C    0.060403
     2  S    1.177370
     3  N   -0.302972
     4  C    0.179460
     5  C   -0.026874
     6  S    1.112596
     7  C   -0.034463
     8  O   -0.553270
     9  O   -0.568997
    10  C    0.065167
    11  C   -0.012993
    12  C    0.140511
    13  C   -0.053094
    14  C    0.004817
    15  C   -0.002975
    16  C    0.004671
    17  C   -0.050370
    18  O   -0.566696
    19  O   -0.572289
 Electronic spatial extent (au):  <R**2>=           6269.4520
 Charge=              0.0000 electrons
 Dipole moment (field-independent basis, Debye):
    X=              2.8074    Y=              0.1675    Z=             -0.7863  Tot=              2.9203
 Quadrupole moment (field-independent basis, Debye-Ang):
   XX=           -106.3436   YY=           -168.3237   ZZ=           -123.7938
   XY=             17.3856   XZ=              3.8855   YZ=              3.5529
 Traceless Quadrupole moment (field-independent basis, Debye-Ang):
   XX=             26.4768   YY=            -35.5033   ZZ=              9.0266
   XY=             17.3856   XZ=              3.8855   YZ=              3.5529
 Octapole moment (field-independent basis, Debye-Ang**2):
  XXX=             76.7500  YYY=            -66.2450  ZZZ=             -6.4327  XYY=             -5.6288
  XXY=             50.4550  XXZ=             -6.8138  XZZ=             -4.8309  YZZ=              0.5865
  YYZ=             14.3729  XYZ=             -3.8201
 Hexadecapole moment (field-independent basis, Debye-Ang**3):
 XXXX=          -4091.9306 YYYY=          -3174.5757 ZZZZ=           -724.1175 XXXY=            -21.4979
 XXXZ=             67.0236 YYYX=             50.8099 YYYZ=             56.9268 ZZZX=             -6.3295
 ZZZY=             15.4215 XXYY=          -1368.8868 XXZZ=           -899.3079 YYZZ=           -633.3522
 XXYZ=             14.1331 YYXZ=             79.0508 ZZXY=             37.5967
 N-N= 1.873131673583D+03 E-N=-7.552032588066D+03  KE= 1.608782217430D+03
 No NMR shielding tensors so no spin-rotation constants.
 Leave Link  601 at Fri Aug  7 23:33:57 2020, MaxMem=    33554432 cpu:         0.3
 (Enter /prod/apps/gaussian/g09d1/l9999.exe)
 1\1\GINC-PIRINEUS21\SP\RB3LYP\6-31G(d)\C12H17N1O4S2\UBAFAR01\07-Aug-20
 20\0\\#p b3lyp/6-31G(d) scrf=(iefpcm,read,solvent=Water) geom=allcheck
  guess=read\\SM38.n.14.pdb.xyz\\0,1\C,0,5.887,-0.867,-2.745\S,0,4.509,
 -0.063,-1.916\N,0,3.738,-1.186,-0.934\C,0,2.918,-2.316,-1.403\C,0,2.52
 4,-3.187,-0.157\S,0,2.984,-4.701,-1.056\C,0,3.689,-3.453,-2.176\O,0,3.
 985,-5.536,-0.367\O,0,1.803,-5.366,-1.646\C,0,1.688,-1.861,-2.212\C,0,
 0.802,-0.774,-1.574\C,0,0.015,-1.175,-0.343\C,0,0.308,-0.61,0.905\C,0,
 -0.419,-0.963,2.044\C,0,-1.458,-1.89,1.951\C,0,-1.767,-2.456,0.711\C,0
 ,-1.04,-2.098,-0.425\O,0,5.069,0.923,-0.981\O,0,3.556,0.373,-2.946\H,0
 ,6.569,-1.263,-1.993\H,0,6.383,-0.1,-3.341\H,0,5.509,-1.657,-3.39\H,0,
 4.359,-1.421,-0.157\H,0,1.48,-3.149,0.142\H,0,3.178,-3.058,0.707\H,0,3
 .427,-3.601,-3.224\H,0,4.771,-3.421,-2.045\H,0,1.094,-2.755,-2.427\H,0
 ,2.044,-1.48,-3.171\H,0,0.101,-0.451,-2.353\H,0,1.424,0.091,-1.337\H,0
 ,1.116,0.111,0.98\H,0,-0.174,-0.513,3.001\H,0,-2.026,-2.167,2.834\H,0,
 -2.579,-3.17,0.627\H,0,-1.295,-2.537,-1.385\\Version=AM64L-G09RevD.01\
 State=1-A\HF=-1619.4127827\RMSD=7.776e-09\Dipole=1.1149246,0.154914,-0
 .230164\Quadrupole=16.7288562,-29.593443,12.8645868,-1.6710209,-8.5462
 691,3.2620946\PG=C01 [X(C12H17N1O4S2)]\\@


 "ANNA, YOU MUSN'T SPEAK OF OXIDIZED MURIATIC ACID
 ANYMORE, FROM NOW ON YOU MUST SAY CHLORINE."
   -- JENS JACOB BERZELIUS, IN 1820, TO HIS COOK, WHO HAD
 COMPLAINED OF THE SMELL OF THE FLASK SHE WAS CLEANING.
 Job cpu time:       0 days  0 hours  4 minutes 23.7 seconds.
 File lengths (MBytes):  RWF=    179 Int=      0 D2E=      0 Chk=      6 Scr=      1
 Normal termination of Gaussian 09 at Fri Aug  7 23:33:57 2020.
