 Entering Gaussian System, Link 0=g09
 Initial command:
 /prod/apps/gaussian/g09d1/l1.exe "/tmp/ubafar01/1449019/Gau-151520.inp" -scrdir="/tmp/ubafar01/1449019/"
 Entering Link 1 = /prod/apps/gaussian/g09d1/l1.exe PID=    151521.
  
 Copyright (c) 1988,1990,1992,1993,1995,1998,2003,2009,2013,
            Gaussian, Inc.  All Rights Reserved.
  
 This is part of the Gaussian(R) 09 program.  It is based on
 the Gaussian(R) 03 system (copyright 2003, Gaussian, Inc.),
 the Gaussian(R) 98 system (copyright 1998, Gaussian, Inc.),
 the Gaussian(R) 94 system (copyright 1995, Gaussian, Inc.),
 the Gaussian 92(TM) system (copyright 1992, Gaussian, Inc.),
 the Gaussian 90(TM) system (copyright 1990, Gaussian, Inc.),
 the Gaussian 88(TM) system (copyright 1988, Gaussian, Inc.),
 the Gaussian 86(TM) system (copyright 1986, Carnegie Mellon
 University), and the Gaussian 82(TM) system (copyright 1983,
 Carnegie Mellon University). Gaussian is a federally registered
 trademark of Gaussian, Inc.
  
 This software contains proprietary and confidential information,
 including trade secrets, belonging to Gaussian, Inc.
  
 This software is provided under written license and may be
 used, copied, transmitted, or stored only in accord with that
 written license.
  
 The following legend is applicable only to US Government
 contracts under FAR:
  
                    RESTRICTED RIGHTS LEGEND
  
 Use, reproduction and disclosure by the US Government is
 subject to restrictions as set forth in subparagraphs (a)
 and (c) of the Commercial Computer Software - Restricted
 Rights clause in FAR 52.227-19.
  
 Gaussian, Inc.
 340 Quinnipiac St., Bldg. 40, Wallingford CT 06492
  
  
 ---------------------------------------------------------------
 Warning -- This program may not be used in any manner that
 competes with the business of Gaussian, Inc. or will provide
 assistance to any competitor of Gaussian, Inc.  The licensee
 of this program is prohibited from giving any competitor of
 Gaussian, Inc. access to this program.  By using this program,
 the user acknowledges that Gaussian, Inc. is engaged in the
 business of creating and licensing software in the field of
 computational chemistry and represents and warrants to the
 licensee that it is not a competitor of Gaussian, Inc. and that
 it will not use this program in any manner prohibited above.
 ---------------------------------------------------------------
  

 Cite this work as:
 Gaussian 09, Revision D.01,
 M. J. Frisch, G. W. Trucks, H. B. Schlegel, G. E. Scuseria, 
 M. A. Robb, J. R. Cheeseman, G. Scalmani, V. Barone, B. Mennucci, 
 G. A. Petersson, H. Nakatsuji, M. Caricato, X. Li, H. P. Hratchian, 
 A. F. Izmaylov, J. Bloino, G. Zheng, J. L. Sonnenberg, M. Hada, 
 M. Ehara, K. Toyota, R. Fukuda, J. Hasegawa, M. Ishida, T. Nakajima, 
 Y. Honda, O. Kitao, H. Nakai, T. Vreven, J. A. Montgomery, Jr., 
 J. E. Peralta, F. Ogliaro, M. Bearpark, J. J. Heyd, E. Brothers, 
 K. N. Kudin, V. N. Staroverov, T. Keith, R. Kobayashi, J. Normand, 
 K. Raghavachari, A. Rendell, J. C. Burant, S. S. Iyengar, J. Tomasi, 
 M. Cossi, N. Rega, J. M. Millam, M. Klene, J. E. Knox, J. B. Cross, 
 V. Bakken, C. Adamo, J. Jaramillo, R. Gomperts, R. E. Stratmann, 
 O. Yazyev, A. J. Austin, R. Cammi, C. Pomelli, J. W. Ochterski, 
 R. L. Martin, K. Morokuma, V. G. Zakrzewski, G. A. Voth, 
 P. Salvador, J. J. Dannenberg, S. Dapprich, A. D. Daniels, 
 O. Farkas, J. B. Foresman, J. V. Ortiz, J. Cioslowski, 
 and D. J. Fox, Gaussian, Inc., Wallingford CT, 2013.
 
 ******************************************
 Gaussian 09:  AM64L-G09RevD.01 24-Apr-2013
                 8-Aug-2020 
 ******************************************
 %nproc=1
 Will use up to    1 processors via shared memory.
 %Chk=SM38.n.5.pdb.xyz.mst.n.o.chk
 -----------------
 #p b3lyp/6-31G(d)
 -----------------
 1/38=1/1;
 2/12=2,17=6,18=5,40=1/2;
 3/5=1,6=6,7=1,11=2,16=1,25=1,30=1,74=-5/1,2,3;
 4//1;
 5/5=2,38=5/2;
 6/7=2,8=2,9=2,10=2,28=1/1;
 99/5=1,9=1/99;
 Leave Link    1 at Sat Aug  8 00:11:23 2020, MaxMem=           0 cpu:         0.0
 (Enter /prod/apps/gaussian/g09d1/l101.exe)
 ----------------
 SM38.n.5.pdb.xyz
 ----------------
 Symbolic Z-matrix:
 Charge =  0 Multiplicity = 1
 C                     5.96      0.351    -0.028 
 S                     4.956    -1.02      0.544 
 N                     3.951    -1.226    -0.812 
 C                     3.067    -2.406    -0.94 
 C                     2.23     -2.776     0.337 
 S                     2.884    -4.48      0.29 
 C                     3.877    -3.737    -1.053 
 O                     3.667    -4.856     1.475 
 O                     1.873    -5.427    -0.224 
 C                     2.171    -2.09     -2.152 
 C                     1.232    -3.216    -2.637 
 C                     1.813    -4.124    -3.705 
 C                     1.882    -5.509    -3.51 
 C                     2.382    -6.347    -4.51 
 C                     2.82     -5.811    -5.721 
 C                     2.756    -4.431    -5.926 
 C                     2.256    -3.597    -4.927 
 O                     5.786    -2.226     0.659 
 O                     4.193    -0.577     1.723 
 H                     6.489     0.048    -0.93 
 H                     6.66      0.571     0.778 
 H                     5.323     1.214    -0.213 
 H                     3.409    -0.367    -0.926 
 H                     1.149    -2.748     0.21 
 H                     2.535    -2.25      1.242 
 H                     3.789    -4.271    -1.999 
 H                     4.91     -3.628    -0.733 
 H                     2.819    -1.773    -2.974 
 H                     1.565    -1.22     -1.873 
 H                     0.336    -2.733    -3.043 
 H                     0.895    -3.823    -1.791 
 H                     1.559    -5.92     -2.56 
 H                     2.431    -7.417    -4.34 
 H                     3.208    -6.461    -6.499 
 H                     3.091    -4.005    -6.866 
 H                     2.204    -2.525    -5.1 
 
 NAtoms=     36 NQM=       36 NQMF=       0 NMMI=      0 NMMIF=      0
                NMic=       0 NMicF=      0.
                    Isotopes and Nuclear Properties:
 (Nuclear quadrupole moments (NQMom) in fm**2, nuclear magnetic moments (NMagM)
  in nuclear magnetons)

  Atom         1           2           3           4           5           6           7           8           9          10
 IAtWgt=          12          32          14          12          12          32          12          16          16          12
 AtmWgt=  12.0000000  31.9720718  14.0030740  12.0000000  12.0000000  31.9720718  12.0000000  15.9949146  15.9949146  12.0000000
 NucSpn=           0           0           2           0           0           0           0           0           0           0
 AtZEff=   0.0000000   0.0000000   0.0000000   0.0000000   0.0000000   0.0000000   0.0000000   0.0000000   0.0000000   0.0000000
 NQMom=    0.0000000   0.0000000   2.0440000   0.0000000   0.0000000   0.0000000   0.0000000   0.0000000   0.0000000   0.0000000
 NMagM=    0.0000000   0.0000000   0.4037610   0.0000000   0.0000000   0.0000000   0.0000000   0.0000000   0.0000000   0.0000000
 AtZNuc=   6.0000000  16.0000000   7.0000000   6.0000000   6.0000000  16.0000000   6.0000000   8.0000000   8.0000000   6.0000000

  Atom        11          12          13          14          15          16          17          18          19          20
 IAtWgt=          12          12          12          12          12          12          12          16          16           1
 AtmWgt=  12.0000000  12.0000000  12.0000000  12.0000000  12.0000000  12.0000000  12.0000000  15.9949146  15.9949146   1.0078250
 NucSpn=           0           0           0           0           0           0           0           0           0           1
 AtZEff=   0.0000000   0.0000000   0.0000000   0.0000000   0.0000000   0.0000000   0.0000000   0.0000000   0.0000000   0.0000000
 NQMom=    0.0000000   0.0000000   0.0000000   0.0000000   0.0000000   0.0000000   0.0000000   0.0000000   0.0000000   0.0000000
 NMagM=    0.0000000   0.0000000   0.0000000   0.0000000   0.0000000   0.0000000   0.0000000   0.0000000   0.0000000   2.7928460
 AtZNuc=   6.0000000   6.0000000   6.0000000   6.0000000   6.0000000   6.0000000   6.0000000   8.0000000   8.0000000   1.0000000

  Atom        21          22          23          24          25          26          27          28          29          30
 IAtWgt=           1           1           1           1           1           1           1           1           1           1
 AtmWgt=   1.0078250   1.0078250   1.0078250   1.0078250   1.0078250   1.0078250   1.0078250   1.0078250   1.0078250   1.0078250
 NucSpn=           1           1           1           1           1           1           1           1           1           1
 AtZEff=   0.0000000   0.0000000   0.0000000   0.0000000   0.0000000   0.0000000   0.0000000   0.0000000   0.0000000   0.0000000
 NQMom=    0.0000000   0.0000000   0.0000000   0.0000000   0.0000000   0.0000000   0.0000000   0.0000000   0.0000000   0.0000000
 NMagM=    2.7928460   2.7928460   2.7928460   2.7928460   2.7928460   2.7928460   2.7928460   2.7928460   2.7928460   2.7928460
 AtZNuc=   1.0000000   1.0000000   1.0000000   1.0000000   1.0000000   1.0000000   1.0000000   1.0000000   1.0000000   1.0000000

  Atom        31          32          33          34          35          36
 IAtWgt=           1           1           1           1           1           1
 AtmWgt=   1.0078250   1.0078250   1.0078250   1.0078250   1.0078250   1.0078250
 NucSpn=           1           1           1           1           1           1
 AtZEff=   0.0000000   0.0000000   0.0000000   0.0000000   0.0000000   0.0000000
 NQMom=    0.0000000   0.0000000   0.0000000   0.0000000   0.0000000   0.0000000
 NMagM=    2.7928460   2.7928460   2.7928460   2.7928460   2.7928460   2.7928460
 AtZNuc=   1.0000000   1.0000000   1.0000000   1.0000000   1.0000000   1.0000000
 Leave Link  101 at Sat Aug  8 00:11:24 2020, MaxMem=    33554432 cpu:         0.1
 (Enter /prod/apps/gaussian/g09d1/l202.exe)
                          Input orientation:                          
 ---------------------------------------------------------------------
 Center     Atomic      Atomic             Coordinates (Angstroms)
 Number     Number       Type             X           Y           Z
 ---------------------------------------------------------------------
      1          6           0        5.960000    0.351000   -0.028000
      2         16           0        4.956000   -1.020000    0.544000
      3          7           0        3.951000   -1.226000   -0.812000
      4          6           0        3.067000   -2.406000   -0.940000
      5          6           0        2.230000   -2.776000    0.337000
      6         16           0        2.884000   -4.480000    0.290000
      7          6           0        3.877000   -3.737000   -1.053000
      8          8           0        3.667000   -4.856000    1.475000
      9          8           0        1.873000   -5.427000   -0.224000
     10          6           0        2.171000   -2.090000   -2.152000
     11          6           0        1.232000   -3.216000   -2.637000
     12          6           0        1.813000   -4.124000   -3.705000
     13          6           0        1.882000   -5.509000   -3.510000
     14          6           0        2.382000   -6.347000   -4.510000
     15          6           0        2.820000   -5.811000   -5.721000
     16          6           0        2.756000   -4.431000   -5.926000
     17          6           0        2.256000   -3.597000   -4.927000
     18          8           0        5.786000   -2.226000    0.659000
     19          8           0        4.193000   -0.577000    1.723000
     20          1           0        6.489000    0.048000   -0.930000
     21          1           0        6.660000    0.571000    0.778000
     22          1           0        5.323000    1.214000   -0.213000
     23          1           0        3.409000   -0.367000   -0.926000
     24          1           0        1.149000   -2.748000    0.210000
     25          1           0        2.535000   -2.250000    1.242000
     26          1           0        3.789000   -4.271000   -1.999000
     27          1           0        4.910000   -3.628000   -0.733000
     28          1           0        2.819000   -1.773000   -2.974000
     29          1           0        1.565000   -1.220000   -1.873000
     30          1           0        0.336000   -2.733000   -3.043000
     31          1           0        0.895000   -3.823000   -1.791000
     32          1           0        1.559000   -5.920000   -2.560000
     33          1           0        2.431000   -7.417000   -4.340000
     34          1           0        3.208000   -6.461000   -6.499000
     35          1           0        3.091000   -4.005000   -6.866000
     36          1           0        2.204000   -2.525000   -5.100000
 ---------------------------------------------------------------------
                    Distance matrix (angstroms):
                    1          2          3          4          5
     1  C    0.000000
     2  S    1.792998   0.000000
     3  N    2.671641   1.700352   0.000000
     4  C    4.099054   2.773369   1.479946   0.000000
     5  C    4.881010   3.249225   2.585448   1.571050   0.000000
     6  S    5.735980   4.040953   3.597417   2.418236   1.825799
     7  C    4.701198   3.331177   2.523624   1.562188   2.359710
     8  O    5.884701   4.152491   4.299759   3.492095   2.772438
     9  O    7.080061   5.432896   4.723582   3.326369   2.733125
    10  C    4.982608   4.021137   2.389664   1.540005   2.582479
    11  C    6.471812   5.367434   3.831930   2.627382   3.167693
    12  C    7.123452   6.129214   4.619404   3.488447   4.281210
    13  C    7.943174   6.784948   5.468460   4.199730   4.731786
    14  C    8.817801   7.781087   6.508579   5.361493   6.022338
    15  C    8.957683   8.171071   6.811730   5.874776   6.801374
    16  C    8.241331   7.637789   6.152483   5.390505   6.499298
    17  C    7.301131   6.622897   5.042608   4.239383   5.327702
    18  O    2.672672   1.468523   2.555595   3.159456   3.612661
    19  O    2.655085   1.472569   2.627925   3.421211   3.257294
    20  H    1.088694   2.379788   2.842260   4.210974   5.264917
    21  H    1.089971   2.343001   3.618838   4.972293   5.569721
    22  H    1.088468   2.387152   2.862653   4.326946   5.078312
    23  H    2.798130   2.231707   1.022077   2.067530   2.964539
    24  H    5.727667   4.194137   3.348458   2.262341   1.088795
    25  H    4.484275   2.803809   2.696766   2.251329   1.090287
    26  H    5.473661   4.289259   3.272192   2.262960   3.181572
    27  H    4.175161   2.904223   2.587571   2.220987   3.008854
    28  H    4.801684   4.184507   2.500975   2.144609   3.509366
    29  H    5.018774   4.169025   2.611274   2.129105   2.783426
    30  H    7.087359   6.094698   4.507398   3.462355   3.874724
    31  H    6.795930   5.459007   4.128194   2.729409   2.721547
    32  H    8.068783   6.721936   5.550748   4.152910   4.327538
    33  H    9.559760   8.435087   7.285991   6.088893   6.591935
    34  H    9.790337   9.069941   7.765259   6.882252   7.827299
    35  H    8.600241   8.203447   6.716648   6.137984   7.357647
    36  H    6.935712   6.457032   4.808987   4.250239   5.442853
                    6          7          8          9         10
     6  S    0.000000
     7  C    1.828045   0.000000
     8  O    1.469248   2.772552   0.000000
     9  O    1.477541   2.749428   2.535957   0.000000
    10  C    3.490535   2.613589   4.800406   3.865431   0.000000
    11  C    3.590840   3.126743   5.052462   3.334962   1.544287
    12  C    4.151361   3.382746   5.550274   3.717361   2.584014
    13  C    4.062369   3.627238   5.335059   3.287035   3.690155
    14  C    5.174717   4.582355   6.300360   4.413080   4.871010
    15  C    6.156929   5.216220   7.308341   5.591178   5.196615
    16  C    6.217511   5.048208   7.468959   5.855298   4.479462
    17  C    5.328336   4.201799   6.675448   5.061008   3.158940
    18  O    3.693004   2.976297   3.474610   5.132023   4.581314
    19  O    4.358942   4.218013   4.318335   5.718016   4.625287
    20  H    5.914999   4.600424   6.147920   7.195938   4.970860
    21  H    6.325261   5.445779   6.236681   7.739210   5.984726
    22  H    6.214770   5.225793   6.514336   7.483682   4.960972
    23  H    4.321001   3.404710   5.097302   5.334388   2.450398
    24  H    2.452845   3.164692   3.519121   2.808838   2.656406
    25  H    2.449695   3.046171   2.850780   3.561001   3.417211
    26  H    2.470269   1.089870   3.525023   2.856224   2.719944
    27  H    2.424275   1.086908   2.815723   3.566350   3.446901
    28  H    4.240963   2.943960   5.478831   4.670025   1.093653
    29  H    4.128672   3.514688   5.371034   4.529118   1.096347
    30  H    4.544579   4.184112   6.001251   4.191273   2.138821
    31  H    2.952682   3.073168   4.406567   2.446383   2.182152
    32  H    3.457127   3.522735   4.675145   2.408016   3.899988
    33  H    5.501643   5.141759   6.473071   4.605749   5.764709
    34  H    7.079538   6.125900   8.146863   6.498231   6.251193
    35  H    7.174734   5.872017   8.404062   6.900853   5.170631
    36  H    5.773779   4.543796   7.127731   5.683884   2.980104
                   11         12         13         14         15
    11  C    0.000000
    12  C    1.517448   0.000000
    13  C    2.538204   1.400361   0.000000
    14  C    3.825414   2.431772   1.397227   0.000000
    15  C    4.332069   2.815009   2.420655   1.394870   0.000000
    16  C    3.823130   2.432353   2.786219   2.411636   1.396611
    17  C    2.537289   1.402591   2.409047   2.784289   2.418745
    18  O    5.708120   6.199325   6.587857   7.435618   7.896441
    19  O    5.894187   6.907155   7.553121   8.684636   9.202881
    20  H    6.419003   6.853553   7.665579   8.401183   8.410893
    21  H    7.447602   8.101464   8.842094   9.701698   9.884965
    22  H    6.498997   7.280687   8.240717   9.180545   9.271122
    23  H    3.972864   4.938128   5.953902   7.046998   7.278467
    24  H    2.886403   4.202558   4.690289   6.062301   6.881204
    25  H    4.204475   5.339098   5.799051   7.063591   7.825939
    26  H    2.838718   2.614693   2.729911   3.548880   4.142927
    27  H    4.162048   4.320904   4.518703   5.296175   5.832129
    28  H    2.171264   2.659624   3.888825   4.844764   4.883795
    29  H    2.163007   3.442520   4.601715   5.823005   6.120409
    30  H    1.095875   2.134164   3.211601   4.404452   4.776612
    31  H    1.094410   2.143997   2.602254   3.996837   4.806524
    32  H    2.724789   2.145031   1.084320   2.159203   3.404985
    33  H    4.688946   3.410132   2.151921   1.084528   2.153536
    34  H    5.417531   3.900517   3.405687   2.156709   1.085508
    35  H    4.686453   3.411652   3.871231   3.396819   2.155482
    36  H    2.736537   2.157709   3.396475   3.871365   3.400425
                   16         17         18         19         20
    16  C    0.000000
    17  C    1.394115   0.000000
    18  O    7.576619   6.748625   0.000000
    19  O    8.684785   7.556115   2.527636   0.000000
    20  H    7.678330   6.868793   2.861854   3.563797   0.000000
    21  H    9.230647   8.325531   2.932788   2.880454   1.794445
    22  H    8.431719   7.400946   3.578876   2.869264   1.798110
    23  H    6.476303   5.269754   3.408553   2.770552   3.107835
    24  H    6.562426   5.323065   4.687841   4.033404   6.134559
    25  H    7.495721   6.320507   3.302948   2.404008   5.062855
    26  H    4.063744   3.373062   3.903204   5.259481   5.204471
    27  H    5.679065   4.963297   2.161167   3.981787   4.005624
    28  H    3.972812   2.730962   4.712429   5.037867   4.578523
    29  H    5.306205   3.931224   5.023933   4.500117   5.171349
    30  H    4.129321   2.825306   6.607901   6.499195   7.075178
    31  H    4.575064   3.426061   5.698666   5.810466   6.857025
    32  H    3.870386   3.388927   6.471099   7.336872   7.910678
    33  H    3.396648   3.868797   7.949371   9.308610   9.155419
    34  H    2.157205   3.402938   8.707369  10.158394   9.173102
    35  H    1.085035   2.150212   8.188620   9.313244   7.950428
    36  H    2.149376   1.087114   6.788682   7.369135   6.509259
                   21         22         23         24         25
    21  H    0.000000
    22  H    1.784124   0.000000
    23  H    3.788464   2.582891   0.000000
    24  H    6.458290   5.770498   3.473796   0.000000
    25  H    5.018861   4.678596   3.001631   1.798339   0.000000
    26  H    6.276889   5.968934   4.066564   3.764148   4.020079
    27  H    4.793456   4.887324   3.595048   3.976024   3.382327
    28  H    5.858764   4.776537   2.553280   3.725236   4.252392
    29  H    6.016187   4.775198   2.241596   2.616625   3.421261
    30  H    8.093790   6.961169   4.418481   3.353089   4.840466
    31  H    7.690398   6.889749   4.360316   2.285638   3.789857
    32  H    8.904804   8.400599   6.076863   4.231145   5.373703
    33  H   10.386843   9.994496   7.893946   6.644214   7.607064
    34  H   10.692056  10.143601   8.260482   7.939555   8.837903
    35  H    9.597306   8.745410   6.972788   7.444541   8.314375
    36  H    7.999502   6.898627   4.850904   5.418381   6.356583
                   26         27         28         29         30
    26  H    0.000000
    27  H    1.809101   0.000000
    28  H    2.851584   3.582651   0.000000
    29  H    3.777652   4.276341   1.757989   0.000000
    30  H    3.921554   5.201788   2.663015   2.273436   0.000000
    31  H    2.935848   4.156635   3.050207   2.689095   1.751595
    32  H    2.829633   4.452010   4.353918   4.749948   3.447606
    33  H    4.149911   5.788990   5.819900   6.725983   5.292550
    34  H    5.038220   6.646010   5.878290   7.181045   5.838690
    35  H    4.923987   6.408165   4.494827   5.917343   4.880916
    36  H    3.895759   5.254497   2.337436   3.539050   2.786384
                   31         32         33         34         35
    31  H    0.000000
    32  H    2.330164   0.000000
    33  H    4.666212   2.483907   0.000000
    34  H    5.871480   4.304370   2.485749   0.000000
    35  H    5.532736   4.955389   4.296280   2.486024   0.000000
    36  H    3.787845   4.288782   4.955885   4.296198   2.468993
                   36
    36  H    0.000000
 Stoichiometry    C12H17NO4S2
 Framework group  C1[X(C12H17NO4S2)]
 Deg. of freedom   102
 Full point group                 C1      NOp   1
 Largest Abelian subgroup         C1      NOp   1
 Largest concise Abelian subgroup C1      NOp   1
                         Standard orientation:                         
 ---------------------------------------------------------------------
 Center     Atomic      Atomic             Coordinates (Angstroms)
 Number     Number       Type             X           Y           Z
 ---------------------------------------------------------------------
      1          6           0       -3.885950   -2.423713   -0.648186
      2         16           0       -3.198275   -0.800259   -0.322090
      3          7           0       -1.698926   -1.250889    0.341296
      4          6           0       -0.633070   -0.251860    0.578217
      5          6           0       -1.086065    1.079296    1.278943
      6         16           0       -0.353643    2.059280   -0.076317
      7          6           0       -0.112511    0.378324   -0.753066
      8          8           0       -1.324059    2.871170   -0.823189
      9          8           0        0.921025    2.679516    0.340404
     10          6           0        0.431742   -1.006823    1.395422
     11          6           0        1.756611   -0.262487    1.670210
     12          6           0        2.846985   -0.485985    0.638811
     13          6           0        3.435271    0.594765   -0.029702
     14          6           0        4.465557    0.389523   -0.950913
     15          6           0        4.923084   -0.901159   -1.216376
     16          6           0        4.343246   -1.986337   -0.555545
     17          6           0        3.315907   -1.778935    0.363757
     18          8           0       -2.925161   -0.115188   -1.591990
     19          8           0       -4.050684   -0.125550    0.671201
     20          1           0       -3.233591   -2.949487   -1.343344
     21          1           0       -4.868072   -2.253801   -1.089323
     22          1           0       -3.988425   -2.968502    0.288546
     23          1           0       -1.887224   -1.773817    1.199044
     24          1           0       -0.612217    1.286249    2.237125
     25          1           0       -2.166781    1.211622    1.336132
     26          1           0        0.924422    0.162827   -1.010255
     27          1           0       -0.789291    0.214490   -1.587630
     28          1           0        0.640292   -1.950350    0.883230
     29          1           0       -0.034996   -1.263250    2.353742
     30          1           0        2.123300   -0.609973    2.642698
     31          1           0        1.575912    0.811514    1.777929
     32          1           0        3.063648    1.594716    0.164578
     33          1           0        4.907053    1.238304   -1.461651
     34          1           0        5.723933   -1.061931   -1.931303
     35          1           0        4.694742   -2.993753   -0.752684
     36          1           0        2.876663   -2.630217    0.877762
 ---------------------------------------------------------------------
 Rotational constants (GHZ):      0.5489450      0.1958827      0.1668041
 Leave Link  202 at Sat Aug  8 00:11:24 2020, MaxMem=    33554432 cpu:         0.0
 (Enter /prod/apps/gaussian/g09d1/l301.exe)
 Standard basis: 6-31G(d) (6D, 7F)
 Ernie: Thresh=  0.10000D-02 Tol=  0.10000D-05 Strict=F.
 There are   327 symmetry adapted cartesian basis functions of A   symmetry.
 There are   327 symmetry adapted basis functions of A   symmetry.
   327 basis functions,   648 primitive gaussians,   327 cartesian basis functions
    80 alpha electrons       80 beta electrons
       nuclear repulsion energy      1879.5176865884 Hartrees.
 IExCor=  402 DFT=T Ex+Corr=B3LYP ExCW=0 ScaHFX=  0.200000
 ScaDFX=  0.800000  0.720000  1.000000  0.810000 ScalE2=  1.000000  1.000000
 IRadAn=      0 IRanWt=     -1 IRanGd=            0 ICorTp=0 IEmpDi=  4
 NAtoms=   36 NActive=   36 NUniq=   36 SFac= 1.00D+00 NAtFMM=   60 NAOKFM=F Big=F
 Integral buffers will be    131072 words long.
 Raffenetti 2 integral format.
 Two-electron integral symmetry is turned on.
 Leave Link  301 at Sat Aug  8 00:11:24 2020, MaxMem=    33554432 cpu:         0.0
 (Enter /prod/apps/gaussian/g09d1/l302.exe)
 NPDir=0 NMtPBC=     1 NCelOv=     1 NCel=       1 NClECP=     1 NCelD=      1
         NCelK=      1 NCelE2=     1 NClLst=     1 CellRange=     0.0.
 One-electron integrals computed using PRISM.
 NBasis=   327 RedAO= T EigKep=  4.62D-04  NBF=   327
 NBsUse=   327 1.00D-06 EigRej= -1.00D+00 NBFU=   327
 Precomputing XC quadrature grid using
 IXCGrd= 4 IRadAn=           0 IRanWt=          -1 IRanGd=           0 AccXCQ= 0.00D+00.
 Generated NRdTot=       0 NPtTot=           0 NUsed=           0 NTot=          32
 NSgBfM=   323   324   324   324   324 MxSgAt=    36 MxSgA2=    36.
 Leave Link  302 at Sat Aug  8 00:11:25 2020, MaxMem=    33554432 cpu:         1.0
 (Enter /prod/apps/gaussian/g09d1/l303.exe)
 DipDrv:  MaxL=1.
 Leave Link  303 at Sat Aug  8 00:11:25 2020, MaxMem=    33554432 cpu:         0.0
 (Enter /prod/apps/gaussian/g09d1/l401.exe)
 ExpMin= 1.17D-01 ExpMax= 2.19D+04 ExpMxC= 3.30D+03 IAcc=1 IRadAn=         1 AccDes= 0.00D+00
 Harris functional with IExCor=  402 and IRadAn=       1 diagonalized for initial guess.
 HarFok:  IExCor=  402 AccDes= 0.00D+00 IRadAn=         1 IDoV= 1 UseB2=F ITyADJ=14
 ICtDFT=  3500011 ScaDFX=  1.000000  1.000000  1.000000  1.000000
 FoFCou: FMM=F IPFlag=           0 FMFlag=      100000 FMFlg1=           0
         NFxFlg=           0 DoJE=T BraDBF=F KetDBF=T FulRan=T
         wScrn=  0.000000 ICntrl=     500 IOpCl=  0 I1Cent=   200000004 NGrid=           0
         NMat0=    1 NMatS0=      1 NMatT0=    0 NMatD0=    1 NMtDS0=    0 NMtDT0=    0
 Petite list used in FoFCou.
 Harris En= -1619.49969855868    
 JPrj=0 DoOrth=F DoCkMO=F.
 Leave Link  401 at Sat Aug  8 00:11:29 2020, MaxMem=    33554432 cpu:         4.1
 (Enter /prod/apps/gaussian/g09d1/l502.exe)
 Closed shell SCF:
 Using DIIS extrapolation, IDIIS=  1040.
 Integral symmetry usage will be decided dynamically.
 IVT=      343772 IEndB=      343772 NGot=    33554432 MDV=    33334557
 LenX=    33334557 LenY=    33227187
 Requested convergence on RMS density matrix=1.00D-08 within 128 cycles.
 Requested convergence on MAX density matrix=1.00D-06.
 Requested convergence on             energy=1.00D-06.
 No special actions if energy rises.
 Fock matrices will be formed incrementally for  20 cycles.
 Integral accuracy reduced to 1.0D-05 until final iterations.

 Cycle   1  Pass 0  IDiag  1:
 FoFJK:  IHMeth= 1 ICntrl=       0 DoSepK=F KAlg= 0 I1Cent=   0 FoldK=F
 IRaf= 790000000 NMat=   1 IRICut=       1 DoRegI=T DoRafI=F ISym2E= 0.
 FoFCou: FMM=F IPFlag=           0 FMFlag=      100000 FMFlg1=           0
         NFxFlg=           0 DoJE=F BraDBF=F KetDBF=F FulRan=T
         wScrn=  0.000000 ICntrl=       0 IOpCl=  0 I1Cent=           0 NGrid=           0
         NMat0=    1 NMatS0=      1 NMatT0=    0 NMatD0=    1 NMtDS0=    0 NMtDT0=    0
 Symmetry not used in FoFCou.
 E= -1618.58517550258    
 DIIS: error= 3.52D-02 at cycle   1 NSaved=   1.
 NSaved= 1 IEnMin= 1 EnMin= -1618.58517550258     IErMin= 1 ErrMin= 3.52D-02
 ErrMax= 3.52D-02  0.00D+00 EMaxC= 1.00D-01 BMatC= 9.39D-01 BMatP= 9.39D-01
 IDIUse=3 WtCom= 6.48D-01 WtEn= 3.52D-01
 Coeff-Com:  0.100D+01
 Coeff-En:   0.100D+01
 Coeff:      0.100D+01
 Gap=     0.371 Goal=   None    Shift=    0.000
 GapD=    0.371 DampG=1.000 DampE=0.500 DampFc=0.5000 IDamp=-1.
 Damping current iteration by 5.00D-01
 RMSDP=7.66D-03 MaxDP=5.76D-01              OVMax= 2.45D-01

 Cycle   2  Pass 0  IDiag  1:
 RMSU=  3.83D-03    CP:  1.00D+00
 E= -1618.75366513677     Delta-E=       -0.168489634190 Rises=F Damp=T
 DIIS: error= 1.44D-02 at cycle   2 NSaved=   2.
 NSaved= 2 IEnMin= 2 EnMin= -1618.75366513677     IErMin= 2 ErrMin= 1.44D-02
 ErrMax= 1.44D-02  0.00D+00 EMaxC= 1.00D-01 BMatC= 1.58D-01 BMatP= 9.39D-01
 IDIUse=3 WtCom= 8.56D-01 WtEn= 1.44D-01
 Coeff-Com:  0.249D+00 0.751D+00
 Coeff-En:   0.394D+00 0.606D+00
 Coeff:      0.269D+00 0.731D+00
 Gap=     0.278 Goal=   None    Shift=    0.000
 RMSDP=2.20D-03 MaxDP=1.21D-01 DE=-1.68D-01 OVMax= 1.88D-01

 Cycle   3  Pass 0  IDiag  1:
 RMSU=  1.71D-03    CP:  9.91D-01  6.43D-01
 E= -1619.29391224361     Delta-E=       -0.540247106841 Rises=F Damp=F
 DIIS: error= 9.19D-03 at cycle   3 NSaved=   3.
 NSaved= 3 IEnMin= 3 EnMin= -1619.29391224361     IErMin= 3 ErrMin= 9.19D-03
 ErrMax= 9.19D-03  0.00D+00 EMaxC= 1.00D-01 BMatC= 9.26D-02 BMatP= 1.58D-01
 IDIUse=3 WtCom= 9.08D-01 WtEn= 9.19D-02
 Coeff-Com:  0.102D+00 0.443D+00 0.455D+00
 Coeff-En:   0.000D+00 0.000D+00 0.100D+01
 Coeff:      0.928D-01 0.403D+00 0.505D+00
 Gap=     0.239 Goal=   None    Shift=    0.000
 RMSDP=1.30D-03 MaxDP=3.46D-02 DE=-5.40D-01 OVMax= 8.74D-02

 Cycle   4  Pass 0  IDiag  1:
 RMSU=  7.79D-04    CP:  9.96D-01  7.19D-01  4.19D-01
 E= -1619.37080997666     Delta-E=       -0.076897733042 Rises=F Damp=F
 DIIS: error= 3.33D-03 at cycle   4 NSaved=   4.
 NSaved= 4 IEnMin= 4 EnMin= -1619.37080997666     IErMin= 4 ErrMin= 3.33D-03
 ErrMax= 3.33D-03  0.00D+00 EMaxC= 1.00D-01 BMatC= 1.07D-02 BMatP= 9.26D-02
 IDIUse=3 WtCom= 9.67D-01 WtEn= 3.33D-02
 Coeff-Com:  0.935D-02 0.763D-01 0.268D+00 0.647D+00
 Coeff-En:   0.000D+00 0.000D+00 0.923D-01 0.908D+00
 Coeff:      0.904D-02 0.738D-01 0.262D+00 0.655D+00
 Gap=     0.237 Goal=   None    Shift=    0.000
 RMSDP=4.15D-04 MaxDP=1.48D-02 DE=-7.69D-02 OVMax= 2.50D-02

 Cycle   5  Pass 0  IDiag  1:
 RMSU=  2.01D-04    CP:  9.96D-01  7.08D-01  5.56D-01  6.48D-01
 E= -1619.37942772766     Delta-E=       -0.008617751009 Rises=F Damp=F
 DIIS: error= 1.28D-03 at cycle   5 NSaved=   5.
 NSaved= 5 IEnMin= 5 EnMin= -1619.37942772766     IErMin= 5 ErrMin= 1.28D-03
 ErrMax= 1.28D-03  0.00D+00 EMaxC= 1.00D-01 BMatC= 1.18D-03 BMatP= 1.07D-02
 IDIUse=3 WtCom= 9.87D-01 WtEn= 1.28D-02
 Coeff-Com: -0.106D-02 0.178D-01 0.122D+00 0.383D+00 0.478D+00
 Coeff-En:   0.000D+00 0.000D+00 0.000D+00 0.229D-01 0.977D+00
 Coeff:     -0.104D-02 0.176D-01 0.121D+00 0.378D+00 0.485D+00
 Gap=     0.237 Goal=   None    Shift=    0.000
 RMSDP=1.34D-04 MaxDP=5.16D-03 DE=-8.62D-03 OVMax= 7.45D-03

 Cycle   6  Pass 0  IDiag  1:
 RMSU=  6.63D-05    CP:  9.96D-01  7.10D-01  5.48D-01  7.17D-01  4.93D-01
 E= -1619.38038032330     Delta-E=       -0.000952595636 Rises=F Damp=F
 DIIS: error= 6.50D-04 at cycle   6 NSaved=   6.
 NSaved= 6 IEnMin= 6 EnMin= -1619.38038032330     IErMin= 6 ErrMin= 6.50D-04
 ErrMax= 6.50D-04  0.00D+00 EMaxC= 1.00D-01 BMatC= 1.45D-04 BMatP= 1.18D-03
 IDIUse=3 WtCom= 9.94D-01 WtEn= 6.50D-03
 Coeff-Com: -0.144D-02 0.378D-02 0.471D-01 0.163D+00 0.303D+00 0.485D+00
 Coeff-En:   0.000D+00 0.000D+00 0.000D+00 0.000D+00 0.626D-01 0.937D+00
 Coeff:     -0.143D-02 0.375D-02 0.468D-01 0.161D+00 0.302D+00 0.488D+00
 Gap=     0.237 Goal=   None    Shift=    0.000
 RMSDP=4.20D-05 MaxDP=1.99D-03 DE=-9.53D-04 OVMax= 3.38D-03

 Cycle   7  Pass 0  IDiag  1:
 RMSU=  2.63D-05    CP:  9.96D-01  7.10D-01  5.49D-01  7.18D-01  5.55D-01
                    CP:  5.44D-01
 E= -1619.38048397953     Delta-E=       -0.000103656225 Rises=F Damp=F
 DIIS: error= 2.10D-04 at cycle   7 NSaved=   7.
 NSaved= 7 IEnMin= 7 EnMin= -1619.38048397953     IErMin= 7 ErrMin= 2.10D-04
 ErrMax= 2.10D-04  0.00D+00 EMaxC= 1.00D-01 BMatC= 1.75D-05 BMatP= 1.45D-04
 IDIUse=3 WtCom= 9.98D-01 WtEn= 2.10D-03
 Coeff-Com: -0.784D-03 0.175D-03 0.145D-01 0.544D-01 0.134D+00 0.312D+00
 Coeff-Com:  0.486D+00
 Coeff-En:   0.000D+00 0.000D+00 0.000D+00 0.000D+00 0.000D+00 0.767D-01
 Coeff-En:   0.923D+00
 Coeff:     -0.782D-03 0.175D-03 0.145D-01 0.543D-01 0.134D+00 0.311D+00
 Coeff:      0.487D+00
 Gap=     0.237 Goal=   None    Shift=    0.000
 RMSDP=1.44D-05 MaxDP=5.97D-04 DE=-1.04D-04 OVMax= 9.14D-04

 Cycle   8  Pass 0  IDiag  1:
 RMSU=  7.62D-06    CP:  9.96D-01  7.10D-01  5.50D-01  7.16D-01  5.62D-01
                    CP:  6.02D-01  5.73D-01
 E= -1619.38049827190     Delta-E=       -0.000014292371 Rises=F Damp=F
 DIIS: error= 4.20D-05 at cycle   8 NSaved=   8.
 NSaved= 8 IEnMin= 8 EnMin= -1619.38049827190     IErMin= 8 ErrMin= 4.20D-05
 ErrMax= 4.20D-05  0.00D+00 EMaxC= 1.00D-01 BMatC= 8.78D-07 BMatP= 1.75D-05
 IDIUse=1 WtCom= 1.00D+00 WtEn= 0.00D+00
 Coeff-Com: -0.272D-03-0.306D-03 0.245D-02 0.109D-01 0.385D-01 0.112D+00
 Coeff-Com:  0.251D+00 0.586D+00
 Coeff:     -0.272D-03-0.306D-03 0.245D-02 0.109D-01 0.385D-01 0.112D+00
 Coeff:      0.251D+00 0.586D+00
 Gap=     0.237 Goal=   None    Shift=    0.000
 RMSDP=4.00D-06 MaxDP=1.90D-04 DE=-1.43D-05 OVMax= 2.20D-04

 Initial convergence to 1.0D-05 achieved.  Increase integral accuracy.
 Cycle   9  Pass 1  IDiag  1:
 E= -1619.38027842047     Delta-E=        0.000219851426 Rises=F Damp=F
 DIIS: error= 5.70D-05 at cycle   1 NSaved=   1.
 NSaved= 1 IEnMin= 1 EnMin= -1619.38027842047     IErMin= 1 ErrMin= 5.70D-05
 ErrMax= 5.70D-05  0.00D+00 EMaxC= 1.00D-01 BMatC= 6.69D-07 BMatP= 6.69D-07
 IDIUse=1 WtCom= 1.00D+00 WtEn= 0.00D+00
 Coeff-Com:  0.100D+01
 Coeff:      0.100D+01
 Gap=     0.237 Goal=   None    Shift=    0.000
 RMSDP=4.00D-06 MaxDP=1.90D-04 DE= 2.20D-04 OVMax= 2.76D-04

 Cycle  10  Pass 1  IDiag  1:
 RMSU=  2.52D-05    CP:  1.00D+00
 E= -1619.38027877581     Delta-E=       -0.000000355342 Rises=F Damp=F
 DIIS: error= 2.71D-05 at cycle   2 NSaved=   2.
 NSaved= 2 IEnMin= 2 EnMin= -1619.38027877581     IErMin= 2 ErrMin= 2.71D-05
 ErrMax= 2.71D-05  0.00D+00 EMaxC= 1.00D-01 BMatC= 4.04D-07 BMatP= 6.69D-07
 IDIUse=1 WtCom= 1.00D+00 WtEn= 0.00D+00
 Coeff-Com:  0.408D+00 0.592D+00
 Coeff:      0.408D+00 0.592D+00
 Gap=     0.237 Goal=   None    Shift=    0.000
 RMSDP=3.57D-06 MaxDP=1.18D-04 DE=-3.55D-07 OVMax= 3.09D-04

 Cycle  11  Pass 1  IDiag  1:
 RMSU=  3.56D-06    CP:  1.00D+00  9.89D-01
 E= -1619.38027888494     Delta-E=       -0.000000109122 Rises=F Damp=F
 DIIS: error= 2.14D-05 at cycle   3 NSaved=   3.
 NSaved= 3 IEnMin= 3 EnMin= -1619.38027888494     IErMin= 3 ErrMin= 2.14D-05
 ErrMax= 2.14D-05  0.00D+00 EMaxC= 1.00D-01 BMatC= 2.99D-07 BMatP= 4.04D-07
 IDIUse=1 WtCom= 1.00D+00 WtEn= 0.00D+00
 Coeff-Com:  0.814D-02 0.460D+00 0.532D+00
 Coeff:      0.814D-02 0.460D+00 0.532D+00
 Gap=     0.237 Goal=   None    Shift=    0.000
 RMSDP=1.72D-06 MaxDP=6.15D-05 DE=-1.09D-07 OVMax= 1.20D-04

 Cycle  12  Pass 1  IDiag  1:
 RMSU=  6.10D-07    CP:  1.00D+00  1.00D+00  5.61D-01
 E= -1619.38027914209     Delta-E=       -0.000000257156 Rises=F Damp=F
 DIIS: error= 3.84D-06 at cycle   4 NSaved=   4.
 NSaved= 4 IEnMin= 4 EnMin= -1619.38027914209     IErMin= 4 ErrMin= 3.84D-06
 ErrMax= 3.84D-06  0.00D+00 EMaxC= 1.00D-01 BMatC= 1.08D-08 BMatP= 2.99D-07
 IDIUse=1 WtCom= 1.00D+00 WtEn= 0.00D+00
 Coeff-Com: -0.775D-02 0.266D+00 0.328D+00 0.414D+00
 Coeff:     -0.775D-02 0.266D+00 0.328D+00 0.414D+00
 Gap=     0.237 Goal=   None    Shift=    0.000
 RMSDP=3.57D-07 MaxDP=1.29D-05 DE=-2.57D-07 OVMax= 2.17D-05

 Cycle  13  Pass 1  IDiag  1:
 RMSU=  1.79D-07    CP:  1.00D+00  1.00D+00  5.58D-01  4.95D-01
 E= -1619.38027915105     Delta-E=       -0.000000008961 Rises=F Damp=F
 DIIS: error= 1.07D-06 at cycle   5 NSaved=   5.
 NSaved= 5 IEnMin= 5 EnMin= -1619.38027915105     IErMin= 5 ErrMin= 1.07D-06
 ErrMax= 1.07D-06  0.00D+00 EMaxC= 1.00D-01 BMatC= 5.32D-10 BMatP= 1.08D-08
 IDIUse=1 WtCom= 1.00D+00 WtEn= 0.00D+00
 Coeff-Com: -0.489D-02 0.124D+00 0.155D+00 0.240D+00 0.486D+00
 Coeff:     -0.489D-02 0.124D+00 0.155D+00 0.240D+00 0.486D+00
 Gap=     0.237 Goal=   None    Shift=    0.000
 RMSDP=8.79D-08 MaxDP=3.38D-06 DE=-8.96D-09 OVMax= 8.96D-06

 Cycle  14  Pass 1  IDiag  1:
 RMSU=  7.04D-08    CP:  1.00D+00  1.00D+00  5.61D-01  5.26D-01  7.35D-01
 E= -1619.38027915148     Delta-E=       -0.000000000433 Rises=F Damp=F
 DIIS: error= 2.84D-07 at cycle   6 NSaved=   6.
 NSaved= 6 IEnMin= 6 EnMin= -1619.38027915148     IErMin= 6 ErrMin= 2.84D-07
 ErrMax= 2.84D-07  0.00D+00 EMaxC= 1.00D-01 BMatC= 4.60D-11 BMatP= 5.32D-10
 IDIUse=1 WtCom= 1.00D+00 WtEn= 0.00D+00
 Coeff-Com: -0.150D-02 0.295D-01 0.371D-01 0.698D-01 0.265D+00 0.601D+00
 Coeff:     -0.150D-02 0.295D-01 0.371D-01 0.698D-01 0.265D+00 0.601D+00
 Gap=     0.237 Goal=   None    Shift=    0.000
 RMSDP=2.83D-08 MaxDP=8.15D-07 DE=-4.33D-10 OVMax= 2.41D-06

 Cycle  15  Pass 1  IDiag  1:
 RMSU=  1.98D-08    CP:  1.00D+00  1.00D+00  5.59D-01  5.24D-01  7.96D-01
                    CP:  7.69D-01
 E= -1619.38027915153     Delta-E=       -0.000000000047 Rises=F Damp=F
 DIIS: error= 8.45D-08 at cycle   7 NSaved=   7.
 NSaved= 7 IEnMin= 7 EnMin= -1619.38027915153     IErMin= 7 ErrMin= 8.45D-08
 ErrMax= 8.45D-08  0.00D+00 EMaxC= 1.00D-01 BMatC= 6.07D-12 BMatP= 4.60D-11
 IDIUse=1 WtCom= 1.00D+00 WtEn= 0.00D+00
 Coeff-Com: -0.333D-03 0.298D-02 0.380D-02 0.127D-01 0.961D-01 0.341D+00
 Coeff-Com:  0.544D+00
 Coeff:     -0.333D-03 0.298D-02 0.380D-02 0.127D-01 0.961D-01 0.341D+00
 Coeff:      0.544D+00
 Gap=     0.237 Goal=   None    Shift=    0.000
 RMSDP=9.76D-09 MaxDP=4.91D-07 DE=-4.73D-11 OVMax= 5.20D-07

 SCF Done:  E(RB3LYP) =  -1619.38027915     A.U. after   15 cycles
            NFock= 15  Conv=0.98D-08     -V/T= 2.0065
 KE= 1.608857785103D+03 PE=-7.565699108076D+03 EE= 2.457943357233D+03
 Leave Link  502 at Sat Aug  8 00:16:36 2020, MaxMem=    33554432 cpu:       307.5
 (Enter /prod/apps/gaussian/g09d1/l601.exe)
 Copying SCF densities to generalized density rwf, IOpCl= 0 IROHF=0.

 **********************************************************************

            Population analysis using the SCF density.

 **********************************************************************

 Orbital symmetries:
       Occupied  (A) (A) (A) (A) (A) (A) (A) (A) (A) (A) (A) (A)
                 (A) (A) (A) (A) (A) (A) (A) (A) (A) (A) (A) (A)
                 (A) (A) (A) (A) (A) (A) (A) (A) (A) (A) (A) (A)
                 (A) (A) (A) (A) (A) (A) (A) (A) (A) (A) (A) (A)
                 (A) (A) (A) (A) (A) (A) (A) (A) (A) (A) (A) (A)
                 (A) (A) (A) (A) (A) (A) (A) (A) (A) (A) (A) (A)
                 (A) (A) (A) (A) (A) (A) (A) (A)
       Virtual   (A) (A) (A) (A) (A) (A) (A) (A) (A) (A) (A) (A)
                 (A) (A) (A) (A) (A) (A) (A) (A) (A) (A) (A) (A)
                 (A) (A) (A) (A) (A) (A) (A) (A) (A) (A) (A) (A)
                 (A) (A) (A) (A) (A) (A) (A) (A) (A) (A) (A) (A)
                 (A) (A) (A) (A) (A) (A) (A) (A) (A) (A) (A) (A)
                 (A) (A) (A) (A) (A) (A) (A) (A) (A) (A) (A) (A)
                 (A) (A) (A) (A) (A) (A) (A) (A) (A) (A) (A) (A)
                 (A) (A) (A) (A) (A) (A) (A) (A) (A) (A) (A) (A)
                 (A) (A) (A) (A) (A) (A) (A) (A) (A) (A) (A) (A)
                 (A) (A) (A) (A) (A) (A) (A) (A) (A) (A) (A) (A)
                 (A) (A) (A) (A) (A) (A) (A) (A) (A) (A) (A) (A)
                 (A) (A) (A) (A) (A) (A) (A) (A) (A) (A) (A) (A)
                 (A) (A) (A) (A) (A) (A) (A) (A) (A) (A) (A) (A)
                 (A) (A) (A) (A) (A) (A) (A) (A) (A) (A) (A) (A)
                 (A) (A) (A) (A) (A) (A) (A) (A) (A) (A) (A) (A)
                 (A) (A) (A) (A) (A) (A) (A) (A) (A) (A) (A) (A)
                 (A) (A) (A) (A) (A) (A) (A) (A) (A) (A) (A) (A)
                 (A) (A) (A) (A) (A) (A) (A) (A) (A) (A) (A) (A)
                 (A) (A) (A) (A) (A) (A) (A) (A) (A) (A) (A) (A)
                 (A) (A) (A) (A) (A) (A) (A) (A) (A) (A) (A) (A)
                 (A) (A) (A) (A) (A) (A) (A)
 The electronic state is 1-A.
 Alpha  occ. eigenvalues --  -89.13111 -89.08521 -19.15764 -19.15742 -19.13910
 Alpha  occ. eigenvalues --  -19.13732 -14.39185 -10.28407 -10.24715 -10.22670
 Alpha  occ. eigenvalues --  -10.22069 -10.21856 -10.20327 -10.20029 -10.19332
 Alpha  occ. eigenvalues --  -10.19249 -10.19086 -10.18999 -10.18479  -8.15715
 Alpha  occ. eigenvalues --   -8.11575  -6.12219  -6.12100  -6.12020  -6.07995
 Alpha  occ. eigenvalues --   -6.07929  -6.07862  -1.12570  -1.09200  -1.01273
 Alpha  occ. eigenvalues --   -0.98828  -0.95955  -0.86482  -0.85462  -0.79981
 Alpha  occ. eigenvalues --   -0.79467  -0.74633  -0.74424  -0.72248  -0.68961
 Alpha  occ. eigenvalues --   -0.63556  -0.62348  -0.60610  -0.58378  -0.57116
 Alpha  occ. eigenvalues --   -0.55182  -0.52683  -0.51641  -0.50696  -0.49751
 Alpha  occ. eigenvalues --   -0.49119  -0.48478  -0.46963  -0.46249  -0.45853
 Alpha  occ. eigenvalues --   -0.45270  -0.45027  -0.44269  -0.43927  -0.42604
 Alpha  occ. eigenvalues --   -0.41505  -0.41202  -0.40911  -0.40048  -0.37586
 Alpha  occ. eigenvalues --   -0.36932  -0.35837  -0.35305  -0.34001  -0.33866
 Alpha  occ. eigenvalues --   -0.33795  -0.32437  -0.31583  -0.31451  -0.30674
 Alpha  occ. eigenvalues --   -0.29170  -0.28881  -0.27598  -0.25150  -0.24514
 Alpha virt. eigenvalues --   -0.00769  -0.00270   0.02694   0.03273   0.04727
 Alpha virt. eigenvalues --    0.05524   0.05896   0.06356   0.07110   0.08283
 Alpha virt. eigenvalues --    0.08648   0.09196   0.09847   0.11026   0.11713
 Alpha virt. eigenvalues --    0.12806   0.13374   0.13952   0.15115   0.15633
 Alpha virt. eigenvalues --    0.15773   0.16243   0.17352   0.17772   0.18406
 Alpha virt. eigenvalues --    0.19763   0.20323   0.20949   0.21496   0.23360
 Alpha virt. eigenvalues --    0.24685   0.25127   0.25930   0.30010   0.30551
 Alpha virt. eigenvalues --    0.32382   0.34092   0.35499   0.36028   0.36633
 Alpha virt. eigenvalues --    0.36910   0.38640   0.42203   0.42816   0.43993
 Alpha virt. eigenvalues --    0.46474   0.47637   0.48162   0.49791   0.50242
 Alpha virt. eigenvalues --    0.50400   0.52590   0.53169   0.53497   0.54679
 Alpha virt. eigenvalues --    0.55163   0.56734   0.57386   0.58887   0.59434
 Alpha virt. eigenvalues --    0.59517   0.59927   0.60082   0.60811   0.61475
 Alpha virt. eigenvalues --    0.62032   0.64470   0.64805   0.66991   0.67642
 Alpha virt. eigenvalues --    0.68489   0.70310   0.70932   0.72596   0.73629
 Alpha virt. eigenvalues --    0.74507   0.75515   0.77550   0.79061   0.79334
 Alpha virt. eigenvalues --    0.80164   0.80947   0.81390   0.82378   0.83045
 Alpha virt. eigenvalues --    0.83538   0.83917   0.84178   0.84731   0.85560
 Alpha virt. eigenvalues --    0.86153   0.87328   0.87819   0.88401   0.89386
 Alpha virt. eigenvalues --    0.90159   0.90843   0.91467   0.92246   0.93766
 Alpha virt. eigenvalues --    0.94251   0.95246   0.95393   0.95850   0.96325
 Alpha virt. eigenvalues --    0.99174   1.00150   1.01070   1.02248   1.03080
 Alpha virt. eigenvalues --    1.04984   1.06799   1.08053   1.08609   1.10841
 Alpha virt. eigenvalues --    1.11050   1.13466   1.13873   1.15261   1.15758
 Alpha virt. eigenvalues --    1.17411   1.17767   1.20026   1.20902   1.21759
 Alpha virt. eigenvalues --    1.22425   1.24584   1.25515   1.26903   1.28366
 Alpha virt. eigenvalues --    1.29213   1.32983   1.34371   1.36148   1.42230
 Alpha virt. eigenvalues --    1.42893   1.44283   1.44490   1.45108   1.47467
 Alpha virt. eigenvalues --    1.48267   1.49863   1.50952   1.51657   1.56081
 Alpha virt. eigenvalues --    1.57966   1.64252   1.66833   1.67978   1.69524
 Alpha virt. eigenvalues --    1.71591   1.72903   1.74658   1.77958   1.79181
 Alpha virt. eigenvalues --    1.79521   1.80067   1.80500   1.81125   1.81261
 Alpha virt. eigenvalues --    1.81881   1.82640   1.82806   1.83121   1.84721
 Alpha virt. eigenvalues --    1.86099   1.87253   1.88414   1.89357   1.91018
 Alpha virt. eigenvalues --    1.91443   1.93479   1.93696   1.98196   1.99438
 Alpha virt. eigenvalues --    2.00706   2.03071   2.03835   2.04829   2.05643
 Alpha virt. eigenvalues --    2.05839   2.07460   2.08908   2.10249   2.12078
 Alpha virt. eigenvalues --    2.13880   2.14294   2.14671   2.15470   2.15658
 Alpha virt. eigenvalues --    2.16627   2.17431   2.19088   2.20257   2.21138
 Alpha virt. eigenvalues --    2.23786   2.23959   2.26712   2.28804   2.29950
 Alpha virt. eigenvalues --    2.30683   2.31172   2.32358   2.36782   2.39108
 Alpha virt. eigenvalues --    2.39698   2.44050   2.46668   2.49913   2.53121
 Alpha virt. eigenvalues --    2.58338   2.58869   2.63968   2.66285   2.70995
 Alpha virt. eigenvalues --    2.71730   2.72333   2.74505   2.74664   2.75192
 Alpha virt. eigenvalues --    2.76153   2.79109   2.81448   2.85141   2.87949
 Alpha virt. eigenvalues --    2.89788   3.05973   3.40817   3.76249   3.82956
 Alpha virt. eigenvalues --    3.87058   3.94034   3.95503   4.01861   4.09178
 Alpha virt. eigenvalues --    4.11410   4.13364   4.16683   4.19138   4.19579
 Alpha virt. eigenvalues --    4.26709   4.33475   4.35034   4.45331   4.53417
 Alpha virt. eigenvalues --    4.69476   4.76742
          Condensed to atoms (all electrons):
               1          2          3          4          5          6
     1  C    5.576587   0.184847  -0.055572   0.003768  -0.000289   0.000031
     2  S    0.184847  13.738530   0.104229  -0.012908  -0.006075   0.001742
     3  N   -0.055572   0.104229   7.371627   0.272595  -0.055114   0.002541
     4  C    0.003768  -0.012908   0.272595   4.794996   0.354118  -0.095342
     5  C   -0.000289  -0.006075  -0.055114   0.354118   5.781539   0.139885
     6  S    0.000031   0.001742   0.002541  -0.095342   0.139885  13.866452
     7  C   -0.000285  -0.006445  -0.047650   0.351059  -0.213322   0.161624
     8  O    0.000000   0.001325  -0.000151   0.001024  -0.043494   0.437636
     9  O    0.000000   0.000004  -0.000038   0.000548  -0.043202   0.379337
    10  C   -0.000178   0.000267  -0.055362   0.378153  -0.050826   0.002916
    11  C    0.000001   0.000015   0.003365  -0.029797  -0.002948  -0.001403
    12  C    0.000000  -0.000002  -0.000043  -0.002360   0.000106  -0.001077
    13  C    0.000000   0.000000  -0.000008   0.000491  -0.000155   0.000837
    14  C    0.000000   0.000000   0.000000   0.000000  -0.000002   0.000068
    15  C    0.000000   0.000000   0.000000   0.000002   0.000000  -0.000003
    16  C    0.000000   0.000000   0.000000  -0.000015   0.000000  -0.000001
    17  C    0.000000  -0.000001  -0.000014  -0.000234  -0.000013  -0.000021
    18  O   -0.057071   0.430137  -0.049309  -0.000070  -0.002143   0.004252
    19  O   -0.057618   0.409950  -0.053685  -0.003135  -0.004477  -0.000720
    20  H    0.342408  -0.006388   0.001682  -0.000128   0.000006   0.000004
    21  H    0.362315  -0.016785   0.002477  -0.000038   0.000005   0.000000
    22  H    0.335517  -0.000739  -0.000138  -0.000049   0.000005  -0.000001
    23  H   -0.000252  -0.004020   0.280708  -0.032647  -0.000943  -0.000269
    24  H    0.000002   0.000194   0.002631  -0.027086   0.334605  -0.010109
    25  H    0.000133   0.002782  -0.008852  -0.021563   0.330974  -0.006184
    26  H    0.000004   0.000321   0.001424  -0.026210   0.008279  -0.010690
    27  H   -0.000077   0.000122  -0.006402  -0.020470   0.005584  -0.007441
    28  H   -0.000009   0.000153   0.001997  -0.034698   0.005850  -0.000264
    29  H    0.000003  -0.000239  -0.005487  -0.038588  -0.009373  -0.000219
    30  H    0.000000   0.000001  -0.000119   0.004336  -0.000002   0.000113
    31  H    0.000000   0.000005   0.000122  -0.006372  -0.000133   0.004068
    32  H    0.000000   0.000000   0.000001   0.000008   0.000132  -0.000147
    33  H    0.000000   0.000000   0.000000   0.000000   0.000000   0.000004
    34  H    0.000000   0.000000   0.000000   0.000000   0.000000   0.000000
    35  H    0.000000   0.000000   0.000000   0.000000   0.000000   0.000000
    36  H    0.000000   0.000000  -0.000004   0.000173   0.000000  -0.000002
               7          8          9         10         11         12
     1  C   -0.000285   0.000000   0.000000  -0.000178   0.000001   0.000000
     2  S   -0.006445   0.001325   0.000004   0.000267   0.000015  -0.000002
     3  N   -0.047650  -0.000151  -0.000038  -0.055362   0.003365  -0.000043
     4  C    0.351059   0.001024   0.000548   0.378153  -0.029797  -0.002360
     5  C   -0.213322  -0.043494  -0.043202  -0.050826  -0.002948   0.000106
     6  S    0.161624   0.437636   0.379337   0.002916  -0.001403  -0.001077
     7  C    5.741392  -0.043643  -0.042530  -0.038173  -0.004444  -0.003010
     8  O   -0.043643   8.187366  -0.044067  -0.000061  -0.000014   0.000001
     9  O   -0.042530  -0.044067   8.278796  -0.000568  -0.005042  -0.001395
    10  C   -0.038173  -0.000061  -0.000568   5.151925   0.326115  -0.032323
    11  C   -0.004444  -0.000014  -0.005042   0.326115   5.224550   0.348651
    12  C   -0.003010   0.000001  -0.001395  -0.032323   0.348651   4.656046
    13  C   -0.004886  -0.000004  -0.004412   0.000894  -0.049179   0.548978
    14  C   -0.000218   0.000000   0.000116  -0.000198   0.007449  -0.022767
    15  C    0.000030   0.000000  -0.000001   0.000007   0.000357  -0.034742
    16  C    0.000063   0.000000   0.000000   0.000168   0.006245  -0.016883
    17  C   -0.000143   0.000000  -0.000010  -0.006570  -0.069790   0.540408
    18  O   -0.011831  -0.000446   0.000000   0.000066   0.000001   0.000000
    19  O   -0.000397  -0.000005   0.000000  -0.000114   0.000001   0.000000
    20  H    0.000002   0.000000   0.000000   0.000005   0.000000   0.000000
    21  H   -0.000001   0.000000   0.000000   0.000001   0.000000   0.000000
    22  H    0.000006   0.000000   0.000000  -0.000014   0.000000   0.000000
    23  H    0.005996   0.000004   0.000002  -0.005634   0.000056   0.000004
    24  H    0.009696   0.000826  -0.001290  -0.007961   0.001121   0.000233
    25  H    0.004748   0.000018   0.000894   0.002128   0.000123  -0.000009
    26  H    0.331092   0.000807  -0.001163  -0.007734  -0.002535   0.010717
    27  H    0.329359  -0.000295   0.000963   0.002338   0.000131  -0.000006
    28  H   -0.005658   0.000001   0.000004   0.364976  -0.038480  -0.005332
    29  H    0.005891   0.000001   0.000004   0.352307  -0.026685   0.003417
    30  H   -0.000059   0.000000   0.000142  -0.034850   0.357045  -0.030119
    31  H   -0.000987   0.000047   0.013113  -0.040479   0.360270  -0.030175
    32  H   -0.000108   0.000006   0.013300   0.000304  -0.011765  -0.037099
    33  H   -0.000006   0.000000  -0.000001   0.000001  -0.000184   0.003646
    34  H    0.000000   0.000000   0.000000   0.000000   0.000007   0.000672
    35  H    0.000000   0.000000   0.000000   0.000001  -0.000192   0.003786
    36  H   -0.000025   0.000000   0.000000   0.000790  -0.009517  -0.049144
              13         14         15         16         17         18
     1  C    0.000000   0.000000   0.000000   0.000000   0.000000  -0.057071
     2  S    0.000000   0.000000   0.000000   0.000000  -0.000001   0.430137
     3  N   -0.000008   0.000000   0.000000   0.000000  -0.000014  -0.049309
     4  C    0.000491   0.000000   0.000002  -0.000015  -0.000234  -0.000070
     5  C   -0.000155  -0.000002   0.000000   0.000000  -0.000013  -0.002143
     6  S    0.000837   0.000068  -0.000003  -0.000001  -0.000021   0.004252
     7  C   -0.004886  -0.000218   0.000030   0.000063  -0.000143  -0.011831
     8  O   -0.000004   0.000000   0.000000   0.000000   0.000000  -0.000446
     9  O   -0.004412   0.000116  -0.000001   0.000000  -0.000010   0.000000
    10  C    0.000894  -0.000198   0.000007   0.000168  -0.006570   0.000066
    11  C   -0.049179   0.007449   0.000357   0.006245  -0.069790   0.000001
    12  C    0.548978  -0.022767  -0.034742  -0.016883   0.540408   0.000000
    13  C    4.997352   0.509946  -0.034661  -0.047015  -0.041844   0.000000
    14  C    0.509946   4.882793   0.548548  -0.025339  -0.048309   0.000000
    15  C   -0.034661   0.548548   4.856348   0.547773  -0.035643   0.000000
    16  C   -0.047015  -0.025339   0.547773   4.860799   0.530045   0.000000
    17  C   -0.041844  -0.048309  -0.035643   0.530045   4.983713   0.000000
    18  O    0.000000   0.000000   0.000000   0.000000   0.000000   8.237066
    19  O    0.000000   0.000000   0.000000   0.000000   0.000000  -0.047592
    20  H    0.000000   0.000000   0.000000   0.000000   0.000000  -0.000316
    21  H    0.000000   0.000000   0.000000   0.000000   0.000000  -0.000563
    22  H    0.000000   0.000000   0.000000   0.000000   0.000000   0.001651
    23  H    0.000000   0.000000   0.000000   0.000000   0.000001   0.001739
    24  H   -0.000012   0.000000   0.000000   0.000000   0.000003   0.000000
    25  H    0.000001   0.000000   0.000000   0.000000   0.000000  -0.001021
    26  H    0.008234   0.000246  -0.000079  -0.000278   0.000759   0.000312
    27  H    0.000083   0.000002  -0.000001   0.000000  -0.000005   0.017565
    28  H    0.000431  -0.000018  -0.000005  -0.000189   0.004377  -0.000011
    29  H   -0.000129   0.000003   0.000000   0.000004   0.000373   0.000001
    30  H    0.001478  -0.000221   0.000035  -0.000062  -0.004894   0.000000
    31  H   -0.004088   0.000207  -0.000006  -0.000146   0.004240   0.000000
    32  H    0.351348  -0.042605   0.004327   0.000305   0.005994   0.000000
    33  H   -0.038247   0.358248  -0.043784   0.004566   0.000877   0.000000
    34  H    0.004663  -0.042970   0.359583  -0.043447   0.004843   0.000000
    35  H    0.000773   0.004671  -0.042942   0.357101  -0.041122   0.000000
    36  H    0.006236   0.000317   0.004907  -0.044576   0.352634   0.000000
              19         20         21         22         23         24
     1  C   -0.057618   0.342408   0.362315   0.335517  -0.000252   0.000002
     2  S    0.409950  -0.006388  -0.016785  -0.000739  -0.004020   0.000194
     3  N   -0.053685   0.001682   0.002477  -0.000138   0.280708   0.002631
     4  C   -0.003135  -0.000128  -0.000038  -0.000049  -0.032647  -0.027086
     5  C   -0.004477   0.000006   0.000005   0.000005  -0.000943   0.334605
     6  S   -0.000720   0.000004   0.000000  -0.000001  -0.000269  -0.010109
     7  C   -0.000397   0.000002  -0.000001   0.000006   0.005996   0.009696
     8  O   -0.000005   0.000000   0.000000   0.000000   0.000004   0.000826
     9  O    0.000000   0.000000   0.000000   0.000000   0.000002  -0.001290
    10  C   -0.000114   0.000005   0.000001  -0.000014  -0.005634  -0.007961
    11  C    0.000001   0.000000   0.000000   0.000000   0.000056   0.001121
    12  C    0.000000   0.000000   0.000000   0.000000   0.000004   0.000233
    13  C    0.000000   0.000000   0.000000   0.000000   0.000000  -0.000012
    14  C    0.000000   0.000000   0.000000   0.000000   0.000000   0.000000
    15  C    0.000000   0.000000   0.000000   0.000000   0.000000   0.000000
    16  C    0.000000   0.000000   0.000000   0.000000   0.000000   0.000000
    17  C    0.000000   0.000000   0.000000   0.000000   0.000001   0.000003
    18  O   -0.047592  -0.000316  -0.000563   0.001651   0.001739   0.000000
    19  O    8.257688   0.001775   0.000264  -0.000683  -0.000361   0.000076
    20  H    0.001775   0.481111  -0.017397  -0.024258  -0.000029   0.000000
    21  H    0.000264  -0.017397   0.458855  -0.019540  -0.000074   0.000000
    22  H   -0.000683  -0.024258  -0.019540   0.506708   0.000802   0.000000
    23  H   -0.000361  -0.000029  -0.000074   0.000802   0.408039   0.000273
    24  H    0.000076   0.000000   0.000000   0.000000   0.000273   0.503830
    25  H    0.018447  -0.000008   0.000004   0.000004   0.000208  -0.016685
    26  H   -0.000001   0.000001   0.000000   0.000000  -0.000043  -0.000273
    27  H    0.000060   0.000005   0.000005  -0.000004   0.000057  -0.000252
    28  H    0.000004   0.000004   0.000000   0.000001  -0.000701   0.000171
    29  H   -0.000003   0.000000   0.000000  -0.000002   0.009070   0.002840
    30  H    0.000000   0.000000   0.000000   0.000000  -0.000026  -0.000260
    31  H    0.000000   0.000000   0.000000   0.000000   0.000018   0.002357
    32  H    0.000000   0.000000   0.000000   0.000000   0.000000   0.000005
    33  H    0.000000   0.000000   0.000000   0.000000   0.000000   0.000000
    34  H    0.000000   0.000000   0.000000   0.000000   0.000000   0.000000
    35  H    0.000000   0.000000   0.000000   0.000000   0.000000   0.000000
    36  H    0.000000   0.000000   0.000000   0.000000  -0.000001   0.000001
              25         26         27         28         29         30
     1  C    0.000133   0.000004  -0.000077  -0.000009   0.000003   0.000000
     2  S    0.002782   0.000321   0.000122   0.000153  -0.000239   0.000001
     3  N   -0.008852   0.001424  -0.006402   0.001997  -0.005487  -0.000119
     4  C   -0.021563  -0.026210  -0.020470  -0.034698  -0.038588   0.004336
     5  C    0.330974   0.008279   0.005584   0.005850  -0.009373  -0.000002
     6  S   -0.006184  -0.010690  -0.007441  -0.000264  -0.000219   0.000113
     7  C    0.004748   0.331092   0.329359  -0.005658   0.005891  -0.000059
     8  O    0.000018   0.000807  -0.000295   0.000001   0.000001   0.000000
     9  O    0.000894  -0.001163   0.000963   0.000004   0.000004   0.000142
    10  C    0.002128  -0.007734   0.002338   0.364976   0.352307  -0.034850
    11  C    0.000123  -0.002535   0.000131  -0.038480  -0.026685   0.357045
    12  C   -0.000009   0.010717  -0.000006  -0.005332   0.003417  -0.030119
    13  C    0.000001   0.008234   0.000083   0.000431  -0.000129   0.001478
    14  C    0.000000   0.000246   0.000002  -0.000018   0.000003  -0.000221
    15  C    0.000000  -0.000079  -0.000001  -0.000005   0.000000   0.000035
    16  C    0.000000  -0.000278   0.000000  -0.000189   0.000004  -0.000062
    17  C    0.000000   0.000759  -0.000005   0.004377   0.000373  -0.004894
    18  O   -0.001021   0.000312   0.017565  -0.000011   0.000001   0.000000
    19  O    0.018447  -0.000001   0.000060   0.000004  -0.000003   0.000000
    20  H   -0.000008   0.000001   0.000005   0.000004   0.000000   0.000000
    21  H    0.000004   0.000000   0.000005   0.000000   0.000000   0.000000
    22  H    0.000004   0.000000  -0.000004   0.000001  -0.000002   0.000000
    23  H    0.000208  -0.000043   0.000057  -0.000701   0.009070  -0.000026
    24  H   -0.016685  -0.000273  -0.000252   0.000171   0.002840  -0.000260
    25  H    0.443281  -0.000234  -0.000158  -0.000094   0.000070   0.000001
    26  H   -0.000234   0.475122  -0.013632   0.001406   0.000228   0.000119
    27  H   -0.000158  -0.013632   0.433313   0.000008  -0.000118   0.000002
    28  H   -0.000094   0.001406   0.000008   0.562023  -0.036485   0.001094
    29  H    0.000070   0.000228  -0.000118  -0.036485   0.613974  -0.008396
    30  H    0.000001   0.000119   0.000002   0.001094  -0.008396   0.580803
    31  H    0.000132  -0.000208  -0.000004   0.004036   0.000770  -0.028720
    32  H   -0.000001   0.000028   0.000001   0.000006  -0.000011   0.000162
    33  H    0.000000   0.000015   0.000000   0.000000   0.000000   0.000004
    34  H    0.000000   0.000000   0.000000   0.000000   0.000000   0.000000
    35  H    0.000000  -0.000001   0.000000   0.000013   0.000000  -0.000002
    36  H    0.000000   0.000052   0.000000   0.004390  -0.000237   0.002165
              31         32         33         34         35         36
     1  C    0.000000   0.000000   0.000000   0.000000   0.000000   0.000000
     2  S    0.000005   0.000000   0.000000   0.000000   0.000000   0.000000
     3  N    0.000122   0.000001   0.000000   0.000000   0.000000  -0.000004
     4  C   -0.006372   0.000008   0.000000   0.000000   0.000000   0.000173
     5  C   -0.000133   0.000132   0.000000   0.000000   0.000000   0.000000
     6  S    0.004068  -0.000147   0.000004   0.000000   0.000000  -0.000002
     7  C   -0.000987  -0.000108  -0.000006   0.000000   0.000000  -0.000025
     8  O    0.000047   0.000006   0.000000   0.000000   0.000000   0.000000
     9  O    0.013113   0.013300  -0.000001   0.000000   0.000000   0.000000
    10  C   -0.040479   0.000304   0.000001   0.000000   0.000001   0.000790
    11  C    0.360270  -0.011765  -0.000184   0.000007  -0.000192  -0.009517
    12  C   -0.030175  -0.037099   0.003646   0.000672   0.003786  -0.049144
    13  C   -0.004088   0.351348  -0.038247   0.004663   0.000773   0.006236
    14  C    0.000207  -0.042605   0.358248  -0.042970   0.004671   0.000317
    15  C   -0.000006   0.004327  -0.043784   0.359583  -0.042942   0.004907
    16  C   -0.000146   0.000305   0.004566  -0.043447   0.357101  -0.044576
    17  C    0.004240   0.005994   0.000877   0.004843  -0.041122   0.352634
    18  O    0.000000   0.000000   0.000000   0.000000   0.000000   0.000000
    19  O    0.000000   0.000000   0.000000   0.000000   0.000000   0.000000
    20  H    0.000000   0.000000   0.000000   0.000000   0.000000   0.000000
    21  H    0.000000   0.000000   0.000000   0.000000   0.000000   0.000000
    22  H    0.000000   0.000000   0.000000   0.000000   0.000000   0.000000
    23  H    0.000018   0.000000   0.000000   0.000000   0.000000  -0.000001
    24  H    0.002357   0.000005   0.000000   0.000000   0.000000   0.000001
    25  H    0.000132  -0.000001   0.000000   0.000000   0.000000   0.000000
    26  H   -0.000208   0.000028   0.000015   0.000000  -0.000001   0.000052
    27  H   -0.000004   0.000001   0.000000   0.000000   0.000000   0.000000
    28  H    0.004036   0.000006   0.000000   0.000000   0.000013   0.004390
    29  H    0.000770  -0.000011   0.000000   0.000000   0.000000  -0.000237
    30  H   -0.028720   0.000162   0.000004   0.000000  -0.000002   0.002165
    31  H    0.530341   0.004999  -0.000007   0.000000   0.000003   0.000032
    32  H    0.004999   0.535127  -0.004719  -0.000154   0.000015  -0.000164
    33  H   -0.000007  -0.004719   0.588398  -0.005546  -0.000189   0.000018
    34  H    0.000000  -0.000154  -0.005546   0.597294  -0.005567  -0.000184
    35  H    0.000003   0.000015  -0.000189  -0.005567   0.600796  -0.005808
    36  H    0.000032  -0.000164   0.000018  -0.000184  -0.005808   0.619871
 Mulliken charges:
               1
     1  C   -0.634267
     2  S    1.178975
     3  N   -0.707452
     4  C    0.190437
     5  C   -0.528577
     6  S    1.132384
     7  C   -0.517138
     8  O   -0.496882
     9  O   -0.543504
    10  C   -0.302319
    11  C   -0.383529
    12  C    0.149821
    13  C   -0.207108
    14  C   -0.129969
    15  C   -0.130052
    16  C   -0.129118
    17  C   -0.179655
    18  O   -0.522416
    19  O   -0.519474
    20  H    0.221523
    21  H    0.230473
    22  H    0.200734
    23  H    0.338026
    24  H    0.205063
    25  H    0.250861
    26  H    0.223917
    27  H    0.259268
    28  H    0.170998
    29  H    0.137016
    30  H    0.160231
    31  H    0.186567
    32  H    0.180709
    33  H    0.136906
    34  H    0.130807
    35  H    0.128667
    36  H    0.118076
 Sum of Mulliken charges =   0.00000
 Mulliken charges with hydrogens summed into heavy atoms:
               1
     1  C    0.018462
     2  S    1.178975
     3  N   -0.369426
     4  C    0.190437
     5  C   -0.072653
     6  S    1.132384
     7  C   -0.033953
     8  O   -0.496882
     9  O   -0.543504
    10  C    0.005696
    11  C   -0.036731
    12  C    0.149821
    13  C   -0.026399
    14  C    0.006937
    15  C    0.000755
    16  C   -0.000452
    17  C   -0.061579
    18  O   -0.522416
    19  O   -0.519474
 Electronic spatial extent (au):  <R**2>=           6574.1547
 Charge=              0.0000 electrons
 Dipole moment (field-independent basis, Debye):
    X=              0.4063    Y=             -8.0914    Z=              2.4462  Tot=              8.4628
 Quadrupole moment (field-independent basis, Debye-Ang):
   XX=           -127.5809   YY=           -129.1082   ZZ=           -122.8054
   XY=             14.4947   XZ=             -5.9949   YZ=              2.6980
 Traceless Quadrupole moment (field-independent basis, Debye-Ang):
   XX=             -1.0827   YY=             -2.6100   ZZ=              3.6927
   XY=             14.4947   XZ=             -5.9949   YZ=              2.6980
 Octapole moment (field-independent basis, Debye-Ang**2):
  XXX=            -27.6459  YYY=            -61.8721  ZZZ=              8.6567  XYY=            -32.9189
  XXY=            -61.7269  XXZ=            -40.5226  XZZ=             -5.1107  YZZ=              0.7397
  YYZ=              6.9109  XYZ=            -13.7165
 Hexadecapole moment (field-independent basis, Debye-Ang**3):
 XXXX=          -5998.1856 YYYY=          -1880.1253 ZZZZ=           -744.4144 XXXY=            237.1729
 XXXZ=            -55.6505 YYYX=             77.3661 YYYZ=             23.6142 ZZZX=             -4.8675
 ZZZY=             -2.9445 XXYY=          -1153.3166 XXZZ=          -1127.2896 YYZZ=           -411.2268
 XXYZ=             49.8216 YYXZ=            -21.1722 ZZXY=             25.2560
 N-N= 1.879517686588D+03 E-N=-7.565699155809D+03  KE= 1.608857785103D+03
 No NMR shielding tensors so no spin-rotation constants.
 Leave Link  601 at Sat Aug  8 00:16:37 2020, MaxMem=    33554432 cpu:         0.3
 (Enter /prod/apps/gaussian/g09d1/l9999.exe)
 1\1\GINC-PIRINEUS12\SP\RB3LYP\6-31G(d)\C12H17N1O4S2\UBAFAR01\08-Aug-20
 20\0\\#p b3lyp/6-31G(d)\\SM38.n.5.pdb.xyz\\0,1\C,0,5.96,0.351,-0.028\S
 ,0,4.956,-1.02,0.544\N,0,3.951,-1.226,-0.812\C,0,3.067,-2.406,-0.94\C,
 0,2.23,-2.776,0.337\S,0,2.884,-4.48,0.29\C,0,3.877,-3.737,-1.053\O,0,3
 .667,-4.856,1.475\O,0,1.873,-5.427,-0.224\C,0,2.171,-2.09,-2.152\C,0,1
 .232,-3.216,-2.637\C,0,1.813,-4.124,-3.705\C,0,1.882,-5.509,-3.51\C,0,
 2.382,-6.347,-4.51\C,0,2.82,-5.811,-5.721\C,0,2.756,-4.431,-5.926\C,0,
 2.256,-3.597,-4.927\O,0,5.786,-2.226,0.659\O,0,4.193,-0.577,1.723\H,0,
 6.489,0.048,-0.93\H,0,6.66,0.571,0.778\H,0,5.323,1.214,-0.213\H,0,3.40
 9,-0.367,-0.926\H,0,1.149,-2.748,0.21\H,0,2.535,-2.25,1.242\H,0,3.789,
 -4.271,-1.999\H,0,4.91,-3.628,-0.733\H,0,2.819,-1.773,-2.974\H,0,1.565
 ,-1.22,-1.873\H,0,0.336,-2.733,-3.043\H,0,0.895,-3.823,-1.791\H,0,1.55
 9,-5.92,-2.56\H,0,2.431,-7.417,-4.34\H,0,3.208,-6.461,-6.499\H,0,3.091
 ,-4.005,-6.866\H,0,2.204,-2.525,-5.1\\Version=AM64L-G09RevD.01\State=1
 -A\HF=-1619.3802792\RMSD=9.762e-09\Dipole=-0.0002208,2.585298,-2.09808
 19\Quadrupole=2.2773072,8.6131534,-10.8904605,2.3549941,-4.3610353,4.7
 375805\PG=C01 [X(C12H17N1O4S2)]\\@


 YE HAVE SOWN MUCH, AND BRING IN LITTLE.
 YE EAT, BUT YE HAVE NOT ENOUGH.
 YE DRINK, BUT YE ARE NOT FILLED WITH DRINK.
 YE CLOTHE YOU, BUT THERE IS NONE WARM.
 AND HE THAT EARNETH WAGES EARNETH WAGES TO PUT
 IT INTO A BAG WITH HOLES.
                                     HAGGAI I,6
 Job cpu time:       0 days  0 hours  5 minutes 13.2 seconds.
 File lengths (MBytes):  RWF=     60 Int=      0 D2E=      0 Chk=      5 Scr=      1
 Normal termination of Gaussian 09 at Sat Aug  8 00:16:37 2020.
 Initial command:
 /prod/apps/gaussian/g09d1/l1.exe "/tmp/ubafar01/1449019/Gau-151520.inp" -scrdir="/tmp/ubafar01/1449019/"
 Entering Link 1 = /prod/apps/gaussian/g09d1/l1.exe PID=    151840.
  
 Copyright (c) 1988,1990,1992,1993,1995,1998,2003,2009,2013,
            Gaussian, Inc.  All Rights Reserved.
  
 This is part of the Gaussian(R) 09 program.  It is based on
 the Gaussian(R) 03 system (copyright 2003, Gaussian, Inc.),
 the Gaussian(R) 98 system (copyright 1998, Gaussian, Inc.),
 the Gaussian(R) 94 system (copyright 1995, Gaussian, Inc.),
 the Gaussian 92(TM) system (copyright 1992, Gaussian, Inc.),
 the Gaussian 90(TM) system (copyright 1990, Gaussian, Inc.),
 the Gaussian 88(TM) system (copyright 1988, Gaussian, Inc.),
 the Gaussian 86(TM) system (copyright 1986, Carnegie Mellon
 University), and the Gaussian 82(TM) system (copyright 1983,
 Carnegie Mellon University). Gaussian is a federally registered
 trademark of Gaussian, Inc.
  
 This software contains proprietary and confidential information,
 including trade secrets, belonging to Gaussian, Inc.
  
 This software is provided under written license and may be
 used, copied, transmitted, or stored only in accord with that
 written license.
  
 The following legend is applicable only to US Government
 contracts under FAR:
  
                    RESTRICTED RIGHTS LEGEND
  
 Use, reproduction and disclosure by the US Government is
 subject to restrictions as set forth in subparagraphs (a)
 and (c) of the Commercial Computer Software - Restricted
 Rights clause in FAR 52.227-19.
  
 Gaussian, Inc.
 340 Quinnipiac St., Bldg. 40, Wallingford CT 06492
  
  
 ---------------------------------------------------------------
 Warning -- This program may not be used in any manner that
 competes with the business of Gaussian, Inc. or will provide
 assistance to any competitor of Gaussian, Inc.  The licensee
 of this program is prohibited from giving any competitor of
 Gaussian, Inc. access to this program.  By using this program,
 the user acknowledges that Gaussian, Inc. is engaged in the
 business of creating and licensing software in the field of
 computational chemistry and represents and warrants to the
 licensee that it is not a competitor of Gaussian, Inc. and that
 it will not use this program in any manner prohibited above.
 ---------------------------------------------------------------
  

 Cite this work as:
 Gaussian 09, Revision D.01,
 M. J. Frisch, G. W. Trucks, H. B. Schlegel, G. E. Scuseria, 
 M. A. Robb, J. R. Cheeseman, G. Scalmani, V. Barone, B. Mennucci, 
 G. A. Petersson, H. Nakatsuji, M. Caricato, X. Li, H. P. Hratchian, 
 A. F. Izmaylov, J. Bloino, G. Zheng, J. L. Sonnenberg, M. Hada, 
 M. Ehara, K. Toyota, R. Fukuda, J. Hasegawa, M. Ishida, T. Nakajima, 
 Y. Honda, O. Kitao, H. Nakai, T. Vreven, J. A. Montgomery, Jr., 
 J. E. Peralta, F. Ogliaro, M. Bearpark, J. J. Heyd, E. Brothers, 
 K. N. Kudin, V. N. Staroverov, T. Keith, R. Kobayashi, J. Normand, 
 K. Raghavachari, A. Rendell, J. C. Burant, S. S. Iyengar, J. Tomasi, 
 M. Cossi, N. Rega, J. M. Millam, M. Klene, J. E. Knox, J. B. Cross, 
 V. Bakken, C. Adamo, J. Jaramillo, R. Gomperts, R. E. Stratmann, 
 O. Yazyev, A. J. Austin, R. Cammi, C. Pomelli, J. W. Ochterski, 
 R. L. Martin, K. Morokuma, V. G. Zakrzewski, G. A. Voth, 
 P. Salvador, J. J. Dannenberg, S. Dapprich, A. D. Daniels, 
 O. Farkas, J. B. Foresman, J. V. Ortiz, J. Cioslowski, 
 and D. J. Fox, Gaussian, Inc., Wallingford CT, 2013.
 
 ******************************************
 Gaussian 09:  AM64L-G09RevD.01 24-Apr-2013
                 8-Aug-2020 
 ******************************************
 %nproc=1
 Will use up to    1 processors via shared memory.
 %Chk=SM38.n.5.pdb.xyz.mst.n.o.chk
 %subst l301 /dades/curu/work_g09D01_MST_AddSphPartition_ReadGammas/exe-dir/
 %subst l502 /dades/curu/work_g09D01_MST_AddSphPartition_ReadGammas/exe-dir/
 ----------------------------------------------------------------------
 #p b3lyp/6-31G(d) scrf=(iefpcm,read,solvent=n-Octanol) geom=allcheck g
 uess=read
 ----------------------------------------------------------------------
 1/29=7,38=1,40=2/1;
 2/12=2,40=1/2;
 3/5=1,6=6,7=1,11=2,14=-4,16=1,25=1,30=1,70=2203,72=25,74=-5,116=-2/1,2,3;
 4/5=1/1;
 5/5=2,38=6,53=25/2;
 6/7=2,8=2,9=2,10=2,28=1/1;
 99/5=1,9=1/99;
 Leave Link    1 at Sat Aug  8 00:16:37 2020, MaxMem=           0 cpu:         0.0
 (Enter /prod/apps/gaussian/g09d1/l101.exe)
 Structure from the checkpoint file:  "SM38.n.5.pdb.xyz.mst.n.o.chk"
 ----------------
 SM38.n.5.pdb.xyz
 ----------------
 Charge =  0 Multiplicity = 1
 Z-Matrix found in file.
 C,0,5.96,0.351,-0.028
 S,0,4.956,-1.02,0.544
 N,0,3.951,-1.226,-0.812
 C,0,3.067,-2.406,-0.94
 C,0,2.23,-2.776,0.337
 S,0,2.884,-4.48,0.29
 C,0,3.877,-3.737,-1.053
 O,0,3.667,-4.856,1.475
 O,0,1.873,-5.427,-0.224
 C,0,2.171,-2.09,-2.152
 C,0,1.232,-3.216,-2.637
 C,0,1.813,-4.124,-3.705
 C,0,1.882,-5.509,-3.51
 C,0,2.382,-6.347,-4.51
 C,0,2.82,-5.811,-5.721
 C,0,2.756,-4.431,-5.926
 C,0,2.256,-3.597,-4.927
 O,0,5.786,-2.226,0.659
 O,0,4.193,-0.577,1.723
 H,0,6.489,0.048,-0.93
 H,0,6.66,0.571,0.778
 H,0,5.323,1.214,-0.213
 H,0,3.409,-0.367,-0.926
 H,0,1.149,-2.748,0.21
 H,0,2.535,-2.25,1.242
 H,0,3.789,-4.271,-1.999
 H,0,4.91,-3.628,-0.733
 H,0,2.819,-1.773,-2.974
 H,0,1.565,-1.22,-1.873
 H,0,0.336,-2.733,-3.043
 H,0,0.895,-3.823,-1.791
 H,0,1.559,-5.92,-2.56
 H,0,2.431,-7.417,-4.34
 H,0,3.208,-6.461,-6.499
 H,0,3.091,-4.005,-6.866
 H,0,2.204,-2.525,-5.1
 Recover connectivity data from disk.
 NAtoms=     36 NQM=       36 NQMF=       0 NMMI=      0 NMMIF=      0
                NMic=       0 NMicF=      0.
                    Isotopes and Nuclear Properties:
 (Nuclear quadrupole moments (NQMom) in fm**2, nuclear magnetic moments (NMagM)
  in nuclear magnetons)

  Atom         1           2           3           4           5           6           7           8           9          10
 IAtWgt=          12          32          14          12          12          32          12          16          16          12
 AtmWgt=  12.0000000  31.9720718  14.0030740  12.0000000  12.0000000  31.9720718  12.0000000  15.9949146  15.9949146  12.0000000
 NucSpn=           0           0           2           0           0           0           0           0           0           0
 AtZEff=  -3.6000000 -13.6000000  -4.5500000  -3.6000000  -3.6000000 -13.6000000  -3.6000000  -5.6000000  -5.6000000  -3.6000000
 NQMom=    0.0000000   0.0000000   2.0440000   0.0000000   0.0000000   0.0000000   0.0000000   0.0000000   0.0000000   0.0000000
 NMagM=    0.0000000   0.0000000   0.4037610   0.0000000   0.0000000   0.0000000   0.0000000   0.0000000   0.0000000   0.0000000
 AtZNuc=   6.0000000  16.0000000   7.0000000   6.0000000   6.0000000  16.0000000   6.0000000   8.0000000   8.0000000   6.0000000

  Atom        11          12          13          14          15          16          17          18          19          20
 IAtWgt=          12          12          12          12          12          12          12          16          16           1
 AtmWgt=  12.0000000  12.0000000  12.0000000  12.0000000  12.0000000  12.0000000  12.0000000  15.9949146  15.9949146   1.0078250
 NucSpn=           0           0           0           0           0           0           0           0           0           1
 AtZEff=  -3.6000000  -3.6000000  -3.6000000  -3.6000000  -3.6000000  -3.6000000  -3.6000000  -5.6000000  -5.6000000  -1.0000000
 NQMom=    0.0000000   0.0000000   0.0000000   0.0000000   0.0000000   0.0000000   0.0000000   0.0000000   0.0000000   0.0000000
 NMagM=    0.0000000   0.0000000   0.0000000   0.0000000   0.0000000   0.0000000   0.0000000   0.0000000   0.0000000   2.7928460
 AtZNuc=   6.0000000   6.0000000   6.0000000   6.0000000   6.0000000   6.0000000   6.0000000   8.0000000   8.0000000   1.0000000

  Atom        21          22          23          24          25          26          27          28          29          30
 IAtWgt=           1           1           1           1           1           1           1           1           1           1
 AtmWgt=   1.0078250   1.0078250   1.0078250   1.0078250   1.0078250   1.0078250   1.0078250   1.0078250   1.0078250   1.0078250
 NucSpn=           1           1           1           1           1           1           1           1           1           1
 AtZEff=  -1.0000000  -1.0000000  -1.0000000  -1.0000000  -1.0000000  -1.0000000  -1.0000000  -1.0000000  -1.0000000  -1.0000000
 NQMom=    0.0000000   0.0000000   0.0000000   0.0000000   0.0000000   0.0000000   0.0000000   0.0000000   0.0000000   0.0000000
 NMagM=    2.7928460   2.7928460   2.7928460   2.7928460   2.7928460   2.7928460   2.7928460   2.7928460   2.7928460   2.7928460
 AtZNuc=   1.0000000   1.0000000   1.0000000   1.0000000   1.0000000   1.0000000   1.0000000   1.0000000   1.0000000   1.0000000

  Atom        31          32          33          34          35          36
 IAtWgt=           1           1           1           1           1           1
 AtmWgt=   1.0078250   1.0078250   1.0078250   1.0078250   1.0078250   1.0078250
 NucSpn=           1           1           1           1           1           1
 AtZEff=  -1.0000000  -1.0000000  -1.0000000  -1.0000000  -1.0000000  -1.0000000
 NQMom=    0.0000000   0.0000000   0.0000000   0.0000000   0.0000000   0.0000000
 NMagM=    2.7928460   2.7928460   2.7928460   2.7928460   2.7928460   2.7928460
 AtZNuc=   1.0000000   1.0000000   1.0000000   1.0000000   1.0000000   1.0000000
 Leave Link  101 at Sat Aug  8 00:16:37 2020, MaxMem=    33554432 cpu:         0.0
 (Enter /prod/apps/gaussian/g09d1/l202.exe)
                          Input orientation:                          
 ---------------------------------------------------------------------
 Center     Atomic      Atomic             Coordinates (Angstroms)
 Number     Number       Type             X           Y           Z
 ---------------------------------------------------------------------
      1          6           0        5.960000    0.351000   -0.028000
      2         16           0        4.956000   -1.020000    0.544000
      3          7           0        3.951000   -1.226000   -0.812000
      4          6           0        3.067000   -2.406000   -0.940000
      5          6           0        2.230000   -2.776000    0.337000
      6         16           0        2.884000   -4.480000    0.290000
      7          6           0        3.877000   -3.737000   -1.053000
      8          8           0        3.667000   -4.856000    1.475000
      9          8           0        1.873000   -5.427000   -0.224000
     10          6           0        2.171000   -2.090000   -2.152000
     11          6           0        1.232000   -3.216000   -2.637000
[...]
    24  H    0.000002   0.000227   0.002463  -0.025938   0.338279  -0.010597
    25  H    0.000140   0.003291  -0.009243  -0.022245   0.330423  -0.006928
    26  H    0.000004   0.000314   0.001418  -0.025780   0.008184  -0.011035
    27  H   -0.000076   0.000326  -0.006556  -0.020596   0.005638  -0.007400
    28  H   -0.000010   0.000151   0.001689  -0.034796   0.005784  -0.000263
    29  H    0.000003  -0.000190  -0.004834  -0.037087  -0.008985  -0.000217
    30  H    0.000000   0.000001  -0.000113   0.004224  -0.000007   0.000086
    31  H    0.000000   0.000006   0.000115  -0.006859   0.000130   0.003608
    32  H    0.000000   0.000000   0.000001   0.000006   0.000123   0.000040
    33  H    0.000000   0.000000   0.000000   0.000000   0.000000   0.000004
    34  H    0.000000   0.000000   0.000000   0.000000   0.000000   0.000000
    35  H    0.000000   0.000000   0.000000   0.000000   0.000000   0.000000
    36  H    0.000000   0.000000  -0.000003   0.000154   0.000000  -0.000002
               7          8          9         10         11         12
     1  C   -0.000286   0.000000   0.000000  -0.000179   0.000001   0.000000
     2  S   -0.006805   0.001296   0.000004   0.000272   0.000006  -0.000003
     3  N   -0.048512  -0.000154  -0.000039  -0.055542   0.003366  -0.000042
     4  C    0.345750   0.001433   0.000850   0.379182  -0.029170  -0.002440
     5  C   -0.209094  -0.044179  -0.043498  -0.051025  -0.002980   0.000106
     6  S    0.164626   0.432784   0.381680   0.003185  -0.001134  -0.000943
     7  C    5.737698  -0.044225  -0.042798  -0.038354  -0.004586  -0.002916
     8  O   -0.044225   8.224592  -0.043690  -0.000061  -0.000014   0.000001
     9  O   -0.042798  -0.043690   8.290069  -0.000523  -0.004813  -0.001272
    10  C   -0.038354  -0.000061  -0.000523   5.142067   0.325736  -0.032479
    11  C   -0.004586  -0.000014  -0.004813   0.325736   5.218863   0.349295
    12  C   -0.002916   0.000001  -0.001272  -0.032479   0.349295   4.661478
    13  C   -0.004915  -0.000004  -0.004511   0.000965  -0.049535   0.548206
    14  C   -0.000220   0.000000   0.000103  -0.000200   0.007404  -0.022549
    15  C    0.000031   0.000000  -0.000001   0.000007   0.000336  -0.034843
    16  C    0.000062   0.000000   0.000000   0.000172   0.006117  -0.018223
    17  C   -0.000145   0.000000  -0.000009  -0.006372  -0.068927   0.539735
    18  O   -0.012388  -0.000475   0.000000   0.000064   0.000001   0.000000
    19  O   -0.000396  -0.000005   0.000000  -0.000114   0.000001   0.000000
    20  H    0.000001   0.000000   0.000000   0.000004   0.000000   0.000000
    21  H   -0.000001   0.000000   0.000000   0.000001   0.000000   0.000000
    22  H    0.000006   0.000000   0.000000  -0.000012   0.000000   0.000000
    23  H    0.005446   0.000004   0.000001  -0.004577   0.000080   0.000003
    24  H    0.009323   0.000807  -0.001398  -0.007405   0.000985   0.000221
    25  H    0.004966   0.000060   0.000925   0.002058   0.000131  -0.000009
    26  H    0.331893   0.000803  -0.001276  -0.007689  -0.002445   0.010580
    27  H    0.328510  -0.000296   0.000987   0.002323   0.000133  -0.000003
    28  H   -0.005615   0.000001   0.000003   0.367279  -0.038619  -0.005748
    29  H    0.005719   0.000001   0.000003   0.359895  -0.026399   0.003307
    30  H   -0.000066   0.000000   0.000133  -0.033089   0.360590  -0.029764
    31  H   -0.000971   0.000044   0.011746  -0.040374   0.360322  -0.031809
    32  H   -0.000162   0.000006   0.012887   0.000313  -0.012006  -0.038127
    33  H   -0.000006   0.000000  -0.000001   0.000001  -0.000178   0.003674
    34  H    0.000000   0.000000   0.000000   0.000000   0.000007   0.000644
    35  H    0.000000   0.000000   0.000000   0.000001  -0.000185   0.003683
    36  H   -0.000024   0.000000   0.000000   0.000827  -0.008931  -0.047144
              13         14         15         16         17         18
     1  C    0.000000   0.000000   0.000000   0.000000   0.000000  -0.057416
     2  S    0.000000   0.000000   0.000000   0.000000  -0.000001   0.429833
     3  N   -0.000008   0.000000   0.000000   0.000000  -0.000015  -0.050058
     4  C    0.000508  -0.000001   0.000002  -0.000015  -0.000263   0.000025
     5  C   -0.000153  -0.000002   0.000000   0.000000  -0.000011  -0.002176
     6  S    0.000764   0.000057  -0.000002  -0.000001  -0.000015   0.004696
     7  C   -0.004915  -0.000220   0.000031   0.000062  -0.000145  -0.012388
     8  O   -0.000004   0.000000   0.000000   0.000000   0.000000  -0.000475
     9  O   -0.004511   0.000103  -0.000001   0.000000  -0.000009   0.000000
    10  C    0.000965  -0.000200   0.000007   0.000172  -0.006372   0.000064
    11  C   -0.049535   0.007404   0.000336   0.006117  -0.068927   0.000001
    12  C    0.548206  -0.022549  -0.034843  -0.018223   0.539735   0.000000
    13  C    5.005060   0.508323  -0.035681  -0.046486  -0.042948   0.000000
    14  C    0.508323   4.896191   0.547474  -0.026794  -0.048371   0.000000
    15  C   -0.035681   0.547474   4.869007   0.545661  -0.036559   0.000000
    16  C   -0.046486  -0.026794   0.545661   4.872679   0.528162   0.000000
    17  C   -0.042948  -0.048371  -0.036559   0.528162   4.989327   0.000000
    18  O    0.000000   0.000000   0.000000   0.000000   0.000000   8.261229
    19  O    0.000000   0.000000   0.000000   0.000000   0.000000  -0.046965
    20  H    0.000000   0.000000   0.000000   0.000000   0.000000  -0.000347
    21  H    0.000000   0.000000   0.000000   0.000000   0.000000  -0.000534
    22  H    0.000000   0.000000   0.000000   0.000000   0.000000   0.001586
    23  H    0.000000   0.000000   0.000000   0.000000   0.000001   0.001525
    24  H   -0.000012   0.000000   0.000000   0.000000   0.000003   0.000000
    25  H    0.000001   0.000000   0.000000   0.000000   0.000000  -0.000994
    26  H    0.008558   0.000263  -0.000086  -0.000271   0.000756   0.000311
    27  H    0.000082   0.000002  -0.000001   0.000000  -0.000005   0.018185
    28  H    0.000404  -0.000016  -0.000005  -0.000164   0.004583  -0.000010
    29  H   -0.000123   0.000003   0.000000   0.000004   0.000352   0.000001
    30  H    0.001563  -0.000218   0.000034  -0.000054  -0.005044   0.000000
    31  H   -0.004467   0.000221  -0.000006  -0.000151   0.004376   0.000000
    32  H    0.351395  -0.044768   0.004491   0.000255   0.006219   0.000000
    33  H   -0.039024   0.359293  -0.043020   0.004566   0.000813   0.000000
    34  H    0.004593  -0.042667   0.361367  -0.042669   0.004763   0.000000
    35  H    0.000763   0.004605  -0.042515   0.359213  -0.039966   0.000000
    36  H    0.006029   0.000319   0.004742  -0.043105   0.355880   0.000000
              19         20         21         22         23         24
     1  C   -0.057994   0.343739   0.359810   0.340024  -0.000572   0.000002
     2  S    0.408814  -0.006766  -0.016273  -0.002031  -0.004086   0.000227
     3  N   -0.053589   0.001466   0.002454  -0.000125   0.287519   0.002463
     4  C   -0.003187  -0.000125  -0.000041  -0.000042  -0.030319  -0.025938
     5  C   -0.004690   0.000006   0.000005   0.000004  -0.000789   0.338279
     6  S   -0.000723   0.000003   0.000000  -0.000001  -0.000259  -0.010597
     7  C   -0.000396   0.000001  -0.000001   0.000006   0.005446   0.009323
     8  O   -0.000005   0.000000   0.000000   0.000000   0.000004   0.000807
     9  O    0.000000   0.000000   0.000000   0.000000   0.000001  -0.001398
    10  C   -0.000114   0.000004   0.000001  -0.000012  -0.004577  -0.007405
    11  C    0.000001   0.000000   0.000000   0.000000   0.000080   0.000985
    12  C    0.000000   0.000000   0.000000   0.000000   0.000003   0.000221
    13  C    0.000000   0.000000   0.000000   0.000000   0.000000  -0.000012
    14  C    0.000000   0.000000   0.000000   0.000000   0.000000   0.000000
    15  C    0.000000   0.000000   0.000000   0.000000   0.000000   0.000000
    16  C    0.000000   0.000000   0.000000   0.000000   0.000000   0.000000
    17  C    0.000000   0.000000   0.000000   0.000000   0.000001   0.000003
    18  O   -0.046965  -0.000347  -0.000534   0.001586   0.001525   0.000000
    19  O    8.277060   0.001744   0.000292  -0.000732  -0.000403   0.000072
    20  H    0.001744   0.467834  -0.016642  -0.021723  -0.000034   0.000000
    21  H    0.000292  -0.016642   0.454036  -0.018191  -0.000044   0.000000
    22  H   -0.000732  -0.021723  -0.018191   0.478358   0.000656   0.000000
    23  H   -0.000403  -0.000034  -0.000044   0.000656   0.366822   0.000228
    24  H    0.000072   0.000000   0.000000   0.000000   0.000228   0.480920
    25  H    0.018940  -0.000008   0.000004   0.000003   0.000204  -0.015132
    26  H   -0.000001   0.000001   0.000000   0.000000  -0.000037  -0.000265
    27  H    0.000065   0.000000   0.000005  -0.000004   0.000060  -0.000241
    28  H    0.000004   0.000004   0.000000   0.000001  -0.000641   0.000156
    29  H   -0.000003   0.000000   0.000000  -0.000002   0.007695   0.002605
    30  H    0.000000   0.000000   0.000000   0.000000  -0.000024  -0.000249
    31  H    0.000000   0.000000   0.000000   0.000000   0.000016   0.002519
    32  H    0.000000   0.000000   0.000000   0.000000   0.000000   0.000004
    33  H    0.000000   0.000000   0.000000   0.000000   0.000000   0.000000
    34  H    0.000000   0.000000   0.000000   0.000000   0.000000   0.000000
    35  H    0.000000   0.000000   0.000000   0.000000   0.000000   0.000000
    36  H    0.000000   0.000000   0.000000   0.000000  -0.000001   0.000001
              25         26         27         28         29         30
     1  C    0.000140   0.000004  -0.000076  -0.000010   0.000003   0.000000
     2  S    0.003291   0.000314   0.000326   0.000151  -0.000190   0.000001
     3  N   -0.009243   0.001418  -0.006556   0.001689  -0.004834  -0.000113
     4  C   -0.022245  -0.025780  -0.020596  -0.034796  -0.037087   0.004224
     5  C    0.330423   0.008184   0.005638   0.005784  -0.008985  -0.000007
     6  S   -0.006928  -0.011035  -0.007400  -0.000263  -0.000217   0.000086
     7  C    0.004966   0.331893   0.328510  -0.005615   0.005719  -0.000066
     8  O    0.000060   0.000803  -0.000296   0.000001   0.000001   0.000000
     9  O    0.000925  -0.001276   0.000987   0.000003   0.000003   0.000133
    10  C    0.002058  -0.007689   0.002323   0.367279   0.359895  -0.033089
    11  C    0.000131  -0.002445   0.000133  -0.038619  -0.026399   0.360590
    12  C   -0.000009   0.010580  -0.000003  -0.005748   0.003307  -0.029764
    13  C    0.000001   0.008558   0.000082   0.000404  -0.000123   0.001563
    14  C    0.000000   0.000263   0.000002  -0.000016   0.000003  -0.000218
    15  C    0.000000  -0.000086  -0.000001  -0.000005   0.000000   0.000034
    16  C    0.000000  -0.000271   0.000000  -0.000164   0.000004  -0.000054
    17  C    0.000000   0.000756  -0.000005   0.004583   0.000352  -0.005044
    18  O   -0.000994   0.000311   0.018185  -0.000010   0.000001   0.000000
    19  O    0.018940  -0.000001   0.000065   0.000004  -0.000003   0.000000
    20  H   -0.000008   0.000001   0.000000   0.000004   0.000000   0.000000
    21  H    0.000004   0.000000   0.000005   0.000000   0.000000   0.000000
    22  H    0.000003   0.000000  -0.000004   0.000001  -0.000002   0.000000
    23  H    0.000204  -0.000037   0.000060  -0.000641   0.007695  -0.000024
    24  H   -0.015132  -0.000265  -0.000241   0.000156   0.002605  -0.000249
    25  H    0.448523  -0.000232  -0.000182  -0.000091   0.000058   0.000001
    26  H   -0.000232   0.469197  -0.012924   0.001401   0.000211   0.000112
    27  H   -0.000182  -0.012924   0.436528   0.000002  -0.000111   0.000002
    28  H   -0.000091   0.001401   0.000002   0.550127  -0.033375   0.000987
    29  H    0.000058   0.000211  -0.000111  -0.033375   0.577957  -0.008103
    30  H    0.000001   0.000112   0.000002   0.000987  -0.008103   0.564586
    31  H    0.000124  -0.000175  -0.000007   0.004091   0.000770  -0.028722
    32  H   -0.000001   0.000019   0.000001   0.000006  -0.000010   0.000152
    33  H    0.000000   0.000015   0.000000   0.000000   0.000000   0.000004
    34  H    0.000000   0.000000   0.000000   0.000000   0.000000   0.000000
    35  H    0.000000  -0.000001   0.000000   0.000013   0.000000  -0.000002
    36  H    0.000000   0.000049   0.000000   0.004102  -0.000217   0.002019
              31         32         33         34         35         36
     1  C    0.000000   0.000000   0.000000   0.000000   0.000000   0.000000
     2  S    0.000006   0.000000   0.000000   0.000000   0.000000   0.000000
     3  N    0.000115   0.000001   0.000000   0.000000   0.000000  -0.000003
     4  C   -0.006859   0.000006   0.000000   0.000000   0.000000   0.000154
     5  C    0.000130   0.000123   0.000000   0.000000   0.000000   0.000000
     6  S    0.003608   0.000040   0.000004   0.000000   0.000000  -0.000002
     7  C   -0.000971  -0.000162  -0.000006   0.000000   0.000000  -0.000024
     8  O    0.000044   0.000006   0.000000   0.000000   0.000000   0.000000
     9  O    0.011746   0.012887  -0.000001   0.000000   0.000000   0.000000
    10  C   -0.040374   0.000313   0.000001   0.000000   0.000001   0.000827
    11  C    0.360322  -0.012006  -0.000178   0.000007  -0.000185  -0.008931
    12  C   -0.031809  -0.038127   0.003674   0.000644   0.003683  -0.047144
    13  C   -0.004467   0.351395  -0.039024   0.004593   0.000763   0.006029
    14  C    0.000221  -0.044768   0.359293  -0.042667   0.004605   0.000319
    15  C   -0.000006   0.004491  -0.043020   0.361367  -0.042515   0.004742
    16  C   -0.000151   0.000255   0.004566  -0.042669   0.359213  -0.043105
    17  C    0.004376   0.006219   0.000813   0.004763  -0.039966   0.355880
    18  O    0.000000   0.000000   0.000000   0.000000   0.000000   0.000000
    19  O    0.000000   0.000000   0.000000   0.000000   0.000000   0.000000
    20  H    0.000000   0.000000   0.000000   0.000000   0.000000   0.000000
    21  H    0.000000   0.000000   0.000000   0.000000   0.000000   0.000000
    22  H    0.000000   0.000000   0.000000   0.000000   0.000000   0.000000
    23  H    0.000016   0.000000   0.000000   0.000000   0.000000  -0.000001
    24  H    0.002519   0.000004   0.000000   0.000000   0.000000   0.000001
    25  H    0.000124  -0.000001   0.000000   0.000000   0.000000   0.000000
    26  H   -0.000175   0.000019   0.000015   0.000000  -0.000001   0.000049
    27  H   -0.000007   0.000001   0.000000   0.000000   0.000000   0.000000
    28  H    0.004091   0.000006   0.000000   0.000000   0.000013   0.004102
    29  H    0.000770  -0.000010   0.000000   0.000000   0.000000  -0.000217
    30  H   -0.028722   0.000152   0.000004   0.000000  -0.000002   0.002019
    31  H    0.541779   0.005040  -0.000007   0.000000   0.000003   0.000035
    32  H    0.005040   0.550872  -0.004837  -0.000154   0.000015  -0.000163
    33  H   -0.000007  -0.004837   0.583318  -0.005423  -0.000183   0.000017
    34  H    0.000000  -0.000154  -0.005423   0.585530  -0.005363  -0.000176
    35  H    0.000003   0.000015  -0.000183  -0.005363   0.585524  -0.005474
    36  H    0.000035  -0.000163   0.000017  -0.000176  -0.005474   0.595855
 Mulliken charges:
               1
     1  C   -0.636070
     2  S    1.173817
     3  N   -0.711297
     4  C    0.186861
     5  C   -0.522194
     6  S    1.120711
     7  C   -0.511544
     8  O   -0.528727
     9  O   -0.555560
    10  C   -0.306357
    11  C   -0.383451
    12  C    0.147379
    13  C   -0.209345
    14  C   -0.138451
    15  C   -0.140432
    16  C   -0.138956
    17  C   -0.186320
    18  O   -0.546093
    19  O   -0.538190
    20  H    0.230843
    21  H    0.235118
    22  H    0.222226
    23  H    0.371525
    24  H    0.222423
    25  H    0.245216
    26  H    0.228131
    27  H    0.255551
    28  H    0.178567
    29  H    0.161072
    30  H    0.170958
    31  H    0.178603
    32  H    0.168384
    33  H    0.140974
    34  H    0.139549
    35  H    0.139870
    36  H    0.135208
 Sum of Mulliken charges =   0.00000
 Mulliken charges with hydrogens summed into heavy atoms:
               1
     1  C    0.052117
     2  S    1.173817
     3  N   -0.339772
     4  C    0.186861
     5  C   -0.054555
     6  S    1.120711
     7  C   -0.027862
     8  O   -0.528727
     9  O   -0.555560
    10  C    0.033282
    11  C   -0.033889
    12  C    0.147379
    13  C   -0.040961
    14  C    0.002523
    15  C   -0.000882
    16  C    0.000914
    17  C   -0.051112
    18  O   -0.546093
    19  O   -0.538190
 Electronic spatial extent (au):  <R**2>=           6573.9280
 Charge=              0.0000 electrons
 Dipole moment (field-independent basis, Debye):
    X=              0.3775    Y=             -9.8492    Z=              3.2637  Tot=             10.3828
 Quadrupole moment (field-independent basis, Debye-Ang):
   XX=           -128.5459   YY=           -128.7828   ZZ=           -121.8608
   XY=             16.1999   XZ=             -6.8548   YZ=              2.7193
 Traceless Quadrupole moment (field-independent basis, Debye-Ang):
   XX=             -2.1494   YY=             -2.3863   ZZ=              4.5357
   XY=             16.1999   XZ=             -6.8548   YZ=              2.7193
 Octapole moment (field-independent basis, Debye-Ang**2):
  XXX=            -27.9157  YYY=            -77.5618  ZZZ=             13.2061  XYY=            -35.4602
  XXY=            -74.4876  XXZ=            -39.4284  XZZ=             -4.0090  YZZ=             -1.9176
  YYZ=              9.2425  XYZ=            -14.5879
 Hexadecapole moment (field-independent basis, Debye-Ang**3):
 XXXX=          -6007.7162 YYYY=          -1880.6030 ZZZZ=           -735.5392 XXXY=            256.6131
 XXXZ=            -62.7283 YYYX=             93.2893 YYYZ=             26.9422 ZZZX=             -7.9866
 ZZZY=             -3.7849 XXYY=          -1129.4905 XXZZ=          -1125.4202 YYZZ=           -408.4152
 XXYZ=             52.1705 YYXZ=            -23.1872 ZZXY=             27.0059
 N-N= 1.879502653539D+03 E-N=-7.565979672278D+03  KE= 1.608873704161D+03
 No NMR shielding tensors so no spin-rotation constants.
 Leave Link  601 at Sat Aug  8 00:20:43 2020, MaxMem=    33554432 cpu:         0.3
 (Enter /prod/apps/gaussian/g09d1/l9999.exe)
 1\1\GINC-PIRINEUS12\SP\RB3LYP\6-31G(d)\C12H17N1O4S2\UBAFAR01\08-Aug-20
 20\0\\#p b3lyp/6-31G(d) scrf=(iefpcm,read,solvent=n-Octanol) geom=allc
 heck guess=read\\SM38.n.5.pdb.xyz\\0,1\C,0,5.96,0.351,-0.028\S,0,4.956
 ,-1.02,0.544\N,0,3.951,-1.226,-0.812\C,0,3.067,-2.406,-0.94\C,0,2.23,-
 2.776,0.337\S,0,2.884,-4.48,0.29\C,0,3.877,-3.737,-1.053\O,0,3.667,-4.
 856,1.475\O,0,1.873,-5.427,-0.224\C,0,2.171,-2.09,-2.152\C,0,1.232,-3.
 216,-2.637\C,0,1.813,-4.124,-3.705\C,0,1.882,-5.509,-3.51\C,0,2.382,-6
 .347,-4.51\C,0,2.82,-5.811,-5.721\C,0,2.756,-4.431,-5.926\C,0,2.256,-3
 .597,-4.927\O,0,5.786,-2.226,0.659\O,0,4.193,-0.577,1.723\H,0,6.489,0.
 048,-0.93\H,0,6.66,0.571,0.778\H,0,5.323,1.214,-0.213\H,0,3.409,-0.367
 ,-0.926\H,0,1.149,-2.748,0.21\H,0,2.535,-2.25,1.242\H,0,3.789,-4.271,-
 1.999\H,0,4.91,-3.628,-0.733\H,0,2.819,-1.773,-2.974\H,0,1.565,-1.22,-
 1.873\H,0,0.336,-2.733,-3.043\H,0,0.895,-3.823,-1.791\H,0,1.559,-5.92,
 -2.56\H,0,2.431,-7.417,-4.34\H,0,3.208,-6.461,-6.499\H,0,3.091,-4.005,
 -6.866\H,0,2.204,-2.525,-5.1\\Version=AM64L-G09RevD.01\State=1-A\HF=-1
 619.4112353\RMSD=5.893e-09\Dipole=-0.0832569,3.2231727,-2.5081067\Quad
 rupole=2.5376405,9.8703057,-12.4079462,2.3044202,-5.1048759,4.8353484\
 PG=C01 [X(C12H17N1O4S2)]\\@


 THE MOST BEAUTIFUL EXPERIENCE WE CAN HAVE IS THE MYSTERIOUS.
 IT IS THE FUNDAMENTAL EMOTION WHICH STANDS AT AT THE CRADLE 
 OF TRUE ART AND TRUE SCIENCE.

                                    -- ALBERT EINSTEIN
 Job cpu time:       0 days  0 hours  4 minutes  5.9 seconds.
 File lengths (MBytes):  RWF=    182 Int=      0 D2E=      0 Chk=      6 Scr=      1
 Normal termination of Gaussian 09 at Sat Aug  8 00:20:43 2020.
