 Entering Gaussian System, Link 0=g09
 Initial command:
 /prod/apps/gaussian/g09d1/l1.exe "/tmp/ubafar01/1448994/Gau-54202.inp" -scrdir="/tmp/ubafar01/1448994/"
 Entering Link 1 = /prod/apps/gaussian/g09d1/l1.exe PID=     54204.
  
 Copyright (c) 1988,1990,1992,1993,1995,1998,2003,2009,2013,
            Gaussian, Inc.  All Rights Reserved.
  
 This is part of the Gaussian(R) 09 program.  It is based on
 the Gaussian(R) 03 system (copyright 2003, Gaussian, Inc.),
 the Gaussian(R) 98 system (copyright 1998, Gaussian, Inc.),
 the Gaussian(R) 94 system (copyright 1995, Gaussian, Inc.),
 the Gaussian 92(TM) system (copyright 1992, Gaussian, Inc.),
 the Gaussian 90(TM) system (copyright 1990, Gaussian, Inc.),
 the Gaussian 88(TM) system (copyright 1988, Gaussian, Inc.),
 the Gaussian 86(TM) system (copyright 1986, Carnegie Mellon
 University), and the Gaussian 82(TM) system (copyright 1983,
 Carnegie Mellon University). Gaussian is a federally registered
 trademark of Gaussian, Inc.
  
 This software contains proprietary and confidential information,
 including trade secrets, belonging to Gaussian, Inc.
  
 This software is provided under written license and may be
 used, copied, transmitted, or stored only in accord with that
 written license.
  
 The following legend is applicable only to US Government
 contracts under FAR:
  
                    RESTRICTED RIGHTS LEGEND
  
 Use, reproduction and disclosure by the US Government is
 subject to restrictions as set forth in subparagraphs (a)
 and (c) of the Commercial Computer Software - Restricted
 Rights clause in FAR 52.227-19.
  
 Gaussian, Inc.
 340 Quinnipiac St., Bldg. 40, Wallingford CT 06492
  
  
 ---------------------------------------------------------------
 Warning -- This program may not be used in any manner that
 competes with the business of Gaussian, Inc. or will provide
 assistance to any competitor of Gaussian, Inc.  The licensee
 of this program is prohibited from giving any competitor of
 Gaussian, Inc. access to this program.  By using this program,
 the user acknowledges that Gaussian, Inc. is engaged in the
 business of creating and licensing software in the field of
 computational chemistry and represents and warrants to the
 licensee that it is not a competitor of Gaussian, Inc. and that
 it will not use this program in any manner prohibited above.
 ---------------------------------------------------------------
  

 Cite this work as:
 Gaussian 09, Revision D.01,
 M. J. Frisch, G. W. Trucks, H. B. Schlegel, G. E. Scuseria, 
 M. A. Robb, J. R. Cheeseman, G. Scalmani, V. Barone, B. Mennucci, 
 G. A. Petersson, H. Nakatsuji, M. Caricato, X. Li, H. P. Hratchian, 
 A. F. Izmaylov, J. Bloino, G. Zheng, J. L. Sonnenberg, M. Hada, 
 M. Ehara, K. Toyota, R. Fukuda, J. Hasegawa, M. Ishida, T. Nakajima, 
 Y. Honda, O. Kitao, H. Nakai, T. Vreven, J. A. Montgomery, Jr., 
 J. E. Peralta, F. Ogliaro, M. Bearpark, J. J. Heyd, E. Brothers, 
 K. N. Kudin, V. N. Staroverov, T. Keith, R. Kobayashi, J. Normand, 
 K. Raghavachari, A. Rendell, J. C. Burant, S. S. Iyengar, J. Tomasi, 
 M. Cossi, N. Rega, J. M. Millam, M. Klene, J. E. Knox, J. B. Cross, 
 V. Bakken, C. Adamo, J. Jaramillo, R. Gomperts, R. E. Stratmann, 
 O. Yazyev, A. J. Austin, R. Cammi, C. Pomelli, J. W. Ochterski, 
 R. L. Martin, K. Morokuma, V. G. Zakrzewski, G. A. Voth, 
 P. Salvador, J. J. Dannenberg, S. Dapprich, A. D. Daniels, 
 O. Farkas, J. B. Foresman, J. V. Ortiz, J. Cioslowski, 
 and D. J. Fox, Gaussian, Inc., Wallingford CT, 2013.
 
 ******************************************
 Gaussian 09:  AM64L-G09RevD.01 24-Apr-2013
                 7-Aug-2020 
 ******************************************
 %nproc=1
 Will use up to    1 processors via shared memory.
 %Chk=SM38.n.8.pdb.xyz.mst.n.w.chk
 -----------------
 #p b3lyp/6-31G(d)
 -----------------
 1/38=1/1;
 2/12=2,17=6,18=5,40=1/2;
 3/5=1,6=6,7=1,11=2,16=1,25=1,30=1,74=-5/1,2,3;
 4//1;
 5/5=2,38=5/2;
 6/7=2,8=2,9=2,10=2,28=1/1;
 99/5=1,9=1/99;
 Leave Link    1 at Fri Aug  7 23:34:09 2020, MaxMem=           0 cpu:         0.0
 (Enter /prod/apps/gaussian/g09d1/l101.exe)
 ----------------
 SM38.n.8.pdb.xyz
 ----------------
 Symbolic Z-matrix:
 Charge =  0 Multiplicity = 1
 C                     5.353     1.032    -0.986 
 S                     5.149    -0.569    -1.756 
 N                     4.017    -1.306    -0.737 
 C                     3.061    -2.268    -1.319 
 C                     2.6      -3.28     -0.218 
 S                     2.877    -4.668    -1.367 
 C                     3.691    -3.331    -2.297 
 O                     3.796    -5.7      -0.851 
 O                     1.621    -5.106    -2.009 
 C                     1.855    -1.574    -1.977 
 C                     0.977    -0.708    -1.052 
 C                     1.429     0.72     -0.829 
 C                     1.587     1.6      -1.909 
 C                     1.951     2.932    -1.704 
 C                     2.162     3.41     -0.408 
 C                     2.005     2.546     0.677 
 C                     1.641     1.214     0.465 
 O                     4.512    -0.417    -3.074 
 O                     6.441    -1.277    -1.686 
 H                     4.399     1.557    -1.009 
 H                     6.108     1.564    -1.567 
 H                     5.698     0.883     0.036 
 H                     4.519    -1.678     0.073 
 H                     1.57     -3.187     0.119 
 H                     3.273    -3.372     0.636 
 H                     3.392    -3.271    -3.343 
 H                     4.773    -3.424    -2.201 
 H                     1.234    -2.37     -2.399 
 H                     2.222    -0.982    -2.818 
 H                     0.854    -1.2      -0.08 
 H                    -0.023    -0.683    -1.5 
 H                     1.419     1.24     -2.92 
 H                     2.066     3.596    -2.555 
 H                     2.443     4.446    -0.246 
 H                     2.164     2.906     1.688 
 H                     1.518     0.545     1.311 
 
 NAtoms=     36 NQM=       36 NQMF=       0 NMMI=      0 NMMIF=      0
                NMic=       0 NMicF=      0.
                    Isotopes and Nuclear Properties:
 (Nuclear quadrupole moments (NQMom) in fm**2, nuclear magnetic moments (NMagM)
  in nuclear magnetons)

  Atom         1           2           3           4           5           6           7           8           9          10
 IAtWgt=          12          32          14          12          12          32          12          16          16          12
 AtmWgt=  12.0000000  31.9720718  14.0030740  12.0000000  12.0000000  31.9720718  12.0000000  15.9949146  15.9949146  12.0000000
 NucSpn=           0           0           2           0           0           0           0           0           0           0
 AtZEff=   0.0000000   0.0000000   0.0000000   0.0000000   0.0000000   0.0000000   0.0000000   0.0000000   0.0000000   0.0000000
 NQMom=    0.0000000   0.0000000   2.0440000   0.0000000   0.0000000   0.0000000   0.0000000   0.0000000   0.0000000   0.0000000
 NMagM=    0.0000000   0.0000000   0.4037610   0.0000000   0.0000000   0.0000000   0.0000000   0.0000000   0.0000000   0.0000000
 AtZNuc=   6.0000000  16.0000000   7.0000000   6.0000000   6.0000000  16.0000000   6.0000000   8.0000000   8.0000000   6.0000000

  Atom        11          12          13          14          15          16          17          18          19          20
 IAtWgt=          12          12          12          12          12          12          12          16          16           1
 AtmWgt=  12.0000000  12.0000000  12.0000000  12.0000000  12.0000000  12.0000000  12.0000000  15.9949146  15.9949146   1.0078250
 NucSpn=           0           0           0           0           0           0           0           0           0           1
 AtZEff=   0.0000000   0.0000000   0.0000000   0.0000000   0.0000000   0.0000000   0.0000000   0.0000000   0.0000000   0.0000000
 NQMom=    0.0000000   0.0000000   0.0000000   0.0000000   0.0000000   0.0000000   0.0000000   0.0000000   0.0000000   0.0000000
 NMagM=    0.0000000   0.0000000   0.0000000   0.0000000   0.0000000   0.0000000   0.0000000   0.0000000   0.0000000   2.7928460
 AtZNuc=   6.0000000   6.0000000   6.0000000   6.0000000   6.0000000   6.0000000   6.0000000   8.0000000   8.0000000   1.0000000

  Atom        21          22          23          24          25          26          27          28          29          30
 IAtWgt=           1           1           1           1           1           1           1           1           1           1
 AtmWgt=   1.0078250   1.0078250   1.0078250   1.0078250   1.0078250   1.0078250   1.0078250   1.0078250   1.0078250   1.0078250
 NucSpn=           1           1           1           1           1           1           1           1           1           1
 AtZEff=   0.0000000   0.0000000   0.0000000   0.0000000   0.0000000   0.0000000   0.0000000   0.0000000   0.0000000   0.0000000
 NQMom=    0.0000000   0.0000000   0.0000000   0.0000000   0.0000000   0.0000000   0.0000000   0.0000000   0.0000000   0.0000000
 NMagM=    2.7928460   2.7928460   2.7928460   2.7928460   2.7928460   2.7928460   2.7928460   2.7928460   2.7928460   2.7928460
 AtZNuc=   1.0000000   1.0000000   1.0000000   1.0000000   1.0000000   1.0000000   1.0000000   1.0000000   1.0000000   1.0000000

  Atom        31          32          33          34          35          36
 IAtWgt=           1           1           1           1           1           1
 AtmWgt=   1.0078250   1.0078250   1.0078250   1.0078250   1.0078250   1.0078250
 NucSpn=           1           1           1           1           1           1
 AtZEff=   0.0000000   0.0000000   0.0000000   0.0000000   0.0000000   0.0000000
 NQMom=    0.0000000   0.0000000   0.0000000   0.0000000   0.0000000   0.0000000
 NMagM=    2.7928460   2.7928460   2.7928460   2.7928460   2.7928460   2.7928460
 AtZNuc=   1.0000000   1.0000000   1.0000000   1.0000000   1.0000000   1.0000000
 Leave Link  101 at Fri Aug  7 23:34:09 2020, MaxMem=    33554432 cpu:         0.1
 (Enter /prod/apps/gaussian/g09d1/l202.exe)
                          Input orientation:                          
 ---------------------------------------------------------------------
 Center     Atomic      Atomic             Coordinates (Angstroms)
 Number     Number       Type             X           Y           Z
 ---------------------------------------------------------------------
      1          6           0        5.353000    1.032000   -0.986000
      2         16           0        5.149000   -0.569000   -1.756000
      3          7           0        4.017000   -1.306000   -0.737000
      4          6           0        3.061000   -2.268000   -1.319000
      5          6           0        2.600000   -3.280000   -0.218000
      6         16           0        2.877000   -4.668000   -1.367000
      7          6           0        3.691000   -3.331000   -2.297000
      8          8           0        3.796000   -5.700000   -0.851000
      9          8           0        1.621000   -5.106000   -2.009000
     10          6           0        1.855000   -1.574000   -1.977000
     11          6           0        0.977000   -0.708000   -1.052000
     12          6           0        1.429000    0.720000   -0.829000
     13          6           0        1.587000    1.600000   -1.909000
     14          6           0        1.951000    2.932000   -1.704000
     15          6           0        2.162000    3.410000   -0.408000
     16          6           0        2.005000    2.546000    0.677000
     17          6           0        1.641000    1.214000    0.465000
     18          8           0        4.512000   -0.417000   -3.074000
     19          8           0        6.441000   -1.277000   -1.686000
     20          1           0        4.399000    1.557000   -1.009000
     21          1           0        6.108000    1.564000   -1.567000
     22          1           0        5.698000    0.883000    0.036000
     23          1           0        4.519000   -1.678000    0.073000
     24          1           0        1.570000   -3.187000    0.119000
     25          1           0        3.273000   -3.372000    0.636000
     26          1           0        3.392000   -3.271000   -3.343000
     27          1           0        4.773000   -3.424000   -2.201000
     28          1           0        1.234000   -2.370000   -2.399000
     29          1           0        2.222000   -0.982000   -2.818000
     30          1           0        0.854000   -1.200000   -0.080000
     31          1           0       -0.023000   -0.683000   -1.500000
     32          1           0        1.419000    1.240000   -2.920000
     33          1           0        2.066000    3.596000   -2.555000
     34          1           0        2.443000    4.446000   -0.246000
     35          1           0        2.164000    2.906000    1.688000
     36          1           0        1.518000    0.545000    1.311000
 ---------------------------------------------------------------------
                    Distance matrix (angstroms):
                    1          2          3          4          5
     1  C    0.000000
     2  S    1.788216   0.000000
     3  N    2.704282   1.692027   0.000000
     4  C    4.031644   2.727144   1.475840   0.000000
     5  C    5.173217   4.026458   2.484739   1.564885   0.000000
     6  S    6.226214   4.702670   3.605488   2.407522   1.823040
     7  C    4.849406   3.169714   2.576917   1.575866   2.348430
     8  O    6.911027   5.383010   4.401031   3.540886   2.772635
     9  O    7.255990   5.752839   4.668919   3.256370   2.738685
    10  C    4.473178   3.450986   2.506725   1.539167   2.561160
    11  C    4.709706   4.233264   3.114230   2.616858   3.153549
    12  C    3.939514   4.044657   3.287991   3.439719   4.212429
    13  C    3.918840   4.173226   3.965264   4.181172   5.263084
    14  C    3.962213   4.742036   4.812909   5.331072   6.420151
    15  C    4.021374   5.154776   5.078378   5.820464   6.707015
    16  C    4.033221   5.050490   4.570060   5.317306   5.924300
    17  C    3.989670   4.518627   3.666140   4.162136   4.645665
    18  O    2.677055   1.471733   2.548905   2.934557   4.473170
    19  O    2.646739   1.474933   2.603309   3.541351   4.573873
    20  H    1.089160   2.374949   2.901151   4.064107   5.220982
    21  H    1.091151   2.346293   3.646653   4.902034   6.131085
    22  H    1.088903   2.370858   2.866184   4.326499   5.195449
    23  H    3.026737   2.229803   1.022980   2.100364   2.516674
    24  H    5.773394   4.814436   3.202921   2.266161   1.087712
    25  H    5.133469   4.134955   2.589792   2.255169   1.091196
    26  H    5.283633   3.592551   3.323114   2.283012   3.223813
    27  H    4.654950   2.913834   2.683422   2.246153   2.945327
    28  H    5.525969   4.357095   3.411661   2.124790   2.729618
    29  H    4.149166   3.140978   2.767230   2.145861   3.490514
    30  H    5.103299   4.653403   3.232252   2.747106   2.719184
    31  H    5.666286   5.179586   4.158353   3.472181   3.907437
    32  H    4.388619   4.305842   4.242312   4.191113   5.396848
    33  H    4.454237   5.243140   5.580424   6.074884   7.281902
    34  H    4.546548   5.895147   5.983649   6.827229   7.727646
    35  H    4.564195   5.731229   5.201459   6.051193   6.487644
    36  H    4.496732   4.881767   3.723641   4.148580   4.259013
                    6          7          8          9         10
     6  S    0.000000
     7  C    1.820732   0.000000
     8  O    1.475073   2.777427   0.000000
     9  O    1.477005   2.741983   2.534645   0.000000
    10  C    3.315029   2.561317   4.696726   3.539888   0.000000
    11  C    4.403501   3.974412   5.736482   4.546756   1.541579
    12  C    5.605060   4.866443   6.842483   5.947398   2.600349
    13  C    6.422281   5.375139   7.699938   6.706832   3.186020
    14  C    7.663618   6.527206   8.868092   8.050551   4.515283
    15  C    8.166088   7.165699   9.265976   8.682058   5.234144
    16  C    7.548517   6.799000   8.575487   8.118815   4.903123
    17  C    6.283458   5.699839   7.360657   6.787008   3.712426
    18  O    4.863957   3.125567   5.776199   5.610600   3.098662
    19  O    4.929781   3.486364   5.220745   6.164249   4.604811
    20  H    6.418354   5.104190   7.283723   7.287857   4.148749
    21  H    7.022620   5.507796   7.656611   8.050927   5.301241
    22  H    6.382793   5.218116   6.909433   7.528086   4.985746
    23  H    3.702683   3.005810   4.189629   4.948162   3.363066
    24  H    2.471802   3.218141   3.494445   2.865928   2.660115
    25  H    2.418355   2.962920   2.811455   3.568177   3.474377
    26  H    2.474148   1.089549   3.503330   2.878059   2.666108
    27  H    2.416176   1.090224   2.820852   3.577861   3.462282
    28  H    3.007537   2.640222   4.477616   2.790621   1.094231
    29  H    4.015099   2.819078   5.348466   4.245357   1.091986
    30  H    4.216150   4.183876   5.431372   4.423366   2.177266
    31  H    4.930306   4.630433   6.338474   4.746024   2.132673
    32  H    6.280290   5.142388   7.621974   6.414237   2.999657
    33  H    8.388251   7.119727   9.607920   8.730461   5.206487
    34  H    9.192932   8.139154  10.253680   9.748054   6.291463
    35  H    8.197980   7.557256   9.119933   8.840520   5.796387
    36  H    6.016139   5.723895   6.990247   6.554907   3.926153
                   11         12         13         14         15
    11  C    0.000000
    12  C    1.514337   0.000000
    13  C    2.536417   1.402057   0.000000
    14  C    3.824053   2.435375   1.395975   0.000000
    15  C    4.333230   2.819686   2.420687   1.397362   0.000000
    16  C    3.825538   2.435998   2.785146   2.412690   1.395840
    17  C    2.536980   1.401219   2.405782   2.784275   2.419914
    18  O    4.082816   3.979659   3.739136   4.432992   5.222642
    19  O    5.530010   5.462838   5.646961   6.154357   6.473878
    20  H    4.103920   3.090933   2.952828   2.892465   2.966307
    21  H    5.635102   4.811447   4.534060   4.378452   4.507983
    22  H    5.099301   4.358802   4.604067   4.611508   4.368771
    23  H    3.840871   4.013989   4.823923   5.568164   5.628015
    24  H    2.805055   4.022839   5.198889   6.396143   6.644441
    25  H    3.901007   4.721337   5.834416   6.853007   6.951243
    26  H    4.201175   5.108977   5.388972   6.575714   7.400195
    27  H    4.806919   5.498860   5.956210   6.972046   7.532312
    28  H    2.154693   3.471459   4.015670   5.395213   6.183338
    29  H    2.178040   2.735283   2.810023   4.078460   5.010126
    30  H    1.096347   2.139632   3.423818   4.573206   4.803181
    31  H    1.096052   2.127664   2.823379   4.123896   4.766481
    32  H    2.734866   2.154711   1.086253   2.150475   3.401631
    33  H    4.687147   3.414121   2.151923   1.085505   2.157179
    34  H    5.418718   3.905273   3.405587   2.158709   1.085588
    35  H    4.688024   3.413812   3.870010   3.398781   2.155745
    36  H    2.728820   2.148987   3.389128   3.869817   3.402635
                   16         17         18         19         20
    16  C    0.000000
    17  C    1.397020   0.000000
    18  O    5.397631   4.840178   0.000000
    19  O    6.314839   5.819955   2.527288   0.000000
    20  H    3.090623   3.145932   2.858963   3.558040   0.000000
    21  H    4.778543   4.919920   2.956793   2.862924   1.797803
    22  H    4.100573   4.093025   3.573331   2.860583   1.798250
    23  H    4.952493   4.098806   3.390248   2.636089   3.413261
    24  H    5.776494   4.415151   5.150098   5.534688   5.637478
    25  H    6.052456   4.870735   4.902167   4.451621   5.316855
    26  H    7.205668   6.138574   3.077674   4.002260   5.456298
    27  H    7.182312   6.199034   3.142021   2.767139   5.135280
    28  H    5.850066   4.605779   3.874935   5.368041   5.231697
    29  H    4.970805   3.992251   2.372522   4.378174   3.802411
    30  H    3.991286   2.596881   4.791460   5.813754   4.585969
    31  H    4.390735   3.198239   4.807750   6.493899   4.981241
    32  H    3.871362   3.392372   3.512266   5.751394   3.554266
    33  H    3.398830   3.869748   4.728260   6.606203   3.462734
    34  H    2.157261   3.405077   5.993923   7.128137   3.571334
    35  H    1.084897   2.152237   6.263551   6.868340   3.753510
    36  H    2.154791   1.085544   5.396082   6.044636   3.834932
                   21         22         23         24         25
    21  H    0.000000
    22  H    1.789265   0.000000
    23  H    3.965487   2.819598   0.000000
    24  H    6.782923   5.797601   3.312974   0.000000
    25  H    6.103649   4.934131   2.176952   1.789336   0.000000
    26  H    5.823063   5.830179   3.934061   3.913079   3.982060
    27  H    5.202338   4.940652   2.878213   3.962042   3.209560
    28  H    6.318580   6.036434   4.169037   2.668466   3.791141
    29  H    4.811249   4.868893   3.757460   3.730027   4.329759
    30  H    6.120080   5.274152   3.699205   2.121421   3.328934
    31  H    6.530135   6.127111   4.908576   3.380655   4.759919
    32  H    4.891043   5.212986   5.204111   5.371839   6.111710
    33  H    4.630651   5.221597   6.382685   7.307899   7.758373
    34  H    4.845946   4.834203   6.474173   7.691427   7.911255
    35  H    5.286882   4.394404   5.400676   6.319750   6.461414
    36  H    5.512653   4.383180   3.934511   3.918085   4.344944
                   26         27         28         29         30
    26  H    0.000000
    27  H    1.798537   0.000000
    28  H    2.521884   3.697924   0.000000
    29  H    2.623747   3.584920   1.754494   0.000000
    30  H    4.623598   4.980299   2.625083   3.068484   0.000000
    31  H    4.664399   5.568312   2.287842   2.620410   1.747232
    32  H    4.941738   5.789575   3.652091   2.364846   3.786611
    33  H    7.038104   7.532169   6.025754   4.588201   5.531382
    34  H    8.369235   8.437288   7.249479   6.010591   5.867691
    35  H    8.060662   7.874014   6.738297   5.951802   4.658450
    36  H    6.303447   6.219496   4.726730   4.458249   2.328262
                   31         32         33         34         35
    31  H    0.000000
    32  H    2.791719   0.000000
    33  H    4.877170   2.470338   0.000000
    34  H    5.827548   4.298522   2.489199   0.000000
    35  H    5.275153   4.956233   4.299855   2.487930   0.000000
    36  H    3.432839   4.288844   4.955286   4.300892   2.476644
                   36
    36  H    0.000000
 Stoichiometry    C12H17NO4S2
 Framework group  C1[X(C12H17NO4S2)]
 Deg. of freedom   102
 Full point group                 C1      NOp   1
 Largest Abelian subgroup         C1      NOp   1
 Largest concise Abelian subgroup C1      NOp   1
                         Standard orientation:                         
 ---------------------------------------------------------------------
 Center     Atomic      Atomic             Coordinates (Angstroms)
 Number     Number       Type             X           Y           Z
 ---------------------------------------------------------------------
      1          6           0        1.977759    2.321202   -0.571530
      2         16           0        0.333291    2.102534    0.096022
      3          7           0       -0.189858    0.710236   -0.710686
      4          6           0       -1.112911   -0.206932   -0.014352
      5          6           0       -1.962286   -0.994377   -1.066664
      6         16           0       -3.478264   -0.643714   -0.116759
      7          6           0       -2.322396    0.488046    0.718796
      8          8           0       -4.533760    0.028589   -0.897643
      9          8           0       -3.860511   -1.781768    0.743628
     10          6           0       -0.379978   -1.166793    0.939855
     11          6           0        0.651955   -2.113975    0.296097
     12          6           0        2.047197   -1.561040    0.094157
     13          6           0        2.795926   -1.087234    1.180746
     14          6           0        4.102394   -0.626868    1.007689
     15          6           0        4.686532   -0.634808   -0.261697
     16          6           0        3.954063   -1.106885   -1.352111
     17          6           0        2.646892   -1.565812   -1.172239
     18          8           0        0.410431    1.771097    1.527873
     19          8           0       -0.480496    3.265321   -0.305357
     20          1           0        2.583730    1.456962   -0.302908
     21          1           0        2.376653    3.234048   -0.126326
     22          1           0        1.900867    2.429921   -1.652261
     23          1           0       -0.523462    0.990301   -1.636299
     24          1           0       -1.741103   -2.054709   -1.166126
     25          1           0       -2.029900   -0.525862   -2.049838
     26          1           0       -2.340333    0.419057    1.806010
     27          1           0       -2.504913    1.509925    0.385569
     28          1           0       -1.153490   -1.772624    1.421508
     29          1           0        0.088119   -0.571044    1.726241
     30          1           0        0.273517   -2.488264   -0.662376
     31          1           0        0.724187   -2.991355    0.949025
     32          1           0        2.353321   -1.082909    2.172728
     33          1           0        4.664110   -0.266042    1.863610
     34          1           0        5.703126   -0.279324   -0.398331
     35          1           0        4.397499   -1.119961   -2.342159
     36          1           0        2.080460   -1.933946   -2.021967
 ---------------------------------------------------------------------
 Rotational constants (GHZ):      0.5360013      0.2144212      0.1756214
 Leave Link  202 at Fri Aug  7 23:34:09 2020, MaxMem=    33554432 cpu:         0.0
 (Enter /prod/apps/gaussian/g09d1/l301.exe)
 Standard basis: 6-31G(d) (6D, 7F)
 Ernie: Thresh=  0.10000D-02 Tol=  0.10000D-05 Strict=F.
 There are   327 symmetry adapted cartesian basis functions of A   symmetry.
 There are   327 symmetry adapted basis functions of A   symmetry.
   327 basis functions,   648 primitive gaussians,   327 cartesian basis functions
    80 alpha electrons       80 beta electrons
       nuclear repulsion energy      1891.7990704561 Hartrees.
 IExCor=  402 DFT=T Ex+Corr=B3LYP ExCW=0 ScaHFX=  0.200000
 ScaDFX=  0.800000  0.720000  1.000000  0.810000 ScalE2=  1.000000  1.000000
 IRadAn=      0 IRanWt=     -1 IRanGd=            0 ICorTp=0 IEmpDi=  4
 NAtoms=   36 NActive=   36 NUniq=   36 SFac= 1.00D+00 NAtFMM=   60 NAOKFM=F Big=F
 Integral buffers will be    131072 words long.
 Raffenetti 2 integral format.
 Two-electron integral symmetry is turned on.
 Leave Link  301 at Fri Aug  7 23:34:09 2020, MaxMem=    33554432 cpu:         0.0
 (Enter /prod/apps/gaussian/g09d1/l302.exe)
 NPDir=0 NMtPBC=     1 NCelOv=     1 NCel=       1 NClECP=     1 NCelD=      1
         NCelK=      1 NCelE2=     1 NClLst=     1 CellRange=     0.0.
 One-electron integrals computed using PRISM.
 NBasis=   327 RedAO= T EigKep=  4.70D-04  NBF=   327
 NBsUse=   327 1.00D-06 EigRej= -1.00D+00 NBFU=   327
 Precomputing XC quadrature grid using
 IXCGrd= 4 IRadAn=           0 IRanWt=          -1 IRanGd=           0 AccXCQ= 0.00D+00.
 Generated NRdTot=       0 NPtTot=           0 NUsed=           0 NTot=          32
 NSgBfM=   322   323   323   324   324 MxSgAt=    36 MxSgA2=    36.
 Leave Link  302 at Fri Aug  7 23:34:10 2020, MaxMem=    33554432 cpu:         1.1
 (Enter /prod/apps/gaussian/g09d1/l303.exe)
 DipDrv:  MaxL=1.
 Leave Link  303 at Fri Aug  7 23:34:11 2020, MaxMem=    33554432 cpu:         0.1
 (Enter /prod/apps/gaussian/g09d1/l401.exe)
 ExpMin= 1.17D-01 ExpMax= 2.19D+04 ExpMxC= 3.30D+03 IAcc=1 IRadAn=         1 AccDes= 0.00D+00
 Harris functional with IExCor=  402 and IRadAn=       1 diagonalized for initial guess.
 HarFok:  IExCor=  402 AccDes= 0.00D+00 IRadAn=         1 IDoV= 1 UseB2=F ITyADJ=14
 ICtDFT=  3500011 ScaDFX=  1.000000  1.000000  1.000000  1.000000
 FoFCou: FMM=F IPFlag=           0 FMFlag=      100000 FMFlg1=           0
         NFxFlg=           0 DoJE=T BraDBF=F KetDBF=T FulRan=T
         wScrn=  0.000000 ICntrl=     500 IOpCl=  0 I1Cent=   200000004 NGrid=           0
         NMat0=    1 NMatS0=      1 NMatT0=    0 NMatD0=    1 NMtDS0=    0 NMtDT0=    0
 Petite list used in FoFCou.
 Harris En= -1619.50197039540    
 JPrj=0 DoOrth=F DoCkMO=F.
 Leave Link  401 at Fri Aug  7 23:34:15 2020, MaxMem=    33554432 cpu:         4.6
 (Enter /prod/apps/gaussian/g09d1/l502.exe)
 Closed shell SCF:
 Using DIIS extrapolation, IDIIS=  1040.
 Integral symmetry usage will be decided dynamically.
 IVT=      343772 IEndB=      343772 NGot=    33554432 MDV=    33334557
 LenX=    33334557 LenY=    33227187
 Requested convergence on RMS density matrix=1.00D-08 within 128 cycles.
 Requested convergence on MAX density matrix=1.00D-06.
 Requested convergence on             energy=1.00D-06.
 No special actions if energy rises.
 Fock matrices will be formed incrementally for  20 cycles.
 Integral accuracy reduced to 1.0D-05 until final iterations.

 Cycle   1  Pass 0  IDiag  1:
 FoFJK:  IHMeth= 1 ICntrl=       0 DoSepK=F KAlg= 0 I1Cent=   0 FoldK=F
 IRaf= 810000000 NMat=   1 IRICut=       1 DoRegI=T DoRafI=F ISym2E= 0.
 FoFCou: FMM=F IPFlag=           0 FMFlag=      100000 FMFlg1=           0
         NFxFlg=           0 DoJE=F BraDBF=F KetDBF=F FulRan=T
         wScrn=  0.000000 ICntrl=       0 IOpCl=  0 I1Cent=           0 NGrid=           0
         NMat0=    1 NMatS0=      1 NMatT0=    0 NMatD0=    1 NMtDS0=    0 NMtDT0=    0
 Symmetry not used in FoFCou.
 E= -1618.58989627745    
 DIIS: error= 3.51D-02 at cycle   1 NSaved=   1.
 NSaved= 1 IEnMin= 1 EnMin= -1618.58989627745     IErMin= 1 ErrMin= 3.51D-02
 ErrMax= 3.51D-02  0.00D+00 EMaxC= 1.00D-01 BMatC= 9.41D-01 BMatP= 9.41D-01
 IDIUse=3 WtCom= 6.49D-01 WtEn= 3.51D-01
 Coeff-Com:  0.100D+01
 Coeff-En:   0.100D+01
 Coeff:      0.100D+01
 Gap=     0.342 Goal=   None    Shift=    0.000
 GapD=    0.342 DampG=1.000 DampE=0.500 DampFc=0.5000 IDamp=-1.
 Damping current iteration by 5.00D-01
 RMSDP=7.68D-03 MaxDP=5.67D-01              OVMax= 2.40D-01

 Cycle   2  Pass 0  IDiag  1:
 RMSU=  3.84D-03    CP:  1.00D+00
 E= -1618.75821997787     Delta-E=       -0.168323700419 Rises=F Damp=T
 DIIS: error= 1.45D-02 at cycle   2 NSaved=   2.
 NSaved= 2 IEnMin= 2 EnMin= -1618.75821997787     IErMin= 2 ErrMin= 1.45D-02
 ErrMax= 1.45D-02  0.00D+00 EMaxC= 1.00D-01 BMatC= 1.57D-01 BMatP= 9.41D-01
 IDIUse=3 WtCom= 8.55D-01 WtEn= 1.45D-01
 Coeff-Com:  0.249D+00 0.751D+00
 Coeff-En:   0.394D+00 0.606D+00
 Coeff:      0.270D+00 0.730D+00
 Gap=     0.268 Goal=   None    Shift=    0.000
 RMSDP=2.19D-03 MaxDP=1.13D-01 DE=-1.68D-01 OVMax= 2.12D-01

 Cycle   3  Pass 0  IDiag  1:
 RMSU=  1.69D-03    CP:  9.92D-01  6.41D-01
 E= -1619.30055746505     Delta-E=       -0.542337487184 Rises=F Damp=F
 DIIS: error= 1.06D-02 at cycle   3 NSaved=   3.
 NSaved= 3 IEnMin= 3 EnMin= -1619.30055746505     IErMin= 3 ErrMin= 1.06D-02
 ErrMax= 1.06D-02  0.00D+00 EMaxC= 1.00D-01 BMatC= 9.03D-02 BMatP= 1.57D-01
 IDIUse=3 WtCom= 8.94D-01 WtEn= 1.06D-01
 Coeff-Com:  0.102D+00 0.441D+00 0.457D+00
 Coeff-En:   0.000D+00 0.000D+00 0.100D+01
 Coeff:      0.912D-01 0.394D+00 0.515D+00
 Gap=     0.240 Goal=   None    Shift=    0.000
 RMSDP=1.32D-03 MaxDP=3.47D-02 DE=-5.42D-01 OVMax= 7.20D-02

 Cycle   4  Pass 0  IDiag  1:
 RMSU=  8.00D-04    CP:  9.97D-01  7.21D-01  4.08D-01
 E= -1619.37480619808     Delta-E=       -0.074248733030 Rises=F Damp=F
 DIIS: error= 3.70D-03 at cycle   4 NSaved=   4.
 NSaved= 4 IEnMin= 4 EnMin= -1619.37480619808     IErMin= 4 ErrMin= 3.70D-03
 ErrMax= 3.70D-03  0.00D+00 EMaxC= 1.00D-01 BMatC= 1.17D-02 BMatP= 9.03D-02
 IDIUse=3 WtCom= 9.63D-01 WtEn= 3.70D-02
 Coeff-Com:  0.101D-01 0.719D-01 0.277D+00 0.641D+00
 Coeff-En:   0.000D+00 0.000D+00 0.111D+00 0.889D+00
 Coeff:      0.976D-02 0.692D-01 0.271D+00 0.650D+00
 Gap=     0.236 Goal=   None    Shift=    0.000
 RMSDP=4.35D-04 MaxDP=1.55D-02 DE=-7.42D-02 OVMax= 2.45D-02

 Cycle   5  Pass 0  IDiag  1:
 RMSU=  1.95D-04    CP:  9.96D-01  7.05D-01  5.55D-01  6.35D-01
 E= -1619.38450102271     Delta-E=       -0.009694824623 Rises=F Damp=F
 DIIS: error= 9.05D-04 at cycle   5 NSaved=   5.
 NSaved= 5 IEnMin= 5 EnMin= -1619.38450102271     IErMin= 5 ErrMin= 9.05D-04
 ErrMax= 9.05D-04  0.00D+00 EMaxC= 1.00D-01 BMatC= 9.96D-04 BMatP= 1.17D-02
 IDIUse=3 WtCom= 9.91D-01 WtEn= 9.05D-03
 Coeff-Com: -0.584D-03 0.149D-01 0.123D+00 0.366D+00 0.497D+00
 Coeff-En:   0.000D+00 0.000D+00 0.000D+00 0.000D+00 0.100D+01
 Coeff:     -0.579D-03 0.148D-01 0.122D+00 0.363D+00 0.501D+00
 Gap=     0.237 Goal=   None    Shift=    0.000
 RMSDP=1.29D-04 MaxDP=4.59D-03 DE=-9.69D-03 OVMax= 8.78D-03

 Cycle   6  Pass 0  IDiag  1:
 RMSU=  5.85D-05    CP:  9.96D-01  7.08D-01  5.46D-01  7.10D-01  5.06D-01
 E= -1619.38537672370     Delta-E=       -0.000875700993 Rises=F Damp=F
 DIIS: error= 3.89D-04 at cycle   6 NSaved=   6.
 NSaved= 6 IEnMin= 6 EnMin= -1619.38537672370     IErMin= 6 ErrMin= 3.89D-04
 ErrMax= 3.89D-04  0.00D+00 EMaxC= 1.00D-01 BMatC= 8.38D-05 BMatP= 9.96D-04
 IDIUse=3 WtCom= 9.96D-01 WtEn= 3.89D-03
 Coeff-Com: -0.107D-02 0.202D-02 0.413D-01 0.136D+00 0.280D+00 0.542D+00
 Coeff-En:   0.000D+00 0.000D+00 0.000D+00 0.000D+00 0.170D-01 0.983D+00
 Coeff:     -0.106D-02 0.201D-02 0.412D-01 0.135D+00 0.279D+00 0.544D+00
 Gap=     0.237 Goal=   None    Shift=    0.000
 RMSDP=3.57D-05 MaxDP=1.29D-03 DE=-8.76D-04 OVMax= 3.34D-03

 Cycle   7  Pass 0  IDiag  1:
 RMSU=  2.29D-05    CP:  9.96D-01  7.08D-01  5.48D-01  7.05D-01  5.72D-01
                    CP:  5.95D-01
 E= -1619.38544603864     Delta-E=       -0.000069314938 Rises=F Damp=F
 DIIS: error= 1.62D-04 at cycle   7 NSaved=   7.
 NSaved= 7 IEnMin= 7 EnMin= -1619.38544603864     IErMin= 7 ErrMin= 1.62D-04
 ErrMax= 1.62D-04  0.00D+00 EMaxC= 1.00D-01 BMatC= 1.15D-05 BMatP= 8.38D-05
 IDIUse=3 WtCom= 9.98D-01 WtEn= 1.62D-03
 Coeff-Com: -0.594D-03-0.182D-03 0.135D-01 0.473D-01 0.125D+00 0.339D+00
 Coeff-Com:  0.476D+00
 Coeff-En:   0.000D+00 0.000D+00 0.000D+00 0.000D+00 0.000D+00 0.761D-01
 Coeff-En:   0.924D+00
 Coeff:     -0.593D-03-0.182D-03 0.135D-01 0.472D-01 0.125D+00 0.338D+00
 Coeff:      0.477D+00
 Gap=     0.237 Goal=   None    Shift=    0.000
 RMSDP=1.28D-05 MaxDP=4.61D-04 DE=-6.93D-05 OVMax= 9.45D-04

 Cycle   8  Pass 0  IDiag  1:
 RMSU=  6.89D-06    CP:  9.96D-01  7.08D-01  5.48D-01  7.06D-01  5.73D-01
                    CP:  6.46D-01  5.51D-01
 E= -1619.38545623250     Delta-E=       -0.000010193859 Rises=F Damp=F
 DIIS: error= 3.92D-05 at cycle   8 NSaved=   8.
 NSaved= 8 IEnMin= 8 EnMin= -1619.38545623250     IErMin= 8 ErrMin= 3.92D-05
 ErrMax= 3.92D-05  0.00D+00 EMaxC= 1.00D-01 BMatC= 9.12D-07 BMatP= 1.15D-05
 IDIUse=1 WtCom= 1.00D+00 WtEn= 0.00D+00
 Coeff-Com: -0.215D-03-0.390D-03 0.245D-02 0.982D-02 0.374D-01 0.128D+00
 Coeff-Com:  0.272D+00 0.551D+00
 Coeff:     -0.215D-03-0.390D-03 0.245D-02 0.982D-02 0.374D-01 0.128D+00
 Coeff:      0.272D+00 0.551D+00
 Gap=     0.237 Goal=   None    Shift=    0.000
 RMSDP=3.78D-06 MaxDP=1.86D-04 DE=-1.02D-05 OVMax= 2.00D-04

 Initial convergence to 1.0D-05 achieved.  Increase integral accuracy.
 Cycle   9  Pass 1  IDiag  1:
 E= -1619.38532703006     Delta-E=        0.000129202434 Rises=F Damp=F
 DIIS: error= 4.51D-05 at cycle   1 NSaved=   1.
 NSaved= 1 IEnMin= 1 EnMin= -1619.38532703006     IErMin= 1 ErrMin= 4.51D-05
 ErrMax= 4.51D-05  0.00D+00 EMaxC= 1.00D-01 BMatC= 7.34D-07 BMatP= 7.34D-07
 IDIUse=1 WtCom= 1.00D+00 WtEn= 0.00D+00
 Coeff-Com:  0.100D+01
 Coeff:      0.100D+01
 Gap=     0.237 Goal=   None    Shift=    0.000
 RMSDP=3.78D-06 MaxDP=1.86D-04 DE= 1.29D-04 OVMax= 2.86D-04

 Cycle  10  Pass 1  IDiag  1:
 RMSU=  2.55D-05    CP:  1.00D+00
 E= -1619.38532746935     Delta-E=       -0.000000439290 Rises=F Damp=F
 DIIS: error= 3.11D-05 at cycle   2 NSaved=   2.
 NSaved= 2 IEnMin= 2 EnMin= -1619.38532746935     IErMin= 2 ErrMin= 3.11D-05
 ErrMax= 3.11D-05  0.00D+00 EMaxC= 1.00D-01 BMatC= 4.96D-07 BMatP= 7.34D-07
 IDIUse=1 WtCom= 1.00D+00 WtEn= 0.00D+00
 Coeff-Com:  0.428D+00 0.572D+00
 Coeff:      0.428D+00 0.572D+00
 Gap=     0.237 Goal=   None    Shift=    0.000
 RMSDP=3.79D-06 MaxDP=1.80D-04 DE=-4.39D-07 OVMax= 2.58D-04

 Cycle  11  Pass 1  IDiag  1:
 RMSU=  3.78D-06    CP:  1.00D+00  9.89D-01
 E= -1619.38532760871     Delta-E=       -0.000000139356 Rises=F Damp=F
 DIIS: error= 2.61D-05 at cycle   3 NSaved=   3.
 NSaved= 3 IEnMin= 3 EnMin= -1619.38532760871     IErMin= 3 ErrMin= 2.61D-05
 ErrMax= 2.61D-05  0.00D+00 EMaxC= 1.00D-01 BMatC= 3.46D-07 BMatP= 4.96D-07
 IDIUse=1 WtCom= 1.00D+00 WtEn= 0.00D+00
 Coeff-Com:  0.337D-02 0.454D+00 0.543D+00
 Coeff:      0.337D-02 0.454D+00 0.543D+00
 Gap=     0.237 Goal=   None    Shift=    0.000
 RMSDP=1.81D-06 MaxDP=7.80D-05 DE=-1.39D-07 OVMax= 1.06D-04

 Cycle  12  Pass 1  IDiag  1:
 RMSU=  6.40D-07    CP:  1.00D+00  1.01D+00  5.64D-01
 E= -1619.38532788993     Delta-E=       -0.000000281223 Rises=F Damp=F
 DIIS: error= 3.20D-06 at cycle   4 NSaved=   4.
 NSaved= 4 IEnMin= 4 EnMin= -1619.38532788993     IErMin= 4 ErrMin= 3.20D-06
 ErrMax= 3.20D-06  0.00D+00 EMaxC= 1.00D-01 BMatC= 9.20D-09 BMatP= 3.46D-07
 IDIUse=1 WtCom= 1.00D+00 WtEn= 0.00D+00
 Coeff-Com: -0.911D-02 0.254D+00 0.321D+00 0.434D+00
 Coeff:     -0.911D-02 0.254D+00 0.321D+00 0.434D+00
 Gap=     0.237 Goal=   None    Shift=    0.000
 RMSDP=3.49D-07 MaxDP=1.60D-05 DE=-2.81D-07 OVMax= 2.39D-05

 Cycle  13  Pass 1  IDiag  1:
 RMSU=  2.13D-07    CP:  1.00D+00  1.01D+00  5.63D-01  5.68D-01
 E= -1619.38532789744     Delta-E=       -0.000000007512 Rises=F Damp=F
 DIIS: error= 1.12D-06 at cycle   5 NSaved=   5.
 NSaved= 5 IEnMin= 5 EnMin= -1619.38532789744     IErMin= 5 ErrMin= 1.12D-06
 ErrMax= 1.12D-06  0.00D+00 EMaxC= 1.00D-01 BMatC= 6.09D-10 BMatP= 9.20D-09
 IDIUse=1 WtCom= 1.00D+00 WtEn= 0.00D+00
 Coeff-Com: -0.528D-02 0.109D+00 0.140D+00 0.253D+00 0.503D+00
 Coeff:     -0.528D-02 0.109D+00 0.140D+00 0.253D+00 0.503D+00
 Gap=     0.237 Goal=   None    Shift=    0.000
 RMSDP=9.61D-08 MaxDP=3.50D-06 DE=-7.51D-09 OVMax= 9.85D-06

 Cycle  14  Pass 1  IDiag  1:
 RMSU=  7.35D-08    CP:  1.00D+00  1.01D+00  5.66D-01  6.06D-01  7.37D-01
 E= -1619.38532789810     Delta-E=       -0.000000000654 Rises=F Damp=F
 DIIS: error= 3.46D-07 at cycle   6 NSaved=   6.
 NSaved= 6 IEnMin= 6 EnMin= -1619.38532789810     IErMin= 6 ErrMin= 3.46D-07
 ErrMax= 3.46D-07  0.00D+00 EMaxC= 1.00D-01 BMatC= 5.71D-11 BMatP= 6.09D-10
 IDIUse=1 WtCom= 1.00D+00 WtEn= 0.00D+00
 Coeff-Com: -0.165D-02 0.266D-01 0.345D-01 0.823D-01 0.277D+00 0.581D+00
 Coeff:     -0.165D-02 0.266D-01 0.345D-01 0.823D-01 0.277D+00 0.581D+00
 Gap=     0.237 Goal=   None    Shift=    0.000
 RMSDP=3.09D-08 MaxDP=1.12D-06 DE=-6.54D-10 OVMax= 2.49D-06

 Cycle  15  Pass 1  IDiag  1:
 RMSU=  2.26D-08    CP:  1.00D+00  1.01D+00  5.65D-01  6.08D-01  7.91D-01
                    CP:  7.62D-01
 E= -1619.38532789806     Delta-E=        0.000000000037 Rises=F Damp=F
 DIIS: error= 1.31D-07 at cycle   7 NSaved=   7.
 NSaved= 7 IEnMin= 6 EnMin= -1619.38532789810     IErMin= 7 ErrMin= 1.31D-07
 ErrMax= 1.31D-07  0.00D+00 EMaxC= 1.00D-01 BMatC= 9.22D-12 BMatP= 5.71D-11
 IDIUse=1 WtCom= 1.00D+00 WtEn= 0.00D+00
 Coeff-Com: -0.359D-03 0.226D-02 0.302D-02 0.168D-01 0.981D-01 0.344D+00
 Coeff-Com:  0.536D+00
 Coeff:     -0.359D-03 0.226D-02 0.302D-02 0.168D-01 0.981D-01 0.344D+00
 Coeff:      0.536D+00
 Gap=     0.237 Goal=   None    Shift=    0.000
 RMSDP=1.12D-08 MaxDP=6.13D-07 DE= 3.73D-11 OVMax= 6.43D-07

 Cycle  16  Pass 1  IDiag  1:
 RMSU=  7.54D-09    CP:  1.00D+00  1.01D+00  5.65D-01  6.12D-01  7.98D-01
                    CP:  7.95D-01  6.76D-01
 E= -1619.38532789811     Delta-E=       -0.000000000049 Rises=F Damp=F
 DIIS: error= 5.08D-08 at cycle   8 NSaved=   8.
 NSaved= 8 IEnMin= 8 EnMin= -1619.38532789811     IErMin= 8 ErrMin= 5.08D-08
 ErrMax= 5.08D-08  0.00D+00 EMaxC= 1.00D-01 BMatC= 1.39D-12 BMatP= 9.22D-12
 IDIUse=1 WtCom= 1.00D+00 WtEn= 0.00D+00
 Coeff-Com:  0.706D-05-0.229D-02-0.290D-02-0.811D-03 0.239D-01 0.138D+00
 Coeff-Com:  0.330D+00 0.514D+00
 Coeff:      0.706D-05-0.229D-02-0.290D-02-0.811D-03 0.239D-01 0.138D+00
 Coeff:      0.330D+00 0.514D+00
 Gap=     0.237 Goal=   None    Shift=    0.000
 RMSDP=4.24D-09 MaxDP=1.87D-07 DE=-4.91D-11 OVMax= 3.33D-07

 SCF Done:  E(RB3LYP) =  -1619.38532790     A.U. after   16 cycles
            NFock= 16  Conv=0.42D-08     -V/T= 2.0066
 KE= 1.608789958007D+03 PE=-7.589589370711D+03 EE= 2.469615014350D+03
 Leave Link  502 at Fri Aug  7 23:40:22 2020, MaxMem=    33554432 cpu:       366.6
 (Enter /prod/apps/gaussian/g09d1/l601.exe)
 Copying SCF densities to generalized density rwf, IOpCl= 0 IROHF=0.

 **********************************************************************

            Population analysis using the SCF density.

 **********************************************************************

 Orbital symmetries:
       Occupied  (A) (A) (A) (A) (A) (A) (A) (A) (A) (A) (A) (A)
                 (A) (A) (A) (A) (A) (A) (A) (A) (A) (A) (A) (A)
                 (A) (A) (A) (A) (A) (A) (A) (A) (A) (A) (A) (A)
                 (A) (A) (A) (A) (A) (A) (A) (A) (A) (A) (A) (A)
                 (A) (A) (A) (A) (A) (A) (A) (A) (A) (A) (A) (A)
                 (A) (A) (A) (A) (A) (A) (A) (A) (A) (A) (A) (A)
                 (A) (A) (A) (A) (A) (A) (A) (A)
       Virtual   (A) (A) (A) (A) (A) (A) (A) (A) (A) (A) (A) (A)
                 (A) (A) (A) (A) (A) (A) (A) (A) (A) (A) (A) (A)
                 (A) (A) (A) (A) (A) (A) (A) (A) (A) (A) (A) (A)
                 (A) (A) (A) (A) (A) (A) (A) (A) (A) (A) (A) (A)
                 (A) (A) (A) (A) (A) (A) (A) (A) (A) (A) (A) (A)
                 (A) (A) (A) (A) (A) (A) (A) (A) (A) (A) (A) (A)
                 (A) (A) (A) (A) (A) (A) (A) (A) (A) (A) (A) (A)
                 (A) (A) (A) (A) (A) (A) (A) (A) (A) (A) (A) (A)
                 (A) (A) (A) (A) (A) (A) (A) (A) (A) (A) (A) (A)
                 (A) (A) (A) (A) (A) (A) (A) (A) (A) (A) (A) (A)
                 (A) (A) (A) (A) (A) (A) (A) (A) (A) (A) (A) (A)
                 (A) (A) (A) (A) (A) (A) (A) (A) (A) (A) (A) (A)
                 (A) (A) (A) (A) (A) (A) (A) (A) (A) (A) (A) (A)
                 (A) (A) (A) (A) (A) (A) (A) (A) (A) (A) (A) (A)
                 (A) (A) (A) (A) (A) (A) (A) (A) (A) (A) (A) (A)
                 (A) (A) (A) (A) (A) (A) (A) (A) (A) (A) (A) (A)
                 (A) (A) (A) (A) (A) (A) (A) (A) (A) (A) (A) (A)
                 (A) (A) (A) (A) (A) (A) (A) (A) (A) (A) (A) (A)
                 (A) (A) (A) (A) (A) (A) (A) (A) (A) (A) (A) (A)
                 (A) (A) (A) (A) (A) (A) (A) (A) (A) (A) (A) (A)
                 (A) (A) (A) (A) (A) (A) (A)
 The electronic state is 1-A.
 Alpha  occ. eigenvalues --  -89.12709 -89.09438 -19.15490 -19.15317 -19.14690
 Alpha  occ. eigenvalues --  -19.14527 -14.39075 -10.28832 -10.24491 -10.23679
 Alpha  occ. eigenvalues --  -10.23268 -10.20886 -10.20710 -10.20613 -10.20236
 Alpha  occ. eigenvalues --  -10.20203 -10.20081 -10.20015 -10.19880  -8.15307
 Alpha  occ. eigenvalues --   -8.12485  -6.11821  -6.11706  -6.11587  -6.08898
 Alpha  occ. eigenvalues --   -6.08846  -6.08775  -1.12164  -1.09886  -1.00790
 Alpha  occ. eigenvalues --   -0.99426  -0.95914  -0.86941  -0.86478  -0.80319
 Alpha  occ. eigenvalues --   -0.78841  -0.75504  -0.74814  -0.73578  -0.68742
 Alpha  occ. eigenvalues --   -0.65171  -0.61808  -0.61005  -0.59442  -0.57946
 Alpha  occ. eigenvalues --   -0.55195  -0.52949  -0.52431  -0.51667  -0.49557
 Alpha  occ. eigenvalues --   -0.48744  -0.48082  -0.47203  -0.46678  -0.46177
 Alpha  occ. eigenvalues --   -0.46011  -0.45141  -0.44416  -0.43879  -0.43254
 Alpha  occ. eigenvalues --   -0.43043  -0.42459  -0.40391  -0.39370  -0.38550
 Alpha  occ. eigenvalues --   -0.37176  -0.36278  -0.35907  -0.34885  -0.34487
 Alpha  occ. eigenvalues --   -0.33381  -0.32723  -0.31480  -0.31436  -0.30968
 Alpha  occ. eigenvalues --   -0.29847  -0.29671  -0.28364  -0.26163  -0.25124
 Alpha virt. eigenvalues --   -0.01459  -0.01159   0.02348   0.02433   0.04337
 Alpha virt. eigenvalues --    0.05302   0.05804   0.07297   0.07772   0.08135
 Alpha virt. eigenvalues --    0.08989   0.09172   0.10201   0.10672   0.10942
 Alpha virt. eigenvalues --    0.11770   0.12170   0.13799   0.14082   0.14252
 Alpha virt. eigenvalues --    0.14742   0.15405   0.16134   0.16414   0.17202
 Alpha virt. eigenvalues --    0.18656   0.19394   0.20144   0.20875   0.22662
 Alpha virt. eigenvalues --    0.23944   0.25566   0.27107   0.28621   0.29477
 Alpha virt. eigenvalues --    0.31539   0.33564   0.34186   0.35026   0.35697
 Alpha virt. eigenvalues --    0.35928   0.39839   0.40526   0.43268   0.43905
 Alpha virt. eigenvalues --    0.44926   0.46301   0.47050   0.47984   0.49046
 Alpha virt. eigenvalues --    0.49994   0.52155   0.53016   0.53422   0.53809
 Alpha virt. eigenvalues --    0.55557   0.55628   0.57833   0.58256   0.58435
 Alpha virt. eigenvalues --    0.59016   0.59757   0.60350   0.60628   0.61798
 Alpha virt. eigenvalues --    0.62662   0.63222   0.64444   0.66436   0.66709
 Alpha virt. eigenvalues --    0.67395   0.69946   0.70877   0.71990   0.72291
 Alpha virt. eigenvalues --    0.75129   0.75909   0.77730   0.79245   0.79761
 Alpha virt. eigenvalues --    0.80435   0.80500   0.81919   0.82052   0.82748
 Alpha virt. eigenvalues --    0.82883   0.83313   0.83567   0.83914   0.84915
 Alpha virt. eigenvalues --    0.85344   0.86168   0.86974   0.87120   0.88173
 Alpha virt. eigenvalues --    0.88859   0.90075   0.91492   0.91752   0.92738
 Alpha virt. eigenvalues --    0.93031   0.94796   0.95029   0.95977   0.97397
 Alpha virt. eigenvalues --    0.99526   0.99616   1.00544   1.01669   1.04486
 Alpha virt. eigenvalues --    1.05047   1.05575   1.07084   1.08007   1.09225
 Alpha virt. eigenvalues --    1.09736   1.10082   1.12349   1.13397   1.14985
 Alpha virt. eigenvalues --    1.15926   1.16534   1.17310   1.18050   1.19737
 Alpha virt. eigenvalues --    1.21467   1.21921   1.24660   1.27018   1.27543
 Alpha virt. eigenvalues --    1.27847   1.31373   1.34477   1.37238   1.41011
 Alpha virt. eigenvalues --    1.42184   1.43039   1.43348   1.45748   1.47168
 Alpha virt. eigenvalues --    1.48239   1.50241   1.51026   1.51690   1.53144
 Alpha virt. eigenvalues --    1.60056   1.61105   1.65502   1.68347   1.70497
 Alpha virt. eigenvalues --    1.72125   1.73202   1.74320   1.75542   1.77777
 Alpha virt. eigenvalues --    1.78601   1.79195   1.79909   1.80470   1.80942
 Alpha virt. eigenvalues --    1.81243   1.81861   1.82187   1.83303   1.85031
 Alpha virt. eigenvalues --    1.85685   1.87981   1.88088   1.88477   1.90182
 Alpha virt. eigenvalues --    1.90733   1.91334   1.93535   1.96916   1.98903
 Alpha virt. eigenvalues --    1.99523   2.01659   2.02759   2.04120   2.04868
 Alpha virt. eigenvalues --    2.05150   2.05986   2.08208   2.09582   2.12086
 Alpha virt. eigenvalues --    2.12675   2.13170   2.13393   2.14800   2.16645
 Alpha virt. eigenvalues --    2.17252   2.17433   2.19201   2.20287   2.21147
 Alpha virt. eigenvalues --    2.24895   2.25193   2.26457   2.28190   2.29922
 Alpha virt. eigenvalues --    2.30356   2.30810   2.32755   2.37458   2.38541
 Alpha virt. eigenvalues --    2.40220   2.40522   2.46382   2.50710   2.54556
 Alpha virt. eigenvalues --    2.57193   2.58330   2.63163   2.66790   2.70492
 Alpha virt. eigenvalues --    2.71366   2.72209   2.73098   2.74124   2.74980
 Alpha virt. eigenvalues --    2.75263   2.78030   2.81712   2.82266   2.83207
 Alpha virt. eigenvalues --    2.88348   3.04807   3.39689   3.75973   3.80729
 Alpha virt. eigenvalues --    3.87409   3.94433   3.95489   4.03973   4.07528
 Alpha virt. eigenvalues --    4.11450   4.12613   4.14564   4.22353   4.22942
 Alpha virt. eigenvalues --    4.26399   4.32032   4.33928   4.43029   4.52262
 Alpha virt. eigenvalues --    4.68752   4.74490
          Condensed to atoms (all electrons):
               1          2          3          4          5          6
     1  C    5.572517   0.207038  -0.055235   0.002664  -0.000120   0.000011
     2  S    0.207038  13.705410   0.098070  -0.019548   0.000596   0.000068
     3  N   -0.055235   0.098070   7.371588   0.272346  -0.037248   0.002021
     4  C    0.002664  -0.019548   0.272346   4.820947   0.340741  -0.095002
     5  C   -0.000120   0.000596  -0.037248   0.340741   5.763617   0.111501
     6  S    0.000011   0.000068   0.002021  -0.095002   0.111501  13.906176
     7  C   -0.000152  -0.004871  -0.058437   0.358696  -0.193589   0.131950
     8  O    0.000000  -0.000054  -0.000130   0.002160  -0.045765   0.435745
     9  O    0.000000   0.000000  -0.000032   0.000252  -0.045040   0.410331
    10  C   -0.000127  -0.003729  -0.065228   0.364669  -0.051701   0.005562
    11  C    0.000073  -0.000318   0.001573  -0.032341  -0.008583  -0.000273
    12  C   -0.000163   0.000973   0.000981  -0.004960  -0.000204  -0.000020
    13  C   -0.001861   0.002540  -0.000665  -0.000611  -0.000007   0.000001
    14  C   -0.001807  -0.000042  -0.000041  -0.000009   0.000000   0.000000
    15  C   -0.001094  -0.000058   0.000034   0.000002   0.000000   0.000000
    16  C    0.000025  -0.000223  -0.000109  -0.000005   0.000001   0.000000
    17  C    0.000468  -0.000097   0.001628   0.000586   0.000051   0.000001
    18  O   -0.055826   0.410867  -0.049396   0.007314   0.000194   0.000335
    19  O   -0.062141   0.433951  -0.053804  -0.001930  -0.000165  -0.000115
    20  H    0.333127  -0.004495  -0.000135  -0.000055   0.000005   0.000000
    21  H    0.357969  -0.017660   0.002575  -0.000043   0.000001   0.000000
    22  H    0.337505  -0.002329  -0.000039  -0.000020  -0.000011  -0.000001
    23  H    0.000082  -0.004312   0.288471  -0.029476  -0.007416   0.000548
    24  H    0.000001   0.000003   0.001613  -0.023955   0.342667  -0.009080
    25  H    0.000001  -0.000032  -0.006248  -0.025288   0.327440  -0.002136
    26  H    0.000002  -0.000277   0.001752  -0.025584   0.009441  -0.012473
    27  H    0.000050   0.003999  -0.005536  -0.024048   0.003703  -0.004115
    28  H    0.000000   0.000353   0.004575  -0.035357  -0.005770   0.008612
    29  H   -0.000097   0.001025  -0.003655  -0.027876   0.004767  -0.000114
    30  H    0.000002  -0.000052   0.000131  -0.007891   0.002394   0.000149
    31  H   -0.000001   0.000031   0.000050   0.004573   0.000223  -0.000018
    32  H    0.000004   0.000074  -0.000003   0.000117   0.000000   0.000000
    33  H    0.000002   0.000002   0.000000   0.000000   0.000000   0.000000
    34  H   -0.000001   0.000000   0.000000   0.000000   0.000000   0.000000
    35  H   -0.000005  -0.000001  -0.000002   0.000000   0.000000   0.000000
    36  H   -0.000007   0.000022   0.000246  -0.000037   0.000052   0.000002
               7          8          9         10         11         12
     1  C   -0.000152   0.000000   0.000000  -0.000127   0.000073  -0.000163
     2  S   -0.004871  -0.000054   0.000000  -0.003729  -0.000318   0.000973
     3  N   -0.058437  -0.000130  -0.000032  -0.065228   0.001573   0.000981
     4  C    0.358696   0.002160   0.000252   0.364669  -0.032341  -0.004960
     5  C   -0.193589  -0.045765  -0.045040  -0.051701  -0.008583  -0.000204
     6  S    0.131950   0.435745   0.410331   0.005562  -0.000273  -0.000020
     7  C    5.728749  -0.045761  -0.044524  -0.059575   0.004052   0.000010
     8  O   -0.045761   8.204227  -0.046484  -0.000070   0.000000   0.000000
     9  O   -0.044524  -0.046484   8.245677  -0.002857  -0.000001  -0.000001
    10  C   -0.059575  -0.000070  -0.002857   5.169854   0.328324  -0.030258
    11  C    0.004052   0.000000  -0.000001   0.328324   5.183683   0.355028
    12  C    0.000010   0.000000  -0.000001  -0.030258   0.355028   4.615404
    13  C   -0.000014   0.000000   0.000000  -0.004737  -0.066582   0.539852
    14  C    0.000000   0.000000   0.000000   0.000215   0.006310  -0.018340
    15  C    0.000000   0.000000   0.000000   0.000003   0.000340  -0.034635
    16  C    0.000000   0.000000   0.000000  -0.000163   0.007381  -0.020080
    17  C   -0.000003   0.000000   0.000000   0.000793  -0.049977   0.550237
    18  O    0.003873   0.000000   0.000000  -0.007973  -0.000044  -0.000430
    19  O   -0.002707   0.000000   0.000000  -0.000055   0.000001  -0.000001
    20  H    0.000002   0.000000   0.000000   0.000000  -0.000102   0.000448
    21  H    0.000007   0.000000   0.000000  -0.000005   0.000001   0.000028
    22  H   -0.000003   0.000000   0.000000   0.000016  -0.000006  -0.000001
    23  H    0.000971  -0.000052   0.000000   0.004943  -0.000202   0.000152
    24  H    0.009025   0.000648   0.000236  -0.007116   0.000899   0.000219
    25  H    0.003941   0.000565   0.001185   0.004113   0.000000  -0.000011
    26  H    0.347933   0.000706  -0.000352  -0.002919   0.000147  -0.000004
    27  H    0.325963   0.000650   0.001100   0.003531  -0.000097   0.000001
    28  H   -0.004403   0.000027   0.006677   0.356064  -0.028320   0.003319
    29  H   -0.005084   0.000001   0.000067   0.365502  -0.036261  -0.006435
    30  H    0.000221   0.000001  -0.000002  -0.040828   0.357024  -0.034655
    31  H   -0.000133   0.000000  -0.000003  -0.035047   0.362661  -0.030247
    32  H    0.000002   0.000000   0.000000   0.001447  -0.009281  -0.045762
    33  H    0.000000   0.000000   0.000000   0.000001  -0.000180   0.003514
    34  H    0.000000   0.000000   0.000000   0.000000   0.000007   0.000703
    35  H    0.000000   0.000000   0.000000   0.000002  -0.000179   0.003755
    36  H    0.000001   0.000000   0.000000   0.000135  -0.012284  -0.042418
              13         14         15         16         17         18
     1  C   -0.001861  -0.001807  -0.001094   0.000025   0.000468  -0.055826
     2  S    0.002540  -0.000042  -0.000058  -0.000223  -0.000097   0.410867
     3  N   -0.000665  -0.000041   0.000034  -0.000109   0.001628  -0.049396
     4  C   -0.000611  -0.000009   0.000002  -0.000005   0.000586   0.007314
     5  C   -0.000007   0.000000   0.000000   0.000001   0.000051   0.000194
     6  S    0.000001   0.000000   0.000000   0.000000   0.000001   0.000335
     7  C   -0.000014   0.000000   0.000000   0.000000  -0.000003   0.003873
     8  O    0.000000   0.000000   0.000000   0.000000   0.000000   0.000000
     9  O    0.000000   0.000000   0.000000   0.000000   0.000000   0.000000
    10  C   -0.004737   0.000215   0.000003  -0.000163   0.000793  -0.007973
    11  C   -0.066582   0.006310   0.000340   0.007381  -0.049977  -0.000044
    12  C    0.539852  -0.018340  -0.034635  -0.020080   0.550237  -0.000430
    13  C    4.980182   0.523062  -0.037544  -0.047847  -0.040893   0.000616
    14  C    0.523062   4.876061   0.543758  -0.028310  -0.046403  -0.000118
    15  C   -0.037544   0.543758   4.870322   0.548721  -0.036658   0.000003
    16  C   -0.047847  -0.028310   0.548721   4.883528   0.517525   0.000001
    17  C   -0.040893  -0.046403  -0.036658   0.517525   4.971267  -0.000010
    18  O    0.000616  -0.000118   0.000003   0.000001  -0.000010   8.275964
    19  O    0.000000   0.000000   0.000000   0.000000   0.000000  -0.046456
    20  H    0.002737   0.005653   0.003762   0.001185  -0.000244  -0.000433
    21  H   -0.000015  -0.000058   0.000000   0.000015   0.000036  -0.000498
    22  H    0.000055   0.000019   0.000026  -0.000011  -0.000018   0.001655
    23  H    0.000016  -0.000001  -0.000001  -0.000001   0.000098   0.001613
    24  H    0.000003   0.000000   0.000000  -0.000001  -0.000046   0.000001
    25  H    0.000000   0.000000   0.000000   0.000000  -0.000001   0.000000
    26  H   -0.000001   0.000000   0.000000   0.000000   0.000000  -0.000053
    27  H    0.000001   0.000000   0.000000   0.000000   0.000000  -0.002694
    28  H    0.000202   0.000001   0.000000   0.000002  -0.000093   0.000190
    29  H    0.002826  -0.000112   0.000000  -0.000002   0.000230   0.010887
    30  H    0.004812  -0.000175   0.000002   0.000186  -0.004954  -0.000009
    31  H   -0.005167  -0.000050   0.000035  -0.000249   0.001242  -0.000003
    32  H    0.356291  -0.042745   0.004735   0.000367   0.006061   0.000081
    33  H   -0.038671   0.358830  -0.043106   0.004545   0.000845  -0.000002
    34  H    0.004689  -0.042590   0.360116  -0.042959   0.004603   0.000000
    35  H    0.000784   0.004604  -0.043331   0.357446  -0.039296   0.000000
    36  H    0.006697   0.000305   0.004919  -0.047952   0.352622   0.000000
              19         20         21         22         23         24
     1  C   -0.062141   0.333127   0.357969   0.337505   0.000082   0.000001
     2  S    0.433951  -0.004495  -0.017660  -0.002329  -0.004312   0.000003
     3  N   -0.053804  -0.000135   0.002575  -0.000039   0.288471   0.001613
     4  C   -0.001930  -0.000055  -0.000043  -0.000020  -0.029476  -0.023955
     5  C   -0.000165   0.000005   0.000001  -0.000011  -0.007416   0.342667
     6  S   -0.000115   0.000000   0.000000  -0.000001   0.000548  -0.009080
     7  C   -0.002707   0.000002   0.000007  -0.000003   0.000971   0.009025
     8  O    0.000000   0.000000   0.000000   0.000000  -0.000052   0.000648
     9  O    0.000000   0.000000   0.000000   0.000000   0.000000   0.000236
    10  C   -0.000055   0.000000  -0.000005   0.000016   0.004943  -0.007116
    11  C    0.000001  -0.000102   0.000001  -0.000006  -0.000202   0.000899
    12  C   -0.000001   0.000448   0.000028  -0.000001   0.000152   0.000219
    13  C    0.000000   0.002737  -0.000015   0.000055   0.000016   0.000003
    14  C    0.000000   0.005653  -0.000058   0.000019  -0.000001   0.000000
    15  C    0.000000   0.003762   0.000000   0.000026  -0.000001   0.000000
    16  C    0.000000   0.001185   0.000015  -0.000011  -0.000001  -0.000001
    17  C    0.000000  -0.000244   0.000036  -0.000018   0.000098  -0.000046
    18  O   -0.046456  -0.000433  -0.000498   0.001655   0.001613   0.000001
    19  O    8.248171   0.001690   0.000147  -0.000685   0.001569   0.000000
    20  H    0.001690   0.456457  -0.018004  -0.022012   0.000040   0.000000
    21  H    0.000147  -0.018004   0.476516  -0.020482  -0.000082   0.000000
    22  H   -0.000685  -0.022012  -0.020482   0.506810   0.000130   0.000000
    23  H    0.001569   0.000040  -0.000082   0.000130   0.388990  -0.000060
    24  H    0.000000   0.000000   0.000000   0.000000  -0.000060   0.478516
    25  H   -0.000023   0.000000   0.000000  -0.000001   0.007533  -0.020321
    26  H   -0.000024   0.000000   0.000000   0.000000  -0.000163  -0.000248
    27  H    0.008793  -0.000006   0.000001   0.000006   0.000796  -0.000250
    28  H    0.000001   0.000001   0.000000   0.000000  -0.000121  -0.000217
    29  H    0.000002   0.000019   0.000003  -0.000005  -0.000103   0.000203
    30  H    0.000000  -0.000004   0.000000   0.000000  -0.000128   0.007219
    31  H    0.000000   0.000001   0.000000   0.000000   0.000007  -0.000298
    32  H    0.000000  -0.000019   0.000000   0.000001   0.000000   0.000001
    33  H    0.000000   0.000001   0.000000   0.000000   0.000000   0.000000
    34  H    0.000000  -0.000001   0.000000   0.000000   0.000000   0.000000
    35  H    0.000000   0.000010   0.000000   0.000003   0.000000   0.000000
    36  H    0.000000  -0.000001   0.000000   0.000003   0.000016   0.000017
              25         26         27         28         29         30
     1  C    0.000001   0.000002   0.000050   0.000000  -0.000097   0.000002
     2  S   -0.000032  -0.000277   0.003999   0.000353   0.001025  -0.000052
     3  N   -0.006248   0.001752  -0.005536   0.004575  -0.003655   0.000131
     4  C   -0.025288  -0.025584  -0.024048  -0.035357  -0.027876  -0.007891
     5  C    0.327440   0.009441   0.003703  -0.005770   0.004767   0.002394
     6  S   -0.002136  -0.012473  -0.004115   0.008612  -0.000114   0.000149
     7  C    0.003941   0.347933   0.325963  -0.004403  -0.005084   0.000221
     8  O    0.000565   0.000706   0.000650   0.000027   0.000001   0.000001
     9  O    0.001185  -0.000352   0.001100   0.006677   0.000067  -0.000002
    10  C    0.004113  -0.002919   0.003531   0.356064   0.365502  -0.040828
    11  C    0.000000   0.000147  -0.000097  -0.028320  -0.036261   0.357024
    12  C   -0.000011  -0.000004   0.000001   0.003319  -0.006435  -0.034655
    13  C    0.000000  -0.000001   0.000001   0.000202   0.002826   0.004812
    14  C    0.000000   0.000000   0.000000   0.000001  -0.000112  -0.000175
    15  C    0.000000   0.000000   0.000000   0.000000   0.000000   0.000002
    16  C    0.000000   0.000000   0.000000   0.000002  -0.000002   0.000186
    17  C   -0.000001   0.000000   0.000000  -0.000093   0.000230  -0.004954
    18  O    0.000000  -0.000053  -0.002694   0.000190   0.010887  -0.000009
    19  O   -0.000023  -0.000024   0.008793   0.000001   0.000002   0.000000
    20  H    0.000000   0.000000  -0.000006   0.000001   0.000019  -0.000004
    21  H    0.000000   0.000000   0.000001   0.000000   0.000003   0.000000
    22  H   -0.000001   0.000000   0.000006   0.000000  -0.000005   0.000000
    23  H    0.007533  -0.000163   0.000796  -0.000121  -0.000103  -0.000128
    24  H   -0.020321  -0.000248  -0.000250  -0.000217   0.000203   0.007219
    25  H    0.511128  -0.000254   0.000006   0.000105  -0.000116  -0.000374
    26  H   -0.000254   0.470039  -0.016512  -0.000471   0.002721   0.000011
    27  H    0.000006  -0.016512   0.471530   0.000220  -0.000020  -0.000001
    28  H    0.000105  -0.000471   0.000220   0.556181  -0.026324  -0.000042
    29  H   -0.000116   0.002721  -0.000020  -0.026324   0.508230   0.004299
    30  H   -0.000374   0.000011  -0.000001  -0.000042   0.004299   0.600260
    31  H    0.000005  -0.000014   0.000001  -0.006558   0.000072  -0.033374
    32  H    0.000000   0.000000   0.000000  -0.000183   0.003670   0.000040
    33  H    0.000000   0.000000   0.000000   0.000000   0.000007   0.000003
    34  H    0.000000   0.000000   0.000000   0.000000   0.000000   0.000000
    35  H    0.000000   0.000000   0.000000   0.000000   0.000000  -0.000011
    36  H    0.000003   0.000000   0.000000  -0.000008   0.000013   0.008277
              31         32         33         34         35         36
     1  C   -0.000001   0.000004   0.000002  -0.000001  -0.000005  -0.000007
     2  S    0.000031   0.000074   0.000002   0.000000  -0.000001   0.000022
     3  N    0.000050  -0.000003   0.000000   0.000000  -0.000002   0.000246
     4  C    0.004573   0.000117   0.000000   0.000000   0.000000  -0.000037
     5  C    0.000223   0.000000   0.000000   0.000000   0.000000   0.000052
     6  S   -0.000018   0.000000   0.000000   0.000000   0.000000   0.000002
     7  C   -0.000133   0.000002   0.000000   0.000000   0.000000   0.000001
     8  O    0.000000   0.000000   0.000000   0.000000   0.000000   0.000000
     9  O   -0.000003   0.000000   0.000000   0.000000   0.000000   0.000000
    10  C   -0.035047   0.001447   0.000001   0.000000   0.000002   0.000135
    11  C    0.362661  -0.009281  -0.000180   0.000007  -0.000179  -0.012284
    12  C   -0.030247  -0.045762   0.003514   0.000703   0.003755  -0.042418
    13  C   -0.005167   0.356291  -0.038671   0.004689   0.000784   0.006697
    14  C   -0.000050  -0.042745   0.358830  -0.042590   0.004604   0.000305
    15  C    0.000035   0.004735  -0.043106   0.360116  -0.043331   0.004919
    16  C   -0.000249   0.000367   0.004545  -0.042959   0.357446  -0.047952
    17  C    0.001242   0.006061   0.000845   0.004603  -0.039296   0.352622
    18  O   -0.000003   0.000081  -0.000002   0.000000   0.000000   0.000000
    19  O    0.000000   0.000000   0.000000   0.000000   0.000000   0.000000
    20  H    0.000001  -0.000019   0.000001  -0.000001   0.000010  -0.000001
    21  H    0.000000   0.000000   0.000000   0.000000   0.000000   0.000000
    22  H    0.000000   0.000001   0.000000   0.000000   0.000003   0.000003
    23  H    0.000007   0.000000   0.000000   0.000000   0.000000   0.000016
    24  H   -0.000298   0.000001   0.000000   0.000000   0.000000   0.000017
    25  H    0.000005   0.000000   0.000000   0.000000   0.000000   0.000003
    26  H   -0.000014   0.000000   0.000000   0.000000   0.000000   0.000000
    27  H    0.000001   0.000000   0.000000   0.000000   0.000000   0.000000
    28  H   -0.006558  -0.000183   0.000000   0.000000   0.000000  -0.000008
    29  H    0.000072   0.003670   0.000007   0.000000   0.000000   0.000013
    30  H   -0.033374   0.000040   0.000003   0.000000  -0.000011   0.008277
    31  H    0.573065   0.001973  -0.000001   0.000000   0.000004   0.000153
    32  H    0.001973   0.592088  -0.005459  -0.000176   0.000017  -0.000180
    33  H   -0.000001  -0.005459   0.587848  -0.005371  -0.000185   0.000017
    34  H    0.000000  -0.000176  -0.005371   0.593358  -0.005535  -0.000178
    35  H    0.000004   0.000017  -0.000185  -0.005535   0.595613  -0.005669
    36  H    0.000153  -0.000180   0.000017  -0.000178  -0.005669   0.614706
 Mulliken charges:
               1
     1  C   -0.632902
     2  S    1.193076
     3  N   -0.711710
     4  C    0.178968
     5  C   -0.511773
     6  S    1.110336
     7  C   -0.496140
     8  O   -0.506415
     9  O   -0.526229
    10  C   -0.292785
    11  C   -0.362473
    12  C    0.194000
    13  C   -0.180751
    14  C   -0.138019
    15  C   -0.140351
    16  C   -0.133016
    17  C   -0.189601
    18  O   -0.549651
    19  O   -0.526218
    20  H    0.240372
    21  H    0.219547
    22  H    0.199396
    23  H    0.346143
    24  H    0.220320
    25  H    0.198782
    26  H    0.226599
    27  H    0.232926
    28  H    0.171338
    29  H    0.201661
    30  H    0.137468
    31  H    0.167066
    32  H    0.136841
    33  H    0.137360
    34  H    0.133334
    35  H    0.131975
    36  H    0.120528
 Sum of Mulliken charges =   0.00000
 Mulliken charges with hydrogens summed into heavy atoms:
               1
     1  C    0.026413
     2  S    1.193076
     3  N   -0.365567
     4  C    0.178968
     5  C   -0.092671
     6  S    1.110336
     7  C   -0.036616
     8  O   -0.506415
     9  O   -0.526229
    10  C    0.080214
    11  C   -0.057939
    12  C    0.194000
    13  C   -0.043910
    14  C   -0.000659
    15  C   -0.007018
    16  C   -0.001040
    17  C   -0.069073
    18  O   -0.549651
    19  O   -0.526218
 Electronic spatial extent (au):  <R**2>=           6190.4544
 Charge=              0.0000 electrons
 Dipole moment (field-independent basis, Debye):
    X=              6.6392    Y=             -0.8297    Z=             -2.6357  Tot=              7.1913
 Quadrupole moment (field-independent basis, Debye-Ang):
   XX=           -146.7643   YY=           -135.5717   ZZ=           -119.9773
   XY=              2.3732   XZ=             -2.3820   YZ=             -0.4751
 Traceless Quadrupole moment (field-independent basis, Debye-Ang):
   XX=            -12.6599   YY=             -1.4673   ZZ=             14.1272
   XY=              2.3732   XZ=             -2.3820   YZ=             -0.4751
 Octapole moment (field-independent basis, Debye-Ang**2):
  XXX=            159.6594  YYY=             -4.1867  ZZZ=            -10.6505  XYY=             12.7704
  XXY=             60.1485  XXZ=             10.0554  XZZ=             -2.9434  YZZ=             -1.0513
  YYZ=            -10.9382  XYZ=            -16.0201
 Hexadecapole moment (field-independent basis, Debye-Ang**3):
 XXXX=          -5960.2325 YYYY=          -2034.0181 ZZZZ=           -650.8477 XXXY=            -13.0871
 XXXZ=            -78.6186 YYYX=            115.7167 YYYZ=             12.6158 ZZZX=              0.3972
 ZZZY=            -14.7101 XXYY=          -1302.6423 XXZZ=           -989.8653 YYZZ=           -433.0109
 XXYZ=             61.2433 YYXZ=             12.3015 ZZXY=             -1.6456
 N-N= 1.891799070456D+03 E-N=-7.589589365985D+03  KE= 1.608789958007D+03
 No NMR shielding tensors so no spin-rotation constants.
 Leave Link  601 at Fri Aug  7 23:40:22 2020, MaxMem=    33554432 cpu:         0.3
 (Enter /prod/apps/gaussian/g09d1/l9999.exe)
 1\1\GINC-PIRINEUS21\SP\RB3LYP\6-31G(d)\C12H17N1O4S2\UBAFAR01\07-Aug-20
 20\0\\#p b3lyp/6-31G(d)\\SM38.n.8.pdb.xyz\\0,1\C,0,5.353,1.032,-0.986\
 S,0,5.149,-0.569,-1.756\N,0,4.017,-1.306,-0.737\C,0,3.061,-2.268,-1.31
 9\C,0,2.6,-3.28,-0.218\S,0,2.877,-4.668,-1.367\C,0,3.691,-3.331,-2.297
 \O,0,3.796,-5.7,-0.851\O,0,1.621,-5.106,-2.009\C,0,1.855,-1.574,-1.977
 \C,0,0.977,-0.708,-1.052\C,0,1.429,0.72,-0.829\C,0,1.587,1.6,-1.909\C,
 0,1.951,2.932,-1.704\C,0,2.162,3.41,-0.408\C,0,2.005,2.546,0.677\C,0,1
 .641,1.214,0.465\O,0,4.512,-0.417,-3.074\O,0,6.441,-1.277,-1.686\H,0,4
 .399,1.557,-1.009\H,0,6.108,1.564,-1.567\H,0,5.698,0.883,0.036\H,0,4.5
 19,-1.678,0.073\H,0,1.57,-3.187,0.119\H,0,3.273,-3.372,0.636\H,0,3.392
 ,-3.271,-3.343\H,0,4.773,-3.424,-2.201\H,0,1.234,-2.37,-2.399\H,0,2.22
 2,-0.982,-2.818\H,0,0.854,-1.2,-0.08\H,0,-0.023,-0.683,-1.5\H,0,1.419,
 1.24,-2.92\H,0,2.066,3.596,-2.555\H,0,2.443,4.446,-0.246\H,0,2.164,2.9
 06,1.688\H,0,1.518,0.545,1.311\\Version=AM64L-G09RevD.01\State=1-A\HF=
 -1619.3853279\RMSD=4.235e-09\Dipole=-0.3360628,2.4697004,1.3388223\Qua
 drupole=-0.8667883,-9.0776893,9.9444776,2.6187409,2.9054119,-0.3165\PG
 =C01 [X(C12H17N1O4S2)]\\@


 SIC AS THE CAWSE OF EWERY THING IS, SIC WILBE THE EFFECT.
 -- PROVERBS AND REASONS OF THE YEAR 1585
           AS REPRINTED IN PAISLEY MAGAZINE 1828.
 Job cpu time:       0 days  0 hours  6 minutes 13.0 seconds.
 File lengths (MBytes):  RWF=     60 Int=      0 D2E=      0 Chk=      5 Scr=      1
 Normal termination of Gaussian 09 at Fri Aug  7 23:40:22 2020.
 Initial command:
 /prod/apps/gaussian/g09d1/l1.exe "/tmp/ubafar01/1448994/Gau-54202.inp" -scrdir="/tmp/ubafar01/1448994/"
 Entering Link 1 = /prod/apps/gaussian/g09d1/l1.exe PID=     55609.
  
 Copyright (c) 1988,1990,1992,1993,1995,1998,2003,2009,2013,
            Gaussian, Inc.  All Rights Reserved.
  
 This is part of the Gaussian(R) 09 program.  It is based on
 the Gaussian(R) 03 system (copyright 2003, Gaussian, Inc.),
 the Gaussian(R) 98 system (copyright 1998, Gaussian, Inc.),
 the Gaussian(R) 94 system (copyright 1995, Gaussian, Inc.),
 the Gaussian 92(TM) system (copyright 1992, Gaussian, Inc.),
 the Gaussian 90(TM) system (copyright 1990, Gaussian, Inc.),
 the Gaussian 88(TM) system (copyright 1988, Gaussian, Inc.),
 the Gaussian 86(TM) system (copyright 1986, Carnegie Mellon
 University), and the Gaussian 82(TM) system (copyright 1983,
 Carnegie Mellon University). Gaussian is a federally registered
 trademark of Gaussian, Inc.
  
 This software contains proprietary and confidential information,
 including trade secrets, belonging to Gaussian, Inc.
  
 This software is provided under written license and may be
 used, copied, transmitted, or stored only in accord with that
 written license.
  
 The following legend is applicable only to US Government
 contracts under FAR:
  
                    RESTRICTED RIGHTS LEGEND
  
 Use, reproduction and disclosure by the US Government is
 subject to restrictions as set forth in subparagraphs (a)
 and (c) of the Commercial Computer Software - Restricted
 Rights clause in FAR 52.227-19.
  
 Gaussian, Inc.
 340 Quinnipiac St., Bldg. 40, Wallingford CT 06492
  
  
 ---------------------------------------------------------------
 Warning -- This program may not be used in any manner that
 competes with the business of Gaussian, Inc. or will provide
 assistance to any competitor of Gaussian, Inc.  The licensee
 of this program is prohibited from giving any competitor of
 Gaussian, Inc. access to this program.  By using this program,
 the user acknowledges that Gaussian, Inc. is engaged in the
 business of creating and licensing software in the field of
 computational chemistry and represents and warrants to the
 licensee that it is not a competitor of Gaussian, Inc. and that
 it will not use this program in any manner prohibited above.
 ---------------------------------------------------------------
  

 Cite this work as:
 Gaussian 09, Revision D.01,
 M. J. Frisch, G. W. Trucks, H. B. Schlegel, G. E. Scuseria, 
 M. A. Robb, J. R. Cheeseman, G. Scalmani, V. Barone, B. Mennucci, 
 G. A. Petersson, H. Nakatsuji, M. Caricato, X. Li, H. P. Hratchian, 
 A. F. Izmaylov, J. Bloino, G. Zheng, J. L. Sonnenberg, M. Hada, 
 M. Ehara, K. Toyota, R. Fukuda, J. Hasegawa, M. Ishida, T. Nakajima, 
 Y. Honda, O. Kitao, H. Nakai, T. Vreven, J. A. Montgomery, Jr., 
 J. E. Peralta, F. Ogliaro, M. Bearpark, J. J. Heyd, E. Brothers, 
 K. N. Kudin, V. N. Staroverov, T. Keith, R. Kobayashi, J. Normand, 
 K. Raghavachari, A. Rendell, J. C. Burant, S. S. Iyengar, J. Tomasi, 
 M. Cossi, N. Rega, J. M. Millam, M. Klene, J. E. Knox, J. B. Cross, 
 V. Bakken, C. Adamo, J. Jaramillo, R. Gomperts, R. E. Stratmann, 
 O. Yazyev, A. J. Austin, R. Cammi, C. Pomelli, J. W. Ochterski, 
 R. L. Martin, K. Morokuma, V. G. Zakrzewski, G. A. Voth, 
 P. Salvador, J. J. Dannenberg, S. Dapprich, A. D. Daniels, 
 O. Farkas, J. B. Foresman, J. V. Ortiz, J. Cioslowski, 
 and D. J. Fox, Gaussian, Inc., Wallingford CT, 2013.
 
 ******************************************
 Gaussian 09:  AM64L-G09RevD.01 24-Apr-2013
                 7-Aug-2020 
 ******************************************
 %nproc=1
 Will use up to    1 processors via shared memory.
 %Chk=SM38.n.8.pdb.xyz.mst.n.w.chk
 %subst l502 /dades/curu/work_g09D01_MST_AddSphPartition_ReadGammas/exe-dir/
 ----------------------------------------------------------------------
 #p b3lyp/6-31G(d) scrf=(iefpcm,read,solvent=Water) geom=allcheck guess
 =read
 ----------------------------------------------------------------------
 1/29=7,38=1,40=2/1;
 2/12=2,40=1/2;
 3/5=1,6=6,7=1,11=2,14=-4,16=1,25=1,30=1,70=2203,72=1,74=-5,116=-2/1,2,3;
 4/5=1/1;
 5/5=2,38=6,53=1/2;
 6/7=2,8=2,9=2,10=2,28=1/1;
 99/5=1,9=1/99;
 Leave Link    1 at Fri Aug  7 23:40:22 2020, MaxMem=           0 cpu:         0.0
 (Enter /prod/apps/gaussian/g09d1/l101.exe)
 Structure from the checkpoint file:  "SM38.n.8.pdb.xyz.mst.n.w.chk"
 ----------------
 SM38.n.8.pdb.xyz
 ----------------
 Charge =  0 Multiplicity = 1
 Z-Matrix found in file.
 C,0,5.353,1.032,-0.986
 S,0,5.149,-0.569,-1.756
 N,0,4.017,-1.306,-0.737
 C,0,3.061,-2.268,-1.319
 C,0,2.6,-3.28,-0.218
 S,0,2.877,-4.668,-1.367
 C,0,3.691,-3.331,-2.297
 O,0,3.796,-5.7,-0.851
 O,0,1.621,-5.106,-2.009
 C,0,1.855,-1.574,-1.977
 C,0,0.977,-0.708,-1.052
 C,0,1.429,0.72,-0.829
 C,0,1.587,1.6,-1.909
 C,0,1.951,2.932,-1.704
 C,0,2.162,3.41,-0.408
 C,0,2.005,2.546,0.677
 C,0,1.641,1.214,0.465
 O,0,4.512,-0.417,-3.074
 O,0,6.441,-1.277,-1.686
 H,0,4.399,1.557,-1.009
 H,0,6.108,1.564,-1.567
 H,0,5.698,0.883,0.036
 H,0,4.519,-1.678,0.073
 H,0,1.57,-3.187,0.119
 H,0,3.273,-3.372,0.636
 H,0,3.392,-3.271,-3.343
 H,0,4.773,-3.424,-2.201
 H,0,1.234,-2.37,-2.399
 H,0,2.222,-0.982,-2.818
 H,0,0.854,-1.2,-0.08
 H,0,-0.023,-0.683,-1.5
 H,0,1.419,1.24,-2.92
 H,0,2.066,3.596,-2.555
 H,0,2.443,4.446,-0.246
 H,0,2.164,2.906,1.688
 H,0,1.518,0.545,1.311
 Recover connectivity data from disk.
 NAtoms=     36 NQM=       36 NQMF=       0 NMMI=      0 NMMIF=      0
                NMic=       0 NMicF=      0.
                    Isotopes and Nuclear Properties:
 (Nuclear quadrupole moments (NQMom) in fm**2, nuclear magnetic moments (NMagM)
  in nuclear magnetons)

  Atom         1           2           3           4           5           6           7           8           9          10
 IAtWgt=          12          32          14          12          12          32          12          16          16          12
 AtmWgt=  12.0000000  31.9720718  14.0030740  12.0000000  12.0000000  31.9720718  12.0000000  15.9949146  15.9949146  12.0000000
 NucSpn=           0           0           2           0           0           0           0           0           0           0
 AtZEff=  -3.6000000 -13.6000000  -4.5500000  -3.6000000  -3.6000000 -13.6000000  -3.6000000  -5.6000000  -5.6000000  -3.6000000
 NQMom=    0.0000000   0.0000000   2.0440000   0.0000000   0.0000000   0.0000000   0.0000000   0.0000000   0.0000000   0.0000000
 NMagM=    0.0000000   0.0000000   0.4037610   0.0000000   0.0000000   0.0000000   0.0000000   0.0000000   0.0000000   0.0000000
 AtZNuc=   6.0000000  16.0000000   7.0000000   6.0000000   6.0000000  16.0000000   6.0000000   8.0000000   8.0000000   6.0000000

  Atom        11          12          13          14          15          16          17          18          19          20
 IAtWgt=          12          12          12          12          12          12          12          16          16           1
 AtmWgt=  12.0000000  12.0000000  12.0000000  12.0000000  12.0000000  12.0000000  12.0000000  15.9949146  15.9949146   1.0078250
 NucSpn=           0           0           0           0           0           0           0           0           0           1
 AtZEff=  -3.6000000  -3.6000000  -3.6000000  -3.6000000  -3.6000000  -3.6000000  -3.6000000  -5.6000000  -5.6000000  -1.0000000
 NQMom=    0.0000000   0.0000000   0.0000000   0.0000000   0.0000000   0.0000000   0.0000000   0.0000000   0.0000000   0.0000000
 NMagM=    0.0000000   0.0000000   0.0000000   0.0000000   0.0000000   0.0000000   0.0000000   0.0000000   0.0000000   2.7928460
 AtZNuc=   6.0000000   6.0000000   6.0000000   6.0000000   6.0000000   6.0000000   6.0000000   8.0000000   8.0000000   1.0000000

  Atom        21          22          23          24          25          26          27          28          29          30
 IAtWgt=           1           1           1           1           1           1           1           1           1           1
 AtmWgt=   1.0078250   1.0078250   1.0078250   1.0078250   1.0078250   1.0078250   1.0078250   1.0078250   1.0078250   1.0078250
 NucSpn=           1           1           1           1           1           1           1           1           1           1
 AtZEff=  -1.0000000  -1.0000000  -1.0000000  -1.0000000  -1.0000000  -1.0000000  -1.0000000  -1.0000000  -1.0000000  -1.0000000
 NQMom=    0.0000000   0.0000000   0.0000000   0.0000000   0.0000000   0.0000000   0.0000000   0.0000000   0.0000000   0.0000000
 NMagM=    2.7928460   2.7928460   2.7928460   2.7928460   2.7928460   2.7928460   2.7928460   2.7928460   2.7928460   2.7928460
 AtZNuc=   1.0000000   1.0000000   1.0000000   1.0000000   1.0000000   1.0000000   1.0000000   1.0000000   1.0000000   1.0000000

  Atom        31          32          33          34          35          36
 IAtWgt=           1           1           1           1           1           1
 AtmWgt=   1.0078250   1.0078250   1.0078250   1.0078250   1.0078250   1.0078250
 NucSpn=           1           1           1           1           1           1
 AtZEff=  -1.0000000  -1.0000000  -1.0000000  -1.0000000  -1.0000000  -1.0000000
 NQMom=    0.0000000   0.0000000   0.0000000   0.0000000   0.0000000   0.0000000
 NMagM=    2.7928460   2.7928460   2.7928460   2.7928460   2.7928460   2.7928460
 AtZNuc=   1.0000000   1.0000000   1.0000000   1.0000000   1.0000000   1.0000000
 Leave Link  101 at Fri Aug  7 23:40:22 2020, MaxMem=    33554432 cpu:         0.1
 (Enter /prod/apps/gaussian/g09d1/l202.exe)
                          Input orientation:                          
 ---------------------------------------------------------------------
 Center     Atomic      Atomic             Coordinates (Angstroms)
 Number     Number       Type             X           Y           Z
 ---------------------------------------------------------------------
      1          6           0        5.353000    1.032000   -0.986000
      2         16           0        5.149000   -0.569000   -1.756000
      3          7           0        4.017000   -1.306000   -0.737000
[...]
    23  H   -0.000322  -0.004046   0.293056  -0.025349  -0.006036   0.000456
    24  H    0.000001  -0.000004   0.001447  -0.025399   0.345923  -0.010117
    25  H    0.000000   0.000059  -0.004937  -0.023381   0.334036  -0.003115
    26  H    0.000002  -0.000162   0.001738  -0.025670   0.008961  -0.011272
    27  H    0.000048   0.004493  -0.005770  -0.024185   0.003449  -0.003898
    28  H    0.000000   0.000310   0.004656  -0.035890  -0.006275   0.008528
    29  H   -0.000105   0.001285  -0.003793  -0.029019   0.004847  -0.000260
    30  H    0.000002  -0.000051   0.000088  -0.007774   0.002529   0.000080
    31  H   -0.000001   0.000031   0.000045   0.004512   0.000210  -0.000024
    32  H    0.000002   0.000076  -0.000004   0.000114   0.000000   0.000000
    33  H    0.000000   0.000002   0.000000   0.000000   0.000000   0.000000
    34  H   -0.000002   0.000000   0.000000   0.000000   0.000000   0.000000
    35  H   -0.000006  -0.000001  -0.000002   0.000000   0.000000   0.000000
    36  H   -0.000007   0.000019   0.000232  -0.000030   0.000045   0.000001
               7          8          9         10         11         12
     1  C   -0.000148   0.000000   0.000000  -0.000131   0.000069  -0.000206
     2  S   -0.005743  -0.000054   0.000000  -0.003277  -0.000337   0.001052
     3  N   -0.056903  -0.000138  -0.000037  -0.066103   0.001341   0.001218
     4  C    0.344353   0.002648   0.000957   0.363240  -0.032511  -0.004929
     5  C   -0.182219  -0.045996  -0.046059  -0.052688  -0.008213  -0.000175
     6  S    0.138014   0.433030   0.410891   0.007780  -0.000272  -0.000012
     7  C    5.725272  -0.045651  -0.044328  -0.060786   0.004122   0.000011
     8  O   -0.045651   8.254013  -0.045286  -0.000074   0.000000   0.000000
     9  O   -0.044328  -0.045286   8.288871  -0.002670  -0.000003  -0.000001
    10  C   -0.060786  -0.000074  -0.002670   5.155595   0.330785  -0.029352
    11  C    0.004122   0.000000  -0.000003   0.330785   5.174650   0.355710
    12  C    0.000011   0.000000  -0.000001  -0.029352   0.355710   4.624359
    13  C   -0.000015   0.000000   0.000000  -0.004940  -0.066499   0.538540
    14  C    0.000000   0.000000   0.000000   0.000201   0.006224  -0.020125
    15  C    0.000000   0.000000   0.000000   0.000004   0.000303  -0.034339
    16  C    0.000000   0.000000   0.000000  -0.000171   0.007295  -0.021985
    17  C   -0.000003   0.000000   0.000000   0.000904  -0.050133   0.549158
    18  O    0.004082   0.000000   0.000000  -0.007731  -0.000033  -0.000426
    19  O   -0.002665   0.000000   0.000000  -0.000060   0.000001  -0.000001
    20  H    0.000003   0.000000   0.000000  -0.000001  -0.000095   0.000392
    21  H    0.000007   0.000000   0.000000  -0.000005   0.000000   0.000028
    22  H   -0.000003   0.000000   0.000000   0.000014  -0.000005  -0.000001
    23  H    0.000968  -0.000047  -0.000001   0.004033  -0.000169   0.000135
    24  H    0.008682   0.000648   0.000125  -0.006435   0.001274   0.000182
    25  H    0.003623   0.000367   0.001107   0.003818  -0.000032  -0.000008
    26  H    0.347069   0.000687  -0.000514  -0.002995   0.000133  -0.000004
    27  H    0.326768   0.000524   0.001077   0.003532  -0.000096   0.000001
    28  H   -0.004487   0.000023   0.005995   0.356594  -0.028128   0.003256
    29  H   -0.005154   0.000001   0.000065   0.365887  -0.036292  -0.006524
    30  H    0.000208   0.000001  -0.000002  -0.039836   0.361987  -0.034756
    31  H   -0.000133   0.000000  -0.000003  -0.033938   0.363352  -0.030199
    32  H    0.000002   0.000000   0.000000   0.001311  -0.009060  -0.044748
    33  H    0.000000   0.000000   0.000000   0.000001  -0.000174   0.003500
    34  H    0.000000   0.000000   0.000000   0.000000   0.000007   0.000635
    35  H    0.000000   0.000000   0.000000   0.000001  -0.000171   0.003662
    36  H    0.000001   0.000000   0.000000   0.000147  -0.011413  -0.040964
              13         14         15         16         17         18
     1  C   -0.001843  -0.001762  -0.001033   0.000057   0.000459  -0.055623
     2  S    0.002551  -0.000020  -0.000060  -0.000229  -0.000108   0.413492
     3  N   -0.000681  -0.000041   0.000033  -0.000108   0.001531  -0.050322
     4  C   -0.000583  -0.000010   0.000002  -0.000006   0.000567   0.006344
     5  C   -0.000007   0.000000   0.000000   0.000001   0.000052   0.000170
     6  S    0.000001   0.000000   0.000000   0.000000   0.000001   0.000339
     7  C   -0.000015   0.000000   0.000000   0.000000  -0.000003   0.004082
     8  O    0.000000   0.000000   0.000000   0.000000   0.000000   0.000000
     9  O    0.000000   0.000000   0.000000   0.000000   0.000000   0.000000
    10  C   -0.004940   0.000201   0.000004  -0.000171   0.000904  -0.007731
    11  C   -0.066499   0.006224   0.000303   0.007295  -0.050133  -0.000033
    12  C    0.538540  -0.020125  -0.034339  -0.021985   0.549158  -0.000426
    13  C    5.002652   0.519727  -0.039141  -0.047537  -0.042157   0.000594
    14  C    0.519727   4.897496   0.541160  -0.030125  -0.046421  -0.000118
    15  C   -0.039141   0.541160   4.889473   0.545212  -0.038154   0.000003
    16  C   -0.047537  -0.030125   0.545212   4.903933   0.513444   0.000001
    17  C   -0.042157  -0.046421  -0.038154   0.513444   4.988237  -0.000010
    18  O    0.000594  -0.000118   0.000003   0.000001  -0.000010   8.307647
    19  O    0.000000   0.000000   0.000000   0.000000   0.000000  -0.045152
    20  H    0.002719   0.005443   0.003514   0.001069  -0.000247  -0.000423
    21  H   -0.000016  -0.000057   0.000000   0.000014   0.000034  -0.000439
    22  H    0.000051   0.000018   0.000023  -0.000014  -0.000021   0.001570
    23  H    0.000013  -0.000001  -0.000001  -0.000001   0.000087   0.001271
    24  H    0.000003   0.000000   0.000000   0.000000  -0.000038   0.000001
    25  H    0.000000   0.000000   0.000000   0.000000  -0.000001   0.000001
    26  H   -0.000001   0.000000   0.000000   0.000000   0.000000  -0.000015
    27  H    0.000001   0.000000   0.000000   0.000000   0.000000  -0.002599
    28  H    0.000209   0.000002   0.000000   0.000002  -0.000095   0.000184
    29  H    0.003044  -0.000123  -0.000001  -0.000001   0.000240   0.010172
    30  H    0.004680  -0.000167   0.000001   0.000217  -0.004389  -0.000009
    31  H   -0.005153  -0.000048   0.000037  -0.000248   0.001233  -0.000003
    32  H    0.358164  -0.043425   0.004697   0.000301   0.006037   0.000083
    33  H   -0.039008   0.361252  -0.042099   0.004515   0.000765  -0.000002
    34  H    0.004631  -0.042043   0.362978  -0.042147   0.004546   0.000000
    35  H    0.000731   0.004537  -0.042575   0.360497  -0.038312   0.000000
    36  H    0.006464   0.000273   0.004753  -0.046423   0.357047   0.000000
              19         20         21         22         23         24
     1  C   -0.062028   0.335166   0.354764   0.342744  -0.000322   0.000001
     2  S    0.428464  -0.005919  -0.016260  -0.003778  -0.004046  -0.000004
     3  N   -0.053790  -0.000271   0.002563  -0.000186   0.293056   0.001447
     4  C   -0.001882  -0.000064  -0.000047  -0.000009  -0.025349  -0.025399
     5  C   -0.000162   0.000004   0.000001  -0.000009  -0.006036   0.345923
     6  S   -0.000115   0.000000   0.000000  -0.000001   0.000456  -0.010117
     7  C   -0.002665   0.000003   0.000007  -0.000003   0.000968   0.008682
     8  O    0.000000   0.000000   0.000000   0.000000  -0.000047   0.000648
     9  O    0.000000   0.000000   0.000000   0.000000  -0.000001   0.000125
    10  C   -0.000060  -0.000001  -0.000005   0.000014   0.004033  -0.006435
    11  C    0.000001  -0.000095   0.000000  -0.000005  -0.000169   0.001274
    12  C   -0.000001   0.000392   0.000028  -0.000001   0.000135   0.000182
    13  C    0.000000   0.002719  -0.000016   0.000051   0.000013   0.000003
    14  C    0.000000   0.005443  -0.000057   0.000018  -0.000001   0.000000
    15  C    0.000000   0.003514   0.000000   0.000023  -0.000001   0.000000
    16  C    0.000000   0.001069   0.000014  -0.000014  -0.000001   0.000000
    17  C    0.000000  -0.000247   0.000034  -0.000021   0.000087  -0.000038
    18  O   -0.045152  -0.000423  -0.000439   0.001570   0.001271   0.000001
    19  O    8.296195   0.001702   0.000269  -0.000667   0.001219   0.000000
    20  H    0.001702   0.457341  -0.017351  -0.019871   0.000034   0.000000
    21  H    0.000269  -0.017351   0.463672  -0.018370  -0.000048   0.000000
    22  H   -0.000667  -0.019871  -0.018370   0.470187   0.000064   0.000000
    23  H    0.001219   0.000034  -0.000048   0.000064   0.322815  -0.000030
    24  H    0.000000   0.000000   0.000000   0.000000  -0.000030   0.451987
    25  H   -0.000022   0.000000   0.000000  -0.000001   0.005669  -0.015765
    26  H   -0.000033   0.000000   0.000000   0.000000  -0.000132  -0.000246
    27  H    0.008821  -0.000005   0.000001   0.000005   0.000683  -0.000228
    28  H    0.000001   0.000000   0.000000   0.000000  -0.000101  -0.000226
    29  H    0.000000   0.000010   0.000003  -0.000004  -0.000084   0.000202
    30  H    0.000000  -0.000003   0.000000   0.000000  -0.000096   0.006546
    31  H    0.000000   0.000001   0.000000   0.000000   0.000006  -0.000285
    32  H    0.000000  -0.000015   0.000000   0.000000   0.000000   0.000001
    33  H    0.000000   0.000006   0.000000   0.000000   0.000000   0.000000
    34  H    0.000000   0.000004   0.000000   0.000000   0.000000   0.000000
    35  H    0.000000   0.000012   0.000000   0.000003   0.000000   0.000000
    36  H    0.000000   0.000000   0.000000   0.000003   0.000014   0.000014
              25         26         27         28         29         30
     1  C    0.000000   0.000002   0.000048   0.000000  -0.000105   0.000002
     2  S    0.000059  -0.000162   0.004493   0.000310   0.001285  -0.000051
     3  N   -0.004937   0.001738  -0.005770   0.004656  -0.003793   0.000088
     4  C   -0.023381  -0.025670  -0.024185  -0.035890  -0.029019  -0.007774
     5  C    0.334036   0.008961   0.003449  -0.006275   0.004847   0.002529
     6  S   -0.003115  -0.011272  -0.003898   0.008528  -0.000260   0.000080
     7  C    0.003623   0.347069   0.326768  -0.004487  -0.005154   0.000208
     8  O    0.000367   0.000687   0.000524   0.000023   0.000001   0.000001
     9  O    0.001107  -0.000514   0.001077   0.005995   0.000065  -0.000002
    10  C    0.003818  -0.002995   0.003532   0.356594   0.365887  -0.039836
    11  C   -0.000032   0.000133  -0.000096  -0.028128  -0.036292   0.361987
    12  C   -0.000008  -0.000004   0.000001   0.003256  -0.006524  -0.034756
    13  C    0.000000  -0.000001   0.000001   0.000209   0.003044   0.004680
    14  C    0.000000   0.000000   0.000000   0.000002  -0.000123  -0.000167
    15  C    0.000000   0.000000   0.000000   0.000000  -0.000001   0.000001
    16  C    0.000000   0.000000   0.000000   0.000002  -0.000001   0.000217
    17  C   -0.000001   0.000000   0.000000  -0.000095   0.000240  -0.004389
    18  O    0.000001  -0.000015  -0.002599   0.000184   0.010172  -0.000009
    19  O   -0.000022  -0.000033   0.008821   0.000001   0.000000   0.000000
    20  H    0.000000   0.000000  -0.000005   0.000000   0.000010  -0.000003
    21  H    0.000000   0.000000   0.000001   0.000000   0.000003   0.000000
    22  H   -0.000001   0.000000   0.000005   0.000000  -0.000004   0.000000
    23  H    0.005669  -0.000132   0.000683  -0.000101  -0.000084  -0.000096
    24  H   -0.015765  -0.000246  -0.000228  -0.000226   0.000202   0.006546
    25  H    0.464137  -0.000228  -0.000016   0.000082  -0.000107  -0.000314
    26  H   -0.000228   0.458093  -0.015823  -0.000384   0.002805   0.000012
    27  H   -0.000016  -0.015823   0.468993   0.000213  -0.000036  -0.000001
    28  H    0.000082  -0.000384   0.000213   0.564580  -0.026912   0.000033
    29  H   -0.000107   0.002805  -0.000036  -0.026912   0.518040   0.004214
    30  H   -0.000314   0.000012  -0.000001   0.000033   0.004214   0.575532
    31  H    0.000004  -0.000014   0.000001  -0.006889   0.000085  -0.032033
    32  H    0.000000   0.000000   0.000000  -0.000185   0.003697   0.000034
    33  H    0.000000   0.000000   0.000000   0.000000   0.000007   0.000003
    34  H    0.000000   0.000000   0.000000   0.000000   0.000000   0.000000
    35  H    0.000000   0.000000   0.000000   0.000000   0.000000  -0.000010
    36  H    0.000002   0.000000   0.000000  -0.000008   0.000012   0.007562
              31         32         33         34         35         36
     1  C   -0.000001   0.000002   0.000000  -0.000002  -0.000006  -0.000007
     2  S    0.000031   0.000076   0.000002   0.000000  -0.000001   0.000019
     3  N    0.000045  -0.000004   0.000000   0.000000  -0.000002   0.000232
     4  C    0.004512   0.000114   0.000000   0.000000   0.000000  -0.000030
     5  C    0.000210   0.000000   0.000000   0.000000   0.000000   0.000045
     6  S   -0.000024   0.000000   0.000000   0.000000   0.000000   0.000001
     7  C   -0.000133   0.000002   0.000000   0.000000   0.000000   0.000001
     8  O    0.000000   0.000000   0.000000   0.000000   0.000000   0.000000
     9  O   -0.000003   0.000000   0.000000   0.000000   0.000000   0.000000
    10  C   -0.033938   0.001311   0.000001   0.000000   0.000001   0.000147
    11  C    0.363352  -0.009060  -0.000174   0.000007  -0.000171  -0.011413
    12  C   -0.030199  -0.044748   0.003500   0.000635   0.003662  -0.040964
    13  C   -0.005153   0.358164  -0.039008   0.004631   0.000731   0.006464
    14  C   -0.000048  -0.043425   0.361252  -0.042043   0.004537   0.000273
    15  C    0.000037   0.004697  -0.042099   0.362978  -0.042575   0.004753
    16  C   -0.000248   0.000301   0.004515  -0.042147   0.360497  -0.046423
    17  C    0.001233   0.006037   0.000765   0.004546  -0.038312   0.357047
    18  O   -0.000003   0.000083  -0.000002   0.000000   0.000000   0.000000
    19  O    0.000000   0.000000   0.000000   0.000000   0.000000   0.000000
    20  H    0.000001  -0.000015   0.000006   0.000004   0.000012   0.000000
    21  H    0.000000   0.000000   0.000000   0.000000   0.000000   0.000000
    22  H    0.000000   0.000000   0.000000   0.000000   0.000003   0.000003
    23  H    0.000006   0.000000   0.000000   0.000000   0.000000   0.000014
    24  H   -0.000285   0.000001   0.000000   0.000000   0.000000   0.000014
    25  H    0.000004   0.000000   0.000000   0.000000   0.000000   0.000002
    26  H   -0.000014   0.000000   0.000000   0.000000   0.000000   0.000000
    27  H    0.000001   0.000000   0.000000   0.000000   0.000000   0.000000
    28  H   -0.006889  -0.000185   0.000000   0.000000   0.000000  -0.000008
    29  H    0.000085   0.003697   0.000007   0.000000   0.000000   0.000012
    30  H   -0.032033   0.000034   0.000003   0.000000  -0.000010   0.007562
    31  H    0.565793   0.001911  -0.000001   0.000000   0.000004   0.000151
    32  H    0.001911   0.581673  -0.005259  -0.000168   0.000017  -0.000170
    33  H   -0.000001  -0.005259   0.573219  -0.005173  -0.000175   0.000016
    34  H    0.000000  -0.000168  -0.005173   0.574821  -0.005273  -0.000166
    35  H    0.000004   0.000017  -0.000175  -0.005273   0.574717  -0.005289
    36  H    0.000151  -0.000170   0.000016  -0.000166  -0.005289   0.586510
 Mulliken charges:
               1
     1  C   -0.634509
     2  S    1.198897
     3  N   -0.719929
     4  C    0.172521
     5  C   -0.507177
     6  S    1.111386
     7  C   -0.494948
     8  O   -0.554695
     9  O   -0.570185
    10  C   -0.282656
    11  C   -0.363620
    12  C    0.186915
    13  C   -0.197196
    14  C   -0.151846
    15  C   -0.154790
    16  C   -0.147563
    17  C   -0.204254
    18  O   -0.583050
    19  O   -0.570098
    20  H    0.236845
    21  H    0.231234
    22  H    0.228257
    23  H    0.405941
    24  H    0.241738
    25  H    0.235024
    26  H    0.237992
    27  H    0.234046
    28  H    0.164909
    29  H    0.193797
    30  H    0.155711
    31  H    0.171595
    32  H    0.144914
    33  H    0.148606
    34  H    0.147351
    35  H    0.147634
    36  H    0.141203
 Sum of Mulliken charges =   0.00000
 Mulliken charges with hydrogens summed into heavy atoms:
               1
     1  C    0.061827
     2  S    1.198897
     3  N   -0.313988
     4  C    0.172521
     5  C   -0.030416
     6  S    1.111386
     7  C   -0.022910
     8  O   -0.554695
     9  O   -0.570185
    10  C    0.076050
    11  C   -0.036314
    12  C    0.186915
    13  C   -0.052281
    14  C   -0.003240
    15  C   -0.007439
    16  C    0.000071
    17  C   -0.063051
    18  O   -0.583050
    19  O   -0.570098
 Electronic spatial extent (au):  <R**2>=           6195.1303
 Charge=              0.0000 electrons
 Dipole moment (field-independent basis, Debye):
    X=              7.9660    Y=             -1.0372    Z=             -4.0439  Tot=              8.9937
 Quadrupole moment (field-independent basis, Debye-Ang):
   XX=           -152.9307   YY=           -137.1884   ZZ=           -118.4834
   XY=              2.8603   XZ=             -2.8074   YZ=             -0.7632
 Traceless Quadrupole moment (field-independent basis, Debye-Ang):
   XX=            -16.7299   YY=             -0.9876   ZZ=             17.7175
   XY=              2.8603   XZ=             -2.8074   YZ=             -0.7632
 Octapole moment (field-independent basis, Debye-Ang**2):
  XXX=            198.7533  YYY=            -11.0439  ZZZ=            -17.0117  XYY=             18.0233
  XXY=             69.8039  XXZ=              7.2771  XZZ=             -1.1337  YZZ=             -1.7451
  YYZ=            -15.5339  XYZ=            -18.5772
 Hexadecapole moment (field-independent basis, Debye-Ang**3):
 XXXX=          -6117.4190 YYYY=          -2058.9521 ZZZZ=           -640.0048 XXXY=            -21.6700
 XXXZ=            -95.9258 YYYX=            124.2408 YYYZ=             11.0655 ZZZX=             -1.2920
 ZZZY=            -16.4264 XXYY=          -1316.7006 XXZZ=           -987.7247 YYZZ=           -430.9090
 XXYZ=             68.5169 YYXZ=             12.0143 ZZXY=             -2.2337
 N-N= 1.891802199451D+03 E-N=-7.589550612672D+03  KE= 1.608799182589D+03
 No NMR shielding tensors so no spin-rotation constants.
 Leave Link  601 at Fri Aug  7 23:44:53 2020, MaxMem=    33554432 cpu:         0.3
 (Enter /prod/apps/gaussian/g09d1/l9999.exe)
 1\1\GINC-PIRINEUS21\SP\RB3LYP\6-31G(d)\C12H17N1O4S2\UBAFAR01\07-Aug-20
 20\0\\#p b3lyp/6-31G(d) scrf=(iefpcm,read,solvent=Water) geom=allcheck
  guess=read\\SM38.n.8.pdb.xyz\\0,1\C,0,5.353,1.032,-0.986\S,0,5.149,-0
 .569,-1.756\N,0,4.017,-1.306,-0.737\C,0,3.061,-2.268,-1.319\C,0,2.6,-3
 .28,-0.218\S,0,2.877,-4.668,-1.367\C,0,3.691,-3.331,-2.297\O,0,3.796,-
 5.7,-0.851\O,0,1.621,-5.106,-2.009\C,0,1.855,-1.574,-1.977\C,0,0.977,-
 0.708,-1.052\C,0,1.429,0.72,-0.829\C,0,1.587,1.6,-1.909\C,0,1.951,2.93
 2,-1.704\C,0,2.162,3.41,-0.408\C,0,2.005,2.546,0.677\C,0,1.641,1.214,0
 .465\O,0,4.512,-0.417,-3.074\O,0,6.441,-1.277,-1.686\H,0,4.399,1.557,-
 1.009\H,0,6.108,1.564,-1.567\H,0,5.698,0.883,0.036\H,0,4.519,-1.678,0.
 073\H,0,1.57,-3.187,0.119\H,0,3.273,-3.372,0.636\H,0,3.392,-3.271,-3.3
 43\H,0,4.773,-3.424,-2.201\H,0,1.234,-2.37,-2.399\H,0,2.222,-0.982,-2.
 818\H,0,0.854,-1.2,-0.08\H,0,-0.023,-0.683,-1.5\H,0,1.419,1.24,-2.92\H
 ,0,2.066,3.596,-2.555\H,0,2.443,4.446,-0.246\H,0,2.164,2.906,1.688\H,0
 ,1.518,0.545,1.311\\Version=AM64L-G09RevD.01\State=1-A\HF=-1619.413082
 9\RMSD=6.871e-09\Dipole=-0.3446738,2.9341536,1.947364\Quadrupole=-0.42
 04978,-11.9993115,12.4198093,3.2928956,3.6343282,-0.5703386\PG=C01 [X(
 C12H17N1O4S2)]\\@


 The chemist is a guest at the physicist's table and
 frequently dines well.
                   -- Richard Bersohn
 Job cpu time:       0 days  0 hours  4 minutes 30.7 seconds.
 File lengths (MBytes):  RWF=    176 Int=      0 D2E=      0 Chk=      6 Scr=      1
 Normal termination of Gaussian 09 at Fri Aug  7 23:44:53 2020.
