 Entering Gaussian System, Link 0=g09
 Initial command:
 /prod/apps/gaussian/g09d1/l1.exe "/tmp/ubafar01/1449014/Gau-151117.inp" -scrdir="/tmp/ubafar01/1449014/"
 Entering Link 1 = /prod/apps/gaussian/g09d1/l1.exe PID=    151118.
  
 Copyright (c) 1988,1990,1992,1993,1995,1998,2003,2009,2013,
            Gaussian, Inc.  All Rights Reserved.
  
 This is part of the Gaussian(R) 09 program.  It is based on
 the Gaussian(R) 03 system (copyright 2003, Gaussian, Inc.),
 the Gaussian(R) 98 system (copyright 1998, Gaussian, Inc.),
 the Gaussian(R) 94 system (copyright 1995, Gaussian, Inc.),
 the Gaussian 92(TM) system (copyright 1992, Gaussian, Inc.),
 the Gaussian 90(TM) system (copyright 1990, Gaussian, Inc.),
 the Gaussian 88(TM) system (copyright 1988, Gaussian, Inc.),
 the Gaussian 86(TM) system (copyright 1986, Carnegie Mellon
 University), and the Gaussian 82(TM) system (copyright 1983,
 Carnegie Mellon University). Gaussian is a federally registered
 trademark of Gaussian, Inc.
  
 This software contains proprietary and confidential information,
 including trade secrets, belonging to Gaussian, Inc.
  
 This software is provided under written license and may be
 used, copied, transmitted, or stored only in accord with that
 written license.
  
 The following legend is applicable only to US Government
 contracts under FAR:
  
                    RESTRICTED RIGHTS LEGEND
  
 Use, reproduction and disclosure by the US Government is
 subject to restrictions as set forth in subparagraphs (a)
 and (c) of the Commercial Computer Software - Restricted
 Rights clause in FAR 52.227-19.
  
 Gaussian, Inc.
 340 Quinnipiac St., Bldg. 40, Wallingford CT 06492
  
  
 ---------------------------------------------------------------
 Warning -- This program may not be used in any manner that
 competes with the business of Gaussian, Inc. or will provide
 assistance to any competitor of Gaussian, Inc.  The licensee
 of this program is prohibited from giving any competitor of
 Gaussian, Inc. access to this program.  By using this program,
 the user acknowledges that Gaussian, Inc. is engaged in the
 business of creating and licensing software in the field of
 computational chemistry and represents and warrants to the
 licensee that it is not a competitor of Gaussian, Inc. and that
 it will not use this program in any manner prohibited above.
 ---------------------------------------------------------------
  

 Cite this work as:
 Gaussian 09, Revision D.01,
 M. J. Frisch, G. W. Trucks, H. B. Schlegel, G. E. Scuseria, 
 M. A. Robb, J. R. Cheeseman, G. Scalmani, V. Barone, B. Mennucci, 
 G. A. Petersson, H. Nakatsuji, M. Caricato, X. Li, H. P. Hratchian, 
 A. F. Izmaylov, J. Bloino, G. Zheng, J. L. Sonnenberg, M. Hada, 
 M. Ehara, K. Toyota, R. Fukuda, J. Hasegawa, M. Ishida, T. Nakajima, 
 Y. Honda, O. Kitao, H. Nakai, T. Vreven, J. A. Montgomery, Jr., 
 J. E. Peralta, F. Ogliaro, M. Bearpark, J. J. Heyd, E. Brothers, 
 K. N. Kudin, V. N. Staroverov, T. Keith, R. Kobayashi, J. Normand, 
 K. Raghavachari, A. Rendell, J. C. Burant, S. S. Iyengar, J. Tomasi, 
 M. Cossi, N. Rega, J. M. Millam, M. Klene, J. E. Knox, J. B. Cross, 
 V. Bakken, C. Adamo, J. Jaramillo, R. Gomperts, R. E. Stratmann, 
 O. Yazyev, A. J. Austin, R. Cammi, C. Pomelli, J. W. Ochterski, 
 R. L. Martin, K. Morokuma, V. G. Zakrzewski, G. A. Voth, 
 P. Salvador, J. J. Dannenberg, S. Dapprich, A. D. Daniels, 
 O. Farkas, J. B. Foresman, J. V. Ortiz, J. Cioslowski, 
 and D. J. Fox, Gaussian, Inc., Wallingford CT, 2013.
 
 ******************************************
 Gaussian 09:  AM64L-G09RevD.01 24-Apr-2013
                 8-Aug-2020 
 ******************************************
 %nproc=1
 Will use up to    1 processors via shared memory.
 %Chk=SM38.n.15.pdb.xyz.mst.n.o.chk
 -----------------
 #p b3lyp/6-31G(d)
 -----------------
 1/38=1/1;
 2/12=2,17=6,18=5,40=1/2;
 3/5=1,6=6,7=1,11=2,16=1,25=1,30=1,74=-5/1,2,3;
 4//1;
 5/5=2,38=5/2;
 6/7=2,8=2,9=2,10=2,28=1/1;
 99/5=1,9=1/99;
 Leave Link    1 at Sat Aug  8 00:04:10 2020, MaxMem=           0 cpu:         0.0
 (Enter /prod/apps/gaussian/g09d1/l101.exe)
 -----------------
 SM38.n.15.pdb.xyz
 -----------------
 Symbolic Z-matrix:
 Charge =  0 Multiplicity = 1
 C                     6.298    -1.014    -0.855 
 S                     4.882    -1.279     0.214 
 N                     3.595    -1.393    -0.866 
 C                     2.914    -2.642    -1.24 
 C                     2.321    -3.491    -0.057 
 S                     3.145    -4.99     -0.697 
 C                     3.893    -3.728    -1.792 
 O                     4.098    -5.606     0.236 
 O                     2.208    -5.859    -1.433 
 C                     1.85     -2.201    -2.268 
 C                     0.942    -3.294    -2.856 
 C                    -0.051    -2.704    -3.834 
 C                     0.257    -2.611    -5.197 
 C                    -0.643    -2.042    -6.098 
 C                    -1.871    -1.555    -5.647 
 C                    -2.191    -1.644    -4.291 
 C                    -1.288    -2.214    -3.394 
 O                     5.064    -2.57      0.891 
 O                     4.656    -0.052     0.985 
 H                     6.404    -1.867    -1.525 
 H                     7.174    -0.926    -0.212 
 H                     6.139    -0.097    -1.418 
 H                     2.96     -0.615    -0.697 
 H                     1.236    -3.58     -0.027 
 H                     2.736    -3.228     0.914 
 H                     3.804    -3.958    -2.853 
 H                     4.934    -3.576    -1.511 
 H                     2.377    -1.69     -3.08 
 H                     1.215    -1.45     -1.785 
 H                     0.407    -3.805    -2.051 
 H                     1.544    -4.054    -3.359 
 H                     1.209    -2.995    -5.555 
 H                    -0.388    -1.983    -7.151 
 H                    -2.574    -1.115    -6.346 
 H                    -3.147    -1.274    -3.932 
 H                    -1.547    -2.287    -2.341 
 
 NAtoms=     36 NQM=       36 NQMF=       0 NMMI=      0 NMMIF=      0
                NMic=       0 NMicF=      0.
                    Isotopes and Nuclear Properties:
 (Nuclear quadrupole moments (NQMom) in fm**2, nuclear magnetic moments (NMagM)
  in nuclear magnetons)

  Atom         1           2           3           4           5           6           7           8           9          10
 IAtWgt=          12          32          14          12          12          32          12          16          16          12
 AtmWgt=  12.0000000  31.9720718  14.0030740  12.0000000  12.0000000  31.9720718  12.0000000  15.9949146  15.9949146  12.0000000
 NucSpn=           0           0           2           0           0           0           0           0           0           0
 AtZEff=   0.0000000   0.0000000   0.0000000   0.0000000   0.0000000   0.0000000   0.0000000   0.0000000   0.0000000   0.0000000
 NQMom=    0.0000000   0.0000000   2.0440000   0.0000000   0.0000000   0.0000000   0.0000000   0.0000000   0.0000000   0.0000000
 NMagM=    0.0000000   0.0000000   0.4037610   0.0000000   0.0000000   0.0000000   0.0000000   0.0000000   0.0000000   0.0000000
 AtZNuc=   6.0000000  16.0000000   7.0000000   6.0000000   6.0000000  16.0000000   6.0000000   8.0000000   8.0000000   6.0000000

  Atom        11          12          13          14          15          16          17          18          19          20
 IAtWgt=          12          12          12          12          12          12          12          16          16           1
 AtmWgt=  12.0000000  12.0000000  12.0000000  12.0000000  12.0000000  12.0000000  12.0000000  15.9949146  15.9949146   1.0078250
 NucSpn=           0           0           0           0           0           0           0           0           0           1
 AtZEff=   0.0000000   0.0000000   0.0000000   0.0000000   0.0000000   0.0000000   0.0000000   0.0000000   0.0000000   0.0000000
 NQMom=    0.0000000   0.0000000   0.0000000   0.0000000   0.0000000   0.0000000   0.0000000   0.0000000   0.0000000   0.0000000
 NMagM=    0.0000000   0.0000000   0.0000000   0.0000000   0.0000000   0.0000000   0.0000000   0.0000000   0.0000000   2.7928460
 AtZNuc=   6.0000000   6.0000000   6.0000000   6.0000000   6.0000000   6.0000000   6.0000000   8.0000000   8.0000000   1.0000000

  Atom        21          22          23          24          25          26          27          28          29          30
 IAtWgt=           1           1           1           1           1           1           1           1           1           1
 AtmWgt=   1.0078250   1.0078250   1.0078250   1.0078250   1.0078250   1.0078250   1.0078250   1.0078250   1.0078250   1.0078250
 NucSpn=           1           1           1           1           1           1           1           1           1           1
 AtZEff=   0.0000000   0.0000000   0.0000000   0.0000000   0.0000000   0.0000000   0.0000000   0.0000000   0.0000000   0.0000000
 NQMom=    0.0000000   0.0000000   0.0000000   0.0000000   0.0000000   0.0000000   0.0000000   0.0000000   0.0000000   0.0000000
 NMagM=    2.7928460   2.7928460   2.7928460   2.7928460   2.7928460   2.7928460   2.7928460   2.7928460   2.7928460   2.7928460
 AtZNuc=   1.0000000   1.0000000   1.0000000   1.0000000   1.0000000   1.0000000   1.0000000   1.0000000   1.0000000   1.0000000

  Atom        31          32          33          34          35          36
 IAtWgt=           1           1           1           1           1           1
 AtmWgt=   1.0078250   1.0078250   1.0078250   1.0078250   1.0078250   1.0078250
 NucSpn=           1           1           1           1           1           1
 AtZEff=   0.0000000   0.0000000   0.0000000   0.0000000   0.0000000   0.0000000
 NQMom=    0.0000000   0.0000000   0.0000000   0.0000000   0.0000000   0.0000000
 NMagM=    2.7928460   2.7928460   2.7928460   2.7928460   2.7928460   2.7928460
 AtZNuc=   1.0000000   1.0000000   1.0000000   1.0000000   1.0000000   1.0000000
 Leave Link  101 at Sat Aug  8 00:04:10 2020, MaxMem=    33554432 cpu:         0.1
 (Enter /prod/apps/gaussian/g09d1/l202.exe)
                          Input orientation:                          
 ---------------------------------------------------------------------
 Center     Atomic      Atomic             Coordinates (Angstroms)
 Number     Number       Type             X           Y           Z
 ---------------------------------------------------------------------
      1          6           0        6.298000   -1.014000   -0.855000
      2         16           0        4.882000   -1.279000    0.214000
      3          7           0        3.595000   -1.393000   -0.866000
      4          6           0        2.914000   -2.642000   -1.240000
      5          6           0        2.321000   -3.491000   -0.057000
      6         16           0        3.145000   -4.990000   -0.697000
      7          6           0        3.893000   -3.728000   -1.792000
      8          8           0        4.098000   -5.606000    0.236000
      9          8           0        2.208000   -5.859000   -1.433000
     10          6           0        1.850000   -2.201000   -2.268000
     11          6           0        0.942000   -3.294000   -2.856000
     12          6           0       -0.051000   -2.704000   -3.834000
     13          6           0        0.257000   -2.611000   -5.197000
     14          6           0       -0.643000   -2.042000   -6.098000
     15          6           0       -1.871000   -1.555000   -5.647000
     16          6           0       -2.191000   -1.644000   -4.291000
     17          6           0       -1.288000   -2.214000   -3.394000
     18          8           0        5.064000   -2.570000    0.891000
     19          8           0        4.656000   -0.052000    0.985000
     20          1           0        6.404000   -1.867000   -1.525000
     21          1           0        7.174000   -0.926000   -0.212000
     22          1           0        6.139000   -0.097000   -1.418000
     23          1           0        2.960000   -0.615000   -0.697000
     24          1           0        1.236000   -3.580000   -0.027000
     25          1           0        2.736000   -3.228000    0.914000
     26          1           0        3.804000   -3.958000   -2.853000
     27          1           0        4.934000   -3.576000   -1.511000
     28          1           0        2.377000   -1.690000   -3.080000
     29          1           0        1.215000   -1.450000   -1.785000
     30          1           0        0.407000   -3.805000   -2.051000
     31          1           0        1.544000   -4.054000   -3.359000
     32          1           0        1.209000   -2.995000   -5.555000
     33          1           0       -0.388000   -1.983000   -7.151000
     34          1           0       -2.574000   -1.115000   -6.346000
     35          1           0       -3.147000   -1.274000   -3.932000
     36          1           0       -1.547000   -2.287000   -2.341000
 ---------------------------------------------------------------------
                    Distance matrix (angstroms):
                    1          2          3          4          5
     1  C    0.000000
     2  S    1.793890   0.000000
     3  N    2.729464   1.683973   0.000000
     4  C    3.774926   2.800876   1.470931   0.000000
     5  C    4.752774   3.394865   2.584407   1.572240   0.000000
     6  S    5.076903   4.197453   3.628976   2.421015   1.826356
     7  C    3.745369   3.316588   2.529527   1.562863   2.353206
     8  O    5.207374   4.397507   4.383695   3.516494   2.777913
     9  O    6.366805   5.553313   4.710670   3.299208   2.741089
    10  C    4.815625   4.025349   2.379809   1.543814   2.602780
    11  C    6.155415   5.385975   3.822605   2.631605   3.126476
    12  C    7.213899   6.538457   4.880682   3.940039   4.528960
    13  C    7.609011   7.241807   5.602083   4.766388   5.608395
    14  C    8.759185   8.423131   6.764294   6.050819   6.883210
    15  C    9.486227   8.945977   7.263702   6.595411   7.250452
    16  C    9.179658   8.393782   6.728404   6.030392   6.457268
    17  C    8.089123   7.208383   5.559543   4.741277   5.078502
    18  O    2.644316   1.469059   2.574944   3.028010   3.044831
    19  O    2.647113   1.466644   2.519961   3.833183   4.285407
    20  H    1.089837   2.384607   2.923942   3.586356   4.632849
    21  H    1.090215   2.357827   3.668112   4.706277   5.491344
    22  H    1.087722   2.374994   2.907964   4.112096   5.286651
    23  H    3.365473   2.228206   1.018366   2.098975   3.014846
    24  H    5.735310   4.318101   3.324420   2.273081   1.089057
    25  H    4.551813   2.982267   2.696944   2.239374   1.088226
    26  H    4.345017   4.212554   3.251319   2.264006   3.199218
    27  H    2.975681   2.873071   2.640916   2.241918   2.991506
    28  H    4.558711   4.158651   2.544313   2.140157   3.519271
    29  H    5.185739   4.179968   2.551903   2.145808   2.893942
    30  H    6.627517   5.615739   4.169570   2.880163   2.781731
    31  H    6.173502   5.622206   4.183607   2.891506   3.438590
    32  H    7.205018   7.051024   5.499647   4.653048   5.631213
    33  H    9.234781   9.083597   7.464155   6.802750   7.741937
    34  H   10.434254   9.932393   8.256164   7.649909   8.316124
    35  H    9.936979   9.036270   7.407367   6.771559   7.059018
    36  H    8.085342   6.991147   5.423562   4.608552   4.650559
                    6          7          8          9         10
     6  S    0.000000
     7  C    1.830621   0.000000
     8  O    1.469066   2.771587   0.000000
     9  O    1.474729   2.740304   2.534101   0.000000
    10  C    3.453055   2.594639   4.787227   3.769132   0.000000
    11  C    3.520072   3.166836   4.986596   3.194826   1.537809
    12  C    5.028020   4.557793   6.496207   4.563103   2.513795
    13  C    5.852366   5.105116   7.296629   5.340749   3.359284
    14  C    7.225680   6.477617   8.677484   6.667827   4.572661
    15  C    7.839769   7.266818   9.308558   7.274645   5.067623
    16  C    7.251582   6.899501   8.703028   6.729457   4.553291
    17  C    5.884851   5.630396   7.327452   5.417893   3.333930
    18  O    3.472853   3.148125   3.252611   4.937128   4.521641
    19  O    5.431030   4.669783   5.631987   6.749865   4.803524
    20  H    4.589095   3.136835   4.732745   5.792318   4.626286
    21  H    5.743184   4.594841   5.618263   7.105384   5.847883
    22  H    5.781464   4.285855   6.103317   6.975215   4.852302
    23  H    4.378910   3.429327   5.203423   5.348527   2.493098
    24  H    2.466025   3.193239   3.516374   2.848765   2.701984
    25  H    2.422240   2.985144   2.823050   3.565018   3.459024
    26  H    2.479444   1.089285   3.513440   2.859618   2.692098
    27  H    2.421263   1.088920   2.805674   3.556578   3.460452
    28  H    4.142284   2.847919   5.412278   4.485725   1.094620
    29  H    4.176152   3.515824   5.446877   4.533126   1.095680
    30  H    3.276307   3.496456   4.700793   2.800793   2.168445
    31  H    3.244309   2.842458   4.675002   2.721837   2.171987
    32  H    5.597168   4.679884   6.978490   5.117752   3.441756
    33  H    7.948475   7.077490   9.371131   7.379574   5.375859
    34  H    8.923776   8.329992  10.392660   8.337303   6.114021
    35  H    7.991442   7.756502   9.414270   7.479522   5.347732
    36  H    5.658958   5.654333   7.037238   5.261528   3.398872
                   11         12         13         14         15
    11  C    0.000000
    12  C    1.513484   0.000000
    13  C    2.532981   1.400458   0.000000
    14  C    3.819724   2.431955   1.394834   0.000000
    15  C    4.327444   2.814173   2.417854   1.395906   0.000000
    16  C    3.820656   2.431471   2.783636   2.412459   1.396086
    17  C    2.535497   1.401381   2.407373   2.785180   2.418714
    18  O    5.617390   6.964683   7.757105   9.038515   9.584878
    19  O    6.249611   7.239593   8.007297   9.066884   9.425718
    20  H    5.800115   6.906452   7.198801   8.402569   9.250073
    21  H    7.171888   8.275312   8.691049   9.848652  10.571040
    22  H    6.268769   7.137899   7.429600   8.466460   9.174438
    23  H    3.988815   4.823983   5.616068   6.647461   6.980305
    24  H    2.858579   4.113027   5.350355   6.538587   6.733385
    25  H    4.175607   5.530411   6.623477   7.873524   8.189634
    26  H    2.938018   4.170839   4.459815   5.828970   6.766570
    27  H    4.221921   5.568387   6.032591   7.382185   8.215775
    28  H    2.163843   2.737133   3.134379   4.283997   4.965201
    29  H    2.149862   2.715451   3.729267   4.733349   4.944640
    30  H    1.093330   2.145007   3.368301   4.537497   4.814873
    31  H    1.092251   2.142930   2.667745   4.041440   4.810631
    32  H    2.728606   2.152701   1.087163   2.152432   3.401244
    33  H    4.683444   3.411143   2.151401   1.085041   2.155108
    34  H    5.412060   3.898794   3.401879   2.156292   1.084624
    35  H    4.685947   3.411703   3.869756   3.398734   2.156006
    36  H    2.733934   2.154287   3.393542   3.871988   3.401534
                   16         17         18         19         20
    16  C    0.000000
    17  C    1.394603   0.000000
    18  O    8.963572   7.670454   0.000000
    19  O    8.789314   7.692920   2.552572   0.000000
    20  H    9.031861   7.923411   2.850766   3.556660   0.000000
    21  H   10.239970   9.131786   2.893345   2.921816   1.789511
    22  H    8.946297   7.971612   3.550047   2.824132   1.792923
    23  H    6.364627   5.279784   3.281857   2.454080   3.756890
    24  H    5.802941   4.424163   4.064038   5.016705   5.646822
    25  H    7.340055   5.981608   2.419313   3.711929   4.610343
    26  H    6.585018   5.409499   4.187085   5.541930   3.591081
    27  H    7.888387   6.641838   2.607401   4.327341   2.254280
    28  H    4.726020   3.715561   4.874752   4.939748   4.320426
    29  H    4.233026   3.072065   4.819769   4.633334   5.212217
    30  H    4.054272   2.684763   5.645196   6.430887   6.324281
    31  H    4.541690   3.377432   5.714469   6.676143   5.636145
    32  H    3.870775   3.393360   7.522803   7.957051   6.670930
    33  H    3.397842   3.870195   9.733583   9.765510   8.820238
    34  H    2.156283   3.402338  10.622158  10.351156  10.218220
    35  H    1.086148   2.151494   9.610487   9.303600   9.867467
    36  H    2.151903   1.086839   7.364186   7.384762   8.003790
                   21         22         23         24         25
    21  H    0.000000
    22  H    1.792457   0.000000
    23  H    4.253204   3.300637   0.000000
    24  H    6.506749   6.172972   3.494610   0.000000
    25  H    5.124736   5.178976   3.077867   1.805377   0.000000
    26  H    5.246409   4.734846   4.066488   3.837158   3.982940
    27  H    3.705064   3.682949   3.650588   3.984655   3.291342
    28  H    5.640951   4.410503   2.678470   3.767597   4.294923
    29  H    6.185353   5.119675   2.219458   2.761866   3.572020
    30  H    7.580426   6.856076   4.304326   2.198736   3.814236
    31  H    7.168326   6.367052   4.573622   3.379610   4.512391
    32  H    8.271012   7.058192   5.685997   5.558933   6.650863
    33  H   10.317500   8.889658   7.398287   7.479249   8.738056
    34  H   11.518905  10.061703   7.923784   7.779594   9.239506
    35  H   10.976454   9.692024   6.942259   6.306929   7.868387
    36  H    9.079692   8.045037   5.080489   3.843375   5.461190
                   26         27         28         29         30
    26  H    0.000000
    27  H    1.795491   0.000000
    28  H    2.689179   3.543587   0.000000
    29  H    3.759469   4.292542   1.756380   0.000000
    30  H    3.493740   4.564841   3.068056   2.503926   0.000000
    31  H    2.317941   3.890461   2.521949   3.060479   1.750895
    32  H    3.868100   5.528754   3.031975   4.074305   3.684742
    33  H    6.320308   7.916498   4.929920   5.625625   5.473729
    34  H    7.807854   9.263035   5.959008   5.938979   5.879582
    35  H    7.528911   8.744313   5.604778   4.864939   4.751320
    36  H    5.629173   6.659864   4.037364   2.939107   2.491293
                   31         32         33         34         35
    31  H    0.000000
    32  H    2.460919   0.000000
    33  H    4.732962   2.474221   0.000000
    34  H    5.875186   4.297810   2.485970   0.000000
    35  H    5.482902   4.956885   4.298456   2.486163   0.000000
    36  H    3.703092   4.292621   4.956995   4.297480   2.473348
                   36
    36  H    0.000000
 Stoichiometry    C12H17NO4S2
 Framework group  C1[X(C12H17NO4S2)]
 Deg. of freedom   102
 Full point group                 C1      NOp   1
 Largest Abelian subgroup         C1      NOp   1
 Largest concise Abelian subgroup C1      NOp   1
                         Standard orientation:                         
 ---------------------------------------------------------------------
 Center     Atomic      Atomic             Coordinates (Angstroms)
 Number     Number       Type             X           Y           Z
 ---------------------------------------------------------------------
      1          6           0        3.468487   -2.047132    1.526941
      2         16           0        3.084137   -1.510162   -0.140986
      3          7           0        1.406911   -1.360437   -0.124823
      4          6           0        0.672764   -0.086519   -0.082405
      5          6           0        1.002760    0.943729   -1.223295
      6         16           0        1.250713    2.262453    0.015682
      7          6           0        1.086878    0.815400    1.124903
      8          8           0        2.593951    2.857300    0.010869
      9          8           0        0.079148    3.153104    0.110561
     10          6           0       -0.812742   -0.505491   -0.049338
     11          6           0       -1.861723    0.618434   -0.013432
     12          6           0       -3.263987    0.049236    0.003992
     13          6           0       -3.911329   -0.219865    1.216352
     14          6           0       -5.192433   -0.771109    1.237903
     15          6           0       -5.848801   -1.062940    0.041003
     16          6           0       -5.215225   -0.797126   -1.174308
     17          6           0       -3.934393   -0.245657   -1.190772
     18          8           0        3.688310   -0.185712   -0.338321
     19          8           0        3.383040   -2.615947   -1.056924
     20          1           0        3.135132   -1.286386    2.232550
     21          1           0        4.550379   -2.168885    1.583997
     22          1           0        2.963614   -2.992972    1.710323
     23          1           0        1.014611   -2.037769   -0.776277
     24          1           0        0.196090    1.160583   -1.922083
     25          1           0        1.940915    0.736625   -1.734381
     26          1           0        0.338651    0.942757    1.906234
     27          1           0        2.059479    0.573708    1.550788
     28          1           0       -0.946140   -1.155685    0.821091
     29          1           0       -1.001644   -1.123550   -0.934117
     30          1           0       -1.738951    1.268829   -0.883653
     31          1           0       -1.710727    1.247134    0.866880
     32          1           0       -3.407746    0.011884    2.151563
     33          1           0       -5.679252   -0.968292    2.187345
     34          1           0       -6.846301   -1.488629    0.054907
     35          1           0       -5.720910   -1.014478   -2.110661
     36          1           0       -3.450322   -0.034181   -2.140600
 ---------------------------------------------------------------------
 Rotational constants (GHZ):      0.5062950      0.1649908      0.1378079
 Leave Link  202 at Sat Aug  8 00:04:10 2020, MaxMem=    33554432 cpu:         0.0
 (Enter /prod/apps/gaussian/g09d1/l301.exe)
 Standard basis: 6-31G(d) (6D, 7F)
 Ernie: Thresh=  0.10000D-02 Tol=  0.10000D-05 Strict=F.
 There are   327 symmetry adapted cartesian basis functions of A   symmetry.
 There are   327 symmetry adapted basis functions of A   symmetry.
   327 basis functions,   648 primitive gaussians,   327 cartesian basis functions
    80 alpha electrons       80 beta electrons
       nuclear repulsion energy      1825.3691440447 Hartrees.
 IExCor=  402 DFT=T Ex+Corr=B3LYP ExCW=0 ScaHFX=  0.200000
 ScaDFX=  0.800000  0.720000  1.000000  0.810000 ScalE2=  1.000000  1.000000
 IRadAn=      0 IRanWt=     -1 IRanGd=            0 ICorTp=0 IEmpDi=  4
 NAtoms=   36 NActive=   36 NUniq=   36 SFac= 1.00D+00 NAtFMM=   60 NAOKFM=F Big=F
 Integral buffers will be    131072 words long.
 Raffenetti 2 integral format.
 Two-electron integral symmetry is turned on.
 Leave Link  301 at Sat Aug  8 00:04:10 2020, MaxMem=    33554432 cpu:         0.0
 (Enter /prod/apps/gaussian/g09d1/l302.exe)
 NPDir=0 NMtPBC=     1 NCelOv=     1 NCel=       1 NClECP=     1 NCelD=      1
         NCelK=      1 NCelE2=     1 NClLst=     1 CellRange=     0.0.
 One-electron integrals computed using PRISM.
 NBasis=   327 RedAO= T EigKep=  4.64D-04  NBF=   327
 NBsUse=   327 1.00D-06 EigRej= -1.00D+00 NBFU=   327
 Precomputing XC quadrature grid using
 IXCGrd= 4 IRadAn=           0 IRanWt=          -1 IRanGd=           0 AccXCQ= 0.00D+00.
 Generated NRdTot=       0 NPtTot=           0 NUsed=           0 NTot=          32
 NSgBfM=   322   322   322   322   323 MxSgAt=    36 MxSgA2=    36.
 Leave Link  302 at Sat Aug  8 00:04:11 2020, MaxMem=    33554432 cpu:         1.0
 (Enter /prod/apps/gaussian/g09d1/l303.exe)
 DipDrv:  MaxL=1.
 Leave Link  303 at Sat Aug  8 00:04:11 2020, MaxMem=    33554432 cpu:         0.0
 (Enter /prod/apps/gaussian/g09d1/l401.exe)
 ExpMin= 1.17D-01 ExpMax= 2.19D+04 ExpMxC= 3.30D+03 IAcc=1 IRadAn=         1 AccDes= 0.00D+00
 Harris functional with IExCor=  402 and IRadAn=       1 diagonalized for initial guess.
 HarFok:  IExCor=  402 AccDes= 0.00D+00 IRadAn=         1 IDoV= 1 UseB2=F ITyADJ=14
 ICtDFT=  3500011 ScaDFX=  1.000000  1.000000  1.000000  1.000000
 FoFCou: FMM=F IPFlag=           0 FMFlag=      100000 FMFlg1=           0
         NFxFlg=           0 DoJE=T BraDBF=F KetDBF=T FulRan=T
         wScrn=  0.000000 ICntrl=     500 IOpCl=  0 I1Cent=   200000004 NGrid=           0
         NMat0=    1 NMatS0=      1 NMatT0=    0 NMatD0=    1 NMtDS0=    0 NMtDT0=    0
 Petite list used in FoFCou.
 Harris En= -1619.50232166385    
 JPrj=0 DoOrth=F DoCkMO=F.
 Leave Link  401 at Sat Aug  8 00:04:15 2020, MaxMem=    33554432 cpu:         3.8
 (Enter /prod/apps/gaussian/g09d1/l502.exe)
 Closed shell SCF:
 Using DIIS extrapolation, IDIIS=  1040.
 Integral symmetry usage will be decided dynamically.
 IVT=      343772 IEndB=      343772 NGot=    33554432 MDV=    33334557
 LenX=    33334557 LenY=    33227187
 Requested convergence on RMS density matrix=1.00D-08 within 128 cycles.
 Requested convergence on MAX density matrix=1.00D-06.
 Requested convergence on             energy=1.00D-06.
 No special actions if energy rises.
 Fock matrices will be formed incrementally for  20 cycles.
 Integral accuracy reduced to 1.0D-05 until final iterations.

 Cycle   1  Pass 0  IDiag  1:
 FoFJK:  IHMeth= 1 ICntrl=       0 DoSepK=F KAlg= 0 I1Cent=   0 FoldK=F
 IRaf= 750000000 NMat=   1 IRICut=       1 DoRegI=T DoRafI=F ISym2E= 0.
 FoFCou: FMM=F IPFlag=           0 FMFlag=      100000 FMFlg1=           0
         NFxFlg=           0 DoJE=F BraDBF=F KetDBF=F FulRan=T
         wScrn=  0.000000 ICntrl=       0 IOpCl=  0 I1Cent=           0 NGrid=           0
         NMat0=    1 NMatS0=      1 NMatT0=    0 NMatD0=    1 NMtDS0=    0 NMtDT0=    0
 Symmetry not used in FoFCou.
 E= -1618.58705371473    
 DIIS: error= 4.44D-02 at cycle   1 NSaved=   1.
 NSaved= 1 IEnMin= 1 EnMin= -1618.58705371473     IErMin= 1 ErrMin= 4.44D-02
 ErrMax= 4.44D-02  0.00D+00 EMaxC= 1.00D-01 BMatC= 9.41D-01 BMatP= 9.41D-01
 IDIUse=3 WtCom= 5.56D-01 WtEn= 4.44D-01
 Coeff-Com:  0.100D+01
 Coeff-En:   0.100D+01
 Coeff:      0.100D+01
 Gap=     0.376 Goal=   None    Shift=    0.000
 GapD=    0.376 DampG=1.000 DampE=0.500 DampFc=0.5000 IDamp=-1.
 Damping current iteration by 5.00D-01
 RMSDP=7.65D-03 MaxDP=5.68D-01              OVMax= 2.44D-01

 Cycle   2  Pass 0  IDiag  1:
 RMSU=  3.83D-03    CP:  1.00D+00
 E= -1618.75476092607     Delta-E=       -0.167707211340 Rises=F Damp=T
 DIIS: error= 2.03D-02 at cycle   2 NSaved=   2.
 NSaved= 2 IEnMin= 2 EnMin= -1618.75476092607     IErMin= 2 ErrMin= 2.03D-02
 ErrMax= 2.03D-02  0.00D+00 EMaxC= 1.00D-01 BMatC= 1.59D-01 BMatP= 9.41D-01
 IDIUse=3 WtCom= 7.97D-01 WtEn= 2.03D-01
 Coeff-Com:  0.249D+00 0.751D+00
 Coeff-En:   0.395D+00 0.605D+00
 Coeff:      0.279D+00 0.721D+00
 Gap=     0.281 Goal=   None    Shift=    0.000
 RMSDP=2.18D-03 MaxDP=1.13D-01 DE=-1.68D-01 OVMax= 2.01D-01

 Cycle   3  Pass 0  IDiag  1:
 RMSU=  1.72D-03    CP:  9.91D-01  6.53D-01
 E= -1619.29974173516     Delta-E=       -0.544980809087 Rises=F Damp=F
 DIIS: error= 1.03D-02 at cycle   3 NSaved=   3.
 NSaved= 3 IEnMin= 3 EnMin= -1619.29974173516     IErMin= 3 ErrMin= 1.03D-02
 ErrMax= 1.03D-02  0.00D+00 EMaxC= 1.00D-01 BMatC= 8.82D-02 BMatP= 1.59D-01
 IDIUse=3 WtCom= 8.97D-01 WtEn= 1.03D-01
 Coeff-Com:  0.109D+00 0.434D+00 0.457D+00
 Coeff-En:   0.000D+00 0.000D+00 0.100D+01
 Coeff:      0.973D-01 0.390D+00 0.513D+00
 Gap=     0.242 Goal=   None    Shift=    0.000
 RMSDP=1.31D-03 MaxDP=3.72D-02 DE=-5.45D-01 OVMax= 7.83D-02

 Cycle   4  Pass 0  IDiag  1:
 RMSU=  7.74D-04    CP:  9.97D-01  7.20D-01  4.04D-01
 E= -1619.37352301912     Delta-E=       -0.073781283962 Rises=F Damp=F
 DIIS: error= 4.44D-03 at cycle   4 NSaved=   4.
 NSaved= 4 IEnMin= 4 EnMin= -1619.37352301912     IErMin= 4 ErrMin= 4.44D-03
 ErrMax= 4.44D-03  0.00D+00 EMaxC= 1.00D-01 BMatC= 1.12D-02 BMatP= 8.82D-02
 IDIUse=3 WtCom= 9.56D-01 WtEn= 4.44D-02
 Coeff-Com:  0.118D-01 0.669D-01 0.273D+00 0.648D+00
 Coeff-En:   0.000D+00 0.000D+00 0.104D+00 0.896D+00
 Coeff:      0.112D-01 0.640D-01 0.266D+00 0.659D+00
 Gap=     0.241 Goal=   None    Shift=    0.000
 RMSDP=4.20D-04 MaxDP=1.52D-02 DE=-7.38D-02 OVMax= 2.58D-02

 Cycle   5  Pass 0  IDiag  1:
 RMSU=  1.94D-04    CP:  9.96D-01  7.05D-01  5.52D-01  6.56D-01
 E= -1619.38277345179     Delta-E=       -0.009250432677 Rises=F Damp=F
 DIIS: error= 1.61D-03 at cycle   5 NSaved=   5.
 NSaved= 5 IEnMin= 5 EnMin= -1619.38277345179     IErMin= 5 ErrMin= 1.61D-03
 ErrMax= 1.61D-03  0.00D+00 EMaxC= 1.00D-01 BMatC= 1.05D-03 BMatP= 1.12D-02
 IDIUse=3 WtCom= 9.84D-01 WtEn= 1.61D-02
 Coeff-Com:  0.302D-03 0.141D-01 0.123D+00 0.377D+00 0.485D+00
 Coeff-En:   0.000D+00 0.000D+00 0.000D+00 0.000D+00 0.100D+01
 Coeff:      0.297D-03 0.139D-01 0.121D+00 0.371D+00 0.494D+00
 Gap=     0.241 Goal=   None    Shift=    0.000
 RMSDP=1.28D-04 MaxDP=5.71D-03 DE=-9.25D-03 OVMax= 7.36D-03

 Cycle   6  Pass 0  IDiag  1:
 RMSU=  6.28D-05    CP:  9.96D-01  7.09D-01  5.43D-01  7.19D-01  4.96D-01
 E= -1619.38361529806     Delta-E=       -0.000841846261 Rises=F Damp=F
 DIIS: error= 9.68D-04 at cycle   6 NSaved=   6.
 NSaved= 6 IEnMin= 6 EnMin= -1619.38361529806     IErMin= 6 ErrMin= 9.68D-04
 ErrMax= 9.68D-04  0.00D+00 EMaxC= 1.00D-01 BMatC= 1.35D-04 BMatP= 1.05D-03
 IDIUse=3 WtCom= 9.90D-01 WtEn= 9.68D-03
 Coeff-Com: -0.742D-03 0.264D-02 0.483D-01 0.160D+00 0.308D+00 0.481D+00
 Coeff-En:   0.000D+00 0.000D+00 0.000D+00 0.000D+00 0.608D-01 0.939D+00
 Coeff:     -0.735D-03 0.262D-02 0.478D-01 0.159D+00 0.306D+00 0.486D+00
 Gap=     0.241 Goal=   None    Shift=    0.000
 RMSDP=4.04D-05 MaxDP=1.96D-03 DE=-8.42D-04 OVMax= 3.59D-03

 Cycle   7  Pass 0  IDiag  1:
 RMSU=  2.57D-05    CP:  9.96D-01  7.09D-01  5.44D-01  7.21D-01  5.57D-01
                    CP:  5.45D-01
 E= -1619.38370747915     Delta-E=       -0.000092181097 Rises=F Damp=F
 DIIS: error= 2.92D-04 at cycle   7 NSaved=   7.
 NSaved= 7 IEnMin= 7 EnMin= -1619.38370747915     IErMin= 7 ErrMin= 2.92D-04
 ErrMax= 2.92D-04  0.00D+00 EMaxC= 1.00D-01 BMatC= 1.82D-05 BMatP= 1.35D-04
 IDIUse=3 WtCom= 9.97D-01 WtEn= 2.92D-03
 Coeff-Com: -0.511D-03-0.227D-03 0.148D-01 0.527D-01 0.136D+00 0.319D+00
 Coeff-Com:  0.478D+00
 Coeff-En:   0.000D+00 0.000D+00 0.000D+00 0.000D+00 0.000D+00 0.102D+00
 Coeff-En:   0.898D+00
 Coeff:     -0.510D-03-0.226D-03 0.147D-01 0.525D-01 0.136D+00 0.318D+00
 Coeff:      0.479D+00
 Gap=     0.241 Goal=   None    Shift=    0.000
 RMSDP=1.44D-05 MaxDP=6.35D-04 DE=-9.22D-05 OVMax= 1.01D-03

 Cycle   8  Pass 0  IDiag  1:
 RMSU=  7.34D-06    CP:  9.96D-01  7.08D-01  5.45D-01  7.18D-01  5.65D-01
                    CP:  6.09D-01  5.65D-01
 E= -1619.38372211738     Delta-E=       -0.000014638230 Rises=F Damp=F
 DIIS: error= 4.70D-05 at cycle   8 NSaved=   8.
 NSaved= 8 IEnMin= 8 EnMin= -1619.38372211738     IErMin= 8 ErrMin= 4.70D-05
 ErrMax= 4.70D-05  0.00D+00 EMaxC= 1.00D-01 BMatC= 7.96D-07 BMatP= 1.82D-05
 IDIUse=1 WtCom= 1.00D+00 WtEn= 0.00D+00
 Coeff-Com: -0.197D-03-0.403D-03 0.244D-02 0.102D-01 0.390D-01 0.115D+00
 Coeff-Com:  0.244D+00 0.590D+00
 Coeff:     -0.197D-03-0.403D-03 0.244D-02 0.102D-01 0.390D-01 0.115D+00
 Coeff:      0.244D+00 0.590D+00
 Gap=     0.241 Goal=   None    Shift=    0.000
 RMSDP=3.68D-06 MaxDP=2.04D-04 DE=-1.46D-05 OVMax= 1.83D-04

 Initial convergence to 1.0D-05 achieved.  Increase integral accuracy.
 Cycle   9  Pass 1  IDiag  1:
 E= -1619.38368269434     Delta-E=        0.000039423043 Rises=F Damp=F
 DIIS: error= 6.63D-05 at cycle   1 NSaved=   1.
 NSaved= 1 IEnMin= 1 EnMin= -1619.38368269434     IErMin= 1 ErrMin= 6.63D-05
 ErrMax= 6.63D-05  0.00D+00 EMaxC= 1.00D-01 BMatC= 7.51D-07 BMatP= 7.51D-07
 IDIUse=1 WtCom= 1.00D+00 WtEn= 0.00D+00
 Coeff-Com:  0.100D+01
 Coeff:      0.100D+01
 Gap=     0.241 Goal=   None    Shift=    0.000
 RMSDP=3.68D-06 MaxDP=2.04D-04 DE= 3.94D-05 OVMax= 1.65D-04

 Cycle  10  Pass 1  IDiag  1:
 RMSU=  3.20D-05    CP:  1.00D+00
 E= -1619.38368322037     Delta-E=       -0.000000526035 Rises=F Damp=F
 DIIS: error= 2.19D-05 at cycle   2 NSaved=   2.
 NSaved= 2 IEnMin= 2 EnMin= -1619.38368322037     IErMin= 2 ErrMin= 2.19D-05
 ErrMax= 2.19D-05  0.00D+00 EMaxC= 1.00D-01 BMatC= 3.10D-07 BMatP= 7.51D-07
 IDIUse=1 WtCom= 1.00D+00 WtEn= 0.00D+00
 Coeff-Com:  0.337D+00 0.663D+00
 Coeff:      0.337D+00 0.663D+00
 Gap=     0.241 Goal=   None    Shift=    0.000
 RMSDP=3.25D-06 MaxDP=1.92D-04 DE=-5.26D-07 OVMax= 2.27D-04

 Cycle  11  Pass 1  IDiag  1:
 RMSU=  3.25D-06    CP:  1.00D+00  1.00D+00
 E= -1619.38368320021     Delta-E=        0.000000020160 Rises=F Damp=F
 DIIS: error= 2.46D-05 at cycle   3 NSaved=   3.
 NSaved= 3 IEnMin= 2 EnMin= -1619.38368322037     IErMin= 2 ErrMin= 2.19D-05
 ErrMax= 2.46D-05  0.00D+00 EMaxC= 1.00D-01 BMatC= 3.46D-07 BMatP= 3.10D-07
 IDIUse=1 WtCom= 1.00D+00 WtEn= 0.00D+00
 Coeff-Com:  0.714D-02 0.512D+00 0.481D+00
 Coeff:      0.714D-02 0.512D+00 0.481D+00
 Gap=     0.241 Goal=   None    Shift=    0.000
 RMSDP=1.75D-06 MaxDP=1.01D-04 DE= 2.02D-08 OVMax= 1.30D-04

 Cycle  12  Pass 1  IDiag  1:
 RMSU=  5.91D-07    CP:  1.00D+00  1.01D+00  4.98D-01
 E= -1619.38368345984     Delta-E=       -0.000000259628 Rises=F Damp=F
 DIIS: error= 5.15D-06 at cycle   4 NSaved=   4.
 NSaved= 4 IEnMin= 4 EnMin= -1619.38368345984     IErMin= 4 ErrMin= 5.15D-06
 ErrMax= 5.15D-06  0.00D+00 EMaxC= 1.00D-01 BMatC= 1.14D-08 BMatP= 3.10D-07
 IDIUse=1 WtCom= 1.00D+00 WtEn= 0.00D+00
 Coeff-Com: -0.737D-02 0.291D+00 0.294D+00 0.422D+00
 Coeff:     -0.737D-02 0.291D+00 0.294D+00 0.422D+00
 Gap=     0.241 Goal=   None    Shift=    0.000
 RMSDP=3.46D-07 MaxDP=1.63D-05 DE=-2.60D-07 OVMax= 1.62D-05

 Cycle  13  Pass 1  IDiag  1:
 RMSU=  1.70D-07    CP:  1.00D+00  1.01D+00  5.10D-01  4.97D-01
 E= -1619.38368346915     Delta-E=       -0.000000009307 Rises=F Damp=F
 DIIS: error= 1.15D-06 at cycle   5 NSaved=   5.
 NSaved= 5 IEnMin= 5 EnMin= -1619.38368346915     IErMin= 5 ErrMin= 1.15D-06
 ErrMax= 1.15D-06  0.00D+00 EMaxC= 1.00D-01 BMatC= 3.80D-10 BMatP= 1.14D-08
 IDIUse=1 WtCom= 1.00D+00 WtEn= 0.00D+00
 Coeff-Com: -0.440D-02 0.139D+00 0.142D+00 0.238D+00 0.486D+00
 Coeff:     -0.440D-02 0.139D+00 0.142D+00 0.238D+00 0.486D+00
 Gap=     0.241 Goal=   None    Shift=    0.000
 RMSDP=7.17D-08 MaxDP=4.43D-06 DE=-9.31D-09 OVMax= 4.42D-06

 Cycle  14  Pass 1  IDiag  1:
 RMSU=  6.15D-08    CP:  1.00D+00  1.01D+00  5.08D-01  5.13D-01  7.96D-01
 E= -1619.38368346948     Delta-E=       -0.000000000329 Rises=F Damp=F
 DIIS: error= 3.87D-07 at cycle   6 NSaved=   6.
 NSaved= 6 IEnMin= 6 EnMin= -1619.38368346948     IErMin= 6 ErrMin= 3.87D-07
 ErrMax= 3.87D-07  0.00D+00 EMaxC= 1.00D-01 BMatC= 4.51D-11 BMatP= 3.80D-10
 IDIUse=1 WtCom= 1.00D+00 WtEn= 0.00D+00
 Coeff-Com: -0.143D-02 0.368D-01 0.376D-01 0.754D-01 0.282D+00 0.569D+00
 Coeff:     -0.143D-02 0.368D-01 0.376D-01 0.754D-01 0.282D+00 0.569D+00
 Gap=     0.241 Goal=   None    Shift=    0.000
 RMSDP=2.60D-08 MaxDP=1.18D-06 DE=-3.29D-10 OVMax= 1.70D-06

 Cycle  15  Pass 1  IDiag  1:
 RMSU=  1.94D-08    CP:  1.00D+00  1.01D+00  5.08D-01  5.16D-01  8.34D-01
                    CP:  7.42D-01
 E= -1619.38368346948     Delta-E=       -0.000000000005 Rises=F Damp=F
 DIIS: error= 1.77D-07 at cycle   7 NSaved=   7.
 NSaved= 7 IEnMin= 7 EnMin= -1619.38368346948     IErMin= 7 ErrMin= 1.77D-07
 ErrMax= 1.77D-07  0.00D+00 EMaxC= 1.00D-01 BMatC= 8.32D-12 BMatP= 4.51D-11
 IDIUse=1 WtCom= 1.00D+00 WtEn= 0.00D+00
 Coeff-Com: -0.215D-03 0.182D-02 0.192D-02 0.110D-01 0.103D+00 0.357D+00
 Coeff-Com:  0.525D+00
 Coeff:     -0.215D-03 0.182D-02 0.192D-02 0.110D-01 0.103D+00 0.357D+00
 Coeff:      0.525D+00
 Gap=     0.241 Goal=   None    Shift=    0.000
 RMSDP=1.00D-08 MaxDP=4.15D-07 DE=-4.55D-12 OVMax= 5.99D-07

 Cycle  16  Pass 1  IDiag  1:
 RMSU=  6.10D-09    CP:  1.00D+00  1.01D+00  5.08D-01  5.19D-01  8.41D-01
                    CP:  7.72D-01  6.17D-01
 E= -1619.38368346941     Delta-E=        0.000000000071 Rises=F Damp=F
 DIIS: error= 4.81D-08 at cycle   8 NSaved=   8.
 NSaved= 8 IEnMin= 7 EnMin= -1619.38368346948     IErMin= 8 ErrMin= 4.81D-08
 ErrMax= 4.81D-08  0.00D+00 EMaxC= 1.00D-01 BMatC= 6.17D-13 BMatP= 8.32D-12
 IDIUse=1 WtCom= 1.00D+00 WtEn= 0.00D+00
 Coeff-Com: -0.129D-04-0.177D-02-0.176D-02 0.314D-03 0.349D-01 0.152D+00
 Coeff-Com:  0.296D+00 0.521D+00
 Coeff:     -0.129D-04-0.177D-02-0.176D-02 0.314D-03 0.349D-01 0.152D+00
 Coeff:      0.296D+00 0.521D+00
 Gap=     0.241 Goal=   None    Shift=    0.000
 RMSDP=3.01D-09 MaxDP=1.42D-07 DE= 7.14D-11 OVMax= 1.50D-07

 SCF Done:  E(RB3LYP) =  -1619.38368347     A.U. after   16 cycles
            NFock= 16  Conv=0.30D-08     -V/T= 2.0066
 KE= 1.608825922132D+03 PE=-7.456813922184D+03 EE= 2.403235172538D+03
 Leave Link  502 at Sat Aug  8 00:09:10 2020, MaxMem=    33554432 cpu:       295.5
 (Enter /prod/apps/gaussian/g09d1/l601.exe)
 Copying SCF densities to generalized density rwf, IOpCl= 0 IROHF=0.

 **********************************************************************

            Population analysis using the SCF density.

 **********************************************************************

 Orbital symmetries:
       Occupied  (A) (A) (A) (A) (A) (A) (A) (A) (A) (A) (A) (A)
                 (A) (A) (A) (A) (A) (A) (A) (A) (A) (A) (A) (A)
                 (A) (A) (A) (A) (A) (A) (A) (A) (A) (A) (A) (A)
                 (A) (A) (A) (A) (A) (A) (A) (A) (A) (A) (A) (A)
                 (A) (A) (A) (A) (A) (A) (A) (A) (A) (A) (A) (A)
                 (A) (A) (A) (A) (A) (A) (A) (A) (A) (A) (A) (A)
                 (A) (A) (A) (A) (A) (A) (A) (A)
       Virtual   (A) (A) (A) (A) (A) (A) (A) (A) (A) (A) (A) (A)
                 (A) (A) (A) (A) (A) (A) (A) (A) (A) (A) (A) (A)
                 (A) (A) (A) (A) (A) (A) (A) (A) (A) (A) (A) (A)
                 (A) (A) (A) (A) (A) (A) (A) (A) (A) (A) (A) (A)
                 (A) (A) (A) (A) (A) (A) (A) (A) (A) (A) (A) (A)
                 (A) (A) (A) (A) (A) (A) (A) (A) (A) (A) (A) (A)
                 (A) (A) (A) (A) (A) (A) (A) (A) (A) (A) (A) (A)
                 (A) (A) (A) (A) (A) (A) (A) (A) (A) (A) (A) (A)
                 (A) (A) (A) (A) (A) (A) (A) (A) (A) (A) (A) (A)
                 (A) (A) (A) (A) (A) (A) (A) (A) (A) (A) (A) (A)
                 (A) (A) (A) (A) (A) (A) (A) (A) (A) (A) (A) (A)
                 (A) (A) (A) (A) (A) (A) (A) (A) (A) (A) (A) (A)
                 (A) (A) (A) (A) (A) (A) (A) (A) (A) (A) (A) (A)
                 (A) (A) (A) (A) (A) (A) (A) (A) (A) (A) (A) (A)
                 (A) (A) (A) (A) (A) (A) (A) (A) (A) (A) (A) (A)
                 (A) (A) (A) (A) (A) (A) (A) (A) (A) (A) (A) (A)
                 (A) (A) (A) (A) (A) (A) (A) (A) (A) (A) (A) (A)
                 (A) (A) (A) (A) (A) (A) (A) (A) (A) (A) (A) (A)
                 (A) (A) (A) (A) (A) (A) (A) (A) (A) (A) (A) (A)
                 (A) (A) (A) (A) (A) (A) (A) (A) (A) (A) (A) (A)
                 (A) (A) (A) (A) (A) (A) (A)
 The electronic state is 1-A.
 Alpha  occ. eigenvalues --  -89.13106 -89.09056 -19.15790 -19.15781 -19.14187
 Alpha  occ. eigenvalues --  -19.14169 -14.38915 -10.28926 -10.24242 -10.23828
 Alpha  occ. eigenvalues --  -10.23045 -10.22029 -10.20574 -10.20469 -10.19765
 Alpha  occ. eigenvalues --  -10.19753 -10.19671 -10.19658 -10.19587  -8.15644
 Alpha  occ. eigenvalues --   -8.12088  -6.12167  -6.12051  -6.11925  -6.08498
 Alpha  occ. eigenvalues --   -6.08446  -6.08389  -1.12704  -1.09634  -1.01597
 Alpha  occ. eigenvalues --   -0.99203  -0.95845  -0.86771  -0.85953  -0.80477
 Alpha  occ. eigenvalues --   -0.79228  -0.75132  -0.74902  -0.73089  -0.69388
 Alpha  occ. eigenvalues --   -0.63600  -0.62610  -0.61324  -0.59019  -0.57880
 Alpha  occ. eigenvalues --   -0.54783  -0.53624  -0.51766  -0.51077  -0.50176
 Alpha  occ. eigenvalues --   -0.49739  -0.48437  -0.47817  -0.46445  -0.46099
 Alpha  occ. eigenvalues --   -0.45352  -0.45298  -0.44179  -0.43899  -0.43375
 Alpha  occ. eigenvalues --   -0.42724  -0.41671  -0.41139  -0.40260  -0.38198
 Alpha  occ. eigenvalues --   -0.36677  -0.36386  -0.35477  -0.34557  -0.34506
 Alpha  occ. eigenvalues --   -0.33103  -0.32716  -0.31978  -0.31599  -0.31079
 Alpha  occ. eigenvalues --   -0.30081  -0.29306  -0.27941  -0.25745  -0.25045
 Alpha virt. eigenvalues --   -0.00936  -0.00851   0.02235   0.03062   0.04774
 Alpha virt. eigenvalues --    0.05271   0.05918   0.06294   0.06812   0.08017
 Alpha virt. eigenvalues --    0.08646   0.09443   0.09464   0.10077   0.10307
 Alpha virt. eigenvalues --    0.11983   0.13110   0.13300   0.13891   0.14344
 Alpha virt. eigenvalues --    0.15009   0.15495   0.17151   0.17788   0.18326
 Alpha virt. eigenvalues --    0.19131   0.19636   0.20936   0.21549   0.22861
 Alpha virt. eigenvalues --    0.23332   0.25582   0.27079   0.28886   0.29860
 Alpha virt. eigenvalues --    0.31877   0.33455   0.33821   0.35325   0.35859
 Alpha virt. eigenvalues --    0.36202   0.37480   0.42437   0.44485   0.44935
 Alpha virt. eigenvalues --    0.45136   0.45943   0.47626   0.49678   0.50178
 Alpha virt. eigenvalues --    0.50424   0.52093   0.52738   0.52993   0.53173
 Alpha virt. eigenvalues --    0.54406   0.54786   0.55489   0.56984   0.58672
 Alpha virt. eigenvalues --    0.59088   0.59459   0.59620   0.60514   0.60574
 Alpha virt. eigenvalues --    0.62047   0.63803   0.64128   0.65412   0.67239
 Alpha virt. eigenvalues --    0.68432   0.69120   0.69733   0.70537   0.71156
 Alpha virt. eigenvalues --    0.73659   0.74599   0.78269   0.79287   0.80819
 Alpha virt. eigenvalues --    0.81221   0.81781   0.82033   0.82749   0.82922
 Alpha virt. eigenvalues --    0.83213   0.83302   0.84241   0.84461   0.84970
 Alpha virt. eigenvalues --    0.85530   0.85812   0.86105   0.87258   0.88102
 Alpha virt. eigenvalues --    0.88916   0.89943   0.90439   0.91963   0.92207
 Alpha virt. eigenvalues --    0.94088   0.94977   0.95114   0.96932   0.98044
 Alpha virt. eigenvalues --    0.98242   0.98856   0.99709   0.99810   1.02492
 Alpha virt. eigenvalues --    1.02901   1.05689   1.06568   1.08106   1.09137
 Alpha virt. eigenvalues --    1.10515   1.10684   1.12111   1.14156   1.14905
 Alpha virt. eigenvalues --    1.15869   1.17461   1.17839   1.19038   1.19692
 Alpha virt. eigenvalues --    1.20070   1.23130   1.24968   1.25396   1.29573
 Alpha virt. eigenvalues --    1.32171   1.33822   1.34222   1.36507   1.40304
 Alpha virt. eigenvalues --    1.41595   1.42297   1.43317   1.45281   1.47681
 Alpha virt. eigenvalues --    1.48134   1.48599   1.50330   1.50643   1.55905
 Alpha virt. eigenvalues --    1.58210   1.62376   1.62568   1.65917   1.68973
 Alpha virt. eigenvalues --    1.71189   1.73137   1.74424   1.76188   1.78013
 Alpha virt. eigenvalues --    1.79022   1.79392   1.80069   1.80754   1.81306
 Alpha virt. eigenvalues --    1.81662   1.81974   1.82644   1.83497   1.84324
 Alpha virt. eigenvalues --    1.84855   1.86044   1.87592   1.88586   1.89347
 Alpha virt. eigenvalues --    1.92906   1.93698   1.94875   1.96969   1.98000
 Alpha virt. eigenvalues --    1.99970   2.02934   2.03364   2.03616   2.04920
 Alpha virt. eigenvalues --    2.05250   2.06062   2.07318   2.08207   2.12468
 Alpha virt. eigenvalues --    2.12971   2.13252   2.13788   2.14125   2.14762
 Alpha virt. eigenvalues --    2.16401   2.17929   2.18114   2.20737   2.22687
 Alpha virt. eigenvalues --    2.23475   2.24030   2.25842   2.27895   2.28619
 Alpha virt. eigenvalues --    2.30248   2.31102   2.31589   2.36718   2.39920
 Alpha virt. eigenvalues --    2.40619   2.42452   2.45192   2.48698   2.56128
 Alpha virt. eigenvalues --    2.56834   2.57309   2.65534   2.68568   2.69726
 Alpha virt. eigenvalues --    2.70958   2.71988   2.73232   2.73817   2.75353
 Alpha virt. eigenvalues --    2.75779   2.76151   2.81477   2.83952   2.86171
 Alpha virt. eigenvalues --    2.93823   3.04222   3.40444   3.72710   3.80897
 Alpha virt. eigenvalues --    3.87759   3.95583   3.96055   4.00970   4.08431
 Alpha virt. eigenvalues --    4.10821   4.12633   4.14196   4.18890   4.22090
 Alpha virt. eigenvalues --    4.23533   4.32286   4.33921   4.40839   4.52509
 Alpha virt. eigenvalues --    4.69658   4.74300
          Condensed to atoms (all electrons):
               1          2          3          4          5          6
     1  C    5.550281   0.215393  -0.058359  -0.001315  -0.000175   0.000000
     2  S    0.215393  13.673220   0.103695  -0.002927  -0.002954  -0.000483
     3  N   -0.058359   0.103695   7.418968   0.230651  -0.054692   0.002066
     4  C   -0.001315  -0.002927   0.230651   4.831670   0.365310  -0.088502
     5  C   -0.000175  -0.002954  -0.054692   0.365310   5.727303   0.148538
     6  S    0.000000  -0.000483   0.002066  -0.088502   0.148538  13.849262
     7  C   -0.000701  -0.002546  -0.040219   0.341013  -0.208976   0.134619
     8  O    0.000003  -0.000213  -0.000109   0.001144  -0.042626   0.435517
     9  O    0.000000   0.000010  -0.000039   0.000362  -0.043872   0.404343
    10  C   -0.000248   0.000897  -0.047514   0.330170  -0.048593   0.000981
    11  C    0.000001   0.000005   0.003130  -0.029147  -0.003468  -0.001292
    12  C    0.000000   0.000003  -0.000081   0.004012  -0.000057   0.000502
    13  C    0.000000   0.000000  -0.000003   0.000082  -0.000001  -0.000014
    14  C    0.000000   0.000000   0.000000   0.000002   0.000000   0.000000
    15  C    0.000000   0.000000   0.000000   0.000000   0.000000   0.000000
    16  C    0.000000   0.000000   0.000000   0.000002   0.000000   0.000000
    17  C    0.000000   0.000000  -0.000002   0.000102  -0.000008  -0.000011
    18  O   -0.056952   0.390588  -0.052126   0.004043  -0.006401   0.001314
    19  O   -0.062085   0.460393  -0.054711   0.001524   0.000091   0.000003
    20  H    0.334703  -0.004806  -0.000959  -0.000124   0.000008   0.000017
    21  H    0.356281  -0.015977   0.002695  -0.000011   0.000007   0.000001
    22  H    0.342246  -0.006710   0.000656   0.000163   0.000001   0.000001
    23  H    0.002393  -0.013101   0.298423  -0.028223   0.000046  -0.000299
    24  H    0.000003   0.000226   0.002441  -0.029936   0.336033  -0.012525
    25  H    0.000070   0.001717  -0.005778  -0.019033   0.330966  -0.004532
    26  H    0.000010   0.000206   0.001962  -0.027915   0.009694  -0.010847
    27  H   -0.002311   0.008293  -0.007025  -0.021913   0.004807  -0.005265
    28  H   -0.000016   0.000116   0.001104  -0.035005   0.005663  -0.000216
    29  H    0.000005  -0.000255  -0.005478  -0.036146  -0.006421  -0.000222
    30  H    0.000000   0.000002   0.000017  -0.005093   0.001875   0.000167
    31  H    0.000000   0.000000   0.000035  -0.004822  -0.000425   0.000858
    32  H    0.000000   0.000000   0.000001  -0.000050   0.000001  -0.000003
    33  H    0.000000   0.000000   0.000000   0.000000   0.000000   0.000000
    34  H    0.000000   0.000000   0.000000   0.000000   0.000000   0.000000
    35  H    0.000000   0.000000   0.000000   0.000000   0.000000   0.000000
    36  H    0.000000   0.000000   0.000001  -0.000061  -0.000012  -0.000002
               7          8          9         10         11         12
     1  C   -0.000701   0.000003   0.000000  -0.000248   0.000001   0.000000
     2  S   -0.002546  -0.000213   0.000010   0.000897   0.000005   0.000003
     3  N   -0.040219  -0.000109  -0.000039  -0.047514   0.003130  -0.000081
     4  C    0.341013   0.001144   0.000362   0.330170  -0.029147   0.004012
     5  C   -0.208976  -0.042626  -0.043872  -0.048593  -0.003468  -0.000057
     6  S    0.134619   0.435517   0.404343   0.000981  -0.001292   0.000502
     7  C    5.741504  -0.044227  -0.043571  -0.038210  -0.005036  -0.000076
     8  O   -0.044227   8.191934  -0.045238  -0.000051  -0.000003   0.000000
     9  O   -0.043571  -0.045238   8.258175  -0.000723  -0.000146   0.000359
    10  C   -0.038210  -0.000051  -0.000723   5.167105   0.339901  -0.035695
    11  C   -0.005036  -0.000003  -0.000146   0.339901   5.201403   0.329558
    12  C   -0.000076   0.000000   0.000359  -0.035695   0.329558   4.661389
    13  C   -0.000006   0.000000  -0.000004  -0.004319  -0.055124   0.548378
    14  C    0.000000   0.000000   0.000000  -0.000062   0.006833  -0.019440
    15  C    0.000000   0.000000   0.000000   0.000019   0.000383  -0.034670
    16  C    0.000000   0.000000   0.000000  -0.000032   0.006689  -0.019008
    17  C   -0.000001   0.000000  -0.000003  -0.005042  -0.056431   0.545634
    18  O   -0.003915   0.000105   0.000000   0.000186   0.000001   0.000000
    19  O   -0.000072   0.000000   0.000000  -0.000096   0.000000   0.000000
    20  H    0.000964  -0.000005   0.000000   0.000036  -0.000001   0.000000
    21  H    0.000002   0.000000   0.000000   0.000001   0.000000   0.000000
    22  H    0.000000   0.000000   0.000000  -0.000011   0.000000   0.000000
    23  H    0.005029   0.000003   0.000001  -0.005700   0.000018  -0.000019
    24  H    0.010362   0.000798  -0.001161  -0.005885  -0.000305  -0.000214
    25  H    0.004670  -0.000237   0.000999   0.002576   0.000233   0.000005
    26  H    0.338219   0.000836  -0.001022  -0.006469   0.000556  -0.000203
    27  H    0.328827   0.000840   0.001035   0.002695   0.000186   0.000005
    28  H   -0.007417   0.000001  -0.000002   0.363099  -0.034265  -0.002295
    29  H    0.005593   0.000001  -0.000004   0.360306  -0.036362  -0.002812
    30  H   -0.000338   0.000005   0.002429  -0.038913   0.364081  -0.029182
    31  H    0.002128   0.000008   0.003582  -0.039153   0.365762  -0.029202
    32  H   -0.000014   0.000000  -0.000001   0.000176  -0.009259  -0.048365
    33  H    0.000000   0.000000   0.000000  -0.000001  -0.000185   0.003768
    34  H    0.000000   0.000000   0.000000   0.000000   0.000006   0.000739
    35  H    0.000000   0.000000   0.000000  -0.000001  -0.000184   0.003728
    36  H    0.000000   0.000000   0.000000   0.000120  -0.008965  -0.048838
              13         14         15         16         17         18
     1  C    0.000000   0.000000   0.000000   0.000000   0.000000  -0.056952
     2  S    0.000000   0.000000   0.000000   0.000000   0.000000   0.390588
     3  N   -0.000003   0.000000   0.000000   0.000000  -0.000002  -0.052126
     4  C    0.000082   0.000002   0.000000   0.000002   0.000102   0.004043
     5  C   -0.000001   0.000000   0.000000   0.000000  -0.000008  -0.006401
     6  S   -0.000014   0.000000   0.000000   0.000000  -0.000011   0.001314
     7  C   -0.000006   0.000000   0.000000   0.000000  -0.000001  -0.003915
     8  O    0.000000   0.000000   0.000000   0.000000   0.000000   0.000105
     9  O   -0.000004   0.000000   0.000000   0.000000  -0.000003   0.000000
    10  C   -0.004319  -0.000062   0.000019  -0.000032  -0.005042   0.000186
    11  C   -0.055124   0.006833   0.000383   0.006689  -0.056431   0.000001
    12  C    0.548378  -0.019440  -0.034670  -0.019008   0.545634   0.000000
    13  C    4.954825   0.524466  -0.036013  -0.047225  -0.036724   0.000000
    14  C    0.524466   4.864854   0.550799  -0.025902  -0.047302   0.000000
    15  C   -0.036013   0.550799   4.850967   0.550483  -0.036040   0.000000
    16  C   -0.047225  -0.025902   0.550483   4.863897   0.525194   0.000000
    17  C   -0.036724  -0.047302  -0.036040   0.525194   4.957976   0.000000
    18  O    0.000000   0.000000   0.000000   0.000000   0.000000   8.284478
    19  O    0.000000   0.000000   0.000000   0.000000   0.000000  -0.040860
    20  H    0.000000   0.000000   0.000000   0.000000   0.000000  -0.001755
    21  H    0.000000   0.000000   0.000000   0.000000   0.000000   0.000107
    22  H    0.000000   0.000000   0.000000   0.000000   0.000000   0.001881
    23  H    0.000000   0.000000   0.000000   0.000000  -0.000004   0.000638
    24  H    0.000000   0.000000   0.000000   0.000000   0.000017   0.000235
    25  H    0.000000   0.000000   0.000000   0.000000   0.000000   0.011392
    26  H    0.000016   0.000000   0.000000   0.000000   0.000000   0.000176
    27  H    0.000000   0.000000   0.000000   0.000000   0.000000   0.004558
    28  H    0.003774  -0.000140  -0.000006  -0.000013   0.000051   0.000002
    29  H    0.000066  -0.000010  -0.000007  -0.000161   0.004380   0.000001
    30  H    0.003366  -0.000195   0.000011   0.000118  -0.003572   0.000000
    31  H   -0.003763   0.000128   0.000010  -0.000194   0.003507   0.000000
    32  H    0.354747  -0.045189   0.004897   0.000360   0.006156   0.000000
    33  H   -0.039400   0.356868  -0.042883   0.004541   0.000875   0.000000
    34  H    0.004680  -0.042815   0.359438  -0.042732   0.004685   0.000000
    35  H    0.000880   0.004524  -0.042729   0.356839  -0.039346   0.000000
    36  H    0.006073   0.000369   0.004880  -0.044828   0.355071   0.000000
              19         20         21         22         23         24
     1  C   -0.062085   0.334703   0.356281   0.342246   0.002393   0.000003
     2  S    0.460393  -0.004806  -0.015977  -0.006710  -0.013101   0.000226
     3  N   -0.054711  -0.000959   0.002695   0.000656   0.298423   0.002441
     4  C    0.001524  -0.000124  -0.000011   0.000163  -0.028223  -0.029936
     5  C    0.000091   0.000008   0.000007   0.000001   0.000046   0.336033
     6  S    0.000003   0.000017   0.000001   0.000001  -0.000299  -0.012525
     7  C   -0.000072   0.000964   0.000002   0.000000   0.005029   0.010362
     8  O    0.000000  -0.000005   0.000000   0.000000   0.000003   0.000798
     9  O    0.000000   0.000000   0.000000   0.000000   0.000001  -0.001161
    10  C   -0.000096   0.000036   0.000001  -0.000011  -0.005700  -0.005885
    11  C    0.000000  -0.000001   0.000000   0.000000   0.000018  -0.000305
    12  C    0.000000   0.000000   0.000000   0.000000  -0.000019  -0.000214
    13  C    0.000000   0.000000   0.000000   0.000000   0.000000   0.000000
    14  C    0.000000   0.000000   0.000000   0.000000   0.000000   0.000000
    15  C    0.000000   0.000000   0.000000   0.000000   0.000000   0.000000
    16  C    0.000000   0.000000   0.000000   0.000000   0.000000   0.000000
    17  C    0.000000   0.000000   0.000000   0.000000  -0.000004   0.000017
    18  O   -0.040860  -0.001755   0.000107   0.001881   0.000638   0.000235
    19  O    8.210983   0.001807  -0.000559  -0.000173   0.005491  -0.000002
    20  H    0.001807   0.511126  -0.020513  -0.024560  -0.000067   0.000000
    21  H   -0.000559  -0.020513   0.472555  -0.019001  -0.000068   0.000000
    22  H   -0.000173  -0.024560  -0.019001   0.493869   0.000008   0.000000
    23  H    0.005491  -0.000067  -0.000068   0.000008   0.367233   0.000266
    24  H   -0.000002   0.000000   0.000000   0.000000   0.000266   0.508225
    25  H   -0.000463   0.000003   0.000002  -0.000004  -0.000014  -0.017663
    26  H    0.000001  -0.000055   0.000000   0.000000  -0.000044  -0.000273
    27  H    0.000011   0.004489   0.000073   0.000053   0.000094  -0.000271
    28  H    0.000001   0.000008   0.000001   0.000008  -0.000389   0.000166
    29  H   -0.000017   0.000000   0.000000  -0.000001   0.008250   0.002284
    30  H    0.000000   0.000000   0.000000   0.000000  -0.000006   0.004930
    31  H    0.000000   0.000000   0.000000   0.000000   0.000017   0.000057
    32  H    0.000000   0.000000   0.000000   0.000000   0.000000   0.000000
    33  H    0.000000   0.000000   0.000000   0.000000   0.000000   0.000000
    34  H    0.000000   0.000000   0.000000   0.000000   0.000000   0.000000
    35  H    0.000000   0.000000   0.000000   0.000000   0.000000   0.000000
    36  H    0.000000   0.000000   0.000000   0.000000   0.000000   0.000107
              25         26         27         28         29         30
     1  C    0.000070   0.000010  -0.002311  -0.000016   0.000005   0.000000
     2  S    0.001717   0.000206   0.008293   0.000116  -0.000255   0.000002
     3  N   -0.005778   0.001962  -0.007025   0.001104  -0.005478   0.000017
     4  C   -0.019033  -0.027915  -0.021913  -0.035005  -0.036146  -0.005093
     5  C    0.330966   0.009694   0.004807   0.005663  -0.006421   0.001875
     6  S   -0.004532  -0.010847  -0.005265  -0.000216  -0.000222   0.000167
     7  C    0.004670   0.338219   0.328827  -0.007417   0.005593  -0.000338
     8  O   -0.000237   0.000836   0.000840   0.000001   0.000001   0.000005
     9  O    0.000999  -0.001022   0.001035  -0.000002  -0.000004   0.002429
    10  C    0.002576  -0.006469   0.002695   0.363099   0.360306  -0.038913
    11  C    0.000233   0.000556   0.000186  -0.034265  -0.036362   0.364081
    12  C    0.000005  -0.000203   0.000005  -0.002295  -0.002812  -0.029182
    13  C    0.000000   0.000016   0.000000   0.003774   0.000066   0.003366
    14  C    0.000000   0.000000   0.000000  -0.000140  -0.000010  -0.000195
    15  C    0.000000   0.000000   0.000000  -0.000006  -0.000007   0.000011
    16  C    0.000000   0.000000   0.000000  -0.000013  -0.000161   0.000118
    17  C    0.000000   0.000000   0.000000   0.000051   0.004380  -0.003572
    18  O    0.011392   0.000176   0.004558   0.000002   0.000001   0.000000
    19  O   -0.000463   0.000001   0.000011   0.000001  -0.000017   0.000000
    20  H    0.000003  -0.000055   0.004489   0.000008   0.000000   0.000000
    21  H    0.000002   0.000000   0.000073   0.000001   0.000000   0.000000
    22  H   -0.000004   0.000000   0.000053   0.000008  -0.000001   0.000000
    23  H   -0.000014  -0.000044   0.000094  -0.000389   0.008250  -0.000006
    24  H   -0.017663  -0.000273  -0.000271   0.000166   0.002284   0.004930
    25  H    0.451541  -0.000267  -0.000258  -0.000101  -0.000034   0.000064
    26  H   -0.000267   0.503173  -0.020061   0.002537   0.000225   0.000055
    27  H   -0.000258  -0.020061   0.482269  -0.000044  -0.000123  -0.000017
    28  H   -0.000101   0.002537  -0.000044   0.571224  -0.034672   0.005269
    29  H   -0.000034   0.000225  -0.000123  -0.034672   0.593209  -0.004277
    30  H    0.000064   0.000055  -0.000017   0.005269  -0.004277   0.557124
    31  H   -0.000017   0.003624   0.000053  -0.004317   0.005412  -0.031530
    32  H    0.000000   0.000109   0.000000   0.000736   0.000042   0.000067
    33  H    0.000000   0.000000   0.000000   0.000004   0.000000   0.000003
    34  H    0.000000   0.000000   0.000000   0.000000   0.000000   0.000000
    35  H    0.000000   0.000000   0.000000   0.000000   0.000004  -0.000006
    36  H    0.000000   0.000000   0.000000   0.000049   0.000950   0.004957
              31         32         33         34         35         36
     1  C    0.000000   0.000000   0.000000   0.000000   0.000000   0.000000
     2  S    0.000000   0.000000   0.000000   0.000000   0.000000   0.000000
     3  N    0.000035   0.000001   0.000000   0.000000   0.000000   0.000001
     4  C   -0.004822  -0.000050   0.000000   0.000000   0.000000  -0.000061
     5  C   -0.000425   0.000001   0.000000   0.000000   0.000000  -0.000012
     6  S    0.000858  -0.000003   0.000000   0.000000   0.000000  -0.000002
     7  C    0.002128  -0.000014   0.000000   0.000000   0.000000   0.000000
     8  O    0.000008   0.000000   0.000000   0.000000   0.000000   0.000000
     9  O    0.003582  -0.000001   0.000000   0.000000   0.000000   0.000000
    10  C   -0.039153   0.000176  -0.000001   0.000000  -0.000001   0.000120
    11  C    0.365762  -0.009259  -0.000185   0.000006  -0.000184  -0.008965
    12  C   -0.029202  -0.048365   0.003768   0.000739   0.003728  -0.048838
    13  C   -0.003763   0.354747  -0.039400   0.004680   0.000880   0.006073
    14  C    0.000128  -0.045189   0.356868  -0.042815   0.004524   0.000369
    15  C    0.000010   0.004897  -0.042883   0.359438  -0.042729   0.004880
    16  C   -0.000194   0.000360   0.004541  -0.042732   0.356839  -0.044828
    17  C    0.003507   0.006156   0.000875   0.004685  -0.039346   0.355071
    18  O    0.000000   0.000000   0.000000   0.000000   0.000000   0.000000
    19  O    0.000000   0.000000   0.000000   0.000000   0.000000   0.000000
    20  H    0.000000   0.000000   0.000000   0.000000   0.000000   0.000000
    21  H    0.000000   0.000000   0.000000   0.000000   0.000000   0.000000
    22  H    0.000000   0.000000   0.000000   0.000000   0.000000   0.000000
    23  H    0.000017   0.000000   0.000000   0.000000   0.000000   0.000000
    24  H    0.000057   0.000000   0.000000   0.000000   0.000000   0.000107
    25  H   -0.000017   0.000000   0.000000   0.000000   0.000000   0.000000
    26  H    0.003624   0.000109   0.000000   0.000000   0.000000   0.000000
    27  H    0.000053   0.000000   0.000000   0.000000   0.000000   0.000000
    28  H   -0.004317   0.000736   0.000004   0.000000   0.000000   0.000049
    29  H    0.005412   0.000042   0.000000   0.000000   0.000004   0.000950
    30  H   -0.031530   0.000067   0.000003   0.000000  -0.000006   0.004957
    31  H    0.550687   0.005365  -0.000007   0.000000   0.000003   0.000058
    32  H    0.005365   0.614729  -0.005678  -0.000184   0.000018  -0.000183
    33  H   -0.000007  -0.005678   0.595317  -0.005504  -0.000190   0.000018
    34  H    0.000000  -0.000184  -0.005504   0.594802  -0.005491  -0.000184
    35  H    0.000003   0.000018  -0.000190  -0.005491   0.594727  -0.005670
    36  H    0.000058  -0.000183   0.000018  -0.000184  -0.005670   0.613984
 Mulliken charges:
               1
     1  C   -0.619227
     2  S    1.195209
     3  N   -0.738749
     4  C    0.219973
     5  C   -0.511662
     6  S    1.146021
     7  C   -0.517605
     8  O   -0.498484
     9  O   -0.535509
    10  C   -0.291547
    11  C   -0.378576
    12  C    0.172077
    13  C   -0.178754
    14  C   -0.127786
    15  C   -0.129536
    16  C   -0.128028
    17  C   -0.179162
    18  O   -0.537695
    19  O   -0.521266
    20  H    0.199684
    21  H    0.224405
    22  H    0.211573
    23  H    0.360022
    24  H    0.202086
    25  H    0.244164
    26  H    0.205755
    27  H    0.218998
    28  H    0.165084
    29  H    0.146273
    30  H    0.168589
    31  H    0.172138
    32  H    0.121522
    33  H    0.132455
    34  H    0.132561
    35  H    0.132895
    36  H    0.122104
 Sum of Mulliken charges =   0.00000
 Mulliken charges with hydrogens summed into heavy atoms:
               1
     1  C    0.016434
     2  S    1.195209
     3  N   -0.378727
     4  C    0.219973
     5  C   -0.065413
     6  S    1.146021
     7  C   -0.092852
     8  O   -0.498484
     9  O   -0.535509
    10  C    0.019810
    11  C   -0.037849
    12  C    0.172077
    13  C   -0.057232
    14  C    0.004668
    15  C    0.003025
    16  C    0.004867
    17  C   -0.057058
    18  O   -0.537695
    19  O   -0.521266
 Electronic spatial extent (au):  <R**2>=           7674.9452
 Charge=              0.0000 electrons
 Dipole moment (field-independent basis, Debye):
    X=             -3.4980    Y=             -5.2449    Z=              2.4202  Tot=              6.7529
 Quadrupole moment (field-independent basis, Debye-Ang):
   XX=           -134.9532   YY=           -147.0998   ZZ=           -114.1153
   XY=             -3.8956   XZ=             12.4201   YZ=             -6.7464
 Traceless Quadrupole moment (field-independent basis, Debye-Ang):
   XX=             -2.8971   YY=            -15.0437   ZZ=             17.9408
   XY=             -3.8956   XZ=             12.4201   YZ=             -6.7464
 Octapole moment (field-independent basis, Debye-Ang**2):
  XXX=            -42.8396  YYY=            -49.1576  ZZZ=              1.4780  XYY=             -5.2573
  XXY=            -47.1517  XXZ=             46.8050  XZZ=             10.5102  YZZ=              6.9195
  YYZ=             11.6112  XYZ=            -26.8242
 Hexadecapole moment (field-independent basis, Debye-Ang**3):
 XXXX=          -7154.6062 YYYY=          -2214.4087 ZZZZ=           -648.7814 XXXY=             74.7727
 XXXZ=            166.3318 YYYX=            -70.5361 YYYZ=            -44.9016 ZZZX=              5.6273
 ZZZY=             -1.7654 XXYY=          -1685.1040 XXZZ=          -1242.0007 YYZZ=           -429.7758
 XXYZ=            -97.4196 YYXZ=             62.0009 ZZXY=             10.0856
 N-N= 1.825369144045D+03 E-N=-7.456813919433D+03  KE= 1.608825922132D+03
 No NMR shielding tensors so no spin-rotation constants.
 Leave Link  601 at Sat Aug  8 00:09:11 2020, MaxMem=    33554432 cpu:         0.3
 (Enter /prod/apps/gaussian/g09d1/l9999.exe)
 1\1\GINC-PIRINEUS12\SP\RB3LYP\6-31G(d)\C12H17N1O4S2\UBAFAR01\08-Aug-20
 20\0\\#p b3lyp/6-31G(d)\\SM38.n.15.pdb.xyz\\0,1\C,0,6.298,-1.014,-0.85
 5\S,0,4.882,-1.279,0.214\N,0,3.595,-1.393,-0.866\C,0,2.914,-2.642,-1.2
 4\C,0,2.321,-3.491,-0.057\S,0,3.145,-4.99,-0.697\C,0,3.893,-3.728,-1.7
 92\O,0,4.098,-5.606,0.236\O,0,2.208,-5.859,-1.433\C,0,1.85,-2.201,-2.2
 68\C,0,0.942,-3.294,-2.856\C,0,-0.051,-2.704,-3.834\C,0,0.257,-2.611,-
 5.197\C,0,-0.643,-2.042,-6.098\C,0,-1.871,-1.555,-5.647\C,0,-2.191,-1.
 644,-4.291\C,0,-1.288,-2.214,-3.394\O,0,5.064,-2.57,0.891\O,0,4.656,-0
 .052,0.985\H,0,6.404,-1.867,-1.525\H,0,7.174,-0.926,-0.212\H,0,6.139,-
 0.097,-1.418\H,0,2.96,-0.615,-0.697\H,0,1.236,-3.58,-0.027\H,0,2.736,-
 3.228,0.914\H,0,3.804,-3.958,-2.853\H,0,4.934,-3.576,-1.511\H,0,2.377,
 -1.69,-3.08\H,0,1.215,-1.45,-1.785\H,0,0.407,-3.805,-2.051\H,0,1.544,-
 4.054,-3.359\H,0,1.209,-2.995,-5.555\H,0,-0.388,-1.983,-7.151\H,0,-2.5
 74,-1.115,-6.346\H,0,-3.147,-1.274,-3.932\H,0,-1.547,-2.287,-2.341\\Ve
 rsion=AM64L-G09RevD.01\State=1-A\HF=-1619.3836835\RMSD=3.013e-09\Dipol
 e=-0.2055393,1.9214363,-1.8233113\Quadrupole=14.199207,-12.1875338,-2.
 0116731,1.4701731,-9.6620862,0.1519029\PG=C01 [X(C12H17N1O4S2)]\\@


 NECESSARY EVIL: ONE WE LIKE TOO MUCH TO RELINQUISH.
 Job cpu time:       0 days  0 hours  5 minutes  0.9 seconds.
 File lengths (MBytes):  RWF=     60 Int=      0 D2E=      0 Chk=      5 Scr=      1
 Normal termination of Gaussian 09 at Sat Aug  8 00:09:11 2020.
 Initial command:
 /prod/apps/gaussian/g09d1/l1.exe "/tmp/ubafar01/1449014/Gau-151117.inp" -scrdir="/tmp/ubafar01/1449014/"
 Entering Link 1 = /prod/apps/gaussian/g09d1/l1.exe PID=    151292.
  
 Copyright (c) 1988,1990,1992,1993,1995,1998,2003,2009,2013,
            Gaussian, Inc.  All Rights Reserved.
  
 This is part of the Gaussian(R) 09 program.  It is based on
 the Gaussian(R) 03 system (copyright 2003, Gaussian, Inc.),
 the Gaussian(R) 98 system (copyright 1998, Gaussian, Inc.),
 the Gaussian(R) 94 system (copyright 1995, Gaussian, Inc.),
 the Gaussian 92(TM) system (copyright 1992, Gaussian, Inc.),
 the Gaussian 90(TM) system (copyright 1990, Gaussian, Inc.),
 the Gaussian 88(TM) system (copyright 1988, Gaussian, Inc.),
 the Gaussian 86(TM) system (copyright 1986, Carnegie Mellon
 University), and the Gaussian 82(TM) system (copyright 1983,
 Carnegie Mellon University). Gaussian is a federally registered
 trademark of Gaussian, Inc.
  
 This software contains proprietary and confidential information,
 including trade secrets, belonging to Gaussian, Inc.
  
 This software is provided under written license and may be
 used, copied, transmitted, or stored only in accord with that
 written license.
  
 The following legend is applicable only to US Government
 contracts under FAR:
  
                    RESTRICTED RIGHTS LEGEND
  
 Use, reproduction and disclosure by the US Government is
 subject to restrictions as set forth in subparagraphs (a)
 and (c) of the Commercial Computer Software - Restricted
 Rights clause in FAR 52.227-19.
  
 Gaussian, Inc.
 340 Quinnipiac St., Bldg. 40, Wallingford CT 06492
  
  
 ---------------------------------------------------------------
 Warning -- This program may not be used in any manner that
 competes with the business of Gaussian, Inc. or will provide
 assistance to any competitor of Gaussian, Inc.  The licensee
 of this program is prohibited from giving any competitor of
 Gaussian, Inc. access to this program.  By using this program,
 the user acknowledges that Gaussian, Inc. is engaged in the
 business of creating and licensing software in the field of
 computational chemistry and represents and warrants to the
 licensee that it is not a competitor of Gaussian, Inc. and that
 it will not use this program in any manner prohibited above.
 ---------------------------------------------------------------
  

 Cite this work as:
 Gaussian 09, Revision D.01,
 M. J. Frisch, G. W. Trucks, H. B. Schlegel, G. E. Scuseria, 
 M. A. Robb, J. R. Cheeseman, G. Scalmani, V. Barone, B. Mennucci, 
 G. A. Petersson, H. Nakatsuji, M. Caricato, X. Li, H. P. Hratchian, 
 A. F. Izmaylov, J. Bloino, G. Zheng, J. L. Sonnenberg, M. Hada, 
 M. Ehara, K. Toyota, R. Fukuda, J. Hasegawa, M. Ishida, T. Nakajima, 
 Y. Honda, O. Kitao, H. Nakai, T. Vreven, J. A. Montgomery, Jr., 
 J. E. Peralta, F. Ogliaro, M. Bearpark, J. J. Heyd, E. Brothers, 
 K. N. Kudin, V. N. Staroverov, T. Keith, R. Kobayashi, J. Normand, 
 K. Raghavachari, A. Rendell, J. C. Burant, S. S. Iyengar, J. Tomasi, 
 M. Cossi, N. Rega, J. M. Millam, M. Klene, J. E. Knox, J. B. Cross, 
 V. Bakken, C. Adamo, J. Jaramillo, R. Gomperts, R. E. Stratmann, 
 O. Yazyev, A. J. Austin, R. Cammi, C. Pomelli, J. W. Ochterski, 
 R. L. Martin, K. Morokuma, V. G. Zakrzewski, G. A. Voth, 
 P. Salvador, J. J. Dannenberg, S. Dapprich, A. D. Daniels, 
 O. Farkas, J. B. Foresman, J. V. Ortiz, J. Cioslowski, 
 and D. J. Fox, Gaussian, Inc., Wallingford CT, 2013.
 
 ******************************************
 Gaussian 09:  AM64L-G09RevD.01 24-Apr-2013
                 8-Aug-2020 
 ******************************************
 %nproc=1
 Will use up to    1 processors via shared memory.
 %Chk=SM38.n.15.pdb.xyz.mst.n.o.chk
 %subst l301 /dades/curu/work_g09D01_MST_AddSphPartition_ReadGammas/exe-dir/
 %subst l502 /dades/curu/work_g09D01_MST_AddSphPartition_ReadGammas/exe-dir/
 ----------------------------------------------------------------------
 #p b3lyp/6-31G(d) scrf=(iefpcm,read,solvent=n-Octanol) geom=allcheck g
 uess=read
 ----------------------------------------------------------------------
 1/29=7,38=1,40=2/1;
 2/12=2,40=1/2;
 3/5=1,6=6,7=1,11=2,14=-4,16=1,25=1,30=1,70=2203,72=25,74=-5,116=-2/1,2,3;
 4/5=1/1;
 5/5=2,38=6,53=25/2;
 6/7=2,8=2,9=2,10=2,28=1/1;
 99/5=1,9=1/99;
 Leave Link    1 at Sat Aug  8 00:09:11 2020, MaxMem=           0 cpu:         0.0
 (Enter /prod/apps/gaussian/g09d1/l101.exe)
 Structure from the checkpoint file:  "SM38.n.15.pdb.xyz.mst.n.o.chk"
 -----------------
 SM38.n.15.pdb.xyz
 -----------------
 Charge =  0 Multiplicity = 1
 Z-Matrix found in file.
 C,0,6.298,-1.014,-0.855
 S,0,4.882,-1.279,0.214
 N,0,3.595,-1.393,-0.866
 C,0,2.914,-2.642,-1.24
 C,0,2.321,-3.491,-0.057
 S,0,3.145,-4.99,-0.697
 C,0,3.893,-3.728,-1.792
 O,0,4.098,-5.606,0.236
 O,0,2.208,-5.859,-1.433
 C,0,1.85,-2.201,-2.268
 C,0,0.942,-3.294,-2.856
 C,0,-0.051,-2.704,-3.834
 C,0,0.257,-2.611,-5.197
 C,0,-0.643,-2.042,-6.098
 C,0,-1.871,-1.555,-5.647
 C,0,-2.191,-1.644,-4.291
 C,0,-1.288,-2.214,-3.394
 O,0,5.064,-2.57,0.891
 O,0,4.656,-0.052,0.985
 H,0,6.404,-1.867,-1.525
 H,0,7.174,-0.926,-0.212
 H,0,6.139,-0.097,-1.418
 H,0,2.96,-0.615,-0.697
 H,0,1.236,-3.58,-0.027
 H,0,2.736,-3.228,0.914
 H,0,3.804,-3.958,-2.853
 H,0,4.934,-3.576,-1.511
 H,0,2.377,-1.69,-3.08
 H,0,1.215,-1.45,-1.785
 H,0,0.407,-3.805,-2.051
 H,0,1.544,-4.054,-3.359
 H,0,1.209,-2.995,-5.555
 H,0,-0.388,-1.983,-7.151
 H,0,-2.574,-1.115,-6.346
 H,0,-3.147,-1.274,-3.932
 H,0,-1.547,-2.287,-2.341
 Recover connectivity data from disk.
 NAtoms=     36 NQM=       36 NQMF=       0 NMMI=      0 NMMIF=      0
                NMic=       0 NMicF=      0.
                    Isotopes and Nuclear Properties:
 (Nuclear quadrupole moments (NQMom) in fm**2, nuclear magnetic moments (NMagM)
  in nuclear magnetons)

  Atom         1           2           3           4           5           6           7           8           9          10
 IAtWgt=          12          32          14          12          12          32          12          16          16          12
 AtmWgt=  12.0000000  31.9720718  14.0030740  12.0000000  12.0000000  31.9720718  12.0000000  15.9949146  15.9949146  12.0000000
 NucSpn=           0           0           2           0           0           0           0           0           0           0
 AtZEff=  -3.6000000 -13.6000000  -4.5500000  -3.6000000  -3.6000000 -13.6000000  -3.6000000  -5.6000000  -5.6000000  -3.6000000
 NQMom=    0.0000000   0.0000000   2.0440000   0.0000000   0.0000000   0.0000000   0.0000000   0.0000000   0.0000000   0.0000000
 NMagM=    0.0000000   0.0000000   0.4037610   0.0000000   0.0000000   0.0000000   0.0000000   0.0000000   0.0000000   0.0000000
 AtZNuc=   6.0000000  16.0000000   7.0000000   6.0000000   6.0000000  16.0000000   6.0000000   8.0000000   8.0000000   6.0000000

  Atom        11          12          13          14          15          16          17          18          19          20
 IAtWgt=          12          12          12          12          12          12          12          16          16           1
 AtmWgt=  12.0000000  12.0000000  12.0000000  12.0000000  12.0000000  12.0000000  12.0000000  15.9949146  15.9949146   1.0078250
 NucSpn=           0           0           0           0           0           0           0           0           0           1
 AtZEff=  -3.6000000  -3.6000000  -3.6000000  -3.6000000  -3.6000000  -3.6000000  -3.6000000  -5.6000000  -5.6000000  -1.0000000
 NQMom=    0.0000000   0.0000000   0.0000000   0.0000000   0.0000000   0.0000000   0.0000000   0.0000000   0.0000000   0.0000000
 NMagM=    0.0000000   0.0000000   0.0000000   0.0000000   0.0000000   0.0000000   0.0000000   0.0000000   0.0000000   2.7928460
 AtZNuc=   6.0000000   6.0000000   6.0000000   6.0000000   6.0000000   6.0000000   6.0000000   8.0000000   8.0000000   1.0000000

  Atom        21          22          23          24          25          26          27          28          29          30
 IAtWgt=           1           1           1           1           1           1           1           1           1           1
 AtmWgt=   1.0078250   1.0078250   1.0078250   1.0078250   1.0078250   1.0078250   1.0078250   1.0078250   1.0078250   1.0078250
 NucSpn=           1           1           1           1           1           1           1           1           1           1
 AtZEff=  -1.0000000  -1.0000000  -1.0000000  -1.0000000  -1.0000000  -1.0000000  -1.0000000  -1.0000000  -1.0000000  -1.0000000
 NQMom=    0.0000000   0.0000000   0.0000000   0.0000000   0.0000000   0.0000000   0.0000000   0.0000000   0.0000000   0.0000000
 NMagM=    2.7928460   2.7928460   2.7928460   2.7928460   2.7928460   2.7928460   2.7928460   2.7928460   2.7928460   2.7928460
 AtZNuc=   1.0000000   1.0000000   1.0000000   1.0000000   1.0000000   1.0000000   1.0000000   1.0000000   1.0000000   1.0000000

  Atom        31          32          33          34          35          36
 IAtWgt=           1           1           1           1           1           1
 AtmWgt=   1.0078250   1.0078250   1.0078250   1.0078250   1.0078250   1.0078250
 NucSpn=           1           1           1           1           1           1
 AtZEff=  -1.0000000  -1.0000000  -1.0000000  -1.0000000  -1.0000000  -1.0000000
 NQMom=    0.0000000   0.0000000   0.0000000   0.0000000   0.0000000   0.0000000
 NMagM=    2.7928460   2.7928460   2.7928460   2.7928460   2.7928460   2.7928460
 AtZNuc=   1.0000000   1.0000000   1.0000000   1.0000000   1.0000000   1.0000000
 Leave Link  101 at Sat Aug  8 00:09:11 2020, MaxMem=    33554432 cpu:         0.1
 (Enter /prod/apps/gaussian/g09d1/l202.exe)
                          Input orientation:                          
 ---------------------------------------------------------------------
 Center     Atomic      Atomic             Coordinates (Angstroms)
 Number     Number       Type             X           Y           Z
 ---------------------------------------------------------------------
      1          6           0        6.298000   -1.014000   -0.855000
      2         16           0        4.882000   -1.279000    0.214000
[...]
    24  H    0.000003   0.000232   0.002310  -0.028679   0.338929  -0.012748
    25  H    0.000068   0.001951  -0.005955  -0.019438   0.330876  -0.005235
    26  H    0.000004   0.000195   0.001872  -0.027398   0.009346  -0.011385
    27  H   -0.001934   0.008351  -0.007046  -0.022263   0.004838  -0.005846
    28  H   -0.000015   0.000086   0.000764  -0.034053   0.005580  -0.000215
    29  H    0.000005  -0.000204  -0.004936  -0.034553  -0.006284  -0.000220
    30  H    0.000000   0.000003   0.000013  -0.005262   0.002178   0.000252
    31  H    0.000000   0.000000   0.000030  -0.004908  -0.000459   0.000907
    32  H    0.000000   0.000000   0.000001  -0.000049   0.000001  -0.000003
    33  H    0.000000   0.000000   0.000000   0.000000   0.000000   0.000000
    34  H    0.000000   0.000000   0.000000   0.000000   0.000000   0.000000
    35  H    0.000000   0.000000   0.000000   0.000000   0.000000   0.000000
    36  H    0.000000   0.000000   0.000001  -0.000060  -0.000011  -0.000002
               7          8          9         10         11         12
     1  C   -0.000804   0.000003   0.000000  -0.000242   0.000001   0.000000
     2  S   -0.001949  -0.000208   0.000010   0.000816  -0.000007   0.000003
     3  N   -0.041009  -0.000114  -0.000041  -0.047587   0.003118  -0.000080
     4  C    0.336449   0.001591   0.000729   0.334067  -0.028611   0.003901
     5  C   -0.203277  -0.043134  -0.044045  -0.048725  -0.003494  -0.000059
     6  S    0.144063   0.432037   0.405731   0.001497  -0.001348   0.000429
     7  C    5.726973  -0.044846  -0.044050  -0.038527  -0.005092  -0.000086
     8  O   -0.044846   8.226893  -0.044786  -0.000052  -0.000005   0.000000
     9  O   -0.044050  -0.044786   8.275606  -0.000650  -0.000332   0.000336
    10  C   -0.038527  -0.000052  -0.000650   5.157748   0.339887  -0.035796
    11  C   -0.005092  -0.000005  -0.000332   0.339887   5.200761   0.335025
    12  C   -0.000086   0.000000   0.000336  -0.035796   0.335025   4.663462
    13  C   -0.000005   0.000000  -0.000004  -0.004171  -0.055977   0.547531
    14  C    0.000000   0.000000   0.000000  -0.000064   0.006821  -0.020734
    15  C    0.000000   0.000000   0.000000   0.000018   0.000362  -0.034415
    16  C    0.000000   0.000000   0.000000  -0.000035   0.006683  -0.020319
    17  C   -0.000001   0.000000  -0.000003  -0.004831  -0.057145   0.545230
    18  O   -0.004000   0.000085   0.000000   0.000176   0.000002   0.000000
    19  O   -0.000075   0.000000   0.000000  -0.000096   0.000000   0.000000
    20  H    0.000661  -0.000005   0.000000   0.000029  -0.000001   0.000000
    21  H    0.000003   0.000000   0.000000   0.000001   0.000000   0.000000
    22  H    0.000004   0.000000   0.000000  -0.000008   0.000000   0.000000
    23  H    0.004634   0.000002   0.000001  -0.005172   0.000035  -0.000019
    24  H    0.009886   0.000779  -0.001251  -0.005586  -0.000286  -0.000197
    25  H    0.004821  -0.000202   0.001027   0.002546   0.000237   0.000005
    26  H    0.341900   0.000814  -0.001113  -0.006134   0.000475  -0.000184
    27  H    0.330117   0.000824   0.001039   0.002634   0.000183   0.000005
    28  H   -0.007272   0.000001  -0.000002   0.365553  -0.034525  -0.002260
    29  H    0.005409   0.000001  -0.000004   0.364810  -0.036358  -0.002786
    30  H   -0.000359   0.000005   0.002299  -0.038049   0.362599  -0.028585
    31  H    0.002379   0.000008   0.003349  -0.038329   0.364173  -0.028935
    32  H   -0.000013   0.000000  -0.000001   0.000203  -0.009156  -0.047101
    33  H    0.000000   0.000000   0.000000  -0.000001  -0.000181   0.003704
    34  H    0.000000   0.000000   0.000000   0.000000   0.000006   0.000689
    35  H    0.000000   0.000000   0.000000  -0.000001  -0.000180   0.003669
    36  H    0.000000   0.000000   0.000000   0.000161  -0.008866  -0.047310
              13         14         15         16         17         18
     1  C    0.000000   0.000000   0.000000   0.000000   0.000000  -0.057376
     2  S    0.000000   0.000000   0.000000   0.000000   0.000000   0.389085
     3  N   -0.000003   0.000000   0.000000   0.000000  -0.000002  -0.052162
     4  C    0.000078   0.000002   0.000000   0.000002   0.000099   0.003866
     5  C   -0.000002   0.000000   0.000000   0.000000  -0.000007  -0.006575
     6  S   -0.000013   0.000000   0.000000   0.000000  -0.000010   0.001662
     7  C   -0.000005   0.000000   0.000000   0.000000  -0.000001  -0.004000
     8  O    0.000000   0.000000   0.000000   0.000000   0.000000   0.000085
     9  O   -0.000004   0.000000   0.000000   0.000000  -0.000003   0.000000
    10  C   -0.004171  -0.000064   0.000018  -0.000035  -0.004831   0.000176
    11  C   -0.055977   0.006821   0.000362   0.006683  -0.057145   0.000002
    12  C    0.547531  -0.020734  -0.034415  -0.020319   0.545230   0.000000
    13  C    4.965181   0.522695  -0.037303  -0.047181  -0.037325   0.000000
    14  C    0.522695   4.879360   0.548534  -0.027229  -0.047229   0.000000
    15  C   -0.037303   0.548534   4.866229   0.548109  -0.037270   0.000000
    16  C   -0.047181  -0.027229   0.548109   4.878955   0.523260   0.000000
    17  C   -0.037325  -0.047229  -0.037270   0.523260   4.967462   0.000000
    18  O    0.000000   0.000000   0.000000   0.000000   0.000000   8.308513
    19  O    0.000000   0.000000   0.000000   0.000000   0.000000  -0.040087
    20  H    0.000000   0.000000   0.000000   0.000000   0.000000  -0.001726
    21  H    0.000000   0.000000   0.000000   0.000000   0.000000   0.000183
    22  H    0.000000   0.000000   0.000000   0.000000   0.000000   0.001842
    23  H    0.000000   0.000000   0.000000   0.000000  -0.000004   0.000561
    24  H    0.000000   0.000000   0.000000   0.000000   0.000016   0.000227
    25  H    0.000000   0.000000   0.000000   0.000000   0.000000   0.011576
    26  H    0.000014   0.000000   0.000000   0.000000   0.000000   0.000169
    27  H    0.000000   0.000000   0.000000   0.000000   0.000000   0.004439
    28  H    0.003669  -0.000133  -0.000006  -0.000012   0.000023   0.000002
    29  H    0.000047  -0.000009  -0.000007  -0.000148   0.004233   0.000001
    30  H    0.003465  -0.000196   0.000011   0.000116  -0.003751   0.000000
    31  H   -0.003898   0.000127   0.000010  -0.000194   0.003613   0.000000
    32  H    0.357398  -0.044267   0.004808   0.000322   0.006042   0.000000
    33  H   -0.038813   0.358854  -0.042537   0.004499   0.000826   0.000000
    34  H    0.004652  -0.042443   0.361301  -0.042406   0.004651   0.000000
    35  H    0.000832   0.004486  -0.042427   0.358771  -0.038824   0.000000
    36  H    0.005969   0.000328   0.004791  -0.044065   0.357743   0.000000
              19         20         21         22         23         24
     1  C   -0.062326   0.337534   0.354277   0.344659   0.002054   0.000003
     2  S    0.460014  -0.005356  -0.015644  -0.007352  -0.012223   0.000232
     3  N   -0.054540  -0.001054   0.002722   0.000465   0.300290   0.002310
     4  C    0.001512  -0.000102  -0.000011   0.000139  -0.026375  -0.028679
     5  C    0.000094   0.000006   0.000007   0.000001   0.000047   0.338929
     6  S    0.000005   0.000000   0.000001   0.000001  -0.000297  -0.012748
     7  C   -0.000075   0.000661   0.000003   0.000004   0.004634   0.009886
     8  O    0.000000  -0.000005   0.000000   0.000000   0.000002   0.000779
     9  O    0.000000   0.000000   0.000000   0.000000   0.000001  -0.001251
    10  C   -0.000096   0.000029   0.000001  -0.000008  -0.005172  -0.005586
    11  C    0.000000  -0.000001   0.000000   0.000000   0.000035  -0.000286
    12  C    0.000000   0.000000   0.000000   0.000000  -0.000019  -0.000197
    13  C    0.000000   0.000000   0.000000   0.000000   0.000000   0.000000
    14  C    0.000000   0.000000   0.000000   0.000000   0.000000   0.000000
    15  C    0.000000   0.000000   0.000000   0.000000   0.000000   0.000000
    16  C    0.000000   0.000000   0.000000   0.000000   0.000000   0.000000
    17  C    0.000000   0.000000   0.000000   0.000000  -0.000004   0.000016
    18  O   -0.040087  -0.001726   0.000183   0.001842   0.000561   0.000227
    19  O    8.230293   0.001777  -0.000482  -0.000222   0.004805  -0.000002
    20  H    0.001777   0.492122  -0.019415  -0.022378  -0.000055   0.000000
    21  H   -0.000482  -0.019415   0.467094  -0.017967  -0.000058   0.000000
    22  H   -0.000222  -0.022378  -0.017967   0.476380  -0.000012   0.000000
    23  H    0.004805  -0.000055  -0.000058  -0.000012   0.340435   0.000237
    24  H   -0.000002   0.000000   0.000000   0.000000   0.000237   0.486647
    25  H   -0.000455   0.000002   0.000002  -0.000004   0.000005  -0.015923
    26  H    0.000001  -0.000053   0.000000   0.000000  -0.000037  -0.000259
    27  H    0.000010   0.004371   0.000062   0.000043   0.000087  -0.000256
    28  H    0.000001   0.000008   0.000001   0.000008  -0.000357   0.000155
    29  H   -0.000016   0.000000   0.000000  -0.000001   0.007181   0.002141
    30  H    0.000000   0.000000   0.000000   0.000000  -0.000006   0.004839
    31  H    0.000000   0.000000   0.000000   0.000000   0.000015   0.000054
    32  H    0.000000   0.000000   0.000000   0.000000   0.000000   0.000000
    33  H    0.000000   0.000000   0.000000   0.000000   0.000000   0.000000
    34  H    0.000000   0.000000   0.000000   0.000000   0.000000   0.000000
    35  H    0.000000   0.000000   0.000000   0.000000   0.000000   0.000000
    36  H    0.000000   0.000000   0.000000   0.000000   0.000000   0.000096
              25         26         27         28         29         30
     1  C    0.000068   0.000004  -0.001934  -0.000015   0.000005   0.000000
     2  S    0.001951   0.000195   0.008351   0.000086  -0.000204   0.000003
     3  N   -0.005955   0.001872  -0.007046   0.000764  -0.004936   0.000013
     4  C   -0.019438  -0.027398  -0.022263  -0.034053  -0.034553  -0.005262
     5  C    0.330876   0.009346   0.004838   0.005580  -0.006284   0.002178
     6  S   -0.005235  -0.011385  -0.005846  -0.000215  -0.000220   0.000252
     7  C    0.004821   0.341900   0.330117  -0.007272   0.005409  -0.000359
     8  O   -0.000202   0.000814   0.000824   0.000001   0.000001   0.000005
     9  O    0.001027  -0.001113   0.001039  -0.000002  -0.000004   0.002299
    10  C    0.002546  -0.006134   0.002634   0.365553   0.364810  -0.038049
    11  C    0.000237   0.000475   0.000183  -0.034525  -0.036358   0.362599
    12  C    0.000005  -0.000184   0.000005  -0.002260  -0.002786  -0.028585
    13  C    0.000000   0.000014   0.000000   0.003669   0.000047   0.003465
    14  C    0.000000   0.000000   0.000000  -0.000133  -0.000009  -0.000196
    15  C    0.000000   0.000000   0.000000  -0.000006  -0.000007   0.000011
    16  C    0.000000   0.000000   0.000000  -0.000012  -0.000148   0.000116
    17  C    0.000000   0.000000   0.000000   0.000023   0.004233  -0.003751
    18  O    0.011576   0.000169   0.004439   0.000002   0.000001   0.000000
    19  O   -0.000455   0.000001   0.000010   0.000001  -0.000016   0.000000
    20  H    0.000002  -0.000053   0.004371   0.000008   0.000000   0.000000
    21  H    0.000002   0.000000   0.000062   0.000001   0.000000   0.000000
    22  H   -0.000004   0.000000   0.000043   0.000008  -0.000001   0.000000
    23  H    0.000005  -0.000037   0.000087  -0.000357   0.007181  -0.000006
    24  H   -0.015923  -0.000259  -0.000256   0.000155   0.002141   0.004839
    25  H    0.454391  -0.000255  -0.000285  -0.000098  -0.000038   0.000064
    26  H   -0.000255   0.479906  -0.017604   0.002406   0.000207   0.000053
    27  H   -0.000285  -0.017604   0.473107  -0.000046  -0.000114  -0.000017
    28  H   -0.000098   0.002406  -0.000046   0.557530  -0.032886   0.005194
    29  H   -0.000038   0.000207  -0.000114  -0.032886   0.569499  -0.004297
    30  H    0.000064   0.000053  -0.000017   0.005194  -0.004297   0.561072
    31  H   -0.000018   0.003588   0.000052  -0.004382   0.005284  -0.033239
    32  H    0.000000   0.000098   0.000000   0.000690   0.000037   0.000070
    33  H    0.000000   0.000000   0.000000   0.000003   0.000000   0.000003
    34  H    0.000000   0.000000   0.000000   0.000000   0.000000   0.000000
    35  H    0.000000   0.000000   0.000000   0.000000   0.000004  -0.000006
    36  H    0.000000   0.000000   0.000000   0.000044   0.000882   0.004760
              31         32         33         34         35         36
     1  C    0.000000   0.000000   0.000000   0.000000   0.000000   0.000000
     2  S    0.000000   0.000000   0.000000   0.000000   0.000000   0.000000
     3  N    0.000030   0.000001   0.000000   0.000000   0.000000   0.000001
     4  C   -0.004908  -0.000049   0.000000   0.000000   0.000000  -0.000060
     5  C   -0.000459   0.000001   0.000000   0.000000   0.000000  -0.000011
     6  S    0.000907  -0.000003   0.000000   0.000000   0.000000  -0.000002
     7  C    0.002379  -0.000013   0.000000   0.000000   0.000000   0.000000
     8  O    0.000008   0.000000   0.000000   0.000000   0.000000   0.000000
     9  O    0.003349  -0.000001   0.000000   0.000000   0.000000   0.000000
    10  C   -0.038329   0.000203  -0.000001   0.000000  -0.000001   0.000161
    11  C    0.364173  -0.009156  -0.000181   0.000006  -0.000180  -0.008866
    12  C   -0.028935  -0.047101   0.003704   0.000689   0.003669  -0.047310
    13  C   -0.003898   0.357398  -0.038813   0.004652   0.000832   0.005969
    14  C    0.000127  -0.044267   0.358854  -0.042443   0.004486   0.000328
    15  C    0.000010   0.004808  -0.042537   0.361301  -0.042427   0.004791
    16  C   -0.000194   0.000322   0.004499  -0.042406   0.358771  -0.044065
    17  C    0.003613   0.006042   0.000826   0.004651  -0.038824   0.357743
    18  O    0.000000   0.000000   0.000000   0.000000   0.000000   0.000000
    19  O    0.000000   0.000000   0.000000   0.000000   0.000000   0.000000
    20  H    0.000000   0.000000   0.000000   0.000000   0.000000   0.000000
    21  H    0.000000   0.000000   0.000000   0.000000   0.000000   0.000000
    22  H    0.000000   0.000000   0.000000   0.000000   0.000000   0.000000
    23  H    0.000015   0.000000   0.000000   0.000000   0.000000   0.000000
    24  H    0.000054   0.000000   0.000000   0.000000   0.000000   0.000096
    25  H   -0.000018   0.000000   0.000000   0.000000   0.000000   0.000000
    26  H    0.003588   0.000098   0.000000   0.000000   0.000000   0.000000
    27  H    0.000052   0.000000   0.000000   0.000000   0.000000   0.000000
    28  H   -0.004382   0.000690   0.000003   0.000000   0.000000   0.000044
    29  H    0.005284   0.000037   0.000000   0.000000   0.000004   0.000882
    30  H   -0.033239   0.000070   0.000003   0.000000  -0.000006   0.004760
    31  H    0.556601   0.005182  -0.000007   0.000000   0.000003   0.000061
    32  H    0.005182   0.597295  -0.005446  -0.000176   0.000017  -0.000173
    33  H   -0.000007  -0.005446   0.583121  -0.005347  -0.000183   0.000017
    34  H    0.000000  -0.000176  -0.005347   0.583788  -0.005340  -0.000175
    35  H    0.000003   0.000017  -0.000183  -0.005340   0.583100  -0.005439
    36  H    0.000061  -0.000173   0.000017  -0.000175  -0.005439   0.596189
 Mulliken charges:
               1
     1  C   -0.621270
     2  S    1.191009
     3  N   -0.739399
     4  C    0.217458
     5  C   -0.506768
     6  S    1.135467
     7  C   -0.515936
     8  O   -0.529689
     9  O   -0.553844
    10  C   -0.296091
    11  C   -0.378802
    12  C    0.164880
    13  C   -0.186836
    14  C   -0.138903
    15  C   -0.140206
    16  C   -0.139126
    17  C   -0.186798
    18  O   -0.560465
    19  O   -0.540211
    20  H    0.213634
    21  H    0.229225
    22  H    0.224404
    23  H    0.384226
    24  H    0.218638
    25  H    0.240335
    26  H    0.223372
    27  H    0.225248
    28  H    0.174542
    29  H    0.163121
    30  H    0.166772
    31  H    0.168931
    32  H    0.134221
    33  H    0.141486
    34  H    0.140801
    35  H    0.141518
    36  H    0.135058
 Sum of Mulliken charges =   0.00000
 Mulliken charges with hydrogens summed into heavy atoms:
               1
     1  C    0.045993
     2  S    1.191009
     3  N   -0.355173
     4  C    0.217458
     5  C   -0.047796
     6  S    1.135467
     7  C   -0.067315
     8  O   -0.529689
     9  O   -0.553844
    10  C    0.041572
    11  C   -0.043100
    12  C    0.164880
    13  C   -0.052615
    14  C    0.002583
    15  C    0.000595
    16  C    0.002392
    17  C   -0.051740
    18  O   -0.560465
    19  O   -0.540211
 Electronic spatial extent (au):  <R**2>=           7677.3701
 Charge=              0.0000 electrons
 Dipole moment (field-independent basis, Debye):
    X=             -4.0306    Y=             -6.3012    Z=              2.7794  Tot=              7.9797
 Quadrupole moment (field-independent basis, Debye-Ang):
   XX=           -137.8373   YY=           -149.0202   ZZ=           -112.5724
   XY=             -4.9553   XZ=             13.9381   YZ=             -7.4132
 Traceless Quadrupole moment (field-independent basis, Debye-Ang):
   XX=             -4.6940   YY=            -15.8769   ZZ=             20.5709
   XY=             -4.9553   XZ=             13.9381   YZ=             -7.4132
 Octapole moment (field-independent basis, Debye-Ang**2):
  XXX=            -52.1063  YYY=            -59.9692  ZZZ=              3.4055  XYY=             -9.3424
  XXY=            -52.2366  XXZ=             52.1513  XZZ=             10.0120  YZZ=              5.8390
  YYZ=             13.3870  XYZ=            -29.4058
 Hexadecapole moment (field-independent basis, Debye-Ang**3):
 XXXX=          -7190.3081 YYYY=          -2244.1738 ZZZZ=           -637.3907 XXXY=             75.9797
 XXXZ=            186.1780 YYYX=            -83.8112 YYYZ=            -50.8630 ZZZX=             12.3845
 ZZZY=             -5.3014 XXYY=          -1697.6252 XXZZ=          -1230.7203 YYZZ=           -427.6594
 XXYZ=           -107.2091 YYXZ=             69.5144 ZZXY=              8.7961
 N-N= 1.825353843429D+03 E-N=-7.456925901436D+03  KE= 1.608841034466D+03
 No NMR shielding tensors so no spin-rotation constants.
 Leave Link  601 at Sat Aug  8 00:12:45 2020, MaxMem=    33554432 cpu:         0.3
 (Enter /prod/apps/gaussian/g09d1/l9999.exe)
 1\1\GINC-PIRINEUS12\SP\RB3LYP\6-31G(d)\C12H17N1O4S2\UBAFAR01\08-Aug-20
 20\0\\#p b3lyp/6-31G(d) scrf=(iefpcm,read,solvent=n-Octanol) geom=allc
 heck guess=read\\SM38.n.15.pdb.xyz\\0,1\C,0,6.298,-1.014,-0.855\S,0,4.
 882,-1.279,0.214\N,0,3.595,-1.393,-0.866\C,0,2.914,-2.642,-1.24\C,0,2.
 321,-3.491,-0.057\S,0,3.145,-4.99,-0.697\C,0,3.893,-3.728,-1.792\O,0,4
 .098,-5.606,0.236\O,0,2.208,-5.859,-1.433\C,0,1.85,-2.201,-2.268\C,0,0
 .942,-3.294,-2.856\C,0,-0.051,-2.704,-3.834\C,0,0.257,-2.611,-5.197\C,
 0,-0.643,-2.042,-6.098\C,0,-1.871,-1.555,-5.647\C,0,-2.191,-1.644,-4.2
 91\C,0,-1.288,-2.214,-3.394\O,0,5.064,-2.57,0.891\O,0,4.656,-0.052,0.9
 85\H,0,6.404,-1.867,-1.525\H,0,7.174,-0.926,-0.212\H,0,6.139,-0.097,-1
 .418\H,0,2.96,-0.615,-0.697\H,0,1.236,-3.58,-0.027\H,0,2.736,-3.228,0.
 914\H,0,3.804,-3.958,-2.853\H,0,4.934,-3.576,-1.511\H,0,2.377,-1.69,-3
 .08\H,0,1.215,-1.45,-1.785\H,0,0.407,-3.805,-2.051\H,0,1.544,-4.054,-3
 .359\H,0,1.209,-2.995,-5.555\H,0,-0.388,-1.983,-7.151\H,0,-2.574,-1.11
 5,-6.346\H,0,-3.147,-1.274,-3.932\H,0,-1.547,-2.287,-2.341\\Version=AM
 64L-G09RevD.01\State=1-A\HF=-1619.4152969\RMSD=4.732e-09\Dipole=-0.227
 4169,2.3147161,-2.1086995\Quadrupole=15.5109653,-12.9233383,-2.587627,
 1.9757473,-11.5209258,0.5102642\PG=C01 [X(C12H17N1O4S2)]\\@


 Life may have no meaning.  Or even worse, it may have a
 meaning of which I disapprove.
                                 -- Ashleigh Brilliant
 Job cpu time:       0 days  0 hours  3 minutes 34.5 seconds.
 File lengths (MBytes):  RWF=    177 Int=      0 D2E=      0 Chk=      6 Scr=      1
 Normal termination of Gaussian 09 at Sat Aug  8 00:12:46 2020.
