 Entering Gaussian System, Link 0=g09
 Initial command:
 /prod/apps/gaussian/g09d1/l1.exe "/tmp/ubafar01/1449023/Gau-107711.inp" -scrdir="/tmp/ubafar01/1449023/"
 Entering Link 1 = /prod/apps/gaussian/g09d1/l1.exe PID=    107712.
  
 Copyright (c) 1988,1990,1992,1993,1995,1998,2003,2009,2013,
            Gaussian, Inc.  All Rights Reserved.
  
 This is part of the Gaussian(R) 09 program.  It is based on
 the Gaussian(R) 03 system (copyright 2003, Gaussian, Inc.),
 the Gaussian(R) 98 system (copyright 1998, Gaussian, Inc.),
 the Gaussian(R) 94 system (copyright 1995, Gaussian, Inc.),
 the Gaussian 92(TM) system (copyright 1992, Gaussian, Inc.),
 the Gaussian 90(TM) system (copyright 1990, Gaussian, Inc.),
 the Gaussian 88(TM) system (copyright 1988, Gaussian, Inc.),
 the Gaussian 86(TM) system (copyright 1986, Carnegie Mellon
 University), and the Gaussian 82(TM) system (copyright 1983,
 Carnegie Mellon University). Gaussian is a federally registered
 trademark of Gaussian, Inc.
  
 This software contains proprietary and confidential information,
 including trade secrets, belonging to Gaussian, Inc.
  
 This software is provided under written license and may be
 used, copied, transmitted, or stored only in accord with that
 written license.
  
 The following legend is applicable only to US Government
 contracts under FAR:
  
                    RESTRICTED RIGHTS LEGEND
  
 Use, reproduction and disclosure by the US Government is
 subject to restrictions as set forth in subparagraphs (a)
 and (c) of the Commercial Computer Software - Restricted
 Rights clause in FAR 52.227-19.
  
 Gaussian, Inc.
 340 Quinnipiac St., Bldg. 40, Wallingford CT 06492
  
  
 ---------------------------------------------------------------
 Warning -- This program may not be used in any manner that
 competes with the business of Gaussian, Inc. or will provide
 assistance to any competitor of Gaussian, Inc.  The licensee
 of this program is prohibited from giving any competitor of
 Gaussian, Inc. access to this program.  By using this program,
 the user acknowledges that Gaussian, Inc. is engaged in the
 business of creating and licensing software in the field of
 computational chemistry and represents and warrants to the
 licensee that it is not a competitor of Gaussian, Inc. and that
 it will not use this program in any manner prohibited above.
 ---------------------------------------------------------------
  

 Cite this work as:
 Gaussian 09, Revision D.01,
 M. J. Frisch, G. W. Trucks, H. B. Schlegel, G. E. Scuseria, 
 M. A. Robb, J. R. Cheeseman, G. Scalmani, V. Barone, B. Mennucci, 
 G. A. Petersson, H. Nakatsuji, M. Caricato, X. Li, H. P. Hratchian, 
 A. F. Izmaylov, J. Bloino, G. Zheng, J. L. Sonnenberg, M. Hada, 
 M. Ehara, K. Toyota, R. Fukuda, J. Hasegawa, M. Ishida, T. Nakajima, 
 Y. Honda, O. Kitao, H. Nakai, T. Vreven, J. A. Montgomery, Jr., 
 J. E. Peralta, F. Ogliaro, M. Bearpark, J. J. Heyd, E. Brothers, 
 K. N. Kudin, V. N. Staroverov, T. Keith, R. Kobayashi, J. Normand, 
 K. Raghavachari, A. Rendell, J. C. Burant, S. S. Iyengar, J. Tomasi, 
 M. Cossi, N. Rega, J. M. Millam, M. Klene, J. E. Knox, J. B. Cross, 
 V. Bakken, C. Adamo, J. Jaramillo, R. Gomperts, R. E. Stratmann, 
 O. Yazyev, A. J. Austin, R. Cammi, C. Pomelli, J. W. Ochterski, 
 R. L. Martin, K. Morokuma, V. G. Zakrzewski, G. A. Voth, 
 P. Salvador, J. J. Dannenberg, S. Dapprich, A. D. Daniels, 
 O. Farkas, J. B. Foresman, J. V. Ortiz, J. Cioslowski, 
 and D. J. Fox, Gaussian, Inc., Wallingford CT, 2013.
 
 ******************************************
 Gaussian 09:  AM64L-G09RevD.01 24-Apr-2013
                 8-Aug-2020 
 ******************************************
 %nproc=1
 Will use up to    1 processors via shared memory.
 %Chk=SM38.n.9.pdb.xyz.mst.n.o.chk
 -----------------
 #p b3lyp/6-31G(d)
 -----------------
 1/38=1/1;
 2/12=2,17=6,18=5,40=1/2;
 3/5=1,6=6,7=1,11=2,16=1,25=1,30=1,74=-5/1,2,3;
 4//1;
 5/5=2,38=5/2;
 6/7=2,8=2,9=2,10=2,28=1/1;
 99/5=1,9=1/99;
 Leave Link    1 at Sat Aug  8 00:15:55 2020, MaxMem=           0 cpu:         0.0
 (Enter /prod/apps/gaussian/g09d1/l101.exe)
 ----------------
 SM38.n.9.pdb.xyz
 ----------------
 Symbolic Z-matrix:
 Charge =  0 Multiplicity = 1
 C                     6.269    -0.012    -0.572 
 S                     4.983    -0.639     0.51 
 N                     3.646    -0.757    -0.506 
 C                     3.051    -2.017    -0.961 
 C                     2.6      -3.039     0.149 
 S                     3.273    -4.398    -0.859 
 C                     4.071    -2.967    -1.667 
 O                     4.2      -5.298    -0.159 
 O                     2.231    -4.976    -1.731 
 C                     1.916    -1.675    -1.949 
 C                     0.761    -0.782    -1.451 
 C                    -0.138    -1.373    -0.384 
 C                    -0.188    -0.815     0.898 
 C                    -1.014    -1.354     1.886 
 C                    -1.808    -2.464     1.602 
 C                    -1.776    -3.026     0.323 
 C                    -0.952    -2.482    -0.661 
 O                     5.374    -1.988     0.943 
 O                     4.67      0.402     1.494 
 H                     6.424    -0.715    -1.39 
 H                     7.175     0.081     0.028 
 H                     5.957     0.96     -0.95 
 H                     2.971    -0.045    -0.24 
 H                     1.535    -3.113     0.351 
 H                     3.192    -2.95      1.058 
 H                     4.054    -2.984    -2.757 
 H                     5.083    -2.879    -1.276 
 H                     1.514    -2.629    -2.305 
 H                     2.38     -1.183    -2.81 
 H                     0.159    -0.547    -2.337 
 H                     1.144     0.184    -1.102 
 H                     0.422     0.055     1.123 
 H                    -1.036    -0.905     2.874 
 H                    -2.451    -2.888     2.368 
 H                    -2.397    -3.884     0.091 
 H                    -0.939    -2.925    -1.653 
 
 NAtoms=     36 NQM=       36 NQMF=       0 NMMI=      0 NMMIF=      0
                NMic=       0 NMicF=      0.
                    Isotopes and Nuclear Properties:
 (Nuclear quadrupole moments (NQMom) in fm**2, nuclear magnetic moments (NMagM)
  in nuclear magnetons)

  Atom         1           2           3           4           5           6           7           8           9          10
 IAtWgt=          12          32          14          12          12          32          12          16          16          12
 AtmWgt=  12.0000000  31.9720718  14.0030740  12.0000000  12.0000000  31.9720718  12.0000000  15.9949146  15.9949146  12.0000000
 NucSpn=           0           0           2           0           0           0           0           0           0           0
 AtZEff=   0.0000000   0.0000000   0.0000000   0.0000000   0.0000000   0.0000000   0.0000000   0.0000000   0.0000000   0.0000000
 NQMom=    0.0000000   0.0000000   2.0440000   0.0000000   0.0000000   0.0000000   0.0000000   0.0000000   0.0000000   0.0000000
 NMagM=    0.0000000   0.0000000   0.4037610   0.0000000   0.0000000   0.0000000   0.0000000   0.0000000   0.0000000   0.0000000
 AtZNuc=   6.0000000  16.0000000   7.0000000   6.0000000   6.0000000  16.0000000   6.0000000   8.0000000   8.0000000   6.0000000

  Atom        11          12          13          14          15          16          17          18          19          20
 IAtWgt=          12          12          12          12          12          12          12          16          16           1
 AtmWgt=  12.0000000  12.0000000  12.0000000  12.0000000  12.0000000  12.0000000  12.0000000  15.9949146  15.9949146   1.0078250
 NucSpn=           0           0           0           0           0           0           0           0           0           1
 AtZEff=   0.0000000   0.0000000   0.0000000   0.0000000   0.0000000   0.0000000   0.0000000   0.0000000   0.0000000   0.0000000
 NQMom=    0.0000000   0.0000000   0.0000000   0.0000000   0.0000000   0.0000000   0.0000000   0.0000000   0.0000000   0.0000000
 NMagM=    0.0000000   0.0000000   0.0000000   0.0000000   0.0000000   0.0000000   0.0000000   0.0000000   0.0000000   2.7928460
 AtZNuc=   6.0000000   6.0000000   6.0000000   6.0000000   6.0000000   6.0000000   6.0000000   8.0000000   8.0000000   1.0000000

  Atom        21          22          23          24          25          26          27          28          29          30
 IAtWgt=           1           1           1           1           1           1           1           1           1           1
 AtmWgt=   1.0078250   1.0078250   1.0078250   1.0078250   1.0078250   1.0078250   1.0078250   1.0078250   1.0078250   1.0078250
 NucSpn=           1           1           1           1           1           1           1           1           1           1
 AtZEff=   0.0000000   0.0000000   0.0000000   0.0000000   0.0000000   0.0000000   0.0000000   0.0000000   0.0000000   0.0000000
 NQMom=    0.0000000   0.0000000   0.0000000   0.0000000   0.0000000   0.0000000   0.0000000   0.0000000   0.0000000   0.0000000
 NMagM=    2.7928460   2.7928460   2.7928460   2.7928460   2.7928460   2.7928460   2.7928460   2.7928460   2.7928460   2.7928460
 AtZNuc=   1.0000000   1.0000000   1.0000000   1.0000000   1.0000000   1.0000000   1.0000000   1.0000000   1.0000000   1.0000000

  Atom        31          32          33          34          35          36
 IAtWgt=           1           1           1           1           1           1
 AtmWgt=   1.0078250   1.0078250   1.0078250   1.0078250   1.0078250   1.0078250
 NucSpn=           1           1           1           1           1           1
 AtZEff=   0.0000000   0.0000000   0.0000000   0.0000000   0.0000000   0.0000000
 NQMom=    0.0000000   0.0000000   0.0000000   0.0000000   0.0000000   0.0000000
 NMagM=    2.7928460   2.7928460   2.7928460   2.7928460   2.7928460   2.7928460
 AtZNuc=   1.0000000   1.0000000   1.0000000   1.0000000   1.0000000   1.0000000
 Leave Link  101 at Sat Aug  8 00:15:55 2020, MaxMem=    33554432 cpu:         0.1
 (Enter /prod/apps/gaussian/g09d1/l202.exe)
                          Input orientation:                          
 ---------------------------------------------------------------------
 Center     Atomic      Atomic             Coordinates (Angstroms)
 Number     Number       Type             X           Y           Z
 ---------------------------------------------------------------------
      1          6           0        6.269000   -0.012000   -0.572000
      2         16           0        4.983000   -0.639000    0.510000
      3          7           0        3.646000   -0.757000   -0.506000
      4          6           0        3.051000   -2.017000   -0.961000
      5          6           0        2.600000   -3.039000    0.149000
      6         16           0        3.273000   -4.398000   -0.859000
      7          6           0        4.071000   -2.967000   -1.667000
      8          8           0        4.200000   -5.298000   -0.159000
      9          8           0        2.231000   -4.976000   -1.731000
     10          6           0        1.916000   -1.675000   -1.949000
     11          6           0        0.761000   -0.782000   -1.451000
     12          6           0       -0.138000   -1.373000   -0.384000
     13          6           0       -0.188000   -0.815000    0.898000
     14          6           0       -1.014000   -1.354000    1.886000
     15          6           0       -1.808000   -2.464000    1.602000
     16          6           0       -1.776000   -3.026000    0.323000
     17          6           0       -0.952000   -2.482000   -0.661000
     18          8           0        5.374000   -1.988000    0.943000
     19          8           0        4.670000    0.402000    1.494000
     20          1           0        6.424000   -0.715000   -1.390000
     21          1           0        7.175000    0.081000    0.028000
     22          1           0        5.957000    0.960000   -0.950000
     23          1           0        2.971000   -0.045000   -0.240000
     24          1           0        1.535000   -3.113000    0.351000
     25          1           0        3.192000   -2.950000    1.058000
     26          1           0        4.054000   -2.984000   -2.757000
     27          1           0        5.083000   -2.879000   -1.276000
     28          1           0        1.514000   -2.629000   -2.305000
     29          1           0        2.380000   -1.183000   -2.810000
     30          1           0        0.159000   -0.547000   -2.337000
     31          1           0        1.144000    0.184000   -1.102000
     32          1           0        0.422000    0.055000    1.123000
     33          1           0       -1.036000   -0.905000    2.874000
     34          1           0       -2.451000   -2.888000    2.368000
     35          1           0       -2.397000   -3.884000    0.091000
     36          1           0       -0.939000   -2.925000   -1.653000
 ---------------------------------------------------------------------
                    Distance matrix (angstroms):
                    1          2          3          4          5
     1  C    0.000000
     2  S    1.793781   0.000000
     3  N    2.727547   1.683374   0.000000
     4  C    3.811413   2.792015   1.465827   0.000000
     5  C    4.810835   3.401325   2.594353   1.574797   0.000000
     6  S    5.319340   4.350671   3.677039   2.393501   1.820954
     7  C    3.842168   3.315216   2.532320   1.562478   2.338136
     8  O    5.691496   4.771471   4.587811   3.567684   2.785309
     9  O    6.503078   5.604030   4.615497   3.165593   2.724432
    10  C    4.859044   4.065276   2.432668   1.543157   2.594216
    11  C    5.630595   4.657387   3.035931   2.647532   3.322043
    12  C    6.552657   5.250013   3.835752   3.304147   3.249044
    13  C    6.670724   5.188522   4.083398   3.923239   3.644190
    14  C    7.802872   6.194240   5.271971   5.006916   4.349413
    15  C    8.716450   7.116233   6.091275   5.511684   4.676783
    16  C    8.637549   7.170552   5.935797   5.095750   4.379477
    17  C    7.632278   6.323932   4.913375   4.041068   3.685519
    18  O    2.645907   1.469752   2.569231   3.003729   3.070849
    19  O    2.645100   1.466256   2.528212   3.807853   4.234903
    20  H    1.089660   2.385845   2.915562   3.640930   4.732069
    21  H    1.090635   2.357029   3.666230   4.731501   5.538923
    22  H    1.088583   2.374253   2.913065   4.160227   5.335658
    23  H    3.314833   2.227887   1.016526   2.101196   3.041874
    24  H    5.734011   4.246724   3.277424   2.284911   1.086510
    25  H    4.555949   2.974677   2.731567   2.228616   1.088424
    26  H    4.302701   4.127391   3.192647   2.273041   3.249920
    27  H    3.181494   2.866600   2.675958   2.229640   2.867318
    28  H    5.697544   4.890632   3.359495   2.131490   2.714703
    29  H    4.637263   4.253698   2.663203   2.136492   3.499831
    30  H    6.382284   5.602218   3.944088   3.523910   4.283543
    31  H    5.156059   4.244266   2.738741   2.915636   3.751355
    32  H    6.088097   4.654044   3.702318   3.943080   3.907070
    33  H    8.126216   6.472064   5.776455   5.713785   5.019968
    34  H    9.641233   7.985895   7.069261   6.489444   5.519000
    35  H    9.514805   8.072793   6.830255   5.854323   5.068274
    36  H    7.849165   6.706299   5.199813   4.150112   3.972999
                    6          7          8          9         10
     6  S    0.000000
     7  C    1.826863   0.000000
     8  O    1.469466   2.779256   0.000000
     9  O    1.476561   2.725028   2.540045   0.000000
    10  C    3.231761   2.528401   4.641862   3.323154   0.000000
    11  C    4.442529   3.972025   5.821533   4.452969   1.542556
    12  C    4.583794   4.680022   5.854442   4.517541   2.599874
    13  C    5.282372   5.417510   6.361531   5.484261   3.643052
    14  C    5.931217   6.409587   6.850033   6.060660   4.836855
    15  C    5.967700   6.745518   6.872317   5.807973   5.205795
    16  C    5.363945   6.176649   6.411465   4.906879   4.540710
    17  C    4.643370   5.145657   5.892789   4.182873   3.245862
    18  O    3.670082   3.077068   3.680867   5.094788   4.518783
    19  O    5.525235   4.658421   5.953428   6.728464   4.873674
    20  H    4.875987   3.268768   5.240747   5.987792   4.642860
    21  H    6.006148   4.668848   6.149735   7.287693   5.886353
    22  H    5.993355   4.415021   6.547923   7.051889   4.926551
    23  H    4.407150   3.432843   5.395462   5.204368   2.586621
    24  H    2.477089   3.244216   3.483755   2.879220   2.739161
    25  H    2.403779   2.863312   2.830240   3.578648   3.506544
    26  H    2.492340   1.090265   3.482171   2.888610   2.633892
    27  H    2.399448   1.088471   2.806945   3.569081   3.454336
    28  H    2.883463   2.656979   4.352410   2.520312   1.094740
    29  H    3.865239   2.710828   5.222397   3.946301   1.094843
    30  H    5.168334   4.648553   6.606464   4.927115   2.123671
    31  H    5.058301   4.337667   6.346709   5.310632   2.183867
    32  H    5.646745   5.498344   6.676183   6.060426   3.829115
    33  H    6.686091   7.138205   7.477515   6.960773   5.706885
    34  H    6.742240   7.669677   7.511966   6.563739   6.259277
    35  H    5.771966   6.765093   6.751467   5.092203   5.257685
    36  H    4.532230   5.010196   5.854271   3.776451   3.130677
                   11         12         13         14         15
    11  C    0.000000
    12  C    1.515246   0.000000
    13  C    2.533671   1.399067   0.000000
    14  C    3.822745   2.433236   1.396045   0.000000
    15  C    4.330092   2.814849   2.416447   1.393984   0.000000
    16  C    3.823478   2.432139   2.782245   2.412301   1.397394
    17  C    2.539384   1.403284   2.406879   2.786294   2.419551
    18  O    5.335301   5.702745   5.684523   6.488278   7.227861
    19  O    5.035391   5.458422   5.043458   5.961967   7.084497
    20  H    5.663725   6.671195   6.997392   8.152567   8.931791
    21  H    6.638645   7.467518   7.468165   8.518868   9.468304
    22  H    5.503088   6.550746   6.657834   7.873521   8.861812
    23  H    2.625603   3.383815   3.444884   4.702508   5.664218
    24  H    3.046283   2.523243   2.923823   3.456546   3.627927
    25  H    4.111577   3.956664   4.001028   4.574192   5.052933
    26  H    4.171126   5.079303   6.004844   7.063921   7.323546
    27  H    4.807049   5.506591   6.063812   7.035430   7.479371
    28  H    2.169731   2.827876   4.055442   5.057755   5.131039
    29  H    2.151475   3.501700   4.525407   5.796628   6.216595
    30  H    1.096643   2.141190   3.264576   4.456558   4.802052
    31  H    1.096196   2.140864   2.602350   3.993814   4.799773
    32  H    2.727813   2.150310   1.086105   2.151638   3.398191
    33  H    4.685079   3.411743   2.152157   1.085463   2.155098
    34  H    5.416359   3.901115   3.402851   2.156490   1.086269
    35  H    4.687551   3.410840   3.866483   3.396412   2.155561
    36  H    2.742855   2.158858   3.394658   3.872749   3.400398
                   16         17         18         19         20
    16  C    0.000000
    17  C    1.393976   0.000000
    18  O    7.251506   6.544855   0.000000
    19  O    7.394142   6.675954   2.551728   0.000000
    20  H    8.689942   7.619653   2.857607   3.555511   0.000000
    21  H    9.479498   8.549375   2.891641   2.920141   1.791184
    22  H    8.792498   7.724323   3.551625   2.817955   1.793687
    23  H    5.633590   4.637471   3.308950   2.468434   3.700623
    24  H    3.312261   2.758165   4.044009   4.846638   5.716975
    25  H    5.022651   4.510734   2.387424   3.689239   4.629660
    26  H    6.593714   5.450253   4.052705   5.469502   3.554427
    27  H    7.044451   6.079232   2.408843   4.313749   2.548367
    28  H    4.229432   2.967406   5.085271   5.794799   5.348712
    29  H    5.521293   4.172269   4.867964   5.126475   4.311538
    30  H    4.118891   2.790613   6.327014   5.993854   6.338396
    31  H    4.567398   3.419832   5.176148   4.383995   5.363725
    32  H    3.868303   3.392182   5.359902   4.278265   6.552257
    33  H    3.399094   3.871719   6.781574   6.014240   8.594731
    34  H    2.157937   3.403921   8.004452   7.892821   9.879783
    35  H    1.084264   2.149217   8.044200   8.383358   9.489255
    36  H    2.148336   1.086500   6.889931   7.241092   7.692011
                   21         22         23         24         25
    21  H    0.000000
    22  H    1.792386   0.000000
    23  H    4.214418   3.229601   0.000000
    24  H    6.489651   6.151099   3.438605   0.000000
    25  H    5.110005   5.192821   3.189462   1.808886   0.000000
    26  H    5.185662   4.737277   4.018196   4.002707   3.911320
    27  H    3.852075   3.950705   3.683123   3.910267   3.004743
    28  H    6.695813   5.870025   3.614434   2.699821   3.772068
    29  H    5.713490   4.565849   2.872146   3.798795   4.329325
    30  H    7.430469   6.149116   3.543551   3.962711   5.147769
    31  H    6.136813   4.877525   2.033080   3.624127   4.322252
    32  H    6.841251   5.979346   2.892260   3.445428   4.087438
    33  H    8.745995   8.185551   5.147101   4.225025   5.035461
    34  H   10.341684   9.823986   6.654502   4.472931   5.793392
    35  H   10.360906   9.712741   6.607791   4.015304   5.748423
    36  H    8.814692   7.946210   5.057575   3.189363   4.941185
                   26         27         28         29         30
    26  H    0.000000
    27  H    1.806440   0.000000
    28  H    2.604214   3.722781   0.000000
    29  H    2.459408   3.540590   1.759516   0.000000
    30  H    4.613718   5.550651   2.484305   2.358191   0.000000
    31  H    4.609051   4.992791   3.081733   2.512698   1.740635
    32  H    6.122201   6.007369   4.488597   4.564526   3.521814
    33  H    7.870102   7.652538   6.024676   6.637334   5.358238
    34  H    8.281900   8.368989   6.133941   7.284042   5.867658
    35  H    7.108903   7.670014   4.755183   6.207329   4.854265
    36  H    5.113936   6.033965   2.555373   3.922878   2.707091
                   31         32         33         34         35
    31  H    0.000000
    32  H    2.342765   0.000000
    33  H    4.663357   2.472522   0.000000
    34  H    5.865331   4.297139   2.488082   0.000000
    35  H    5.523636   4.952525   4.297889   2.485892   0.000000
    36  H    3.782641   4.294054   4.958179   4.296039   2.467181
                   36
    36  H    0.000000
 Stoichiometry    C12H17NO4S2
 Framework group  C1[X(C12H17NO4S2)]
 Deg. of freedom   102
 Full point group                 C1      NOp   1
 Largest Abelian subgroup         C1      NOp   1
 Largest concise Abelian subgroup C1      NOp   1
                         Standard orientation:                         
 ---------------------------------------------------------------------
 Center     Atomic      Atomic             Coordinates (Angstroms)
 Number     Number       Type             X           Y           Z
 ---------------------------------------------------------------------
      1          6           0        4.056009   -1.334992    0.704981
      2         16           0        2.623839   -1.334502   -0.375083
      3          7           0        1.350796   -0.988371    0.670529
      4          6           0        0.599041    0.269936    0.683840
      5          6           0       -0.072086    0.718548   -0.668314
      6         16           0        0.446010    2.431607   -0.332335
      7          6           0        1.503235    1.532565    0.855701
      8          8           0        1.178197    3.090331   -1.422892
      9          8           0       -0.615754    3.176616    0.373250
     10          6           0       -0.405922    0.208657    1.853296
     11          6           0       -1.438986   -0.936800    1.866912
     12          6           0       -2.483046   -0.917871    0.768936
     13          6           0       -2.526892   -1.932563   -0.193284
     14          6           0       -3.486036   -1.921809   -1.207615
     15          6           0       -4.421705   -0.890496   -1.271707
     16          6           0       -4.396411    0.124566   -0.311646
     17          6           0       -3.438723    0.107453    0.701127
     18          8           0        2.775211   -0.224645   -1.326647
     19          8           0        2.413437   -2.705378   -0.850832
     20          1           0        4.152107   -0.356101    1.173912
     21          1           0        4.926207   -1.547015    0.082658
     22          1           0        3.921218   -2.112546    1.454817
     23          1           0        0.777814   -1.821738    0.773079
     24          1           0       -1.146346    0.582340   -0.757286
     25          1           0        0.468511    0.352991   -1.539400
     26          1           0        1.552061    1.970387    1.853000
     27          1           0        2.490276    1.418925    0.411172
     28          1           0       -0.926560    1.171553    1.868272
     29          1           0        0.181069    0.148856    2.775547
     30          1           0       -1.941136   -0.877377    2.840020
     31          1           0       -0.934805   -1.910168    1.865109
     32          1           0       -1.805834   -2.743274   -0.143819
     33          1           0       -3.500611   -2.719186   -1.943963
     34          1           0       -5.168834   -0.876881   -2.060120
     35          1           0       -5.126037    0.925747   -0.348873
     36          1           0       -3.431852    0.899847    1.444461
 ---------------------------------------------------------------------
 Rotational constants (GHZ):      0.4208852      0.2401506      0.1857620
 Leave Link  202 at Sat Aug  8 00:15:55 2020, MaxMem=    33554432 cpu:         0.0
 (Enter /prod/apps/gaussian/g09d1/l301.exe)
 Standard basis: 6-31G(d) (6D, 7F)
 Ernie: Thresh=  0.10000D-02 Tol=  0.10000D-05 Strict=F.
 There are   327 symmetry adapted cartesian basis functions of A   symmetry.
 There are   327 symmetry adapted basis functions of A   symmetry.
   327 basis functions,   648 primitive gaussians,   327 cartesian basis functions
    80 alpha electrons       80 beta electrons
       nuclear repulsion energy      1888.4289862138 Hartrees.
 IExCor=  402 DFT=T Ex+Corr=B3LYP ExCW=0 ScaHFX=  0.200000
 ScaDFX=  0.800000  0.720000  1.000000  0.810000 ScalE2=  1.000000  1.000000
 IRadAn=      0 IRanWt=     -1 IRanGd=            0 ICorTp=0 IEmpDi=  4
 NAtoms=   36 NActive=   36 NUniq=   36 SFac= 1.00D+00 NAtFMM=   60 NAOKFM=F Big=F
 Integral buffers will be    131072 words long.
 Raffenetti 2 integral format.
 Two-electron integral symmetry is turned on.
 Leave Link  301 at Sat Aug  8 00:15:56 2020, MaxMem=    33554432 cpu:         0.0
 (Enter /prod/apps/gaussian/g09d1/l302.exe)
 NPDir=0 NMtPBC=     1 NCelOv=     1 NCel=       1 NClECP=     1 NCelD=      1
         NCelK=      1 NCelE2=     1 NClLst=     1 CellRange=     0.0.
 One-electron integrals computed using PRISM.
 NBasis=   327 RedAO= T EigKep=  4.68D-04  NBF=   327
 NBsUse=   327 1.00D-06 EigRej= -1.00D+00 NBFU=   327
 Precomputing XC quadrature grid using
 IXCGrd= 4 IRadAn=           0 IRanWt=          -1 IRanGd=           0 AccXCQ= 0.00D+00.
 Generated NRdTot=       0 NPtTot=           0 NUsed=           0 NTot=          32
 NSgBfM=   325   325   325   325   325 MxSgAt=    36 MxSgA2=    36.
 Leave Link  302 at Sat Aug  8 00:15:57 2020, MaxMem=    33554432 cpu:         1.1
 (Enter /prod/apps/gaussian/g09d1/l303.exe)
 DipDrv:  MaxL=1.
 Leave Link  303 at Sat Aug  8 00:15:57 2020, MaxMem=    33554432 cpu:         0.0
 (Enter /prod/apps/gaussian/g09d1/l401.exe)
 ExpMin= 1.17D-01 ExpMax= 2.19D+04 ExpMxC= 3.30D+03 IAcc=1 IRadAn=         1 AccDes= 0.00D+00
 Harris functional with IExCor=  402 and IRadAn=       1 diagonalized for initial guess.
 HarFok:  IExCor=  402 AccDes= 0.00D+00 IRadAn=         1 IDoV= 1 UseB2=F ITyADJ=14
 ICtDFT=  3500011 ScaDFX=  1.000000  1.000000  1.000000  1.000000
 FoFCou: FMM=F IPFlag=           0 FMFlag=      100000 FMFlg1=           0
         NFxFlg=           0 DoJE=T BraDBF=F KetDBF=T FulRan=T
         wScrn=  0.000000 ICntrl=     500 IOpCl=  0 I1Cent=   200000004 NGrid=           0
         NMat0=    1 NMatS0=      1 NMatT0=    0 NMatD0=    1 NMtDS0=    0 NMtDT0=    0
 Petite list used in FoFCou.
 Harris En= -1619.49911693901    
 JPrj=0 DoOrth=F DoCkMO=F.
 Leave Link  401 at Sat Aug  8 00:16:02 2020, MaxMem=    33554432 cpu:         4.6
 (Enter /prod/apps/gaussian/g09d1/l502.exe)
 Closed shell SCF:
 Using DIIS extrapolation, IDIIS=  1040.
 Integral symmetry usage will be decided dynamically.
 IVT=      343772 IEndB=      343772 NGot=    33554432 MDV=    33334557
 LenX=    33334557 LenY=    33227187
 Requested convergence on RMS density matrix=1.00D-08 within 128 cycles.
 Requested convergence on MAX density matrix=1.00D-06.
 Requested convergence on             energy=1.00D-06.
 No special actions if energy rises.
 Fock matrices will be formed incrementally for  20 cycles.
 Integral accuracy reduced to 1.0D-05 until final iterations.

 Cycle   1  Pass 0  IDiag  1:
 FoFJK:  IHMeth= 1 ICntrl=       0 DoSepK=F KAlg= 0 I1Cent=   0 FoldK=F
 IRaf= 800000000 NMat=   1 IRICut=       1 DoRegI=T DoRafI=F ISym2E= 0.
 FoFCou: FMM=F IPFlag=           0 FMFlag=      100000 FMFlg1=           0
         NFxFlg=           0 DoJE=F BraDBF=F KetDBF=F FulRan=T
         wScrn=  0.000000 ICntrl=       0 IOpCl=  0 I1Cent=           0 NGrid=           0
         NMat0=    1 NMatS0=      1 NMatT0=    0 NMatD0=    1 NMtDS0=    0 NMtDT0=    0
 Symmetry not used in FoFCou.
 E= -1618.59740097394    
 DIIS: error= 3.48D-02 at cycle   1 NSaved=   1.
 NSaved= 1 IEnMin= 1 EnMin= -1618.59740097394     IErMin= 1 ErrMin= 3.48D-02
 ErrMax= 3.48D-02  0.00D+00 EMaxC= 1.00D-01 BMatC= 9.34D-01 BMatP= 9.34D-01
 IDIUse=3 WtCom= 6.52D-01 WtEn= 3.48D-01
 Coeff-Com:  0.100D+01
 Coeff-En:   0.100D+01
 Coeff:      0.100D+01
 Gap=     0.360 Goal=   None    Shift=    0.000
 GapD=    0.360 DampG=1.000 DampE=0.500 DampFc=0.5000 IDamp=-1.
 Damping current iteration by 5.00D-01
 RMSDP=7.54D-03 MaxDP=5.62D-01              OVMax= 2.43D-01

 Cycle   2  Pass 0  IDiag  1:
 RMSU=  3.77D-03    CP:  1.00D+00
 E= -1618.77256937899     Delta-E=       -0.175168405052 Rises=F Damp=T
 DIIS: error= 1.69D-02 at cycle   2 NSaved=   2.
 NSaved= 2 IEnMin= 2 EnMin= -1618.77256937899     IErMin= 2 ErrMin= 1.69D-02
 ErrMax= 1.69D-02  0.00D+00 EMaxC= 1.00D-01 BMatC= 1.51D-01 BMatP= 9.34D-01
 IDIUse=3 WtCom= 8.31D-01 WtEn= 1.69D-01
 Coeff-Com:  0.244D+00 0.756D+00
 Coeff-En:   0.387D+00 0.613D+00
 Coeff:      0.268D+00 0.732D+00
 Gap=     0.287 Goal=   None    Shift=    0.000
 RMSDP=2.15D-03 MaxDP=1.14D-01 DE=-1.75D-01 OVMax= 1.89D-01

 Cycle   3  Pass 0  IDiag  1:
 RMSU=  1.69D-03    CP:  9.91D-01  6.51D-01
 E= -1619.30449549596     Delta-E=       -0.531926116965 Rises=F Damp=F
 DIIS: error= 1.10D-02 at cycle   3 NSaved=   3.
 NSaved= 3 IEnMin= 3 EnMin= -1619.30449549596     IErMin= 3 ErrMin= 1.10D-02
 ErrMax= 1.10D-02  0.00D+00 EMaxC= 1.00D-01 BMatC= 8.67D-02 BMatP= 1.51D-01
 IDIUse=3 WtCom= 8.90D-01 WtEn= 1.10D-01
 Coeff-Com:  0.102D+00 0.440D+00 0.458D+00
 Coeff-En:   0.000D+00 0.000D+00 0.100D+01
 Coeff:      0.907D-01 0.392D+00 0.518D+00
 Gap=     0.238 Goal=   None    Shift=    0.000
 RMSDP=1.32D-03 MaxDP=4.12D-02 DE=-5.32D-01 OVMax= 8.57D-02

 Cycle   4  Pass 0  IDiag  1:
 RMSU=  7.89D-04    CP:  9.97D-01  7.28D-01  4.00D-01
 E= -1619.37496246505     Delta-E=       -0.070466969088 Rises=F Damp=F
 DIIS: error= 3.93D-03 at cycle   4 NSaved=   4.
 NSaved= 4 IEnMin= 4 EnMin= -1619.37496246505     IErMin= 4 ErrMin= 3.93D-03
 ErrMax= 3.93D-03  0.00D+00 EMaxC= 1.00D-01 BMatC= 1.22D-02 BMatP= 8.67D-02
 IDIUse=3 WtCom= 9.61D-01 WtEn= 3.93D-02
 Coeff-Com:  0.116D-01 0.722D-01 0.284D+00 0.633D+00
 Coeff-En:   0.000D+00 0.000D+00 0.124D+00 0.876D+00
 Coeff:      0.111D-01 0.694D-01 0.277D+00 0.642D+00
 Gap=     0.237 Goal=   None    Shift=    0.000
 RMSDP=4.46D-04 MaxDP=1.75D-02 DE=-7.05D-02 OVMax= 2.76D-02

 Cycle   5  Pass 0  IDiag  1:
 RMSU=  1.99D-04    CP:  9.96D-01  7.11D-01  5.55D-01  6.27D-01
 E= -1619.38507033142     Delta-E=       -0.010107866369 Rises=F Damp=F
 DIIS: error= 1.05D-03 at cycle   5 NSaved=   5.
 NSaved= 5 IEnMin= 5 EnMin= -1619.38507033142     IErMin= 5 ErrMin= 1.05D-03
 ErrMax= 1.05D-03  0.00D+00 EMaxC= 1.00D-01 BMatC= 1.08D-03 BMatP= 1.22D-02
 IDIUse=3 WtCom= 9.90D-01 WtEn= 1.05D-02
 Coeff-Com:  0.189D-03 0.153D-01 0.129D+00 0.368D+00 0.487D+00
 Coeff-En:   0.000D+00 0.000D+00 0.000D+00 0.000D+00 0.100D+01
 Coeff:      0.187D-03 0.151D-01 0.127D+00 0.365D+00 0.493D+00
 Gap=     0.237 Goal=   None    Shift=    0.000
 RMSDP=1.31D-04 MaxDP=4.60D-03 DE=-1.01D-02 OVMax= 6.60D-03

 Cycle   6  Pass 0  IDiag  1:
 RMSU=  6.16D-05    CP:  9.96D-01  7.14D-01  5.46D-01  6.99D-01  5.04D-01
 E= -1619.38596347489     Delta-E=       -0.000893143479 Rises=F Damp=F
 DIIS: error= 6.16D-04 at cycle   6 NSaved=   6.
 NSaved= 6 IEnMin= 6 EnMin= -1619.38596347489     IErMin= 6 ErrMin= 6.16D-04
 ErrMax= 6.16D-04  0.00D+00 EMaxC= 1.00D-01 BMatC= 1.19D-04 BMatP= 1.08D-03
 IDIUse=3 WtCom= 9.94D-01 WtEn= 6.16D-03
 Coeff-Com: -0.840D-03 0.252D-02 0.483D-01 0.151D+00 0.298D+00 0.501D+00
 Coeff-En:   0.000D+00 0.000D+00 0.000D+00 0.000D+00 0.451D-01 0.955D+00
 Coeff:     -0.835D-03 0.250D-02 0.480D-01 0.150D+00 0.296D+00 0.504D+00
 Gap=     0.237 Goal=   None    Shift=    0.000
 RMSDP=3.92D-05 MaxDP=1.65D-03 DE=-8.93D-04 OVMax= 2.83D-03

 Cycle   7  Pass 0  IDiag  1:
 RMSU=  2.49D-05    CP:  9.96D-01  7.14D-01  5.47D-01  6.97D-01  5.68D-01
                    CP:  5.56D-01
 E= -1619.38605030328     Delta-E=       -0.000086828383 Rises=F Damp=F
 DIIS: error= 2.43D-04 at cycle   7 NSaved=   7.
 NSaved= 7 IEnMin= 7 EnMin= -1619.38605030328     IErMin= 7 ErrMin= 2.43D-04
 ErrMax= 2.43D-04  0.00D+00 EMaxC= 1.00D-01 BMatC= 1.63D-05 BMatP= 1.19D-04
 IDIUse=3 WtCom= 9.98D-01 WtEn= 2.43D-03
 Coeff-Com: -0.548D-03-0.212D-03 0.155D-01 0.522D-01 0.134D+00 0.325D+00
 Coeff-Com:  0.474D+00
 Coeff-En:   0.000D+00 0.000D+00 0.000D+00 0.000D+00 0.000D+00 0.876D-01
 Coeff-En:   0.912D+00
 Coeff:     -0.547D-03-0.212D-03 0.155D-01 0.520D-01 0.133D+00 0.324D+00
 Coeff:      0.476D+00
 Gap=     0.237 Goal=   None    Shift=    0.000
 RMSDP=1.39D-05 MaxDP=6.02D-04 DE=-8.68D-05 OVMax= 9.38D-04

 Cycle   8  Pass 0  IDiag  1:
 RMSU=  7.53D-06    CP:  9.96D-01  7.13D-01  5.48D-01  6.96D-01  5.72D-01
                    CP:  6.15D-01  5.63D-01
 E= -1619.38606353524     Delta-E=       -0.000013231966 Rises=F Damp=F
 DIIS: error= 5.06D-05 at cycle   8 NSaved=   8.
 NSaved= 8 IEnMin= 8 EnMin= -1619.38606353524     IErMin= 8 ErrMin= 5.06D-05
 ErrMax= 5.06D-05  0.00D+00 EMaxC= 1.00D-01 BMatC= 9.34D-07 BMatP= 1.63D-05
 IDIUse=1 WtCom= 1.00D+00 WtEn= 0.00D+00
 Coeff-Com: -0.208D-03-0.407D-03 0.285D-02 0.109D-01 0.394D-01 0.120D+00
 Coeff-Com:  0.256D+00 0.571D+00
 Coeff:     -0.208D-03-0.407D-03 0.285D-02 0.109D-01 0.394D-01 0.120D+00
 Coeff:      0.256D+00 0.571D+00
 Gap=     0.237 Goal=   None    Shift=    0.000
 RMSDP=3.97D-06 MaxDP=1.76D-04 DE=-1.32D-05 OVMax= 2.12D-04

 Initial convergence to 1.0D-05 achieved.  Increase integral accuracy.
 Cycle   9  Pass 1  IDiag  1:
 E= -1619.38584022804     Delta-E=        0.000223307200 Rises=F Damp=F
 DIIS: error= 1.15D-04 at cycle   1 NSaved=   1.
 NSaved= 1 IEnMin= 1 EnMin= -1619.38584022804     IErMin= 1 ErrMin= 1.15D-04
 ErrMax= 1.15D-04  0.00D+00 EMaxC= 1.00D-01 BMatC= 1.47D-06 BMatP= 1.47D-06
 IDIUse=3 WtCom= 9.99D-01 WtEn= 1.15D-03
 Coeff-Com:  0.100D+01
 Coeff-En:   0.100D+01
 Coeff:      0.100D+01
 Gap=     0.237 Goal=   None    Shift=    0.000
 RMSDP=3.97D-06 MaxDP=1.76D-04 DE= 2.23D-04 OVMax= 3.73D-04

 Cycle  10  Pass 1  IDiag  1:
 RMSU=  2.62D-05    CP:  1.00D+00
 E= -1619.38584155992     Delta-E=       -0.000001331874 Rises=F Damp=F
 DIIS: error= 2.89D-05 at cycle   2 NSaved=   2.
 NSaved= 2 IEnMin= 2 EnMin= -1619.38584155992     IErMin= 2 ErrMin= 2.89D-05
 ErrMax= 2.89D-05  0.00D+00 EMaxC= 1.00D-01 BMatC= 5.02D-07 BMatP= 1.47D-06
 IDIUse=1 WtCom= 1.00D+00 WtEn= 0.00D+00
 Coeff-Com:  0.296D+00 0.704D+00
 Coeff:      0.296D+00 0.704D+00
 Gap=     0.237 Goal=   None    Shift=    0.000
 RMSDP=4.90D-06 MaxDP=1.54D-04 DE=-1.33D-06 OVMax= 4.32D-04

 Cycle  11  Pass 1  IDiag  1:
 RMSU=  4.89D-06    CP:  1.00D+00  9.88D-01
 E= -1619.38584137266     Delta-E=        0.000000187262 Rises=F Damp=F
 DIIS: error= 3.98D-05 at cycle   3 NSaved=   3.
 NSaved= 3 IEnMin= 2 EnMin= -1619.38584155992     IErMin= 2 ErrMin= 2.89D-05
 ErrMax= 3.98D-05  0.00D+00 EMaxC= 1.00D-01 BMatC= 7.37D-07 BMatP= 5.02D-07
 IDIUse=1 WtCom= 1.00D+00 WtEn= 0.00D+00
 Coeff-Com: -0.979D-02 0.552D+00 0.458D+00
 Coeff:     -0.979D-02 0.552D+00 0.458D+00
 Gap=     0.237 Goal=   None    Shift=    0.000
 RMSDP=2.61D-06 MaxDP=8.68D-05 DE= 1.87D-07 OVMax= 2.08D-04

 Cycle  12  Pass 1  IDiag  1:
 RMSU=  7.68D-07    CP:  1.00D+00  1.00D+00  4.97D-01
 E= -1619.38584202442     Delta-E=       -0.000000651768 Rises=F Damp=F
 DIIS: error= 5.24D-06 at cycle   4 NSaved=   4.
 NSaved= 4 IEnMin= 4 EnMin= -1619.38584202442     IErMin= 4 ErrMin= 5.24D-06
 ErrMax= 5.24D-06  0.00D+00 EMaxC= 1.00D-01 BMatC= 1.21D-08 BMatP= 5.02D-07
 IDIUse=1 WtCom= 1.00D+00 WtEn= 0.00D+00
 Coeff-Com: -0.118D-01 0.305D+00 0.264D+00 0.442D+00
 Coeff:     -0.118D-01 0.305D+00 0.264D+00 0.442D+00
 Gap=     0.237 Goal=   None    Shift=    0.000
 RMSDP=4.29D-07 MaxDP=1.55D-05 DE=-6.52D-07 OVMax= 2.84D-05

 Cycle  13  Pass 1  IDiag  1:
 RMSU=  2.59D-07    CP:  1.00D+00  1.01D+00  4.89D-01  5.60D-01
 E= -1619.38584203403     Delta-E=       -0.000000009609 Rises=F Damp=F
 DIIS: error= 1.72D-06 at cycle   5 NSaved=   5.
 NSaved= 5 IEnMin= 5 EnMin= -1619.38584203403     IErMin= 5 ErrMin= 1.72D-06
 ErrMax= 1.72D-06  0.00D+00 EMaxC= 1.00D-01 BMatC= 1.19D-09 BMatP= 1.21D-08
 IDIUse=1 WtCom= 1.00D+00 WtEn= 0.00D+00
 Coeff-Com: -0.591D-02 0.123D+00 0.107D+00 0.266D+00 0.510D+00
 Coeff:     -0.591D-02 0.123D+00 0.107D+00 0.266D+00 0.510D+00
 Gap=     0.237 Goal=   None    Shift=    0.000
 RMSDP=1.26D-07 MaxDP=4.08D-06 DE=-9.61D-09 OVMax= 1.26D-05

 Cycle  14  Pass 1  IDiag  1:
 RMSU=  8.22D-08    CP:  1.00D+00  1.01D+00  4.90D-01  5.99D-01  6.50D-01
 E= -1619.38584203497     Delta-E=       -0.000000000933 Rises=F Damp=F
 DIIS: error= 4.02D-07 at cycle   6 NSaved=   6.
 NSaved= 6 IEnMin= 6 EnMin= -1619.38584203497     IErMin= 6 ErrMin= 4.02D-07
 ErrMax= 4.02D-07  0.00D+00 EMaxC= 1.00D-01 BMatC= 1.01D-10 BMatP= 1.19D-09
 IDIUse=1 WtCom= 1.00D+00 WtEn= 0.00D+00
 Coeff-Com: -0.194D-02 0.340D-01 0.297D-01 0.952D-01 0.282D+00 0.561D+00
 Coeff:     -0.194D-02 0.340D-01 0.297D-01 0.952D-01 0.282D+00 0.561D+00
 Gap=     0.237 Goal=   None    Shift=    0.000
 RMSDP=4.08D-08 MaxDP=1.93D-06 DE=-9.33D-10 OVMax= 3.51D-06

 Cycle  15  Pass 1  IDiag  1:
 RMSU=  2.67D-08    CP:  1.00D+00  1.01D+00  4.89D-01  5.98D-01  7.01D-01
                    CP:  6.73D-01
 E= -1619.38584203503     Delta-E=       -0.000000000068 Rises=F Damp=F
 DIIS: error= 1.02D-07 at cycle   7 NSaved=   7.
 NSaved= 7 IEnMin= 7 EnMin= -1619.38584203503     IErMin= 7 ErrMin= 1.02D-07
 ErrMax= 1.02D-07  0.00D+00 EMaxC= 1.00D-01 BMatC= 9.24D-12 BMatP= 1.01D-10
 IDIUse=1 WtCom= 1.00D+00 WtEn= 0.00D+00
 Coeff-Com: -0.400D-03 0.453D-02 0.394D-02 0.188D-01 0.860D-01 0.289D+00
 Coeff-Com:  0.599D+00
 Coeff:     -0.400D-03 0.453D-02 0.394D-02 0.188D-01 0.860D-01 0.289D+00
 Coeff:      0.599D+00
 Gap=     0.237 Goal=   None    Shift=    0.000
 RMSDP=1.27D-08 MaxDP=4.23D-07 DE=-6.82D-11 OVMax= 7.54D-07

 Cycle  16  Pass 1  IDiag  1:
 RMSU=  8.41D-09    CP:  1.00D+00  1.01D+00  4.89D-01  6.00D-01  7.08D-01
                    CP:  7.22D-01  6.97D-01
 E= -1619.38584203510     Delta-E=       -0.000000000069 Rises=F Damp=F
 DIIS: error= 7.05D-08 at cycle   8 NSaved=   8.
 NSaved= 8 IEnMin= 8 EnMin= -1619.38584203510     IErMin= 8 ErrMin= 7.05D-08
 ErrMax= 7.05D-08  0.00D+00 EMaxC= 1.00D-01 BMatC= 2.16D-12 BMatP= 9.24D-12
 IDIUse=1 WtCom= 1.00D+00 WtEn= 0.00D+00
 Coeff-Com: -0.353D-04-0.886D-03-0.785D-03 0.149D-02 0.244D-01 0.126D+00
 Coeff-Com:  0.383D+00 0.467D+00
 Coeff:     -0.353D-04-0.886D-03-0.785D-03 0.149D-02 0.244D-01 0.126D+00
 Coeff:      0.383D+00 0.467D+00
 Gap=     0.237 Goal=   None    Shift=    0.000
 RMSDP=5.17D-09 MaxDP=2.87D-07 DE=-6.91D-11 OVMax= 3.15D-07

 SCF Done:  E(RB3LYP) =  -1619.38584204     A.U. after   16 cycles
            NFock= 16  Conv=0.52D-08     -V/T= 2.0066
 KE= 1.608827170089D+03 PE=-7.583064230664D+03 EE= 2.466422232326D+03
 Leave Link  502 at Sat Aug  8 00:22:00 2020, MaxMem=    33554432 cpu:       358.2
 (Enter /prod/apps/gaussian/g09d1/l601.exe)
 Copying SCF densities to generalized density rwf, IOpCl= 0 IROHF=0.

 **********************************************************************

            Population analysis using the SCF density.

 **********************************************************************

 Orbital symmetries:
       Occupied  (A) (A) (A) (A) (A) (A) (A) (A) (A) (A) (A) (A)
                 (A) (A) (A) (A) (A) (A) (A) (A) (A) (A) (A) (A)
                 (A) (A) (A) (A) (A) (A) (A) (A) (A) (A) (A) (A)
                 (A) (A) (A) (A) (A) (A) (A) (A) (A) (A) (A) (A)
                 (A) (A) (A) (A) (A) (A) (A) (A) (A) (A) (A) (A)
                 (A) (A) (A) (A) (A) (A) (A) (A) (A) (A) (A) (A)
                 (A) (A) (A) (A) (A) (A) (A) (A)
       Virtual   (A) (A) (A) (A) (A) (A) (A) (A) (A) (A) (A) (A)
                 (A) (A) (A) (A) (A) (A) (A) (A) (A) (A) (A) (A)
                 (A) (A) (A) (A) (A) (A) (A) (A) (A) (A) (A) (A)
                 (A) (A) (A) (A) (A) (A) (A) (A) (A) (A) (A) (A)
                 (A) (A) (A) (A) (A) (A) (A) (A) (A) (A) (A) (A)
                 (A) (A) (A) (A) (A) (A) (A) (A) (A) (A) (A) (A)
                 (A) (A) (A) (A) (A) (A) (A) (A) (A) (A) (A) (A)
                 (A) (A) (A) (A) (A) (A) (A) (A) (A) (A) (A) (A)
                 (A) (A) (A) (A) (A) (A) (A) (A) (A) (A) (A) (A)
                 (A) (A) (A) (A) (A) (A) (A) (A) (A) (A) (A) (A)
                 (A) (A) (A) (A) (A) (A) (A) (A) (A) (A) (A) (A)
                 (A) (A) (A) (A) (A) (A) (A) (A) (A) (A) (A) (A)
                 (A) (A) (A) (A) (A) (A) (A) (A) (A) (A) (A) (A)
                 (A) (A) (A) (A) (A) (A) (A) (A) (A) (A) (A) (A)
                 (A) (A) (A) (A) (A) (A) (A) (A) (A) (A) (A) (A)
                 (A) (A) (A) (A) (A) (A) (A) (A) (A) (A) (A) (A)
                 (A) (A) (A) (A) (A) (A) (A) (A) (A) (A) (A) (A)
                 (A) (A) (A) (A) (A) (A) (A) (A) (A) (A) (A) (A)
                 (A) (A) (A) (A) (A) (A) (A) (A) (A) (A) (A) (A)
                 (A) (A) (A) (A) (A) (A) (A) (A) (A) (A) (A) (A)
                 (A) (A) (A) (A) (A) (A) (A)
 The electronic state is 1-A.
 Alpha  occ. eigenvalues --  -89.13181 -89.08565 -19.15855 -19.15812 -19.13875
 Alpha  occ. eigenvalues --  -19.13735 -14.38767 -10.28384 -10.24231 -10.23112
 Alpha  occ. eigenvalues --  -10.22037 -10.21552 -10.21514 -10.20976 -10.20049
 Alpha  occ. eigenvalues --  -10.20002 -10.19992 -10.19865 -10.19850  -8.15704
 Alpha  occ. eigenvalues --   -8.11614  -6.12227  -6.12116  -6.11984  -6.08031
 Alpha  occ. eigenvalues --   -6.07972  -6.07904  -1.12738  -1.09219  -1.01658
 Alpha  occ. eigenvalues --   -0.98839  -0.95599  -0.86954  -0.85944  -0.80647
 Alpha  occ. eigenvalues --   -0.79096  -0.75440  -0.74963  -0.72171  -0.69115
 Alpha  occ. eigenvalues --   -0.64894  -0.62123  -0.61551  -0.59085  -0.57470
 Alpha  occ. eigenvalues --   -0.54820  -0.53351  -0.51893  -0.50490  -0.49496
 Alpha  occ. eigenvalues --   -0.49010  -0.48375  -0.47798  -0.46756  -0.46049
 Alpha  occ. eigenvalues --   -0.45638  -0.44844  -0.43921  -0.43638  -0.43153
 Alpha  occ. eigenvalues --   -0.42807  -0.42435  -0.41199  -0.39432  -0.38417
 Alpha  occ. eigenvalues --   -0.37814  -0.36483  -0.35073  -0.34931  -0.34540
 Alpha  occ. eigenvalues --   -0.33160  -0.32507  -0.31632  -0.31552  -0.30777
 Alpha  occ. eigenvalues --   -0.29854  -0.29010  -0.27360  -0.26085  -0.25284
 Alpha virt. eigenvalues --   -0.01592  -0.01123   0.02729   0.03890   0.05320
 Alpha virt. eigenvalues --    0.05917   0.06627   0.06884   0.07028   0.08504
 Alpha virt. eigenvalues --    0.09016   0.09216   0.09523   0.10091   0.11678
 Alpha virt. eigenvalues --    0.12749   0.13193   0.13664   0.14458   0.15051
 Alpha virt. eigenvalues --    0.15310   0.15912   0.16074   0.17550   0.18637
 Alpha virt. eigenvalues --    0.18831   0.19119   0.20126   0.20526   0.22667
 Alpha virt. eigenvalues --    0.22929   0.24820   0.27479   0.28357   0.29721
 Alpha virt. eigenvalues --    0.31315   0.32629   0.33791   0.35563   0.35749
 Alpha virt. eigenvalues --    0.36515   0.37086   0.41931   0.43533   0.44242
 Alpha virt. eigenvalues --    0.45894   0.46707   0.48051   0.49439   0.49979
 Alpha virt. eigenvalues --    0.50317   0.51975   0.52862   0.53241   0.53535
 Alpha virt. eigenvalues --    0.54801   0.55550   0.56201   0.57554   0.58439
 Alpha virt. eigenvalues --    0.59211   0.60096   0.60401   0.60491   0.61144
 Alpha virt. eigenvalues --    0.61840   0.63050   0.63633   0.65346   0.67454
 Alpha virt. eigenvalues --    0.68236   0.69684   0.70253   0.71938   0.72136
 Alpha virt. eigenvalues --    0.73277   0.75441   0.78730   0.79147   0.80251
 Alpha virt. eigenvalues --    0.80390   0.80756   0.82477   0.82784   0.83297
 Alpha virt. eigenvalues --    0.83454   0.83882   0.84115   0.84917   0.85481
 Alpha virt. eigenvalues --    0.86074   0.86747   0.87259   0.87700   0.88814
 Alpha virt. eigenvalues --    0.90238   0.90776   0.90864   0.92093   0.92638
 Alpha virt. eigenvalues --    0.93546   0.94202   0.96385   0.96760   0.97082
 Alpha virt. eigenvalues --    0.98687   1.00130   1.00921   1.01586   1.04896
 Alpha virt. eigenvalues --    1.05085   1.07011   1.07208   1.08825   1.09417
 Alpha virt. eigenvalues --    1.10593   1.10860   1.12045   1.13407   1.14583
 Alpha virt. eigenvalues --    1.15501   1.15769   1.17386   1.19232   1.20074
 Alpha virt. eigenvalues --    1.20784   1.22073   1.23688   1.24528   1.26725
 Alpha virt. eigenvalues --    1.27135   1.32662   1.35665   1.36260   1.41243
 Alpha virt. eigenvalues --    1.41975   1.42657   1.42717   1.44463   1.47185
 Alpha virt. eigenvalues --    1.47477   1.49065   1.49844   1.50746   1.52615
 Alpha virt. eigenvalues --    1.60292   1.61519   1.64459   1.67629   1.69960
 Alpha virt. eigenvalues --    1.71070   1.73161   1.75063   1.76020   1.76763
 Alpha virt. eigenvalues --    1.78353   1.78943   1.79964   1.80743   1.81300
 Alpha virt. eigenvalues --    1.81617   1.82177   1.82819   1.83114   1.84278
 Alpha virt. eigenvalues --    1.85943   1.86729   1.87871   1.89551   1.90736
 Alpha virt. eigenvalues --    1.92562   1.93439   1.93855   1.96116   1.97160
 Alpha virt. eigenvalues --    1.97551   2.02342   2.03846   2.04279   2.04361
 Alpha virt. eigenvalues --    2.05979   2.06892   2.08620   2.10427   2.11429
 Alpha virt. eigenvalues --    2.12838   2.13481   2.13870   2.15368   2.15386
 Alpha virt. eigenvalues --    2.16355   2.17891   2.19664   2.20257   2.21916
 Alpha virt. eigenvalues --    2.23450   2.24376   2.25592   2.27578   2.29055
 Alpha virt. eigenvalues --    2.29813   2.30405   2.33296   2.35091   2.37884
 Alpha virt. eigenvalues --    2.39073   2.40469   2.45394   2.46896   2.57299
 Alpha virt. eigenvalues --    2.57427   2.58883   2.64319   2.67985   2.69322
 Alpha virt. eigenvalues --    2.71426   2.72946   2.73742   2.73976   2.74862
 Alpha virt. eigenvalues --    2.75241   2.77898   2.81205   2.82321   2.84281
 Alpha virt. eigenvalues --    2.87749   3.04554   3.39979   3.73890   3.81837
 Alpha virt. eigenvalues --    3.87019   3.95256   3.96240   4.00373   4.09199
 Alpha virt. eigenvalues --    4.09668   4.11934   4.14423   4.20708   4.21329
 Alpha virt. eigenvalues --    4.23959   4.32655   4.36020   4.40851   4.52306
 Alpha virt. eigenvalues --    4.69361   4.73312
          Condensed to atoms (all electrons):
               1          2          3          4          5          6
     1  C    5.538908   0.220711  -0.059482  -0.000728  -0.000168   0.000051
     2  S    0.220711  13.665893   0.112023  -0.006880  -0.002932  -0.000212
     3  N   -0.059482   0.112023   7.415209   0.241071  -0.053817   0.001352
     4  C   -0.000728  -0.006880   0.241071   4.841153   0.351960  -0.088219
     5  C   -0.000168  -0.002932  -0.053817   0.351960   5.753240   0.139924
     6  S    0.000051  -0.000212   0.001352  -0.088219   0.139924  13.873796
     7  C    0.000262  -0.004027  -0.038811   0.339092  -0.195454   0.118455
     8  O    0.000001  -0.000180  -0.000074   0.002364  -0.044286   0.443651
     9  O    0.000000   0.000008  -0.000039  -0.000275  -0.045981   0.401433
    10  C   -0.000265   0.001193  -0.050430   0.350654  -0.056288   0.004467
    11  C    0.000005  -0.000325  -0.005300  -0.034763  -0.005142  -0.000197
    12  C    0.000000   0.000013  -0.001557  -0.002055  -0.000494  -0.000036
    13  C    0.000000   0.000008   0.000224   0.001335  -0.000711   0.000128
    14  C    0.000000  -0.000001   0.000009  -0.000003   0.000216   0.000006
    15  C    0.000000   0.000000   0.000000   0.000006   0.000042   0.000000
    16  C    0.000000   0.000000   0.000000  -0.000009  -0.000467  -0.000025
    17  C    0.000000   0.000001  -0.000011  -0.001103  -0.003233   0.000039
    18  O   -0.056945   0.385675  -0.052137   0.006323  -0.009520   0.001943
    19  O   -0.062104   0.459542  -0.055920   0.001110   0.000164   0.000003
    20  H    0.337546  -0.003923  -0.000659  -0.000138   0.000004   0.000017
    21  H    0.355350  -0.016226   0.002751  -0.000010   0.000006   0.000001
    22  H    0.341824  -0.006584   0.000587   0.000118   0.000002   0.000000
    23  H    0.001839  -0.011207   0.293207  -0.027832   0.000257  -0.000243
    24  H    0.000003   0.000164   0.001728  -0.025767   0.338638  -0.011633
    25  H    0.000065   0.001547  -0.005301  -0.021049   0.325183  -0.002276
    26  H   -0.000006   0.000244   0.001472  -0.027723   0.010364  -0.010056
    27  H   -0.002339   0.008485  -0.005616  -0.022963   0.002235  -0.000974
    28  H    0.000001   0.000058   0.004331  -0.032814  -0.004100   0.009376
    29  H    0.000004  -0.000032  -0.000761  -0.036106   0.006057  -0.000343
    30  H    0.000000   0.000007   0.000146   0.004877  -0.000076   0.000034
    31  H    0.000002   0.000029   0.001655  -0.009542   0.000090  -0.000034
    32  H    0.000000   0.000139   0.000087  -0.000023  -0.000016   0.000002
    33  H    0.000000   0.000000   0.000000   0.000000  -0.000004   0.000000
    34  H    0.000000   0.000000   0.000000   0.000000   0.000000   0.000000
    35  H    0.000000   0.000000   0.000000   0.000000  -0.000006   0.000000
    36  H    0.000000   0.000000   0.000000   0.000109  -0.000021   0.000057
               7          8          9         10         11         12
     1  C    0.000262   0.000001   0.000000  -0.000265   0.000005   0.000000
     2  S   -0.004027  -0.000180   0.000008   0.001193  -0.000325   0.000013
     3  N   -0.038811  -0.000074  -0.000039  -0.050430  -0.005300  -0.001557
     4  C    0.339092   0.002364  -0.000275   0.350654  -0.034763  -0.002055
     5  C   -0.195454  -0.044286  -0.045981  -0.056288  -0.005142  -0.000494
     6  S    0.118455   0.443651   0.401433   0.004467  -0.000197  -0.000036
     7  C    5.763527  -0.045426  -0.045889  -0.046840   0.004080  -0.000013
     8  O   -0.045426   8.185655  -0.044218  -0.000061   0.000000   0.000000
     9  O   -0.045889  -0.044218   8.266581  -0.005384   0.000129  -0.000084
    10  C   -0.046840  -0.000061  -0.005384   5.176414   0.337762  -0.039074
    11  C    0.004080   0.000000   0.000129   0.337762   5.196319   0.344497
    12  C   -0.000013   0.000000  -0.000084  -0.039074   0.344497   4.678591
    13  C    0.000001   0.000000   0.000000  -0.001141  -0.049972   0.546088
    14  C    0.000000   0.000000   0.000000  -0.000166   0.007166  -0.022039
    15  C    0.000000   0.000000   0.000000   0.000009   0.000364  -0.035470
    16  C    0.000000   0.000000  -0.000015   0.000149   0.006102  -0.019676
    17  C   -0.000030   0.000000   0.000096  -0.003156  -0.064728   0.536632
    18  O   -0.008858  -0.000074   0.000000   0.000172  -0.000003   0.000000
    19  O   -0.000077   0.000000   0.000000  -0.000077  -0.000008   0.000002
    20  H    0.001260   0.000000   0.000000   0.000032   0.000000   0.000000
    21  H   -0.000012   0.000000   0.000000   0.000002   0.000000   0.000000
    22  H   -0.000017   0.000000   0.000000  -0.000007   0.000000   0.000000
    23  H    0.004651   0.000001   0.000002  -0.011241   0.007973  -0.000293
    24  H    0.009863   0.000506  -0.000357  -0.005272  -0.001348   0.006136
    25  H    0.002550   0.000062   0.001191   0.003668   0.000023  -0.000026
    26  H    0.339807   0.000671  -0.000481  -0.005624   0.000206   0.000010
    27  H    0.323681   0.000566   0.001190   0.003812  -0.000105   0.000002
    28  H   -0.005928   0.000046   0.012441   0.361120  -0.031418  -0.005877
    29  H   -0.007544   0.000002   0.000144   0.352294  -0.031680   0.004699
    30  H   -0.000121   0.000000  -0.000001  -0.035284   0.361967  -0.028721
    31  H   -0.000031   0.000000  -0.000002  -0.037914   0.355600  -0.038270
    32  H    0.000002   0.000000   0.000000   0.000113  -0.011139  -0.048053
    33  H    0.000000   0.000000   0.000000   0.000001  -0.000179   0.003841
    34  H    0.000000   0.000000   0.000000   0.000000   0.000007   0.000727
    35  H    0.000000   0.000000  -0.000001   0.000001  -0.000180   0.003636
    36  H   -0.000002   0.000000   0.000154   0.000579  -0.008240  -0.048551
              13         14         15         16         17         18
     1  C    0.000000   0.000000   0.000000   0.000000   0.000000  -0.056945
     2  S    0.000008  -0.000001   0.000000   0.000000   0.000001   0.385675
     3  N    0.000224   0.000009   0.000000   0.000000  -0.000011  -0.052137
     4  C    0.001335  -0.000003   0.000006  -0.000009  -0.001103   0.006323
     5  C   -0.000711   0.000216   0.000042  -0.000467  -0.003233  -0.009520
     6  S    0.000128   0.000006   0.000000  -0.000025   0.000039   0.001943
     7  C    0.000001   0.000000   0.000000   0.000000  -0.000030  -0.008858
     8  O    0.000000   0.000000   0.000000   0.000000   0.000000  -0.000074
     9  O    0.000000   0.000000   0.000000  -0.000015   0.000096   0.000000
    10  C   -0.001141  -0.000166   0.000009   0.000149  -0.003156   0.000172
    11  C   -0.049972   0.007166   0.000364   0.006102  -0.064728  -0.000003
    12  C    0.546088  -0.022039  -0.035470  -0.019676   0.536632   0.000000
    13  C    4.975973   0.522286  -0.036547  -0.046048  -0.042649   0.000000
    14  C    0.522286   4.859768   0.552741  -0.026139  -0.046717   0.000000
    15  C   -0.036547   0.552741   4.854865   0.545309  -0.035688   0.000000
    16  C   -0.046048  -0.026139   0.545309   4.855543   0.529049   0.000000
    17  C   -0.042649  -0.046717  -0.035688   0.529049   4.973401   0.000000
    18  O    0.000000   0.000000   0.000000   0.000000   0.000000   8.292628
    19  O   -0.000018   0.000000   0.000000   0.000000   0.000000  -0.040829
    20  H    0.000000   0.000000   0.000000   0.000000   0.000000  -0.001250
    21  H    0.000000   0.000000   0.000000   0.000000   0.000000   0.000144
    22  H    0.000000   0.000000   0.000000   0.000000   0.000000   0.001883
    23  H    0.000583   0.000010   0.000001  -0.000002   0.000018   0.000705
    24  H   -0.000031  -0.000116   0.000313   0.001466   0.005240   0.000209
    25  H    0.000015  -0.000043  -0.000008   0.000005   0.000086   0.013372
    26  H    0.000000   0.000000   0.000000   0.000000   0.000000   0.000232
    27  H    0.000000   0.000000   0.000000   0.000000   0.000000   0.010037
    28  H    0.000035   0.000005   0.000001  -0.000107   0.003437   0.000002
    29  H   -0.000102   0.000002   0.000000   0.000002   0.000064   0.000003
    30  H    0.002259  -0.000215   0.000027   0.000002  -0.004951   0.000000
    31  H   -0.005075   0.000216  -0.000005  -0.000168   0.004776   0.000003
    32  H    0.353771  -0.042749   0.004873   0.000338   0.006232  -0.000001
    33  H   -0.038719   0.358018  -0.042354   0.004529   0.000785   0.000000
    34  H    0.004724  -0.042560   0.360129  -0.042244   0.004688   0.000000
    35  H    0.000838   0.004547  -0.042395   0.359096  -0.038962   0.000000
    36  H    0.005773   0.000354   0.004749  -0.041242   0.358512   0.000000
              19         20         21         22         23         24
     1  C   -0.062104   0.337546   0.355350   0.341824   0.001839   0.000003
     2  S    0.459542  -0.003923  -0.016226  -0.006584  -0.011207   0.000164
     3  N   -0.055920  -0.000659   0.002751   0.000587   0.293207   0.001728
     4  C    0.001110  -0.000138  -0.000010   0.000118  -0.027832  -0.025767
     5  C    0.000164   0.000004   0.000006   0.000002   0.000257   0.338638
     6  S    0.000003   0.000017   0.000001   0.000000  -0.000243  -0.011633
     7  C   -0.000077   0.001260  -0.000012  -0.000017   0.004651   0.009863
     8  O    0.000000   0.000000   0.000000   0.000000   0.000001   0.000506
     9  O    0.000000   0.000000   0.000000   0.000000   0.000002  -0.000357
    10  C   -0.000077   0.000032   0.000002  -0.000007  -0.011241  -0.005272
    11  C   -0.000008   0.000000   0.000000   0.000000   0.007973  -0.001348
    12  C    0.000002   0.000000   0.000000   0.000000  -0.000293   0.006136
    13  C   -0.000018   0.000000   0.000000   0.000000   0.000583  -0.000031
    14  C    0.000000   0.000000   0.000000   0.000000   0.000010  -0.000116
    15  C    0.000000   0.000000   0.000000   0.000000   0.000001   0.000313
    16  C    0.000000   0.000000   0.000000   0.000000  -0.000002   0.001466
    17  C    0.000000   0.000000   0.000000   0.000000   0.000018   0.005240
    18  O   -0.040829  -0.001250   0.000144   0.001883   0.000705   0.000209
    19  O    8.212030   0.001771  -0.000478  -0.000182   0.006529  -0.000003
    20  H    0.001771   0.506436  -0.020554  -0.024246  -0.000046   0.000000
    21  H   -0.000478  -0.020554   0.475514  -0.019240  -0.000068   0.000000
    22  H   -0.000182  -0.024246  -0.019240   0.496567   0.000038   0.000000
    23  H    0.006529  -0.000046  -0.000068   0.000038   0.362309   0.000294
    24  H   -0.000003   0.000000   0.000000   0.000000   0.000294   0.467124
    25  H   -0.000495   0.000001   0.000002  -0.000004  -0.000168  -0.015155
    26  H    0.000001   0.000012   0.000001   0.000000  -0.000039  -0.000248
    27  H    0.000029   0.001745   0.000042   0.000053   0.000051  -0.000223
    28  H    0.000000   0.000000   0.000000   0.000000   0.000193  -0.000635
    29  H    0.000001   0.000008   0.000001   0.000004  -0.000147   0.000130
    30  H    0.000000   0.000000   0.000000   0.000000  -0.000337   0.000003
    31  H   -0.000022   0.000000   0.000000  -0.000003   0.009372   0.000062
    32  H    0.000053   0.000000   0.000000   0.000000   0.001330   0.000054
    33  H    0.000000   0.000000   0.000000   0.000000  -0.000001   0.000006
    34  H    0.000000   0.000000   0.000000   0.000000   0.000000   0.000000
    35  H    0.000000   0.000000   0.000000   0.000000   0.000000   0.000016
    36  H    0.000000   0.000000   0.000000   0.000000  -0.000001   0.000054
              25         26         27         28         29         30
     1  C    0.000065  -0.000006  -0.002339   0.000001   0.000004   0.000000
     2  S    0.001547   0.000244   0.008485   0.000058  -0.000032   0.000007
     3  N   -0.005301   0.001472  -0.005616   0.004331  -0.000761   0.000146
     4  C   -0.021049  -0.027723  -0.022963  -0.032814  -0.036106   0.004877
     5  C    0.325183   0.010364   0.002235  -0.004100   0.006057  -0.000076
     6  S   -0.002276  -0.010056  -0.000974   0.009376  -0.000343   0.000034
     7  C    0.002550   0.339807   0.323681  -0.005928  -0.007544  -0.000121
     8  O    0.000062   0.000671   0.000566   0.000046   0.000002   0.000000
     9  O    0.001191  -0.000481   0.001190   0.012441   0.000144  -0.000001
    10  C    0.003668  -0.005624   0.003812   0.361120   0.352294  -0.035284
    11  C    0.000023   0.000206  -0.000105  -0.031418  -0.031680   0.361967
    12  C   -0.000026   0.000010   0.000002  -0.005877   0.004699  -0.028721
    13  C    0.000015   0.000000   0.000000   0.000035  -0.000102   0.002259
    14  C   -0.000043   0.000000   0.000000   0.000005   0.000002  -0.000215
    15  C   -0.000008   0.000000   0.000000   0.000001   0.000000   0.000027
    16  C    0.000005   0.000000   0.000000  -0.000107   0.000002   0.000002
    17  C    0.000086   0.000000   0.000000   0.003437   0.000064  -0.004951
    18  O    0.013372   0.000232   0.010037   0.000002   0.000003   0.000000
    19  O   -0.000495   0.000001   0.000029   0.000000   0.000001   0.000000
    20  H    0.000001   0.000012   0.001745   0.000000   0.000008   0.000000
    21  H    0.000002   0.000001   0.000042   0.000000   0.000001   0.000000
    22  H   -0.000004   0.000000   0.000053   0.000000   0.000004   0.000000
    23  H   -0.000168  -0.000039   0.000051   0.000193  -0.000147  -0.000337
    24  H   -0.015155  -0.000248  -0.000223  -0.000635   0.000130   0.000003
    25  H    0.457831  -0.000271  -0.000149   0.000130  -0.000113   0.000003
    26  H   -0.000271   0.505139  -0.019519  -0.000093   0.004643  -0.000016
    27  H   -0.000149  -0.019519   0.472428   0.000126   0.000052   0.000002
    28  H    0.000130  -0.000093   0.000126   0.517003  -0.026808  -0.003229
    29  H   -0.000113   0.004643   0.000052  -0.026808   0.590951  -0.004388
    30  H    0.000003  -0.000016   0.000002  -0.003229  -0.004388   0.570513
    31  H    0.000004   0.000007   0.000000   0.004688  -0.002264  -0.033043
    32  H    0.000004   0.000000   0.000000   0.000003  -0.000016   0.000130
    33  H    0.000000   0.000000   0.000000   0.000000   0.000000   0.000003
    34  H    0.000000   0.000000   0.000000   0.000000   0.000000   0.000000
    35  H    0.000000   0.000000   0.000000   0.000003   0.000000  -0.000003
    36  H    0.000001   0.000000   0.000000   0.002388  -0.000102   0.002583
              31         32         33         34         35         36
     1  C    0.000002   0.000000   0.000000   0.000000   0.000000   0.000000
     2  S    0.000029   0.000139   0.000000   0.000000   0.000000   0.000000
     3  N    0.001655   0.000087   0.000000   0.000000   0.000000   0.000000
     4  C   -0.009542  -0.000023   0.000000   0.000000   0.000000   0.000109
     5  C    0.000090  -0.000016  -0.000004   0.000000  -0.000006  -0.000021
     6  S   -0.000034   0.000002   0.000000   0.000000   0.000000   0.000057
     7  C   -0.000031   0.000002   0.000000   0.000000   0.000000  -0.000002
     8  O    0.000000   0.000000   0.000000   0.000000   0.000000   0.000000
     9  O   -0.000002   0.000000   0.000000   0.000000  -0.000001   0.000154
    10  C   -0.037914   0.000113   0.000001   0.000000   0.000001   0.000579
    11  C    0.355600  -0.011139  -0.000179   0.000007  -0.000180  -0.008240
    12  C   -0.038270  -0.048053   0.003841   0.000727   0.003636  -0.048551
    13  C   -0.005075   0.353771  -0.038719   0.004724   0.000838   0.005773
    14  C    0.000216  -0.042749   0.358018  -0.042560   0.004547   0.000354
    15  C   -0.000005   0.004873  -0.042354   0.360129  -0.042395   0.004749
    16  C   -0.000168   0.000338   0.004529  -0.042244   0.359096  -0.041242
    17  C    0.004776   0.006232   0.000785   0.004688  -0.038962   0.358512
    18  O    0.000003  -0.000001   0.000000   0.000000   0.000000   0.000000
    19  O   -0.000022   0.000053   0.000000   0.000000   0.000000   0.000000
    20  H    0.000000   0.000000   0.000000   0.000000   0.000000   0.000000
    21  H    0.000000   0.000000   0.000000   0.000000   0.000000   0.000000
    22  H   -0.000003   0.000000   0.000000   0.000000   0.000000   0.000000
    23  H    0.009372   0.001330  -0.000001   0.000000   0.000000  -0.000001
    24  H    0.000062   0.000054   0.000006   0.000000   0.000016   0.000054
    25  H    0.000004   0.000004   0.000000   0.000000   0.000000   0.000001
    26  H    0.000007   0.000000   0.000000   0.000000   0.000000   0.000000
    27  H    0.000000   0.000000   0.000000   0.000000   0.000000   0.000000
    28  H    0.004688   0.000003   0.000000   0.000000   0.000003   0.002388
    29  H   -0.002264  -0.000016   0.000000   0.000000   0.000000  -0.000102
    30  H   -0.033043   0.000130   0.000003   0.000000  -0.000003   0.002583
    31  H    0.605560   0.006461  -0.000009   0.000000   0.000003   0.000032
    32  H    0.006461   0.609188  -0.005610  -0.000180   0.000017  -0.000174
    33  H   -0.000009  -0.005610   0.586831  -0.005474  -0.000182   0.000017
    34  H    0.000000  -0.000180  -0.005474   0.588477  -0.005365  -0.000176
    35  H    0.000003   0.000017  -0.000182  -0.005365   0.583443  -0.005477
    36  H    0.000032  -0.000174   0.000017  -0.000176  -0.005477   0.589173
 Mulliken charges:
               1
     1  C   -0.614534
     2  S    1.196791
     3  N   -0.745938
     4  C    0.197830
     5  C   -0.505668
     6  S    1.119511
     7  C   -0.508152
     8  O   -0.499206
     9  O   -0.540644
    10  C   -0.294219
    11  C   -0.377474
    12  C    0.165414
    13  C   -0.193029
    14  C   -0.124598
    15  C   -0.130965
    16  C   -0.125447
    17  C   -0.181828
    18  O   -0.543715
    19  O   -0.521023
    20  H    0.201984
    21  H    0.222775
    22  H    0.209206
    23  H    0.362261
    24  H    0.228781
    25  H    0.239317
    26  H    0.201268
    27  H    0.227352
    28  H    0.195621
    29  H    0.151348
    30  H    0.167827
    31  H    0.137820
    32  H    0.125162
    33  H    0.138499
    34  H    0.137248
    35  H    0.140969
    36  H    0.139453
 Sum of Mulliken charges =   0.00000
 Mulliken charges with hydrogens summed into heavy atoms:
               1
     1  C    0.019431
     2  S    1.196791
     3  N   -0.383677
     4  C    0.197830
     5  C   -0.037570
     6  S    1.119511
     7  C   -0.079531
     8  O   -0.499206
     9  O   -0.540644
    10  C    0.052750
    11  C   -0.071826
    12  C    0.165414
    13  C   -0.067867
    14  C    0.013901
    15  C    0.006283
    16  C    0.015522
    17  C   -0.042375
    18  O   -0.543715
    19  O   -0.521023
 Electronic spatial extent (au):  <R**2>=           6086.7709
 Charge=              0.0000 electrons
 Dipole moment (field-independent basis, Debye):
    X=              0.0258    Y=             -4.0623    Z=              5.0629  Tot=              6.4912
 Quadrupole moment (field-independent basis, Debye-Ang):
   XX=           -110.9195   YY=           -147.3473   ZZ=           -125.4420
   XY=             -0.5968   XZ=             15.9550   YZ=              2.4854
 Traceless Quadrupole moment (field-independent basis, Debye-Ang):
   XX=             16.9834   YY=            -19.4444   ZZ=              2.4609
   XY=             -0.5968   XZ=             15.9550   YZ=              2.4854
 Octapole moment (field-independent basis, Debye-Ang**2):
  XXX=             73.4741  YYY=            -45.6638  ZZZ=              3.1347  XYY=              0.9695
  XXY=              2.3857  XXZ=             10.7538  XZZ=             -8.2232  YZZ=             -3.8916
  YYZ=             21.9984  XYZ=             -7.3188
 Hexadecapole moment (field-independent basis, Debye-Ang**3):
 XXXX=          -4336.1824 YYYY=          -2533.0042 ZZZZ=           -887.4140 XXXY=           -205.1360
 XXXZ=            173.3241 YYYX=             21.4440 YYYZ=             19.4433 ZZZX=              3.3445
 ZZZY=             18.1321 XXYY=          -1192.7894 XXZZ=           -928.1547 YYZZ=           -541.7636
 XXYZ=             22.8755 YYXZ=             79.7848 ZZXY=             -4.2112
 N-N= 1.888428986214D+03 E-N=-7.583064209392D+03  KE= 1.608827170089D+03
 No NMR shielding tensors so no spin-rotation constants.
 Leave Link  601 at Sat Aug  8 00:22:01 2020, MaxMem=    33554432 cpu:         0.3
 (Enter /prod/apps/gaussian/g09d1/l9999.exe)
 1\1\GINC-PIRINEUS23\SP\RB3LYP\6-31G(d)\C12H17N1O4S2\UBAFAR01\08-Aug-20
 20\0\\#p b3lyp/6-31G(d)\\SM38.n.9.pdb.xyz\\0,1\C,0,6.269,-0.012,-0.572
 \S,0,4.983,-0.639,0.51\N,0,3.646,-0.757,-0.506\C,0,3.051,-2.017,-0.961
 \C,0,2.6,-3.039,0.149\S,0,3.273,-4.398,-0.859\C,0,4.071,-2.967,-1.667\
 O,0,4.2,-5.298,-0.159\O,0,2.231,-4.976,-1.731\C,0,1.916,-1.675,-1.949\
 C,0,0.761,-0.782,-1.451\C,0,-0.138,-1.373,-0.384\C,0,-0.188,-0.815,0.8
 98\C,0,-1.014,-1.354,1.886\C,0,-1.808,-2.464,1.602\C,0,-1.776,-3.026,0
 .323\C,0,-0.952,-2.482,-0.661\O,0,5.374,-1.988,0.943\O,0,4.67,0.402,1.
 494\H,0,6.424,-0.715,-1.39\H,0,7.175,0.081,0.028\H,0,5.957,0.96,-0.95\
 H,0,2.971,-0.045,-0.24\H,0,1.535,-3.113,0.351\H,0,3.192,-2.95,1.058\H,
 0,4.054,-2.984,-2.757\H,0,5.083,-2.879,-1.276\H,0,1.514,-2.629,-2.305\
 H,0,2.38,-1.183,-2.81\H,0,0.159,-0.547,-2.337\H,0,1.144,0.184,-1.102\H
 ,0,0.422,0.055,1.123\H,0,-1.036,-0.905,2.874\H,0,-2.451,-2.888,2.368\H
 ,0,-2.397,-3.884,0.091\H,0,-0.939,-2.925,-1.653\\Version=AM64L-G09RevD
 .01\State=1-A\HF=-1619.385842\RMSD=5.168e-09\Dipole=-0.41075,2.2116703
 ,-1.2090916\Quadrupole=9.215635,-11.2844967,2.0688617,8.2461764,-10.52
 66416,-6.5668552\PG=C01 [X(C12H17N1O4S2)]\\@


 ... I FELL INTO A REVERIE ... THE ATOMS WERE GAMBOLING BEFORE MY EYES
 ... I SAW HOW TWO SMALL ONES UNITED TO FORM A PAIR;
 HOW THE LARGER ONES SEIZED TWO OF THE SMALLER ONES;
 HOW STILL LARGER ONES KEPT HOLD OF THREE OR FOUR
 SMALLER ONES ... I SAW HOW THE LARGER ONES FORMED A CHAIN ...
 THIS WAS THE ORIGIN OF THE STRUCTURE THEORY.

                                   -- C.F.KEKULE VON STRADONITZ
 Job cpu time:       0 days  0 hours  6 minutes  4.5 seconds.
 File lengths (MBytes):  RWF=     60 Int=      0 D2E=      0 Chk=      5 Scr=      1
 Normal termination of Gaussian 09 at Sat Aug  8 00:22:01 2020.
 Initial command:
 /prod/apps/gaussian/g09d1/l1.exe "/tmp/ubafar01/1449023/Gau-107711.inp" -scrdir="/tmp/ubafar01/1449023/"
 Entering Link 1 = /prod/apps/gaussian/g09d1/l1.exe PID=    107795.
  
 Copyright (c) 1988,1990,1992,1993,1995,1998,2003,2009,2013,
            Gaussian, Inc.  All Rights Reserved.
  
 This is part of the Gaussian(R) 09 program.  It is based on
 the Gaussian(R) 03 system (copyright 2003, Gaussian, Inc.),
 the Gaussian(R) 98 system (copyright 1998, Gaussian, Inc.),
 the Gaussian(R) 94 system (copyright 1995, Gaussian, Inc.),
 the Gaussian 92(TM) system (copyright 1992, Gaussian, Inc.),
 the Gaussian 90(TM) system (copyright 1990, Gaussian, Inc.),
 the Gaussian 88(TM) system (copyright 1988, Gaussian, Inc.),
 the Gaussian 86(TM) system (copyright 1986, Carnegie Mellon
 University), and the Gaussian 82(TM) system (copyright 1983,
 Carnegie Mellon University). Gaussian is a federally registered
 trademark of Gaussian, Inc.
  
 This software contains proprietary and confidential information,
 including trade secrets, belonging to Gaussian, Inc.
  
 This software is provided under written license and may be
 used, copied, transmitted, or stored only in accord with that
 written license.
  
 The following legend is applicable only to US Government
 contracts under FAR:
  
                    RESTRICTED RIGHTS LEGEND
  
 Use, reproduction and disclosure by the US Government is
 subject to restrictions as set forth in subparagraphs (a)
 and (c) of the Commercial Computer Software - Restricted
 Rights clause in FAR 52.227-19.
  
 Gaussian, Inc.
 340 Quinnipiac St., Bldg. 40, Wallingford CT 06492
  
  
 ---------------------------------------------------------------
 Warning -- This program may not be used in any manner that
 competes with the business of Gaussian, Inc. or will provide
 assistance to any competitor of Gaussian, Inc.  The licensee
 of this program is prohibited from giving any competitor of
 Gaussian, Inc. access to this program.  By using this program,
 the user acknowledges that Gaussian, Inc. is engaged in the
 business of creating and licensing software in the field of
 computational chemistry and represents and warrants to the
 licensee that it is not a competitor of Gaussian, Inc. and that
 it will not use this program in any manner prohibited above.
 ---------------------------------------------------------------
  

 Cite this work as:
 Gaussian 09, Revision D.01,
 M. J. Frisch, G. W. Trucks, H. B. Schlegel, G. E. Scuseria, 
 M. A. Robb, J. R. Cheeseman, G. Scalmani, V. Barone, B. Mennucci, 
 G. A. Petersson, H. Nakatsuji, M. Caricato, X. Li, H. P. Hratchian, 
 A. F. Izmaylov, J. Bloino, G. Zheng, J. L. Sonnenberg, M. Hada, 
 M. Ehara, K. Toyota, R. Fukuda, J. Hasegawa, M. Ishida, T. Nakajima, 
 Y. Honda, O. Kitao, H. Nakai, T. Vreven, J. A. Montgomery, Jr., 
 J. E. Peralta, F. Ogliaro, M. Bearpark, J. J. Heyd, E. Brothers, 
 K. N. Kudin, V. N. Staroverov, T. Keith, R. Kobayashi, J. Normand, 
 K. Raghavachari, A. Rendell, J. C. Burant, S. S. Iyengar, J. Tomasi, 
 M. Cossi, N. Rega, J. M. Millam, M. Klene, J. E. Knox, J. B. Cross, 
 V. Bakken, C. Adamo, J. Jaramillo, R. Gomperts, R. E. Stratmann, 
 O. Yazyev, A. J. Austin, R. Cammi, C. Pomelli, J. W. Ochterski, 
 R. L. Martin, K. Morokuma, V. G. Zakrzewski, G. A. Voth, 
 P. Salvador, J. J. Dannenberg, S. Dapprich, A. D. Daniels, 
 O. Farkas, J. B. Foresman, J. V. Ortiz, J. Cioslowski, 
 and D. J. Fox, Gaussian, Inc., Wallingford CT, 2013.
 
 ******************************************
 Gaussian 09:  AM64L-G09RevD.01 24-Apr-2013
                 8-Aug-2020 
 ******************************************
 %nproc=1
 Will use up to    1 processors via shared memory.
 %Chk=SM38.n.9.pdb.xyz.mst.n.o.chk
 %subst l301 /dades/curu/work_g09D01_MST_AddSphPartition_ReadGammas/exe-dir/
 %subst l502 /dades/curu/work_g09D01_MST_AddSphPartition_ReadGammas/exe-dir/
 ----------------------------------------------------------------------
 #p b3lyp/6-31G(d) scrf=(iefpcm,read,solvent=n-Octanol) geom=allcheck g
 uess=read
 ----------------------------------------------------------------------
 1/29=7,38=1,40=2/1;
 2/12=2,40=1/2;
 3/5=1,6=6,7=1,11=2,14=-4,16=1,25=1,30=1,70=2203,72=25,74=-5,116=-2/1,2,3;
 4/5=1/1;
 5/5=2,38=6,53=25/2;
 6/7=2,8=2,9=2,10=2,28=1/1;
 99/5=1,9=1/99;
 Leave Link    1 at Sat Aug  8 00:22:01 2020, MaxMem=           0 cpu:         0.0
 (Enter /prod/apps/gaussian/g09d1/l101.exe)
 Structure from the checkpoint file:  "SM38.n.9.pdb.xyz.mst.n.o.chk"
 ----------------
 SM38.n.9.pdb.xyz
 ----------------
 Charge =  0 Multiplicity = 1
 Z-Matrix found in file.
 C,0,6.269,-0.012,-0.572
 S,0,4.983,-0.639,0.51
 N,0,3.646,-0.757,-0.506
 C,0,3.051,-2.017,-0.961
 C,0,2.6,-3.039,0.149
 S,0,3.273,-4.398,-0.859
 C,0,4.071,-2.967,-1.667
 O,0,4.2,-5.298,-0.159
 O,0,2.231,-4.976,-1.731
 C,0,1.916,-1.675,-1.949
 C,0,0.761,-0.782,-1.451
 C,0,-0.138,-1.373,-0.384
 C,0,-0.188,-0.815,0.898
 C,0,-1.014,-1.354,1.886
 C,0,-1.808,-2.464,1.602
 C,0,-1.776,-3.026,0.323
 C,0,-0.952,-2.482,-0.661
 O,0,5.374,-1.988,0.943
 O,0,4.67,0.402,1.494
 H,0,6.424,-0.715,-1.39
 H,0,7.175,0.081,0.028
 H,0,5.957,0.96,-0.95
 H,0,2.971,-0.045,-0.24
 H,0,1.535,-3.113,0.351
 H,0,3.192,-2.95,1.058
 H,0,4.054,-2.984,-2.757
 H,0,5.083,-2.879,-1.276
 H,0,1.514,-2.629,-2.305
 H,0,2.38,-1.183,-2.81
 H,0,0.159,-0.547,-2.337
 H,0,1.144,0.184,-1.102
 H,0,0.422,0.055,1.123
 H,0,-1.036,-0.905,2.874
 H,0,-2.451,-2.888,2.368
 H,0,-2.397,-3.884,0.091
 H,0,-0.939,-2.925,-1.653
 Recover connectivity data from disk.
 NAtoms=     36 NQM=       36 NQMF=       0 NMMI=      0 NMMIF=      0
                NMic=       0 NMicF=      0.
                    Isotopes and Nuclear Properties:
 (Nuclear quadrupole moments (NQMom) in fm**2, nuclear magnetic moments (NMagM)
  in nuclear magnetons)

  Atom         1           2           3           4           5           6           7           8           9          10
 IAtWgt=          12          32          14          12          12          32          12          16          16          12
 AtmWgt=  12.0000000  31.9720718  14.0030740  12.0000000  12.0000000  31.9720718  12.0000000  15.9949146  15.9949146  12.0000000
 NucSpn=           0           0           2           0           0           0           0           0           0           0
 AtZEff=  -3.6000000 -13.6000000  -4.5500000  -3.6000000  -3.6000000 -13.6000000  -3.6000000  -5.6000000  -5.6000000  -3.6000000
 NQMom=    0.0000000   0.0000000   2.0440000   0.0000000   0.0000000   0.0000000   0.0000000   0.0000000   0.0000000   0.0000000
 NMagM=    0.0000000   0.0000000   0.4037610   0.0000000   0.0000000   0.0000000   0.0000000   0.0000000   0.0000000   0.0000000
 AtZNuc=   6.0000000  16.0000000   7.0000000   6.0000000   6.0000000  16.0000000   6.0000000   8.0000000   8.0000000   6.0000000

  Atom        11          12          13          14          15          16          17          18          19          20
 IAtWgt=          12          12          12          12          12          12          12          16          16           1
 AtmWgt=  12.0000000  12.0000000  12.0000000  12.0000000  12.0000000  12.0000000  12.0000000  15.9949146  15.9949146   1.0078250
 NucSpn=           0           0           0           0           0           0           0           0           0           1
 AtZEff=  -3.6000000  -3.6000000  -3.6000000  -3.6000000  -3.6000000  -3.6000000  -3.6000000  -5.6000000  -5.6000000  -1.0000000
 NQMom=    0.0000000   0.0000000   0.0000000   0.0000000   0.0000000   0.0000000   0.0000000   0.0000000   0.0000000   0.0000000
 NMagM=    0.0000000   0.0000000   0.0000000   0.0000000   0.0000000   0.0000000   0.0000000   0.0000000   0.0000000   2.7928460
 AtZNuc=   6.0000000   6.0000000   6.0000000   6.0000000   6.0000000   6.0000000   6.0000000   8.0000000   8.0000000   1.0000000

  Atom        21          22          23          24          25          26          27          28          29          30
 IAtWgt=           1           1           1           1           1           1           1           1           1           1
 AtmWgt=   1.0078250   1.0078250   1.0078250   1.0078250   1.0078250   1.0078250   1.0078250   1.0078250   1.0078250   1.0078250
 NucSpn=           1           1           1           1           1           1           1           1           1           1
 AtZEff=  -1.0000000  -1.0000000  -1.0000000  -1.0000000  -1.0000000  -1.0000000  -1.0000000  -1.0000000  -1.0000000  -1.0000000
 NQMom=    0.0000000   0.0000000   0.0000000   0.0000000   0.0000000   0.0000000   0.0000000   0.0000000   0.0000000   0.0000000
 NMagM=    2.7928460   2.7928460   2.7928460   2.7928460   2.7928460   2.7928460   2.7928460   2.7928460   2.7928460   2.7928460
 AtZNuc=   1.0000000   1.0000000   1.0000000   1.0000000   1.0000000   1.0000000   1.0000000   1.0000000   1.0000000   1.0000000

  Atom        31          32          33          34          35          36
 IAtWgt=           1           1           1           1           1           1
 AtmWgt=   1.0078250   1.0078250   1.0078250   1.0078250   1.0078250   1.0078250
 NucSpn=           1           1           1           1           1           1
 AtZEff=  -1.0000000  -1.0000000  -1.0000000  -1.0000000  -1.0000000  -1.0000000
 NQMom=    0.0000000   0.0000000   0.0000000   0.0000000   0.0000000   0.0000000
 NMagM=    2.7928460   2.7928460   2.7928460   2.7928460   2.7928460   2.7928460
 AtZNuc=   1.0000000   1.0000000   1.0000000   1.0000000   1.0000000   1.0000000
 Leave Link  101 at Sat Aug  8 00:22:01 2020, MaxMem=    33554432 cpu:         0.1
 (Enter /prod/apps/gaussian/g09d1/l202.exe)
                          Input orientation:                          
 ---------------------------------------------------------------------
[...]
    23  H    0.001698  -0.010941   0.294808  -0.027725   0.000267  -0.000263
    24  H    0.000003   0.000185   0.001704  -0.025224   0.337768  -0.011456
    25  H    0.000066   0.001830  -0.005429  -0.021288   0.324177  -0.002107
    26  H   -0.000012   0.000244   0.001349  -0.027329   0.009994  -0.010652
    27  H   -0.002130   0.008088  -0.005601  -0.023278   0.002371  -0.001400
    28  H    0.000001   0.000047   0.004374  -0.034075  -0.004223   0.009145
    29  H    0.000003  -0.000059  -0.001066  -0.035388   0.005964  -0.000428
    30  H    0.000000   0.000007   0.000145   0.004821  -0.000078   0.000034
    31  H    0.000002   0.000000   0.001609  -0.009482   0.000082  -0.000027
    32  H    0.000000   0.000142   0.000098  -0.000023  -0.000018   0.000002
    33  H    0.000000   0.000000   0.000000   0.000000  -0.000004   0.000000
    34  H    0.000000   0.000000   0.000000   0.000000   0.000000   0.000000
    35  H    0.000000   0.000000   0.000000   0.000000  -0.000006   0.000000
    36  H    0.000000   0.000000   0.000000   0.000107  -0.000021   0.000061
               7          8          9         10         11         12
     1  C    0.000290   0.000001   0.000000  -0.000260   0.000005   0.000000
     2  S   -0.003670  -0.000178   0.000009   0.001061  -0.000267   0.000001
     3  N   -0.038767  -0.000077  -0.000043  -0.050505  -0.005119  -0.001545
     4  C    0.335673   0.002666  -0.000110   0.349785  -0.034886  -0.002278
     5  C   -0.190966  -0.044630  -0.046114  -0.056590  -0.004972  -0.000733
     6  S    0.129864   0.439548   0.403617   0.005625  -0.000278  -0.000042
     7  C    5.744850  -0.045985  -0.046374  -0.047679   0.004081  -0.000016
     8  O   -0.045985   8.218271  -0.043884  -0.000064   0.000000   0.000000
     9  O   -0.046374  -0.043884   8.280472  -0.005009   0.000123  -0.000080
    10  C   -0.047679  -0.000064  -0.005009   5.167079   0.339076  -0.038572
    11  C    0.004081   0.000000   0.000123   0.339076   5.191632   0.343637
    12  C   -0.000016   0.000000  -0.000080  -0.038572   0.343637   4.687862
    13  C    0.000001   0.000000   0.000000  -0.001144  -0.049637   0.545077
    14  C    0.000000   0.000000   0.000000  -0.000173   0.007068  -0.023032
    15  C    0.000000   0.000000   0.000000   0.000010   0.000352  -0.035393
    16  C    0.000000   0.000000  -0.000014   0.000140   0.005987  -0.020680
    17  C   -0.000030   0.000000   0.000093  -0.003184  -0.064145   0.535602
    18  O   -0.008943  -0.000086   0.000000   0.000166  -0.000002   0.000000
    19  O   -0.000079   0.000000   0.000000  -0.000076  -0.000007   0.000002
    20  H    0.001009   0.000000   0.000000   0.000026   0.000000   0.000000
    21  H   -0.000011   0.000000   0.000000   0.000002   0.000000   0.000000
    22  H   -0.000015   0.000000   0.000000  -0.000005   0.000000   0.000000
    23  H    0.004516   0.000001   0.000002  -0.011010   0.008404  -0.000390
    24  H    0.009668   0.000505  -0.000456  -0.005442  -0.001243   0.006529
    25  H    0.002521   0.000040   0.001204   0.003650   0.000003  -0.000012
    26  H    0.343955   0.000647  -0.000577  -0.005030   0.000194   0.000011
    27  H    0.324292   0.000556   0.001192   0.003799  -0.000103   0.000002
    28  H   -0.006132   0.000040   0.011094   0.362003  -0.031837  -0.006027
    29  H   -0.007232   0.000002   0.000132   0.357571  -0.030282   0.004501
    30  H   -0.000117   0.000000  -0.000001  -0.034069   0.364100  -0.028887
    31  H   -0.000036   0.000000  -0.000002  -0.037047   0.359824  -0.039191
    32  H    0.000001   0.000000   0.000000   0.000113  -0.010555  -0.047477
    33  H    0.000000   0.000000   0.000000   0.000001  -0.000174   0.003798
    34  H    0.000000   0.000000   0.000000   0.000000   0.000007   0.000691
    35  H    0.000000   0.000000  -0.000001   0.000001  -0.000175   0.003628
    36  H   -0.000002   0.000000   0.000148   0.000573  -0.008010  -0.047782
              13         14         15         16         17         18
     1  C    0.000000   0.000000   0.000000   0.000000   0.000000  -0.057347
     2  S    0.000015   0.000000   0.000000   0.000000   0.000001   0.383737
     3  N    0.000222   0.000009   0.000000   0.000000  -0.000010  -0.051835
     4  C    0.001330  -0.000004   0.000006  -0.000009  -0.001107   0.006141
     5  C   -0.000684   0.000232   0.000044  -0.000487  -0.003366  -0.009669
     6  S    0.000134   0.000006   0.000000  -0.000024   0.000045   0.002180
     7  C    0.000001   0.000000   0.000000   0.000000  -0.000030  -0.008943
     8  O    0.000000   0.000000   0.000000   0.000000   0.000000  -0.000086
     9  O    0.000000   0.000000   0.000000  -0.000014   0.000093   0.000000
    10  C   -0.001144  -0.000173   0.000010   0.000140  -0.003184   0.000166
    11  C   -0.049637   0.007068   0.000352   0.005987  -0.064145  -0.000002
    12  C    0.545077  -0.023032  -0.035393  -0.020680   0.535602   0.000000
    13  C    4.984474   0.520227  -0.037407  -0.045922  -0.043748   0.000000
    14  C    0.520227   4.870708   0.551142  -0.027363  -0.046366   0.000000
    15  C   -0.037407   0.551142   4.866277   0.543856  -0.036636   0.000000
    16  C   -0.045922  -0.027363   0.543856   4.868385   0.527342   0.000000
    17  C   -0.043748  -0.046366  -0.036636   0.527342   4.983101   0.000000
    18  O    0.000000   0.000000   0.000000   0.000000   0.000000   8.313386
    19  O   -0.000018   0.000000   0.000000   0.000000   0.000000  -0.040053
    20  H    0.000000   0.000000   0.000000   0.000000   0.000000  -0.001252
    21  H    0.000000   0.000000   0.000000   0.000000   0.000000   0.000192
    22  H    0.000000   0.000000   0.000000   0.000000   0.000000   0.001837
    23  H    0.000634   0.000012   0.000000  -0.000001   0.000018   0.000668
    24  H    0.000098  -0.000138   0.000296   0.001547   0.005822   0.000209
    25  H    0.000011  -0.000045  -0.000008   0.000005   0.000087   0.013841
    26  H    0.000000   0.000000   0.000000   0.000000   0.000000   0.000222
    27  H    0.000000   0.000000   0.000000   0.000000   0.000000   0.010042
    28  H    0.000045   0.000006   0.000001  -0.000109   0.003596   0.000002
    29  H   -0.000099   0.000002   0.000000   0.000002   0.000064   0.000003
    30  H    0.002207  -0.000212   0.000027   0.000006  -0.004882   0.000000
    31  H   -0.004630   0.000254  -0.000006  -0.000163   0.004656   0.000003
    32  H    0.355764  -0.042244   0.004804   0.000321   0.006143  -0.000001
    33  H   -0.038300   0.359554  -0.041977   0.004496   0.000753   0.000000
    34  H    0.004678  -0.042081   0.361712  -0.041966   0.004637   0.000000
    35  H    0.000795   0.004525  -0.041950   0.360420  -0.039158   0.000000
    36  H    0.005763   0.000320   0.004724  -0.041719   0.359534   0.000000
              19         20         21         22         23         24
     1  C   -0.062446   0.339913   0.354236   0.344430   0.001698   0.000003
     2  S    0.458277  -0.004390  -0.016078  -0.007340  -0.010941   0.000185
     3  N   -0.055581  -0.000728   0.002737   0.000445   0.294808   0.001704
     4  C    0.001111  -0.000132  -0.000008   0.000104  -0.027725  -0.025224
     5  C    0.000171   0.000003   0.000006   0.000002   0.000267   0.337768
     6  S    0.000004   0.000007   0.000001  -0.000001  -0.000263  -0.011456
     7  C   -0.000079   0.001009  -0.000011  -0.000015   0.004516   0.009668
     8  O    0.000000   0.000000   0.000000   0.000000   0.000001   0.000505
     9  O    0.000000   0.000000   0.000000   0.000000   0.000002  -0.000456
    10  C   -0.000076   0.000026   0.000002  -0.000005  -0.011010  -0.005442
    11  C   -0.000007   0.000000   0.000000   0.000000   0.008404  -0.001243
    12  C    0.000002   0.000000   0.000000   0.000000  -0.000390   0.006529
    13  C   -0.000018   0.000000   0.000000   0.000000   0.000634   0.000098
    14  C    0.000000   0.000000   0.000000   0.000000   0.000012  -0.000138
    15  C    0.000000   0.000000   0.000000   0.000000   0.000000   0.000296
    16  C    0.000000   0.000000   0.000000   0.000000  -0.000001   0.001547
    17  C    0.000000   0.000000   0.000000   0.000000   0.000018   0.005822
    18  O   -0.040053  -0.001252   0.000192   0.001837   0.000668   0.000209
    19  O    8.229552   0.001740  -0.000414  -0.000251   0.006131  -0.000003
    20  H    0.001740   0.488355  -0.019325  -0.022093  -0.000038   0.000000
    21  H   -0.000414  -0.019325   0.467439  -0.018043  -0.000061   0.000000
    22  H   -0.000251  -0.022093  -0.018043   0.477031  -0.000003   0.000000
    23  H    0.006131  -0.000038  -0.000061  -0.000003   0.351953   0.000293
    24  H   -0.000003   0.000000   0.000000   0.000000   0.000293   0.461594
    25  H   -0.000488   0.000000   0.000002  -0.000004  -0.000153  -0.014566
    26  H    0.000001   0.000003   0.000001   0.000000  -0.000032  -0.000237
    27  H    0.000028   0.001590   0.000038   0.000050   0.000044  -0.000221
    28  H    0.000000  -0.000001   0.000000   0.000000   0.000207  -0.000565
    29  H    0.000001   0.000008   0.000000   0.000004  -0.000173   0.000132
    30  H    0.000000   0.000000   0.000000   0.000000  -0.000322   0.000005
    31  H   -0.000021   0.000000   0.000000  -0.000003   0.009176   0.000063
    32  H    0.000051   0.000000   0.000000   0.000000   0.001313   0.000052
    33  H    0.000000   0.000000   0.000000   0.000000  -0.000001   0.000006
    34  H    0.000000   0.000000   0.000000   0.000000   0.000000   0.000000
    35  H    0.000000   0.000000   0.000000   0.000000   0.000000   0.000016
    36  H    0.000000   0.000000   0.000000   0.000000  -0.000001   0.000050
              25         26         27         28         29         30
     1  C    0.000066  -0.000012  -0.002130   0.000001   0.000003   0.000000
     2  S    0.001830   0.000244   0.008088   0.000047  -0.000059   0.000007
     3  N   -0.005429   0.001349  -0.005601   0.004374  -0.001066   0.000145
     4  C   -0.021288  -0.027329  -0.023278  -0.034075  -0.035388   0.004821
     5  C    0.324177   0.009994   0.002371  -0.004223   0.005964  -0.000078
     6  S   -0.002107  -0.010652  -0.001400   0.009145  -0.000428   0.000034
     7  C    0.002521   0.343955   0.324292  -0.006132  -0.007232  -0.000117
     8  O    0.000040   0.000647   0.000556   0.000040   0.000002   0.000000
     9  O    0.001204  -0.000577   0.001192   0.011094   0.000132  -0.000001
    10  C    0.003650  -0.005030   0.003799   0.362003   0.357571  -0.034069
    11  C    0.000003   0.000194  -0.000103  -0.031837  -0.030282   0.364100
    12  C   -0.000012   0.000011   0.000002  -0.006027   0.004501  -0.028887
    13  C    0.000011   0.000000   0.000000   0.000045  -0.000099   0.002207
    14  C   -0.000045   0.000000   0.000000   0.000006   0.000002  -0.000212
    15  C   -0.000008   0.000000   0.000000   0.000001   0.000000   0.000027
    16  C    0.000005   0.000000   0.000000  -0.000109   0.000002   0.000006
    17  C    0.000087   0.000000   0.000000   0.003596   0.000064  -0.004882
    18  O    0.013841   0.000222   0.010042   0.000002   0.000003   0.000000
    19  O   -0.000488   0.000001   0.000028   0.000000   0.000001   0.000000
    20  H    0.000000   0.000003   0.001590  -0.000001   0.000008   0.000000
    21  H    0.000002   0.000001   0.000038   0.000000   0.000000   0.000000
    22  H   -0.000004   0.000000   0.000050   0.000000   0.000004   0.000000
    23  H   -0.000153  -0.000032   0.000044   0.000207  -0.000173  -0.000322
    24  H   -0.014566  -0.000237  -0.000221  -0.000565   0.000132   0.000005
    25  H    0.461677  -0.000259  -0.000155   0.000128  -0.000110   0.000003
    26  H   -0.000259   0.479617  -0.017290  -0.000060   0.004361  -0.000016
    27  H   -0.000155  -0.017290   0.466882   0.000116   0.000051   0.000002
    28  H    0.000128  -0.000060   0.000116   0.524832  -0.026211  -0.003187
    29  H   -0.000110   0.004361   0.000051  -0.026211   0.566317  -0.004399
    30  H    0.000003  -0.000016   0.000002  -0.003187  -0.004399   0.555444
    31  H    0.000004   0.000006   0.000000   0.004643  -0.002191  -0.031136
    32  H    0.000005   0.000000   0.000000   0.000004  -0.000016   0.000126
    33  H    0.000000   0.000000   0.000000   0.000000   0.000000   0.000003
    34  H    0.000000   0.000000   0.000000   0.000000   0.000000   0.000000
    35  H    0.000000   0.000000   0.000000   0.000003   0.000000  -0.000002
    36  H    0.000001   0.000000   0.000000   0.002411  -0.000099   0.002482
              31         32         33         34         35         36
     1  C    0.000002   0.000000   0.000000   0.000000   0.000000   0.000000
     2  S    0.000000   0.000142   0.000000   0.000000   0.000000   0.000000
     3  N    0.001609   0.000098   0.000000   0.000000   0.000000   0.000000
     4  C   -0.009482  -0.000023   0.000000   0.000000   0.000000   0.000107
     5  C    0.000082  -0.000018  -0.000004   0.000000  -0.000006  -0.000021
     6  S   -0.000027   0.000002   0.000000   0.000000   0.000000   0.000061
     7  C   -0.000036   0.000001   0.000000   0.000000   0.000000  -0.000002
     8  O    0.000000   0.000000   0.000000   0.000000   0.000000   0.000000
     9  O   -0.000002   0.000000   0.000000   0.000000  -0.000001   0.000148
    10  C   -0.037047   0.000113   0.000001   0.000000   0.000001   0.000573
    11  C    0.359824  -0.010555  -0.000174   0.000007  -0.000175  -0.008010
    12  C   -0.039191  -0.047477   0.003798   0.000691   0.003628  -0.047782
    13  C   -0.004630   0.355764  -0.038300   0.004678   0.000795   0.005763
    14  C    0.000254  -0.042244   0.359554  -0.042081   0.004525   0.000320
    15  C   -0.000006   0.004804  -0.041977   0.361712  -0.041950   0.004724
    16  C   -0.000163   0.000321   0.004496  -0.041966   0.360420  -0.041719
    17  C    0.004656   0.006143   0.000753   0.004637  -0.039158   0.359534
    18  O    0.000003  -0.000001   0.000000   0.000000   0.000000   0.000000
    19  O   -0.000021   0.000051   0.000000   0.000000   0.000000   0.000000
    20  H    0.000000   0.000000   0.000000   0.000000   0.000000   0.000000
    21  H    0.000000   0.000000   0.000000   0.000000   0.000000   0.000000
    22  H   -0.000003   0.000000   0.000000   0.000000   0.000000   0.000000
    23  H    0.009176   0.001313  -0.000001   0.000000   0.000000  -0.000001
    24  H    0.000063   0.000052   0.000006   0.000000   0.000016   0.000050
    25  H    0.000004   0.000005   0.000000   0.000000   0.000000   0.000001
    26  H    0.000006   0.000000   0.000000   0.000000   0.000000   0.000000
    27  H    0.000000   0.000000   0.000000   0.000000   0.000000   0.000000
    28  H    0.004643   0.000004   0.000000   0.000000   0.000003   0.002411
    29  H   -0.002191  -0.000016   0.000000   0.000000   0.000000  -0.000099
    30  H   -0.031136   0.000126   0.000003   0.000000  -0.000002   0.002482
    31  H    0.585959   0.006088  -0.000008   0.000000   0.000003   0.000029
    32  H    0.006088   0.597399  -0.005440  -0.000174   0.000017  -0.000170
    33  H   -0.000008  -0.005440   0.576531  -0.005331  -0.000177   0.000017
    34  H    0.000000  -0.000174  -0.005331   0.578365  -0.005249  -0.000172
    35  H    0.000003   0.000017  -0.000177  -0.005249   0.575908  -0.005368
    36  H    0.000029  -0.000170   0.000017  -0.000172  -0.005368   0.583401
 Mulliken charges:
               1
     1  C   -0.616389
     2  S    1.192862
     3  N   -0.739589
     4  C    0.194742
     5  C   -0.502183
     6  S    1.108178
     7  C   -0.504667
     8  O   -0.527373
     9  O   -0.555422
    10  C   -0.294824
    11  C   -0.382799
    12  C    0.160798
    13  C   -0.199887
    14  C   -0.132406
    15  C   -0.139875
    16  C   -0.134049
    17  C   -0.188864
    18  O   -0.563440
    19  O   -0.537633
    20  H    0.215304
    21  H    0.229286
    22  H    0.223855
    23  H    0.370970
    24  H    0.233006
    25  H    0.235367
    26  H    0.220889
    27  H    0.231037
    28  H    0.189729
    29  H    0.168636
    30  H    0.177900
    31  H    0.151541
    32  H    0.133672
    33  H    0.146252
    34  H    0.144884
    35  H    0.146770
    36  H    0.143721
 Sum of Mulliken charges =   0.00000
 Mulliken charges with hydrogens summed into heavy atoms:
               1
     1  C    0.052056
     2  S    1.192862
     3  N   -0.368619
     4  C    0.194742
     5  C   -0.033810
     6  S    1.108178
     7  C   -0.052742
     8  O   -0.527373
     9  O   -0.555422
    10  C    0.063540
    11  C   -0.053357
    12  C    0.160798
    13  C   -0.066215
    14  C    0.013846
    15  C    0.005009
    16  C    0.012722
    17  C   -0.045143
    18  O   -0.563440
    19  O   -0.537633
 Electronic spatial extent (au):  <R**2>=           6086.6373
 Charge=              0.0000 electrons
 Dipole moment (field-independent basis, Debye):
    X=              0.3177    Y=             -4.7832    Z=              6.1809  Tot=              7.8220
 Quadrupole moment (field-independent basis, Debye-Ang):
   XX=           -109.6226   YY=           -149.2715   ZZ=           -124.6351
   XY=             -0.7724   XZ=             17.9051   YZ=              2.6858
 Traceless Quadrupole moment (field-independent basis, Debye-Ang):
   XX=             18.2205   YY=            -21.4285   ZZ=              3.2079
   XY=             -0.7724   XZ=             17.9051   YZ=              2.6858
 Octapole moment (field-independent basis, Debye-Ang**2):
  XXX=             82.3591  YYY=            -54.5416  ZZZ=              8.8675  XYY=             -0.0393
  XXY=              0.1131  XXZ=             16.4595  XZZ=             -9.0375  YZZ=             -5.6140
  YYZ=             26.5949  XYZ=             -7.7346
 Hexadecapole moment (field-independent basis, Debye-Ang**3):
 XXXX=          -4290.1283 YYYY=          -2565.3572 ZZZZ=           -877.5594 XXXY=           -216.5319
 XXXZ=            197.3405 YYYX=             22.0869 YYYZ=             24.1886 ZZZX=              9.4066
 ZZZY=             19.4948 XXYY=          -1191.3619 XXZZ=           -921.8183 YYZZ=           -543.7131
 XXYZ=             20.1234 YYXZ=             88.5594 ZZXY=             -3.7231
 N-N= 1.888413765186D+03 E-N=-7.583261111277D+03  KE= 1.608844929780D+03
 No NMR shielding tensors so no spin-rotation constants.
 Leave Link  601 at Sat Aug  8 00:26:12 2020, MaxMem=    33554432 cpu:         0.3
 (Enter /prod/apps/gaussian/g09d1/l9999.exe)
 1\1\GINC-PIRINEUS23\SP\RB3LYP\6-31G(d)\C12H17N1O4S2\UBAFAR01\08-Aug-20
 20\0\\#p b3lyp/6-31G(d) scrf=(iefpcm,read,solvent=n-Octanol) geom=allc
 heck guess=read\\SM38.n.9.pdb.xyz\\0,1\C,0,6.269,-0.012,-0.572\S,0,4.9
 83,-0.639,0.51\N,0,3.646,-0.757,-0.506\C,0,3.051,-2.017,-0.961\C,0,2.6
 ,-3.039,0.149\S,0,3.273,-4.398,-0.859\C,0,4.071,-2.967,-1.667\O,0,4.2,
 -5.298,-0.159\O,0,2.231,-4.976,-1.731\C,0,1.916,-1.675,-1.949\C,0,0.76
 1,-0.782,-1.451\C,0,-0.138,-1.373,-0.384\C,0,-0.188,-0.815,0.898\C,0,-
 1.014,-1.354,1.886\C,0,-1.808,-2.464,1.602\C,0,-1.776,-3.026,0.323\C,0
 ,-0.952,-2.482,-0.661\O,0,5.374,-1.988,0.943\O,0,4.67,0.402,1.494\H,0,
 6.424,-0.715,-1.39\H,0,7.175,0.081,0.028\H,0,5.957,0.96,-0.95\H,0,2.97
 1,-0.045,-0.24\H,0,1.535,-3.113,0.351\H,0,3.192,-2.95,1.058\H,0,4.054,
 -2.984,-2.757\H,0,5.083,-2.879,-1.276\H,0,1.514,-2.629,-2.305\H,0,2.38
 ,-1.183,-2.81\H,0,0.159,-0.547,-2.337\H,0,1.144,0.184,-1.102\H,0,0.422
 ,0.055,1.123\H,0,-1.036,-0.905,2.874\H,0,-2.451,-2.888,2.368\H,0,-2.39
 7,-3.884,0.091\H,0,-0.939,-2.925,-1.653\\Version=AM64L-G09RevD.01\Stat
 e=1-A\HF=-1619.4147081\RMSD=4.383e-09\Dipole=-0.3822803,2.6540601,-1.5
 100798\Quadrupole=9.728554,-12.3135463,2.5849922,9.1695038,-11.7178465
 ,-7.4275991\PG=C01 [X(C12H17N1O4S2)]\\@


 MICRO CREDO - NEVER TRUST A COMPUTER BIGGER
               BIGGER THAN YOU CAN LIFT.
 Job cpu time:       0 days  0 hours  4 minutes 10.9 seconds.
 File lengths (MBytes):  RWF=    178 Int=      0 D2E=      0 Chk=      6 Scr=      1
 Normal termination of Gaussian 09 at Sat Aug  8 00:26:17 2020.
