 Entering Gaussian System, Link 0=g09
 Initial command:
 /prod/apps/gaussian/g09d1/l1.exe "/tmp/ubafar01/1448984/Gau-51457.inp" -scrdir="/tmp/ubafar01/1448984/"
 Entering Link 1 = /prod/apps/gaussian/g09d1/l1.exe PID=     51461.
  
 Copyright (c) 1988,1990,1992,1993,1995,1998,2003,2009,2013,
            Gaussian, Inc.  All Rights Reserved.
  
 This is part of the Gaussian(R) 09 program.  It is based on
 the Gaussian(R) 03 system (copyright 2003, Gaussian, Inc.),
 the Gaussian(R) 98 system (copyright 1998, Gaussian, Inc.),
 the Gaussian(R) 94 system (copyright 1995, Gaussian, Inc.),
 the Gaussian 92(TM) system (copyright 1992, Gaussian, Inc.),
 the Gaussian 90(TM) system (copyright 1990, Gaussian, Inc.),
 the Gaussian 88(TM) system (copyright 1988, Gaussian, Inc.),
 the Gaussian 86(TM) system (copyright 1986, Carnegie Mellon
 University), and the Gaussian 82(TM) system (copyright 1983,
 Carnegie Mellon University). Gaussian is a federally registered
 trademark of Gaussian, Inc.
  
 This software contains proprietary and confidential information,
 including trade secrets, belonging to Gaussian, Inc.
  
 This software is provided under written license and may be
 used, copied, transmitted, or stored only in accord with that
 written license.
  
 The following legend is applicable only to US Government
 contracts under FAR:
  
                    RESTRICTED RIGHTS LEGEND
  
 Use, reproduction and disclosure by the US Government is
 subject to restrictions as set forth in subparagraphs (a)
 and (c) of the Commercial Computer Software - Restricted
 Rights clause in FAR 52.227-19.
  
 Gaussian, Inc.
 340 Quinnipiac St., Bldg. 40, Wallingford CT 06492
  
  
 ---------------------------------------------------------------
 Warning -- This program may not be used in any manner that
 competes with the business of Gaussian, Inc. or will provide
 assistance to any competitor of Gaussian, Inc.  The licensee
 of this program is prohibited from giving any competitor of
 Gaussian, Inc. access to this program.  By using this program,
 the user acknowledges that Gaussian, Inc. is engaged in the
 business of creating and licensing software in the field of
 computational chemistry and represents and warrants to the
 licensee that it is not a competitor of Gaussian, Inc. and that
 it will not use this program in any manner prohibited above.
 ---------------------------------------------------------------
  

 Cite this work as:
 Gaussian 09, Revision D.01,
 M. J. Frisch, G. W. Trucks, H. B. Schlegel, G. E. Scuseria, 
 M. A. Robb, J. R. Cheeseman, G. Scalmani, V. Barone, B. Mennucci, 
 G. A. Petersson, H. Nakatsuji, M. Caricato, X. Li, H. P. Hratchian, 
 A. F. Izmaylov, J. Bloino, G. Zheng, J. L. Sonnenberg, M. Hada, 
 M. Ehara, K. Toyota, R. Fukuda, J. Hasegawa, M. Ishida, T. Nakajima, 
 Y. Honda, O. Kitao, H. Nakai, T. Vreven, J. A. Montgomery, Jr., 
 J. E. Peralta, F. Ogliaro, M. Bearpark, J. J. Heyd, E. Brothers, 
 K. N. Kudin, V. N. Staroverov, T. Keith, R. Kobayashi, J. Normand, 
 K. Raghavachari, A. Rendell, J. C. Burant, S. S. Iyengar, J. Tomasi, 
 M. Cossi, N. Rega, J. M. Millam, M. Klene, J. E. Knox, J. B. Cross, 
 V. Bakken, C. Adamo, J. Jaramillo, R. Gomperts, R. E. Stratmann, 
 O. Yazyev, A. J. Austin, R. Cammi, C. Pomelli, J. W. Ochterski, 
 R. L. Martin, K. Morokuma, V. G. Zakrzewski, G. A. Voth, 
 P. Salvador, J. J. Dannenberg, S. Dapprich, A. D. Daniels, 
 O. Farkas, J. B. Foresman, J. V. Ortiz, J. Cioslowski, 
 and D. J. Fox, Gaussian, Inc., Wallingford CT, 2013.
 
 ******************************************
 Gaussian 09:  AM64L-G09RevD.01 24-Apr-2013
                 7-Aug-2020 
 ******************************************
 %nproc=1
 Will use up to    1 processors via shared memory.
 %Chk=SM38.n.13.pdb.xyz.mst.n.w.chk
 -----------------
 #p b3lyp/6-31G(d)
 -----------------
 1/38=1/1;
 2/12=2,17=6,18=5,40=1/2;
 3/5=1,6=6,7=1,11=2,16=1,25=1,30=1,74=-5/1,2,3;
 4//1;
 5/5=2,38=5/2;
 6/7=2,8=2,9=2,10=2,28=1/1;
 99/5=1,9=1/99;
 Leave Link    1 at Fri Aug  7 23:23:41 2020, MaxMem=           0 cpu:         0.0
 (Enter /prod/apps/gaussian/g09d1/l101.exe)
 -----------------
 SM38.n.13.pdb.xyz
 -----------------
 Symbolic Z-matrix:
 Charge =  0 Multiplicity = 1
 C                     1.994     1.124    -0.911 
 S                     2.717    -0.074     0.218 
 N                     3.462    -1.281    -0.674 
 C                     2.758    -2.448    -1.253 
 C                     2.284    -3.399    -0.106 
 S                     3.794    -4.397    -0.3 
 C                     3.883    -3.379    -1.813 
 O                     4.84     -4.035     0.678 
 O                     3.547    -5.829    -0.553 
 C                     1.673    -2.052    -2.269 
 C                     0.924    -3.202    -2.966 
 C                    -0.145    -2.681    -3.903 
 C                     0.162    -2.347    -5.229 
 C                    -0.819    -1.843    -6.085 
 C                    -2.126    -1.665    -5.626 
 C                    -2.444    -1.995    -4.307 
 C                    -1.46     -2.498    -3.454 
 O                     3.8       0.614     0.934 
 O                     1.632    -0.709     0.982 
 H                     2.783     1.524    -1.547 
 H                     1.564     1.914    -0.295 
 H                     1.224     0.638    -1.505 
 H                     4.167    -0.878    -1.292 
 H                     1.422    -4.004    -0.383 
 H                     2.15     -2.942     0.87 
 H                     3.569    -3.973    -2.672 
 H                     4.857    -2.926    -1.991 
 H                     2.143    -1.417    -3.027 
 H                     0.938    -1.434    -1.744 
 H                     0.46     -3.849    -2.216 
 H                     1.63     -3.819    -3.532 
 H                     1.175    -2.49     -5.595 
 H                    -0.563    -1.595    -7.11 
 H                    -2.89     -1.276    -6.291 
 H                    -3.458    -1.865    -3.943 
 H                    -1.714    -2.759    -2.431 
 
 NAtoms=     36 NQM=       36 NQMF=       0 NMMI=      0 NMMIF=      0
                NMic=       0 NMicF=      0.
                    Isotopes and Nuclear Properties:
 (Nuclear quadrupole moments (NQMom) in fm**2, nuclear magnetic moments (NMagM)
  in nuclear magnetons)

  Atom         1           2           3           4           5           6           7           8           9          10
 IAtWgt=          12          32          14          12          12          32          12          16          16          12
 AtmWgt=  12.0000000  31.9720718  14.0030740  12.0000000  12.0000000  31.9720718  12.0000000  15.9949146  15.9949146  12.0000000
 NucSpn=           0           0           2           0           0           0           0           0           0           0
 AtZEff=   0.0000000   0.0000000   0.0000000   0.0000000   0.0000000   0.0000000   0.0000000   0.0000000   0.0000000   0.0000000
 NQMom=    0.0000000   0.0000000   2.0440000   0.0000000   0.0000000   0.0000000   0.0000000   0.0000000   0.0000000   0.0000000
 NMagM=    0.0000000   0.0000000   0.4037610   0.0000000   0.0000000   0.0000000   0.0000000   0.0000000   0.0000000   0.0000000
 AtZNuc=   6.0000000  16.0000000   7.0000000   6.0000000   6.0000000  16.0000000   6.0000000   8.0000000   8.0000000   6.0000000

  Atom        11          12          13          14          15          16          17          18          19          20
 IAtWgt=          12          12          12          12          12          12          12          16          16           1
 AtmWgt=  12.0000000  12.0000000  12.0000000  12.0000000  12.0000000  12.0000000  12.0000000  15.9949146  15.9949146   1.0078250
 NucSpn=           0           0           0           0           0           0           0           0           0           1
 AtZEff=   0.0000000   0.0000000   0.0000000   0.0000000   0.0000000   0.0000000   0.0000000   0.0000000   0.0000000   0.0000000
 NQMom=    0.0000000   0.0000000   0.0000000   0.0000000   0.0000000   0.0000000   0.0000000   0.0000000   0.0000000   0.0000000
 NMagM=    0.0000000   0.0000000   0.0000000   0.0000000   0.0000000   0.0000000   0.0000000   0.0000000   0.0000000   2.7928460
 AtZNuc=   6.0000000   6.0000000   6.0000000   6.0000000   6.0000000   6.0000000   6.0000000   8.0000000   8.0000000   1.0000000

  Atom        21          22          23          24          25          26          27          28          29          30
 IAtWgt=           1           1           1           1           1           1           1           1           1           1
 AtmWgt=   1.0078250   1.0078250   1.0078250   1.0078250   1.0078250   1.0078250   1.0078250   1.0078250   1.0078250   1.0078250
 NucSpn=           1           1           1           1           1           1           1           1           1           1
 AtZEff=   0.0000000   0.0000000   0.0000000   0.0000000   0.0000000   0.0000000   0.0000000   0.0000000   0.0000000   0.0000000
 NQMom=    0.0000000   0.0000000   0.0000000   0.0000000   0.0000000   0.0000000   0.0000000   0.0000000   0.0000000   0.0000000
 NMagM=    2.7928460   2.7928460   2.7928460   2.7928460   2.7928460   2.7928460   2.7928460   2.7928460   2.7928460   2.7928460
 AtZNuc=   1.0000000   1.0000000   1.0000000   1.0000000   1.0000000   1.0000000   1.0000000   1.0000000   1.0000000   1.0000000

  Atom        31          32          33          34          35          36
 IAtWgt=           1           1           1           1           1           1
 AtmWgt=   1.0078250   1.0078250   1.0078250   1.0078250   1.0078250   1.0078250
 NucSpn=           1           1           1           1           1           1
 AtZEff=   0.0000000   0.0000000   0.0000000   0.0000000   0.0000000   0.0000000
 NQMom=    0.0000000   0.0000000   0.0000000   0.0000000   0.0000000   0.0000000
 NMagM=    2.7928460   2.7928460   2.7928460   2.7928460   2.7928460   2.7928460
 AtZNuc=   1.0000000   1.0000000   1.0000000   1.0000000   1.0000000   1.0000000
 Leave Link  101 at Fri Aug  7 23:23:41 2020, MaxMem=    33554432 cpu:         0.1
 (Enter /prod/apps/gaussian/g09d1/l202.exe)
                          Input orientation:                          
 ---------------------------------------------------------------------
 Center     Atomic      Atomic             Coordinates (Angstroms)
 Number     Number       Type             X           Y           Z
 ---------------------------------------------------------------------
      1          6           0        1.994000    1.124000   -0.911000
      2         16           0        2.717000   -0.074000    0.218000
      3          7           0        3.462000   -1.281000   -0.674000
      4          6           0        2.758000   -2.448000   -1.253000
      5          6           0        2.284000   -3.399000   -0.106000
      6         16           0        3.794000   -4.397000   -0.300000
      7          6           0        3.883000   -3.379000   -1.813000
      8          8           0        4.840000   -4.035000    0.678000
      9          8           0        3.547000   -5.829000   -0.553000
     10          6           0        1.673000   -2.052000   -2.269000
     11          6           0        0.924000   -3.202000   -2.966000
     12          6           0       -0.145000   -2.681000   -3.903000
     13          6           0        0.162000   -2.347000   -5.229000
     14          6           0       -0.819000   -1.843000   -6.085000
     15          6           0       -2.126000   -1.665000   -5.626000
     16          6           0       -2.444000   -1.995000   -4.307000
     17          6           0       -1.460000   -2.498000   -3.454000
     18          8           0        3.800000    0.614000    0.934000
     19          8           0        1.632000   -0.709000    0.982000
     20          1           0        2.783000    1.524000   -1.547000
     21          1           0        1.564000    1.914000   -0.295000
     22          1           0        1.224000    0.638000   -1.505000
     23          1           0        4.167000   -0.878000   -1.292000
     24          1           0        1.422000   -4.004000   -0.383000
     25          1           0        2.150000   -2.942000    0.870000
     26          1           0        3.569000   -3.973000   -2.672000
     27          1           0        4.857000   -2.926000   -1.991000
     28          1           0        2.143000   -1.417000   -3.027000
     29          1           0        0.938000   -1.434000   -1.744000
     30          1           0        0.460000   -3.849000   -2.216000
     31          1           0        1.630000   -3.819000   -3.532000
     32          1           0        1.175000   -2.490000   -5.595000
     33          1           0       -0.563000   -1.595000   -7.110000
     34          1           0       -2.890000   -1.276000   -6.291000
     35          1           0       -3.458000   -1.865000   -3.943000
     36          1           0       -1.714000   -2.759000   -2.431000
 ---------------------------------------------------------------------
                    Distance matrix (angstroms):
                    1          2          3          4          5
     1  C    0.000000
     2  S    1.797936   0.000000
     3  N    2.827582   1.675571   0.000000
     4  C    3.668766   2.793098   1.480792   0.000000
     5  C    4.603222   3.368693   2.489223   1.563549   0.000000
     6  S    5.839072   4.485151   3.155876   2.404185   1.820368
     7  C    4.965776   4.050622   2.424080   1.563965   2.339028
     8  O    6.102452   4.517549   3.363228   3.253007   2.748143
     9  O    7.133315   5.865438   4.550403   3.541706   2.774865
    10  C    3.469032   3.344785   2.517734   1.538277   2.620362
    11  C    4.907362   4.810103   3.922365   2.620389   3.173013
    12  C    5.292014   5.654214   5.039533   3.937537   4.564293
    13  C    5.835168   6.431513   5.724891   4.749526   5.643998
    14  C    6.594417   7.440461   6.922552   6.042283   6.913623
    15  C    6.854498   7.754887   7.476330   6.602248   7.274975
    16  C    6.399752   7.127537   6.970604   6.049209   6.478704
    17  C    5.613898   6.066852   5.782350   4.757985   5.102788
    18  O    2.631684   1.469316   2.508173   3.904430   4.414071
    19  O    2.659771   1.471104   2.533460   3.047494   2.974046
    20  H    1.089503   2.381845   3.015161   3.982944   5.153776
    21  H    1.090163   2.354723   3.735515   4.622818   5.364894
    22  H    1.087167   2.388456   3.062967   3.455439   4.402064
    23  H    2.979110   2.242547   1.020469   2.109906   3.362696
    24  H    5.186748   4.181283   3.414822   2.227764   1.088944
    25  H    4.441695   2.995333   2.619962   2.262925   1.085993
    26  H    5.617932   4.927495   3.354149   2.235376   2.926612
    27  H    5.075989   4.194423   2.527160   2.275726   3.224482
    28  H    3.310036   3.558532   2.700901   2.142023   3.532767
    29  H    2.890050   2.977228   2.745703   2.140485   2.890672
    30  H    5.365343   5.026831   4.240801   2.858492   2.825168
    31  H    5.606727   5.410092   4.238612   2.888921   3.513060
    32  H    5.972572   6.481187   5.559523   4.621755   5.673207
    33  H    7.235939   8.171378   7.597455   6.786833   7.772763
    34  H    7.652311   8.674695   8.479305   7.658651   8.338563
    35  H    6.917474   7.658474   7.675534   6.798135   7.074340
    36  H    5.580085   5.818951   5.662377   4.634996   4.668964
                    6          7          8          9         10
     6  S    0.000000
     7  C    1.825764   0.000000
     8  O    1.477039   2.747957   0.000000
     9  O    1.475006   2.775427   2.530938   0.000000
    10  C    3.724866   2.617817   4.758885   4.552171   0.000000
    11  C    4.095422   3.180632   5.413657   4.427621   1.539256
    12  C    5.607315   4.591306   6.904281   5.896038   2.524029
    13  C    6.456699   5.155572   7.721766   6.741478   3.336427
    14  C    7.827446   6.535907   9.086656   8.096492   4.562412
    15  C    8.418818   7.320167   9.689297   8.675088   5.084449
    16  C    7.793478   6.940203   9.059166   8.042646   4.594168
    17  C    6.415484   5.658329   7.689330   6.676931   3.379176
    18  O    5.160709   4.847365   4.770779   6.617207   4.678771
    19  O    4.463083   4.473022   4.630978   5.677838   3.517717
    20  H    6.134767   5.031915   6.331221   7.459111   3.813287
    21  H    6.693403   5.974775   6.860722   7.997056   4.431446
    22  H    5.779978   4.827156   6.299038   6.937198   2.832207
    23  H    3.675126   2.570428   3.781597   5.044098   2.924524
    24  H    2.405768   2.914112   3.579023   2.806270   2.725858
    25  H    2.487702   3.223778   2.909916   3.508747   3.297416
    26  H    2.420080   1.090556   3.583544   2.816981   2.729005
    27  H    2.480583   1.088838   2.890282   3.494475   3.313460
    28  H    4.363798   2.889782   5.277761   5.249537   1.094847
    29  H    4.361335   3.529987   5.277963   5.247989   1.094429
    30  H    3.884188   3.478540   5.253021   4.026852   2.168729
    31  H    3.932277   2.867851   5.298571   4.073012   2.172397
    32  H    6.207482   4.735727   7.427636   6.495927   3.391478
    33  H    8.556328   7.141973   9.787694   8.821174   5.351993
    34  H    9.503083   8.387409  10.767170   9.751381   6.131854
    35  H    8.501410   7.792264   9.742656   8.733580   5.400408
    36  H    6.128806   5.665045   7.365390   6.374159   3.463793
                   11         12         13         14         15
    11  C    0.000000
    12  C    1.513992   0.000000
    13  C    2.536304   1.401457   0.000000
    14  C    3.822707   2.432621   1.396106   0.000000
    15  C    4.329026   2.815199   2.420264   1.396644   0.000000
    16  C    3.820805   2.432943   2.786615   2.413506   1.396347
    17  C    2.533222   1.401540   2.409214   2.786049   2.419717
    18  O    6.167920   7.058089   7.745007   8.754334   9.129344
    19  O    4.722607   5.559653   6.589421   7.565438   7.661734
    20  H    5.272999   5.639676   5.950748   6.701085   7.134861
    21  H    5.806660   6.087066   6.668289   7.301906   7.405734
    22  H    4.119481   4.317444   4.889401   5.595142   5.788692
    23  H    4.326696   5.353641   5.804994   6.983142   7.681457
    24  H    2.750109   4.073846   5.274179   6.496523   6.748946
    25  H    4.035539   5.302516   6.442357   7.641648   7.881175
    26  H    2.770722   4.120488   4.559580   5.953152   6.818065
    27  H    4.061439   5.360576   5.732618   7.081716   7.972806
    28  H    2.162385   2.756813   3.104523   4.278584   5.004065
    29  H    2.149257   2.718304   3.685237   4.700916   4.950897
    30  H    1.093803   2.139210   3.379789   4.541920   4.804722
    31  H    1.095208   2.140867   2.683583   4.052158   4.809583
    32  H    2.735249   2.154471   1.086542   2.152846   3.402674
    33  H    4.686828   3.411593   2.151578   1.085203   2.156415
    34  H    5.414028   3.900204   3.404349   2.157073   1.085008
    35  H    4.684445   3.412246   3.871759   3.398966   2.155624
    36  H    2.727915   2.152819   3.393807   3.871924   3.402147
                   16         17         18         19         20
    16  C    0.000000
    17  C    1.396021   0.000000
    18  O    8.559351   7.523742   0.000000
    19  O    6.800080   5.695532   2.540247   0.000000
    20  H    6.879134   6.149486   2.831563   3.564678   0.000000
    21  H    6.887706   6.212053   2.863588   2.918130   1.790409
    22  H    5.313955   4.564751   3.547545   2.857629   1.793667
    23  H    7.351410   6.241937   2.704779   3.409672   2.783897
    24  H    5.863430   4.472695   5.358666   3.572723   5.810852
    25  H    6.985913   5.650328   3.920680   2.295029   5.117395
    26  H    6.537727   5.298867   5.839278   5.268527   5.665724
    27  H    7.715907   6.498311   4.712162   4.914717   4.929616
    28  H    4.797192   3.785829   4.749751   4.102983   3.354025
    29  H    4.280375   3.131549   4.422333   2.904882   3.491790
    30  H    4.030237   2.654100   6.402849   4.632536   5.891776
    31  H    4.530461   3.361432   6.656241   5.481633   5.815263
    32  H    3.873129   3.395169   7.691117   6.829183   5.923189
    33  H    3.399260   3.871221   9.413893   8.431102   7.202142
    34  H    2.156880   3.403932  10.026406   8.582919   7.907494
    35  H    1.085169   2.152165   9.088957   7.176354   7.495080
    36  H    2.153131   1.085894   7.287287   5.200652   6.272843
                   21         22         23         24         25
    21  H    0.000000
    22  H    1.791054   0.000000
    23  H    3.945235   3.317359   0.000000
    24  H    5.920357   4.779775   4.258307   0.000000
    25  H    5.028057   4.394827   3.605916   1.796618   0.000000
    26  H    6.657847   5.303040   3.441080   3.138485   3.952504
    27  H    6.094741   5.112434   2.271344   3.942965   3.938709
    28  H    4.346795   2.717365   2.719802   3.768706   4.184768
    29  H    3.701430   2.105256   3.307549   2.948131   3.252077
    30  H    6.174239   4.606776   4.839676   2.075899   3.633476
    31  H    6.584058   4.913086   4.483687   3.161280   4.518532
    32  H    6.901923   5.149261   5.483285   5.433061   6.553713
    33  H    7.954963   6.292510   7.532338   7.415931   8.535524
    34  H    8.121960   6.595012   8.657347   7.806394   8.913870
    35  H    7.266996   5.842087   8.132810   6.408067   7.468237
    36  H    6.094646   4.585731   6.278666   3.947002   5.085330
                   26         27         28         29         30
    26  H    0.000000
    27  H    1.794133   0.000000
    28  H    2.948328   3.273557   0.000000
    29  H    3.772249   4.200671   1.760228   0.000000
    30  H    3.144709   4.498462   3.066730   2.506690   0.000000
    31  H    2.126743   3.685873   2.507548   3.060071   1.761152
    32  H    4.058873   5.170690   2.946689   4.000188   3.711569
    33  H    6.513383   7.573118   4.901531   5.574305   5.484367
    34  H    7.879699   9.012686   6.000389   5.945903   5.869281
    35  H    7.445659   8.606698   5.693063   4.934185   4.719058
    36  H    5.426045   6.587832   4.127061   3.043139   2.441434
                   31         32         33         34         35
    31  H    0.000000
    32  H    2.495844   0.000000
    33  H    4.749475   2.473236   0.000000
    34  H    5.874464   4.299120   2.487459   0.000000
    35  H    5.465783   4.958268   4.299281   2.486493   0.000000
    36  H    3.676702   4.292968   4.957090   4.299054   2.475261
                   36
    36  H    0.000000
 Stoichiometry    C12H17NO4S2
 Framework group  C1[X(C12H17NO4S2)]
 Deg. of freedom   102
 Full point group                 C1      NOp   1
 Largest Abelian subgroup         C1      NOp   1
 Largest concise Abelian subgroup C1      NOp   1
                         Standard orientation:                         
 ---------------------------------------------------------------------
 Center     Atomic      Atomic             Coordinates (Angstroms)
 Number     Number       Type             X           Y           Z
 ---------------------------------------------------------------------
      1          6           0        0.443048    3.328512   -0.468366
      2         16           0        1.817435    2.305301    0.076313
      3          7           0        1.751982    0.835334   -0.725217
      4          6           0        0.907357   -0.307228   -0.308195
      5          6           0        1.453923   -0.905345    1.029043
      6         16           0        2.409818   -2.140523    0.093981
      7          6           0        1.329866   -1.497654   -1.230344
      8          8           0        3.819449   -1.740882   -0.092765
      9          8           0        2.129677   -3.538428    0.472166
     10          6           0       -0.595248    0.022052   -0.315252
     11          6           0       -1.556858   -1.122615    0.051291
     12          6           0       -2.997866   -0.658218    0.052686
     13          6           0       -3.757456   -0.668206   -1.125026
     14          6           0       -5.078375   -0.216236   -1.127898
     15          6           0       -5.661181    0.253976    0.051022
     16          6           0       -4.914448    0.267998    1.230843
     17          6           0       -3.593664   -0.184112    1.229361
     18          8           0        3.047362    2.957375   -0.393759
     19          8           0        1.649316    2.023000    1.510254
     20          1           0        0.510526    3.456923   -1.548169
     21          1           0        0.548921    4.288742    0.036813
     22          1           0       -0.492745    2.849675   -0.190989
     23          1           0        1.774151    0.983351   -1.734651
     24          1           0        0.688842   -1.416716    1.611237
     25          1           0        2.040836   -0.234125    1.649025
     26          1           0        0.524228   -2.207369   -1.421560
     27          1           0        1.852495   -1.247886   -2.152323
     28          1           0       -0.848323    0.399655   -1.311273
     29          1           0       -0.757177    0.843428    0.389656
     30          1           0       -1.304782   -1.514430    1.040908
     31          1           0       -1.444573   -1.947412   -0.660456
     32          1           0       -3.312872   -1.039713   -2.044211
     33          1           0       -5.652089   -0.236634   -2.048822
     34          1           0       -6.688541    0.602935    0.050783
     35          1           0       -5.360501    0.626688    2.152781
     36          1           0       -3.019344   -0.176988    2.150920
 ---------------------------------------------------------------------
 Rotational constants (GHZ):      0.4113882      0.1889286      0.1435870
 Leave Link  202 at Fri Aug  7 23:23:41 2020, MaxMem=    33554432 cpu:         0.0
 (Enter /prod/apps/gaussian/g09d1/l301.exe)
 Standard basis: 6-31G(d) (6D, 7F)
 Ernie: Thresh=  0.10000D-02 Tol=  0.10000D-05 Strict=F.
 There are   327 symmetry adapted cartesian basis functions of A   symmetry.
 There are   327 symmetry adapted basis functions of A   symmetry.
   327 basis functions,   648 primitive gaussians,   327 cartesian basis functions
    80 alpha electrons       80 beta electrons
       nuclear repulsion energy      1821.2765614984 Hartrees.
 IExCor=  402 DFT=T Ex+Corr=B3LYP ExCW=0 ScaHFX=  0.200000
 ScaDFX=  0.800000  0.720000  1.000000  0.810000 ScalE2=  1.000000  1.000000
 IRadAn=      0 IRanWt=     -1 IRanGd=            0 ICorTp=0 IEmpDi=  4
 NAtoms=   36 NActive=   36 NUniq=   36 SFac= 1.00D+00 NAtFMM=   60 NAOKFM=F Big=F
 Integral buffers will be    131072 words long.
 Raffenetti 2 integral format.
 Two-electron integral symmetry is turned on.
 Leave Link  301 at Fri Aug  7 23:23:41 2020, MaxMem=    33554432 cpu:         0.0
 (Enter /prod/apps/gaussian/g09d1/l302.exe)
 NPDir=0 NMtPBC=     1 NCelOv=     1 NCel=       1 NClECP=     1 NCelD=      1
         NCelK=      1 NCelE2=     1 NClLst=     1 CellRange=     0.0.
 One-electron integrals computed using PRISM.
 NBasis=   327 RedAO= T EigKep=  4.67D-04  NBF=   327
 NBsUse=   327 1.00D-06 EigRej= -1.00D+00 NBFU=   327
 Precomputing XC quadrature grid using
 IXCGrd= 4 IRadAn=           0 IRanWt=          -1 IRanGd=           0 AccXCQ= 0.00D+00.
 Generated NRdTot=       0 NPtTot=           0 NUsed=           0 NTot=          32
 NSgBfM=   323   323   323   323   323 MxSgAt=    36 MxSgA2=    36.
 Leave Link  302 at Fri Aug  7 23:23:42 2020, MaxMem=    33554432 cpu:         1.0
 (Enter /prod/apps/gaussian/g09d1/l303.exe)
 DipDrv:  MaxL=1.
 Leave Link  303 at Fri Aug  7 23:23:42 2020, MaxMem=    33554432 cpu:         0.0
 (Enter /prod/apps/gaussian/g09d1/l401.exe)
 ExpMin= 1.17D-01 ExpMax= 2.19D+04 ExpMxC= 3.30D+03 IAcc=1 IRadAn=         1 AccDes= 0.00D+00
 Harris functional with IExCor=  402 and IRadAn=       1 diagonalized for initial guess.
 HarFok:  IExCor=  402 AccDes= 0.00D+00 IRadAn=         1 IDoV= 1 UseB2=F ITyADJ=14
 ICtDFT=  3500011 ScaDFX=  1.000000  1.000000  1.000000  1.000000
 FoFCou: FMM=F IPFlag=           0 FMFlag=      100000 FMFlg1=           0
         NFxFlg=           0 DoJE=T BraDBF=F KetDBF=T FulRan=T
         wScrn=  0.000000 ICntrl=     500 IOpCl=  0 I1Cent=   200000004 NGrid=           0
         NMat0=    1 NMatS0=      1 NMatT0=    0 NMatD0=    1 NMtDS0=    0 NMtDT0=    0
 Petite list used in FoFCou.
 Harris En= -1619.50414494758    
 JPrj=0 DoOrth=F DoCkMO=F.
 Leave Link  401 at Fri Aug  7 23:23:46 2020, MaxMem=    33554432 cpu:         4.0
 (Enter /prod/apps/gaussian/g09d1/l502.exe)
 Closed shell SCF:
 Using DIIS extrapolation, IDIIS=  1040.
 Integral symmetry usage will be decided dynamically.
 IVT=      343772 IEndB=      343772 NGot=    33554432 MDV=    33334557
 LenX=    33334557 LenY=    33227187
 Requested convergence on RMS density matrix=1.00D-08 within 128 cycles.
 Requested convergence on MAX density matrix=1.00D-06.
 Requested convergence on             energy=1.00D-06.
 No special actions if energy rises.
 Fock matrices will be formed incrementally for  20 cycles.
 Integral accuracy reduced to 1.0D-05 until final iterations.

 Cycle   1  Pass 0  IDiag  1:
 FoFJK:  IHMeth= 1 ICntrl=       0 DoSepK=F KAlg= 0 I1Cent=   0 FoldK=F
 IRaf= 770000000 NMat=   1 IRICut=       1 DoRegI=T DoRafI=F ISym2E= 0.
 FoFCou: FMM=F IPFlag=           0 FMFlag=      100000 FMFlg1=           0
         NFxFlg=           0 DoJE=F BraDBF=F KetDBF=F FulRan=T
         wScrn=  0.000000 ICntrl=       0 IOpCl=  0 I1Cent=           0 NGrid=           0
         NMat0=    1 NMatS0=      1 NMatT0=    0 NMatD0=    1 NMtDS0=    0 NMtDT0=    0
 Symmetry not used in FoFCou.
 E= -1618.57693116071    
 DIIS: error= 3.62D-02 at cycle   1 NSaved=   1.
 NSaved= 1 IEnMin= 1 EnMin= -1618.57693116071     IErMin= 1 ErrMin= 3.62D-02
 ErrMax= 3.62D-02  0.00D+00 EMaxC= 1.00D-01 BMatC= 9.46D-01 BMatP= 9.46D-01
 IDIUse=3 WtCom= 6.38D-01 WtEn= 3.62D-01
 Coeff-Com:  0.100D+01
 Coeff-En:   0.100D+01
 Coeff:      0.100D+01
 Gap=     0.374 Goal=   None    Shift=    0.000
 GapD=    0.374 DampG=1.000 DampE=0.500 DampFc=0.5000 IDamp=-1.
 Damping current iteration by 5.00D-01
 RMSDP=7.98D-03 MaxDP=5.73D-01              OVMax= 2.71D-01

 Cycle   2  Pass 0  IDiag  1:
 RMSU=  3.99D-03    CP:  1.00D+00
 E= -1618.72861580286     Delta-E=       -0.151684642158 Rises=F Damp=T
 DIIS: error= 1.79D-02 at cycle   2 NSaved=   2.
 NSaved= 2 IEnMin= 2 EnMin= -1618.72861580286     IErMin= 2 ErrMin= 1.79D-02
 ErrMax= 1.79D-02  0.00D+00 EMaxC= 1.00D-01 BMatC= 1.72D-01 BMatP= 9.46D-01
 IDIUse=3 WtCom= 8.21D-01 WtEn= 1.79D-01
 Coeff-Com:  0.259D+00 0.741D+00
 Coeff-En:   0.409D+00 0.591D+00
 Coeff:      0.285D+00 0.715D+00
 Gap=     0.275 Goal=   None    Shift=    0.000
 RMSDP=2.34D-03 MaxDP=1.22D-01 DE=-1.52D-01 OVMax= 2.18D-01

 Cycle   3  Pass 0  IDiag  1:
 RMSU=  1.78D-03    CP:  9.92D-01  6.21D-01
 E= -1619.29139769543     Delta-E=       -0.562781892568 Rises=F Damp=F
 DIIS: error= 1.22D-02 at cycle   3 NSaved=   3.
 NSaved= 3 IEnMin= 3 EnMin= -1619.29139769543     IErMin= 3 ErrMin= 1.22D-02
 ErrMax= 1.22D-02  0.00D+00 EMaxC= 1.00D-01 BMatC= 9.26D-02 BMatP= 1.72D-01
 IDIUse=3 WtCom= 8.78D-01 WtEn= 1.22D-01
 Coeff-Com:  0.110D+00 0.432D+00 0.459D+00
 Coeff-En:   0.000D+00 0.000D+00 0.100D+01
 Coeff:      0.964D-01 0.379D+00 0.525D+00
 Gap=     0.244 Goal=   None    Shift=    0.000
 RMSDP=1.37D-03 MaxDP=3.87D-02 DE=-5.63D-01 OVMax= 8.21D-02

 Cycle   4  Pass 0  IDiag  1:
 RMSU=  7.93D-04    CP:  9.98D-01  7.07D-01  4.05D-01
 E= -1619.36758439821     Delta-E=       -0.076186702778 Rises=F Damp=F
 DIIS: error= 4.13D-03 at cycle   4 NSaved=   4.
 NSaved= 4 IEnMin= 4 EnMin= -1619.36758439821     IErMin= 4 ErrMin= 4.13D-03
 ErrMax= 4.13D-03  0.00D+00 EMaxC= 1.00D-01 BMatC= 1.28D-02 BMatP= 9.26D-02
 IDIUse=3 WtCom= 9.59D-01 WtEn= 4.13D-02
 Coeff-Com:  0.125D-01 0.652D-01 0.281D+00 0.641D+00
 Coeff-En:   0.000D+00 0.000D+00 0.117D+00 0.883D+00
 Coeff:      0.119D-01 0.625D-01 0.274D+00 0.651D+00
 Gap=     0.240 Goal=   None    Shift=    0.000
 RMSDP=4.50D-04 MaxDP=1.51D-02 DE=-7.62D-02 OVMax= 2.37D-02

 Cycle   5  Pass 0  IDiag  1:
 RMSU=  2.03D-04    CP:  9.97D-01  6.85D-01  5.60D-01  6.48D-01
 E= -1619.37814338930     Delta-E=       -0.010558991089 Rises=F Damp=F
 DIIS: error= 1.52D-03 at cycle   5 NSaved=   5.
 NSaved= 5 IEnMin= 5 EnMin= -1619.37814338930     IErMin= 5 ErrMin= 1.52D-03
 ErrMax= 1.52D-03  0.00D+00 EMaxC= 1.00D-01 BMatC= 1.11D-03 BMatP= 1.28D-02
 IDIUse=3 WtCom= 9.85D-01 WtEn= 1.52D-02
 Coeff-Com:  0.589D-03 0.134D-01 0.129D+00 0.375D+00 0.482D+00
 Coeff-En:   0.000D+00 0.000D+00 0.000D+00 0.000D+00 0.100D+01
 Coeff:      0.580D-03 0.132D-01 0.127D+00 0.369D+00 0.490D+00
 Gap=     0.240 Goal=   None    Shift=    0.000
 RMSDP=1.35D-04 MaxDP=5.40D-03 DE=-1.06D-02 OVMax= 5.93D-03

 Cycle   6  Pass 0  IDiag  1:
 RMSU=  6.39D-05    CP:  9.97D-01  6.89D-01  5.49D-01  7.13D-01  4.89D-01
 E= -1619.37903634559     Delta-E=       -0.000892956295 Rises=F Damp=F
 DIIS: error= 6.13D-04 at cycle   6 NSaved=   6.
 NSaved= 6 IEnMin= 6 EnMin= -1619.37903634559     IErMin= 6 ErrMin= 6.13D-04
 ErrMax= 6.13D-04  0.00D+00 EMaxC= 1.00D-01 BMatC= 1.26D-04 BMatP= 1.11D-03
 IDIUse=3 WtCom= 9.94D-01 WtEn= 6.13D-03
 Coeff-Com: -0.669D-03 0.181D-02 0.473D-01 0.150D+00 0.297D+00 0.505D+00
 Coeff-En:   0.000D+00 0.000D+00 0.000D+00 0.000D+00 0.472D-01 0.953D+00
 Coeff:     -0.665D-03 0.179D-02 0.471D-01 0.149D+00 0.296D+00 0.507D+00
 Gap=     0.240 Goal=   None    Shift=    0.000
 RMSDP=3.98D-05 MaxDP=2.36D-03 DE=-8.93D-04 OVMax= 2.45D-03

 Cycle   7  Pass 0  IDiag  1:
 RMSU=  2.48D-05    CP:  9.97D-01  6.89D-01  5.51D-01  7.11D-01  5.56D-01
                    CP:  5.68D-01
 E= -1619.37912472306     Delta-E=       -0.000088377469 Rises=F Damp=F
 DIIS: error= 1.50D-04 at cycle   7 NSaved=   7.
 NSaved= 7 IEnMin= 7 EnMin= -1619.37912472306     IErMin= 7 ErrMin= 1.50D-04
 ErrMax= 1.50D-04  0.00D+00 EMaxC= 1.00D-01 BMatC= 1.43D-05 BMatP= 1.26D-04
 IDIUse=3 WtCom= 9.98D-01 WtEn= 1.50D-03
 Coeff-Com: -0.464D-03-0.497D-03 0.140D-01 0.472D-01 0.128D+00 0.315D+00
 Coeff-Com:  0.497D+00
 Coeff-En:   0.000D+00 0.000D+00 0.000D+00 0.000D+00 0.000D+00 0.571D-01
 Coeff-En:   0.943D+00
 Coeff:     -0.463D-03-0.496D-03 0.139D-01 0.472D-01 0.128D+00 0.314D+00
 Coeff:      0.498D+00
 Gap=     0.240 Goal=   None    Shift=    0.000
 RMSDP=1.35D-05 MaxDP=5.74D-04 DE=-8.84D-05 OVMax= 6.72D-04

 Cycle   8  Pass 0  IDiag  1:
 RMSU=  7.46D-06    CP:  9.97D-01  6.89D-01  5.52D-01  7.10D-01  5.64D-01
                    CP:  6.23D-01  5.82D-01
 E= -1619.37913612446     Delta-E=       -0.000011401393 Rises=F Damp=F
 DIIS: error= 4.33D-05 at cycle   8 NSaved=   8.
 NSaved= 8 IEnMin= 8 EnMin= -1619.37913612446     IErMin= 8 ErrMin= 4.33D-05
 ErrMax= 4.33D-05  0.00D+00 EMaxC= 1.00D-01 BMatC= 8.81D-07 BMatP= 1.43D-05
 IDIUse=1 WtCom= 1.00D+00 WtEn= 0.00D+00
 Coeff-Com: -0.183D-03-0.460D-03 0.251D-02 0.966D-02 0.388D-01 0.118D+00
 Coeff-Com:  0.266D+00 0.565D+00
 Coeff:     -0.183D-03-0.460D-03 0.251D-02 0.966D-02 0.388D-01 0.118D+00
 Coeff:      0.266D+00 0.565D+00
 Gap=     0.240 Goal=   None    Shift=    0.000
 RMSDP=4.00D-06 MaxDP=1.95D-04 DE=-1.14D-05 OVMax= 1.94D-04

 Initial convergence to 1.0D-05 achieved.  Increase integral accuracy.
 Cycle   9  Pass 1  IDiag  1:
 E= -1619.37909842392     Delta-E=        0.000037700540 Rises=F Damp=F
 DIIS: error= 1.34D-04 at cycle   1 NSaved=   1.
 NSaved= 1 IEnMin= 1 EnMin= -1619.37909842392     IErMin= 1 ErrMin= 1.34D-04
 ErrMax= 1.34D-04  0.00D+00 EMaxC= 1.00D-01 BMatC= 8.99D-07 BMatP= 8.99D-07
 IDIUse=3 WtCom= 9.99D-01 WtEn= 1.34D-03
 Coeff-Com:  0.100D+01
 Coeff-En:   0.100D+01
 Coeff:      0.100D+01
 Gap=     0.240 Goal=   None    Shift=    0.000
 RMSDP=4.00D-06 MaxDP=1.95D-04 DE= 3.77D-05 OVMax= 2.10D-04

 Cycle  10  Pass 1  IDiag  1:
 RMSU=  4.26D-05    CP:  1.00D+00
 E= -1619.37909913039     Delta-E=       -0.000000706478 Rises=F Damp=F
 DIIS: error= 2.60D-05 at cycle   2 NSaved=   2.
 NSaved= 2 IEnMin= 2 EnMin= -1619.37909913039     IErMin= 2 ErrMin= 2.60D-05
 ErrMax= 2.60D-05  0.00D+00 EMaxC= 1.00D-01 BMatC= 3.42D-07 BMatP= 8.99D-07
 IDIUse=1 WtCom= 1.00D+00 WtEn= 0.00D+00
 Coeff-Com:  0.320D+00 0.680D+00
 Coeff:      0.320D+00 0.680D+00
 Gap=     0.240 Goal=   None    Shift=    0.000
 RMSDP=3.54D-06 MaxDP=1.70D-04 DE=-7.06D-07 OVMax= 2.06D-04

 Cycle  11  Pass 1  IDiag  1:
 RMSU=  3.54D-06    CP:  1.00D+00  1.00D+00
 E= -1619.37909905568     Delta-E=        0.000000074717 Rises=F Damp=F
 DIIS: error= 3.28D-05 at cycle   3 NSaved=   3.
 NSaved= 3 IEnMin= 2 EnMin= -1619.37909913039     IErMin= 2 ErrMin= 2.60D-05
 ErrMax= 3.28D-05  0.00D+00 EMaxC= 1.00D-01 BMatC= 4.43D-07 BMatP= 3.42D-07
 IDIUse=1 WtCom= 1.00D+00 WtEn= 0.00D+00
 Coeff-Com:  0.310D-02 0.532D+00 0.465D+00
 Coeff:      0.310D-02 0.532D+00 0.465D+00
 Gap=     0.240 Goal=   None    Shift=    0.000
 RMSDP=2.00D-06 MaxDP=1.04D-04 DE= 7.47D-08 OVMax= 1.29D-04

 Cycle  12  Pass 1  IDiag  1:
 RMSU=  6.38D-07    CP:  1.00D+00  1.01D+00  4.72D-01
 E= -1619.37909939322     Delta-E=       -0.000000337544 Rises=F Damp=F
 DIIS: error= 6.05D-06 at cycle   4 NSaved=   4.
 NSaved= 4 IEnMin= 4 EnMin= -1619.37909939322     IErMin= 4 ErrMin= 6.05D-06
 ErrMax= 6.05D-06  0.00D+00 EMaxC= 1.00D-01 BMatC= 1.10D-08 BMatP= 3.42D-07
 IDIUse=1 WtCom= 1.00D+00 WtEn= 0.00D+00
 Coeff-Com: -0.721D-02 0.309D+00 0.287D+00 0.411D+00
 Coeff:     -0.721D-02 0.309D+00 0.287D+00 0.411D+00
 Gap=     0.240 Goal=   None    Shift=    0.000
 RMSDP=3.42D-07 MaxDP=2.07D-05 DE=-3.38D-07 OVMax= 1.87D-05

 Cycle  13  Pass 1  IDiag  1:
 RMSU=  1.89D-07    CP:  1.00D+00  1.01D+00  4.81D-01  5.56D-01
 E= -1619.37909940215     Delta-E=       -0.000000008926 Rises=F Damp=F
 DIIS: error= 9.75D-07 at cycle   5 NSaved=   5.
 NSaved= 5 IEnMin= 5 EnMin= -1619.37909940215     IErMin= 5 ErrMin= 9.75D-07
 ErrMax= 9.75D-07  0.00D+00 EMaxC= 1.00D-01 BMatC= 4.41D-10 BMatP= 1.10D-08
 IDIUse=1 WtCom= 1.00D+00 WtEn= 0.00D+00
 Coeff-Com: -0.385D-02 0.136D+00 0.128D+00 0.229D+00 0.512D+00
 Coeff:     -0.385D-02 0.136D+00 0.128D+00 0.229D+00 0.512D+00
 Gap=     0.240 Goal=   None    Shift=    0.000
 RMSDP=8.24D-08 MaxDP=3.99D-06 DE=-8.93D-09 OVMax= 4.42D-06

 Cycle  14  Pass 1  IDiag  1:
 RMSU=  7.19D-08    CP:  1.00D+00  1.01D+00  4.82D-01  5.79D-01  8.06D-01
 E= -1619.37909940238     Delta-E=       -0.000000000234 Rises=F Damp=F
 DIIS: error= 2.56D-07 at cycle   6 NSaved=   6.
 NSaved= 6 IEnMin= 6 EnMin= -1619.37909940238     IErMin= 6 ErrMin= 2.56D-07
 ErrMax= 2.56D-07  0.00D+00 EMaxC= 1.00D-01 BMatC= 5.07D-11 BMatP= 4.41D-10
 IDIUse=1 WtCom= 1.00D+00 WtEn= 0.00D+00
 Coeff-Com: -0.120D-02 0.329D-01 0.312D-01 0.710D-01 0.288D+00 0.578D+00
 Coeff:     -0.120D-02 0.329D-01 0.312D-01 0.710D-01 0.288D+00 0.578D+00
 Gap=     0.240 Goal=   None    Shift=    0.000
 RMSDP=2.92D-08 MaxDP=1.13D-06 DE=-2.34D-10 OVMax= 1.65D-06

 Cycle  15  Pass 1  IDiag  1:
 RMSU=  2.23D-08    CP:  1.00D+00  1.01D+00  4.82D-01  5.85D-01  8.50D-01
                    CP:  7.70D-01
 E= -1619.37909940248     Delta-E=       -0.000000000100 Rises=F Damp=F
 DIIS: error= 8.87D-08 at cycle   7 NSaved=   7.
 NSaved= 7 IEnMin= 7 EnMin= -1619.37909940248     IErMin= 7 ErrMin= 8.87D-08
 ErrMax= 8.87D-08  0.00D+00 EMaxC= 1.00D-01 BMatC= 7.65D-12 BMatP= 5.07D-11
 IDIUse=1 WtCom= 1.00D+00 WtEn= 0.00D+00
 Coeff-Com: -0.176D-03 0.665D-03 0.667D-03 0.994D-02 0.970D-01 0.340D+00
 Coeff-Com:  0.552D+00
 Coeff:     -0.176D-03 0.665D-03 0.667D-03 0.994D-02 0.970D-01 0.340D+00
 Coeff:      0.552D+00
 Gap=     0.240 Goal=   None    Shift=    0.000
 RMSDP=1.04D-08 MaxDP=3.91D-07 DE=-1.00D-10 OVMax= 4.15D-07

 Cycle  16  Pass 1  IDiag  1:
 RMSU=  6.05D-09    CP:  1.00D+00  1.01D+00  4.82D-01  5.89D-01  8.58D-01
                    CP:  8.05D-01  6.64D-01
 E= -1619.37909940246     Delta-E=        0.000000000015 Rises=F Damp=F
 DIIS: error= 4.01D-08 at cycle   8 NSaved=   8.
 NSaved= 8 IEnMin= 7 EnMin= -1619.37909940248     IErMin= 8 ErrMin= 4.01D-08
 ErrMax= 4.01D-08  0.00D+00 EMaxC= 1.00D-01 BMatC= 7.10D-13 BMatP= 7.65D-12
 IDIUse=1 WtCom= 1.00D+00 WtEn= 0.00D+00
 Coeff-Com:  0.267D-04-0.305D-02-0.289D-02-0.190D-02 0.252D-01 0.132D+00
 Coeff-Com:  0.306D+00 0.545D+00
 Coeff:      0.267D-04-0.305D-02-0.289D-02-0.190D-02 0.252D-01 0.132D+00
 Coeff:      0.306D+00 0.545D+00
 Gap=     0.240 Goal=   None    Shift=    0.000
 RMSDP=3.32D-09 MaxDP=1.73D-07 DE= 1.50D-11 OVMax= 1.68D-07

 SCF Done:  E(RB3LYP) =  -1619.37909940     A.U. after   16 cycles
            NFock= 16  Conv=0.33D-08     -V/T= 2.0066
 KE= 1.608777388498D+03 PE=-7.448170657104D+03 EE= 2.398737607704D+03
 Leave Link  502 at Fri Aug  7 23:29:04 2020, MaxMem=    33554432 cpu:       317.7
 (Enter /prod/apps/gaussian/g09d1/l601.exe)
 Copying SCF densities to generalized density rwf, IOpCl= 0 IROHF=0.

 **********************************************************************

            Population analysis using the SCF density.

 **********************************************************************

 Orbital symmetries:
       Occupied  (A) (A) (A) (A) (A) (A) (A) (A) (A) (A) (A) (A)
                 (A) (A) (A) (A) (A) (A) (A) (A) (A) (A) (A) (A)
                 (A) (A) (A) (A) (A) (A) (A) (A) (A) (A) (A) (A)
                 (A) (A) (A) (A) (A) (A) (A) (A) (A) (A) (A) (A)
                 (A) (A) (A) (A) (A) (A) (A) (A) (A) (A) (A) (A)
                 (A) (A) (A) (A) (A) (A) (A) (A) (A) (A) (A) (A)
                 (A) (A) (A) (A) (A) (A) (A) (A)
       Virtual   (A) (A) (A) (A) (A) (A) (A) (A) (A) (A) (A) (A)
                 (A) (A) (A) (A) (A) (A) (A) (A) (A) (A) (A) (A)
                 (A) (A) (A) (A) (A) (A) (A) (A) (A) (A) (A) (A)
                 (A) (A) (A) (A) (A) (A) (A) (A) (A) (A) (A) (A)
                 (A) (A) (A) (A) (A) (A) (A) (A) (A) (A) (A) (A)
                 (A) (A) (A) (A) (A) (A) (A) (A) (A) (A) (A) (A)
                 (A) (A) (A) (A) (A) (A) (A) (A) (A) (A) (A) (A)
                 (A) (A) (A) (A) (A) (A) (A) (A) (A) (A) (A) (A)
                 (A) (A) (A) (A) (A) (A) (A) (A) (A) (A) (A) (A)
                 (A) (A) (A) (A) (A) (A) (A) (A) (A) (A) (A) (A)
                 (A) (A) (A) (A) (A) (A) (A) (A) (A) (A) (A) (A)
                 (A) (A) (A) (A) (A) (A) (A) (A) (A) (A) (A) (A)
                 (A) (A) (A) (A) (A) (A) (A) (A) (A) (A) (A) (A)
                 (A) (A) (A) (A) (A) (A) (A) (A) (A) (A) (A) (A)
                 (A) (A) (A) (A) (A) (A) (A) (A) (A) (A) (A) (A)
                 (A) (A) (A) (A) (A) (A) (A) (A) (A) (A) (A) (A)
                 (A) (A) (A) (A) (A) (A) (A) (A) (A) (A) (A) (A)
                 (A) (A) (A) (A) (A) (A) (A) (A) (A) (A) (A) (A)
                 (A) (A) (A) (A) (A) (A) (A) (A) (A) (A) (A) (A)
                 (A) (A) (A) (A) (A) (A) (A) (A) (A) (A) (A) (A)
                 (A) (A) (A) (A) (A) (A) (A)
 The electronic state is 1-A.
 Alpha  occ. eigenvalues --  -89.12843 -89.09082 -19.15445 -19.14859 -19.14309
 Alpha  occ. eigenvalues --  -19.13885 -14.39299 -10.29258 -10.24441 -10.24432
 Alpha  occ. eigenvalues --  -10.23141 -10.22589 -10.21891 -10.21476 -10.20550
 Alpha  occ. eigenvalues --  -10.20497 -10.20479 -10.20411 -10.20330  -8.15344
 Alpha  occ. eigenvalues --   -8.12103  -6.11865  -6.11738  -6.11653  -6.08510
 Alpha  occ. eigenvalues --   -6.08466  -6.08403  -1.12092  -1.09392  -1.00739
 Alpha  occ. eigenvalues --   -0.98864  -0.96229  -0.87428  -0.86416  -0.81380
 Alpha  occ. eigenvalues --   -0.79030  -0.75865  -0.75618  -0.73537  -0.69644
 Alpha  occ. eigenvalues --   -0.65279  -0.62113  -0.61739  -0.60031  -0.58601
 Alpha  occ. eigenvalues --   -0.55693  -0.53800  -0.52252  -0.50956  -0.50699
 Alpha  occ. eigenvalues --   -0.49221  -0.48751  -0.47952  -0.47140  -0.46672
 Alpha  occ. eigenvalues --   -0.45882  -0.45136  -0.44706  -0.43873  -0.43797
 Alpha  occ. eigenvalues --   -0.43434  -0.42285  -0.41429  -0.40244  -0.39357
 Alpha  occ. eigenvalues --   -0.37157  -0.36992  -0.35768  -0.35388  -0.34596
 Alpha  occ. eigenvalues --   -0.32947  -0.32517  -0.31216  -0.30937  -0.30885
 Alpha  occ. eigenvalues --   -0.29595  -0.29081  -0.28745  -0.26483  -0.25785
 Alpha virt. eigenvalues --   -0.01745  -0.01647   0.01941   0.02557   0.04638
 Alpha virt. eigenvalues --    0.05300   0.06398   0.06550   0.07278   0.07510
 Alpha virt. eigenvalues --    0.07969   0.08473   0.08695   0.08962   0.11134
 Alpha virt. eigenvalues --    0.11530   0.12119   0.12803   0.13313   0.13898
 Alpha virt. eigenvalues --    0.14469   0.15593   0.16242   0.17350   0.17643
 Alpha virt. eigenvalues --    0.18073   0.19192   0.20095   0.21155   0.21903
 Alpha virt. eigenvalues --    0.22811   0.24902   0.27202   0.27795   0.29123
 Alpha virt. eigenvalues --    0.31971   0.32533   0.32865   0.33853   0.36007
 Alpha virt. eigenvalues --    0.36531   0.36861   0.41317   0.42338   0.43664
 Alpha virt. eigenvalues --    0.43886   0.45703   0.47009   0.48397   0.49284
 Alpha virt. eigenvalues --    0.50476   0.51874   0.52185   0.52878   0.53171
 Alpha virt. eigenvalues --    0.53852   0.54829   0.55836   0.57490   0.58078
 Alpha virt. eigenvalues --    0.58128   0.58927   0.59252   0.60175   0.60329
 Alpha virt. eigenvalues --    0.61405   0.62105   0.63556   0.65473   0.66745
 Alpha virt. eigenvalues --    0.66923   0.67210   0.69171   0.71275   0.72066
 Alpha virt. eigenvalues --    0.74308   0.75491   0.77444   0.78369   0.80007
 Alpha virt. eigenvalues --    0.80582   0.81143   0.81480   0.81639   0.82021
 Alpha virt. eigenvalues --    0.82806   0.82893   0.83151   0.84607   0.85221
 Alpha virt. eigenvalues --    0.85597   0.86226   0.86945   0.87434   0.88652
 Alpha virt. eigenvalues --    0.89179   0.89436   0.90421   0.90898   0.92538
 Alpha virt. eigenvalues --    0.93569   0.94094   0.95837   0.96651   0.97450
 Alpha virt. eigenvalues --    0.98560   0.99390   1.00028   1.00660   1.02634
 Alpha virt. eigenvalues --    1.03483   1.04214   1.05690   1.06915   1.07868
 Alpha virt. eigenvalues --    1.09783   1.10670   1.12251   1.14223   1.14446
 Alpha virt. eigenvalues --    1.15929   1.16555   1.17395   1.18097   1.19351
 Alpha virt. eigenvalues --    1.20217   1.22755   1.24124   1.24554   1.26262
 Alpha virt. eigenvalues --    1.30761   1.33296   1.35901   1.37400   1.38124
 Alpha virt. eigenvalues --    1.39423   1.41384   1.43574   1.45401   1.46784
 Alpha virt. eigenvalues --    1.46844   1.47795   1.49491   1.49862   1.57384
 Alpha virt. eigenvalues --    1.58534   1.62303   1.64604   1.66383   1.68242
 Alpha virt. eigenvalues --    1.71241   1.71643   1.72856   1.74289   1.76458
 Alpha virt. eigenvalues --    1.78430   1.79035   1.79833   1.80827   1.81094
 Alpha virt. eigenvalues --    1.81498   1.82056   1.82298   1.83066   1.84335
 Alpha virt. eigenvalues --    1.84837   1.86375   1.87784   1.88368   1.91041
 Alpha virt. eigenvalues --    1.91574   1.93297   1.94659   1.96225   1.96957
 Alpha virt. eigenvalues --    1.97848   2.01485   2.01999   2.03137   2.03434
 Alpha virt. eigenvalues --    2.04348   2.05614   2.07252   2.08139   2.08505
 Alpha virt. eigenvalues --    2.10721   2.11725   2.12726   2.13397   2.14169
 Alpha virt. eigenvalues --    2.15352   2.16554   2.19346   2.19963   2.21221
 Alpha virt. eigenvalues --    2.22248   2.24629   2.26112   2.26845   2.28860
 Alpha virt. eigenvalues --    2.29387   2.29459   2.31331   2.33801   2.35578
 Alpha virt. eigenvalues --    2.38899   2.39604   2.45858   2.53210   2.54414
 Alpha virt. eigenvalues --    2.56261   2.57067   2.64542   2.66333   2.68793
 Alpha virt. eigenvalues --    2.70826   2.71687   2.72819   2.73020   2.74495
 Alpha virt. eigenvalues --    2.75288   2.76714   2.80246   2.82774   2.89587
 Alpha virt. eigenvalues --    2.92217   3.03321   3.39395   3.73763   3.80192
 Alpha virt. eigenvalues --    3.87653   3.94602   3.96053   3.98828   4.05013
 Alpha virt. eigenvalues --    4.07686   4.10065   4.13746   4.17748   4.20857
 Alpha virt. eigenvalues --    4.22575   4.31540   4.32676   4.39571   4.48302
 Alpha virt. eigenvalues --    4.68652   4.71855
          Condensed to atoms (all electrons):
               1          2          3          4          5          6
     1  C    5.591175   0.196555  -0.055055  -0.003436  -0.000318   0.000015
     2  S    0.196555  13.673718   0.104447   0.002889  -0.003418   0.000918
     3  N   -0.055055   0.104447   7.419763   0.181952  -0.056621   0.004020
     4  C   -0.003436   0.002889   0.181952   4.926223   0.356867  -0.105052
     5  C   -0.000318  -0.003418  -0.056621   0.356867   5.704792   0.141450
     6  S    0.000015   0.000918   0.004020  -0.105052   0.141450  13.898243
     7  C   -0.000189   0.000423  -0.042844   0.342014  -0.197868   0.109851
     8  O    0.000000   0.000436   0.000375  -0.001222  -0.043758   0.428477
     9  O    0.000000  -0.000002  -0.000045   0.002223  -0.046876   0.432521
    10  C    0.000468  -0.007018  -0.049492   0.349359  -0.044197   0.001867
    11  C    0.000161   0.000088   0.003973  -0.027819  -0.006132  -0.000200
    12  C   -0.000003  -0.000043  -0.000090   0.003939   0.000109   0.000004
    13  C   -0.000003  -0.000001  -0.000003   0.000103  -0.000005   0.000001
    14  C    0.000000   0.000000   0.000000   0.000002   0.000000   0.000000
    15  C    0.000000   0.000000   0.000000   0.000000   0.000000   0.000000
    16  C    0.000000   0.000000   0.000000   0.000001   0.000000   0.000000
    17  C   -0.000002  -0.000016  -0.000002   0.000087   0.000000   0.000001
    18  O   -0.061975   0.467400  -0.057302   0.002383  -0.000080   0.000016
    19  O   -0.054252   0.404694  -0.051080   0.004415  -0.006136  -0.000316
    20  H    0.338635  -0.006053   0.000264   0.000296  -0.000001   0.000001
    21  H    0.355706  -0.012752   0.002182  -0.000042   0.000007   0.000000
    22  H    0.330530  -0.008809  -0.000824  -0.000268   0.000013  -0.000004
    23  H    0.000600  -0.004836   0.288322  -0.027885   0.005380  -0.000445
    24  H    0.000006  -0.000162   0.003599  -0.031544   0.328484  -0.006407
    25  H    0.000112  -0.001281  -0.003065  -0.017578   0.341127  -0.009005
    26  H    0.000003   0.000000   0.003412  -0.028769   0.004843  -0.002701
    27  H   -0.000002   0.000010  -0.005801  -0.022398   0.009220  -0.008564
    28  H    0.000033  -0.000924  -0.000378  -0.036971   0.005494  -0.000043
    29  H   -0.005783   0.009832  -0.005317  -0.031270  -0.006410  -0.000102
    30  H    0.000000  -0.000008   0.000012  -0.005087   0.001446  -0.000013
    31  H   -0.000003   0.000013  -0.000008  -0.004299  -0.000244  -0.000074
    32  H    0.000000   0.000000   0.000001  -0.000055   0.000000   0.000000
    33  H    0.000000   0.000000   0.000000   0.000000   0.000000   0.000000
    34  H    0.000000   0.000000   0.000000   0.000000   0.000000   0.000000
    35  H    0.000000   0.000000   0.000000   0.000000   0.000000   0.000000
    36  H    0.000000  -0.000002   0.000000  -0.000042  -0.000003   0.000001
               7          8          9         10         11         12
     1  C   -0.000189   0.000000   0.000000   0.000468   0.000161  -0.000003
     2  S    0.000423   0.000436  -0.000002  -0.007018   0.000088  -0.000043
     3  N   -0.042844   0.000375  -0.000045  -0.049492   0.003973  -0.000090
     4  C    0.342014  -0.001222   0.002223   0.349359  -0.027819   0.003939
     5  C   -0.197868  -0.043758  -0.046876  -0.044197  -0.006132   0.000109
     6  S    0.109851   0.428477   0.432521   0.001867  -0.000200   0.000004
     7  C    5.762437  -0.044308  -0.045864  -0.044069  -0.005793   0.000116
     8  O   -0.044308   8.210869  -0.048339  -0.000068  -0.000002   0.000000
     9  O   -0.045864  -0.048339   8.214974  -0.000185   0.000015   0.000000
    10  C   -0.044069  -0.000068  -0.000185   5.155759   0.338512  -0.039359
    11  C   -0.005793  -0.000002   0.000015   0.338512   5.199205   0.344076
    12  C    0.000116   0.000000   0.000000  -0.039359   0.344076   4.646756
    13  C    0.000001   0.000000   0.000000  -0.003919  -0.058937   0.546710
    14  C    0.000000   0.000000   0.000000  -0.000003   0.006561  -0.019099
    15  C    0.000000   0.000000   0.000000   0.000016   0.000409  -0.034331
    16  C    0.000000   0.000000   0.000000  -0.000059   0.006741  -0.020406
    17  C   -0.000005   0.000000   0.000000  -0.004718  -0.056054   0.550205
    18  O   -0.000090  -0.000003   0.000000  -0.000119   0.000000   0.000000
    19  O    0.000152  -0.000001   0.000000  -0.004754  -0.000019   0.000001
    20  H   -0.000007   0.000000   0.000000  -0.000136  -0.000005   0.000000
    21  H    0.000002   0.000000   0.000000   0.000094   0.000000   0.000000
    22  H    0.000027   0.000000   0.000000   0.002028  -0.000174   0.000049
    23  H   -0.007109   0.000016   0.000002  -0.000029  -0.000101   0.000001
    24  H    0.006071   0.001239   0.001261  -0.006712   0.000930   0.000053
    25  H    0.007868  -0.000451   0.000489   0.000949   0.000108  -0.000002
    26  H    0.328769   0.001166   0.000989  -0.005931   0.001351   0.000035
    27  H    0.340878  -0.000069   0.000641   0.001076   0.000091  -0.000002
    28  H   -0.005949   0.000001   0.000002   0.361186  -0.035618  -0.001807
    29  H    0.005189   0.000001   0.000001   0.362820  -0.035956  -0.000656
    30  H   -0.000334   0.000001  -0.000021  -0.039362   0.360781  -0.027884
    31  H    0.001220   0.000001  -0.000016  -0.040043   0.358840  -0.027665
    32  H   -0.000001   0.000000   0.000000   0.000145  -0.009373  -0.049193
    33  H    0.000000   0.000000   0.000000  -0.000001  -0.000184   0.003728
    34  H    0.000000   0.000000   0.000000   0.000000   0.000007   0.000725
    35  H    0.000000   0.000000   0.000000  -0.000001  -0.000185   0.003719
    36  H    0.000000   0.000000   0.000000   0.000110  -0.009591  -0.047342
              13         14         15         16         17         18
     1  C   -0.000003   0.000000   0.000000   0.000000  -0.000002  -0.061975
     2  S   -0.000001   0.000000   0.000000   0.000000  -0.000016   0.467400
     3  N   -0.000003   0.000000   0.000000   0.000000  -0.000002  -0.057302
     4  C    0.000103   0.000002   0.000000   0.000001   0.000087   0.002383
     5  C   -0.000005   0.000000   0.000000   0.000000   0.000000  -0.000080
     6  S    0.000001   0.000000   0.000000   0.000000   0.000001   0.000016
     7  C    0.000001   0.000000   0.000000   0.000000  -0.000005  -0.000090
     8  O    0.000000   0.000000   0.000000   0.000000   0.000000  -0.000003
     9  O    0.000000   0.000000   0.000000   0.000000   0.000000   0.000000
    10  C   -0.003919  -0.000003   0.000016  -0.000059  -0.004718  -0.000119
    11  C   -0.058937   0.006561   0.000409   0.006741  -0.056054   0.000000
    12  C    0.546710  -0.019099  -0.034331  -0.020406   0.550205   0.000000
    13  C    4.959429   0.525925  -0.036337  -0.046751  -0.037473   0.000000
    14  C    0.525925   4.863022   0.550055  -0.025948  -0.046778   0.000000
    15  C   -0.036337   0.550055   4.850511   0.550242  -0.036249   0.000000
    16  C   -0.046751  -0.025948   0.550242   4.864020   0.524553   0.000000
    17  C   -0.037473  -0.046778  -0.036249   0.524553   4.955191   0.000000
    18  O    0.000000   0.000000   0.000000   0.000000   0.000000   8.199023
    19  O    0.000000   0.000000   0.000000   0.000000   0.000000  -0.045294
    20  H    0.000000   0.000000   0.000000   0.000000   0.000000  -0.000299
    21  H    0.000000   0.000000   0.000000   0.000000   0.000000  -0.000489
    22  H    0.000015   0.000000   0.000000   0.000000   0.000019   0.002081
    23  H    0.000000   0.000000   0.000000   0.000000   0.000000   0.000231
    24  H    0.000000   0.000000   0.000000   0.000000  -0.000004  -0.000001
    25  H    0.000000   0.000000   0.000000   0.000000   0.000000  -0.000247
    26  H   -0.000003   0.000000   0.000000   0.000000   0.000000   0.000000
    27  H    0.000000   0.000000   0.000000   0.000000   0.000000  -0.000008
    28  H    0.003952  -0.000150  -0.000004  -0.000005  -0.000047   0.000002
    29  H   -0.000048  -0.000022  -0.000006  -0.000143   0.004166   0.000013
    30  H    0.003785  -0.000197   0.000009   0.000124  -0.003944   0.000000
    31  H   -0.003890   0.000087   0.000013  -0.000208   0.003508   0.000000
    32  H    0.355257  -0.044479   0.004878   0.000349   0.006013   0.000000
    33  H   -0.039492   0.357338  -0.042307   0.004517   0.000858   0.000000
    34  H    0.004657  -0.042529   0.359999  -0.042413   0.004649   0.000000
    35  H    0.000874   0.004491  -0.042447   0.357514  -0.038808   0.000000
    36  H    0.005977   0.000364   0.004774  -0.043802   0.356262   0.000000
              19         20         21         22         23         24
     1  C   -0.054252   0.338635   0.355706   0.330530   0.000600   0.000006
     2  S    0.404694  -0.006053  -0.012752  -0.008809  -0.004836  -0.000162
     3  N   -0.051080   0.000264   0.002182  -0.000824   0.288322   0.003599
     4  C    0.004415   0.000296  -0.000042  -0.000268  -0.027885  -0.031544
     5  C   -0.006136  -0.000001   0.000007   0.000013   0.005380   0.328484
     6  S   -0.000316   0.000001   0.000000  -0.000004  -0.000445  -0.006407
     7  C    0.000152  -0.000007   0.000002   0.000027  -0.007109   0.006071
     8  O   -0.000001   0.000000   0.000000   0.000000   0.000016   0.001239
     9  O    0.000000   0.000000   0.000000   0.000000   0.000002   0.001261
    10  C   -0.004754  -0.000136   0.000094   0.002028  -0.000029  -0.006712
    11  C   -0.000019  -0.000005   0.000000  -0.000174  -0.000101   0.000930
    12  C    0.000001   0.000000   0.000000   0.000049   0.000001   0.000053
    13  C    0.000000   0.000000   0.000000   0.000015   0.000000   0.000000
    14  C    0.000000   0.000000   0.000000   0.000000   0.000000   0.000000
    15  C    0.000000   0.000000   0.000000   0.000000   0.000000   0.000000
    16  C    0.000000   0.000000   0.000000   0.000000   0.000000   0.000000
    17  C    0.000000   0.000000   0.000000   0.000019   0.000000  -0.000004
    18  O   -0.045294  -0.000299  -0.000489   0.002081   0.000231  -0.000001
    19  O    8.283483   0.001877  -0.000446  -0.000706   0.001679   0.000044
    20  H    0.001877   0.510875  -0.019009  -0.025793   0.000153   0.000000
    21  H   -0.000446  -0.019009   0.463259  -0.019872   0.000025   0.000000
    22  H   -0.000706  -0.025793  -0.019872   0.510574   0.000059   0.000006
    23  H    0.001679   0.000153   0.000025   0.000059   0.388268  -0.000110
    24  H    0.000044   0.000000   0.000000   0.000006  -0.000110   0.508543
    25  H    0.014008  -0.000006   0.000001   0.000008   0.000034  -0.014478
    26  H    0.000001   0.000000   0.000000   0.000000   0.000063   0.000008
    27  H    0.000004  -0.000002   0.000000   0.000000   0.005464  -0.000248
    28  H    0.000076   0.000172   0.000039   0.000541   0.002998   0.000127
    29  H    0.004002   0.000097   0.000107   0.005571  -0.000297   0.000537
    30  H    0.000004   0.000000   0.000000   0.000004   0.000006   0.007042
    31  H   -0.000001   0.000000   0.000000   0.000004  -0.000007   0.000054
    32  H    0.000000   0.000000   0.000000   0.000000   0.000000   0.000000
    33  H    0.000000   0.000000   0.000000   0.000000   0.000000   0.000000
    34  H    0.000000   0.000000   0.000000   0.000000   0.000000   0.000000
    35  H    0.000000   0.000000   0.000000   0.000000   0.000000   0.000000
    36  H    0.000000   0.000000   0.000000  -0.000002   0.000000   0.000049
              25         26         27         28         29         30
     1  C    0.000112   0.000003  -0.000002   0.000033  -0.005783   0.000000
     2  S   -0.001281   0.000000   0.000010  -0.000924   0.009832  -0.000008
     3  N   -0.003065   0.003412  -0.005801  -0.000378  -0.005317   0.000012
     4  C   -0.017578  -0.028769  -0.022398  -0.036971  -0.031270  -0.005087
     5  C    0.341127   0.004843   0.009220   0.005494  -0.006410   0.001446
     6  S   -0.009005  -0.002701  -0.008564  -0.000043  -0.000102  -0.000013
     7  C    0.007868   0.328769   0.340878  -0.005949   0.005189  -0.000334
     8  O   -0.000451   0.001166  -0.000069   0.000001   0.000001   0.000001
     9  O    0.000489   0.000989   0.000641   0.000002   0.000001  -0.000021
    10  C    0.000949  -0.005931   0.001076   0.361186   0.362820  -0.039362
    11  C    0.000108   0.001351   0.000091  -0.035618  -0.035956   0.360781
    12  C   -0.000002   0.000035  -0.000002  -0.001807  -0.000656  -0.027884
    13  C    0.000000  -0.000003   0.000000   0.003952  -0.000048   0.003785
    14  C    0.000000   0.000000   0.000000  -0.000150  -0.000022  -0.000197
    15  C    0.000000   0.000000   0.000000  -0.000004  -0.000006   0.000009
    16  C    0.000000   0.000000   0.000000  -0.000005  -0.000143   0.000124
    17  C    0.000000   0.000000   0.000000  -0.000047   0.004166  -0.003944
    18  O   -0.000247   0.000000  -0.000008   0.000002   0.000013   0.000000
    19  O    0.014008   0.000001   0.000004   0.000076   0.004002   0.000004
    20  H   -0.000006   0.000000  -0.000002   0.000172   0.000097   0.000000
    21  H    0.000001   0.000000   0.000000   0.000039   0.000107   0.000000
    22  H    0.000008   0.000000   0.000000   0.000541   0.005571   0.000004
    23  H    0.000034   0.000063   0.005464   0.002998  -0.000297   0.000006
    24  H   -0.014478   0.000008  -0.000248   0.000127   0.000537   0.007042
    25  H    0.419160  -0.000201  -0.000266  -0.000079   0.000225  -0.000022
    26  H   -0.000201   0.498331  -0.019193   0.000503   0.000189   0.000068
    27  H   -0.000266  -0.019193   0.491423   0.000399  -0.000082  -0.000002
    28  H   -0.000079   0.000503   0.000399   0.601653  -0.038276   0.005703
    29  H    0.000225   0.000189  -0.000082  -0.038276   0.555737  -0.004702
    30  H   -0.000022   0.000068  -0.000002   0.005703  -0.004702   0.568992
    31  H   -0.000002   0.006814  -0.000019  -0.005137   0.005396  -0.033929
    32  H    0.000000   0.000039   0.000000   0.000936   0.000056   0.000064
    33  H    0.000000   0.000000   0.000000   0.000003   0.000000   0.000003
    34  H    0.000000   0.000000   0.000000   0.000000   0.000000   0.000000
    35  H    0.000000   0.000000   0.000000   0.000000   0.000004  -0.000007
    36  H    0.000000   0.000000   0.000000   0.000029   0.000732   0.005625
              31         32         33         34         35         36
     1  C   -0.000003   0.000000   0.000000   0.000000   0.000000   0.000000
     2  S    0.000013   0.000000   0.000000   0.000000   0.000000  -0.000002
     3  N   -0.000008   0.000001   0.000000   0.000000   0.000000   0.000000
     4  C   -0.004299  -0.000055   0.000000   0.000000   0.000000  -0.000042
     5  C   -0.000244   0.000000   0.000000   0.000000   0.000000  -0.000003
     6  S   -0.000074   0.000000   0.000000   0.000000   0.000000   0.000001
     7  C    0.001220  -0.000001   0.000000   0.000000   0.000000   0.000000
     8  O    0.000001   0.000000   0.000000   0.000000   0.000000   0.000000
     9  O   -0.000016   0.000000   0.000000   0.000000   0.000000   0.000000
    10  C   -0.040043   0.000145  -0.000001   0.000000  -0.000001   0.000110
    11  C    0.358840  -0.009373  -0.000184   0.000007  -0.000185  -0.009591
    12  C   -0.027665  -0.049193   0.003728   0.000725   0.003719  -0.047342
    13  C   -0.003890   0.355257  -0.039492   0.004657   0.000874   0.005977
    14  C    0.000087  -0.044479   0.357338  -0.042529   0.004491   0.000364
    15  C    0.000013   0.004878  -0.042307   0.359999  -0.042447   0.004774
    16  C   -0.000208   0.000349   0.004517  -0.042413   0.357514  -0.043802
    17  C    0.003508   0.006013   0.000858   0.004649  -0.038808   0.356262
    18  O    0.000000   0.000000   0.000000   0.000000   0.000000   0.000000
    19  O   -0.000001   0.000000   0.000000   0.000000   0.000000   0.000000
    20  H    0.000000   0.000000   0.000000   0.000000   0.000000   0.000000
    21  H    0.000000   0.000000   0.000000   0.000000   0.000000   0.000000
    22  H    0.000004   0.000000   0.000000   0.000000   0.000000  -0.000002
    23  H   -0.000007   0.000000   0.000000   0.000000   0.000000   0.000000
    24  H    0.000054   0.000000   0.000000   0.000000   0.000000   0.000049
    25  H   -0.000002   0.000000   0.000000   0.000000   0.000000   0.000000
    26  H    0.006814   0.000039   0.000000   0.000000   0.000000   0.000000
    27  H   -0.000019   0.000000   0.000000   0.000000   0.000000   0.000000
    28  H   -0.005137   0.000936   0.000003   0.000000   0.000000   0.000029
    29  H    0.005396   0.000056   0.000000   0.000000   0.000004   0.000732
    30  H   -0.033929   0.000064   0.000003   0.000000  -0.000007   0.005625
    31  H    0.579079   0.005103  -0.000006   0.000000   0.000003   0.000079
    32  H    0.005103   0.614608  -0.005641  -0.000181   0.000018  -0.000180
    33  H   -0.000006  -0.005641   0.591911  -0.005419  -0.000186   0.000018
    34  H    0.000000  -0.000181  -0.005419   0.590387  -0.005417  -0.000178
    35  H    0.000003   0.000018  -0.000186  -0.005417   0.588813  -0.005485
    36  H    0.000079  -0.000180   0.000018  -0.000178  -0.005485   0.602290
 Mulliken charges:
               1
     1  C   -0.632979
     2  S    1.183900
     3  N   -0.684395
     4  C    0.170986
     5  C   -0.487164
     6  S    1.115544
     7  C   -0.510586
     8  O   -0.504359
     9  O   -0.511769
    10  C   -0.284211
    11  C   -0.375708
    12  C    0.167656
    13  C   -0.179824
    14  C   -0.128639
    15  C   -0.129225
    16  C   -0.128325
    17  C   -0.181412
    18  O   -0.505245
    19  O   -0.551433
    20  H    0.198939
    21  H    0.231188
    22  H    0.204923
    23  H    0.347517
    24  H    0.201617
    25  H    0.262594
    26  H    0.210217
    27  H    0.207447
    28  H    0.141537
    29  H    0.174398
    30  H    0.161843
    31  H    0.155335
    32  H    0.121636
    33  H    0.134863
    34  H    0.135715
    35  H    0.137101
    36  H    0.130317
 Sum of Mulliken charges =   0.00000
 Mulliken charges with hydrogens summed into heavy atoms:
               1
     1  C    0.002071
     2  S    1.183900
     3  N   -0.336878
     4  C    0.170986
     5  C   -0.022954
     6  S    1.115544
     7  C   -0.092922
     8  O   -0.504359
     9  O   -0.511769
    10  C    0.031724
    11  C   -0.058530
    12  C    0.167656
    13  C   -0.058187
    14  C    0.006223
    15  C    0.006490
    16  C    0.008776
    17  C   -0.051095
    18  O   -0.505245
    19  O   -0.551433
 Electronic spatial extent (au):  <R**2>=           7356.5832
 Charge=              0.0000 electrons
 Dipole moment (field-independent basis, Debye):
    X=             -8.3703    Y=              2.6633    Z=             -3.5482  Tot=              9.4734
 Quadrupole moment (field-independent basis, Debye-Ang):
   XX=           -151.4099   YY=           -140.1299   ZZ=           -116.5685
   XY=             -0.6352   XZ=             -3.9755   YZ=             -0.5972
 Traceless Quadrupole moment (field-independent basis, Debye-Ang):
   XX=            -15.3738   YY=             -4.0938   ZZ=             19.4676
   XY=             -0.6352   XZ=             -3.9755   YZ=             -0.5972
 Octapole moment (field-independent basis, Debye-Ang**2):
  XXX=           -126.0864  YYY=             83.4021  ZZZ=            -11.2046  XYY=            -44.0175
  XXY=             20.1188  XXZ=             -1.3066  XZZ=             10.7255  YZZ=             -8.4480
  YYZ=            -20.0937  XYZ=             -4.4428
 Hexadecapole moment (field-independent basis, Debye-Ang**3):
 XXXX=          -6390.7671 YYYY=          -2695.9025 ZZZZ=           -605.7535 XXXY=           -105.6911
 XXXZ=             45.2942 YYYX=             53.1783 YYYZ=             36.4032 ZZZX=            -23.1745
 ZZZY=            -17.4603 XXYY=          -1776.2641 XXZZ=          -1080.5506 YYZZ=           -532.9916
 XXYZ=             45.8052 YYXZ=            -20.1226 ZZXY=            -19.2197
 N-N= 1.821276561498D+03 E-N=-7.448170653750D+03  KE= 1.608777388498D+03
 No NMR shielding tensors so no spin-rotation constants.
 Leave Link  601 at Fri Aug  7 23:29:04 2020, MaxMem=    33554432 cpu:         0.3
 (Enter /prod/apps/gaussian/g09d1/l9999.exe)
 1\1\GINC-PIRINEUS21\SP\RB3LYP\6-31G(d)\C12H17N1O4S2\UBAFAR01\07-Aug-20
 20\0\\#p b3lyp/6-31G(d)\\SM38.n.13.pdb.xyz\\0,1\C,0,1.994,1.124,-0.911
 \S,0,2.717,-0.074,0.218\N,0,3.462,-1.281,-0.674\C,0,2.758,-2.448,-1.25
 3\C,0,2.284,-3.399,-0.106\S,0,3.794,-4.397,-0.3\C,0,3.883,-3.379,-1.81
 3\O,0,4.84,-4.035,0.678\O,0,3.547,-5.829,-0.553\C,0,1.673,-2.052,-2.26
 9\C,0,0.924,-3.202,-2.966\C,0,-0.145,-2.681,-3.903\C,0,0.162,-2.347,-5
 .229\C,0,-0.819,-1.843,-6.085\C,0,-2.126,-1.665,-5.626\C,0,-2.444,-1.9
 95,-4.307\C,0,-1.46,-2.498,-3.454\O,0,3.8,0.614,0.934\O,0,1.632,-0.709
 ,0.982\H,0,2.783,1.524,-1.547\H,0,1.564,1.914,-0.295\H,0,1.224,0.638,-
 1.505\H,0,4.167,-0.878,-1.292\H,0,1.422,-4.004,-0.383\H,0,2.15,-2.942,
 0.87\H,0,3.569,-3.973,-2.672\H,0,4.857,-2.926,-1.991\H,0,2.143,-1.417,
 -3.027\H,0,0.938,-1.434,-1.744\H,0,0.46,-3.849,-2.216\H,0,1.63,-3.819,
 -3.532\H,0,1.175,-2.49,-5.595\H,0,-0.563,-1.595,-7.11\H,0,-2.89,-1.276
 ,-6.291\H,0,-3.458,-1.865,-3.943\H,0,-1.714,-2.759,-2.431\\Version=AM6
 4L-G09RevD.01\State=1-A\HF=-1619.3790994\RMSD=3.320e-09\Dipole=-1.4536
 197,1.5399261,-3.0670774\Quadrupole=4.5539086,-1.7008506,-2.8530581,3.
 8850769,-12.0848142,-2.6139561\PG=C01 [X(C12H17N1O4S2)]\\@


 ERWIN WITH HIS PSI CAN DO
 CALCULATIONS QUITE A FEW.
 BUT ONE THING HAS NOT BEEN SEEN
 JUST WHAT DOES PSI REALLY MEAN.
 -- WALTER HUCKEL, TRANS. BY FELIX BLOCH
 Job cpu time:       0 days  0 hours  5 minutes 23.3 seconds.
 File lengths (MBytes):  RWF=     60 Int=      0 D2E=      0 Chk=      5 Scr=      1
 Normal termination of Gaussian 09 at Fri Aug  7 23:29:04 2020.
 Initial command:
 /prod/apps/gaussian/g09d1/l1.exe "/tmp/ubafar01/1448984/Gau-51457.inp" -scrdir="/tmp/ubafar01/1448984/"
 Entering Link 1 = /prod/apps/gaussian/g09d1/l1.exe PID=     52598.
  
 Copyright (c) 1988,1990,1992,1993,1995,1998,2003,2009,2013,
            Gaussian, Inc.  All Rights Reserved.
  
 This is part of the Gaussian(R) 09 program.  It is based on
 the Gaussian(R) 03 system (copyright 2003, Gaussian, Inc.),
 the Gaussian(R) 98 system (copyright 1998, Gaussian, Inc.),
 the Gaussian(R) 94 system (copyright 1995, Gaussian, Inc.),
 the Gaussian 92(TM) system (copyright 1992, Gaussian, Inc.),
 the Gaussian 90(TM) system (copyright 1990, Gaussian, Inc.),
 the Gaussian 88(TM) system (copyright 1988, Gaussian, Inc.),
 the Gaussian 86(TM) system (copyright 1986, Carnegie Mellon
 University), and the Gaussian 82(TM) system (copyright 1983,
 Carnegie Mellon University). Gaussian is a federally registered
 trademark of Gaussian, Inc.
  
 This software contains proprietary and confidential information,
 including trade secrets, belonging to Gaussian, Inc.
  
 This software is provided under written license and may be
 used, copied, transmitted, or stored only in accord with that
 written license.
  
 The following legend is applicable only to US Government
 contracts under FAR:
  
                    RESTRICTED RIGHTS LEGEND
  
 Use, reproduction and disclosure by the US Government is
 subject to restrictions as set forth in subparagraphs (a)
 and (c) of the Commercial Computer Software - Restricted
 Rights clause in FAR 52.227-19.
  
 Gaussian, Inc.
 340 Quinnipiac St., Bldg. 40, Wallingford CT 06492
  
  
 ---------------------------------------------------------------
 Warning -- This program may not be used in any manner that
 competes with the business of Gaussian, Inc. or will provide
 assistance to any competitor of Gaussian, Inc.  The licensee
 of this program is prohibited from giving any competitor of
 Gaussian, Inc. access to this program.  By using this program,
 the user acknowledges that Gaussian, Inc. is engaged in the
 business of creating and licensing software in the field of
 computational chemistry and represents and warrants to the
 licensee that it is not a competitor of Gaussian, Inc. and that
 it will not use this program in any manner prohibited above.
 ---------------------------------------------------------------
  

 Cite this work as:
 Gaussian 09, Revision D.01,
 M. J. Frisch, G. W. Trucks, H. B. Schlegel, G. E. Scuseria, 
 M. A. Robb, J. R. Cheeseman, G. Scalmani, V. Barone, B. Mennucci, 
 G. A. Petersson, H. Nakatsuji, M. Caricato, X. Li, H. P. Hratchian, 
 A. F. Izmaylov, J. Bloino, G. Zheng, J. L. Sonnenberg, M. Hada, 
 M. Ehara, K. Toyota, R. Fukuda, J. Hasegawa, M. Ishida, T. Nakajima, 
 Y. Honda, O. Kitao, H. Nakai, T. Vreven, J. A. Montgomery, Jr., 
 J. E. Peralta, F. Ogliaro, M. Bearpark, J. J. Heyd, E. Brothers, 
 K. N. Kudin, V. N. Staroverov, T. Keith, R. Kobayashi, J. Normand, 
 K. Raghavachari, A. Rendell, J. C. Burant, S. S. Iyengar, J. Tomasi, 
 M. Cossi, N. Rega, J. M. Millam, M. Klene, J. E. Knox, J. B. Cross, 
 V. Bakken, C. Adamo, J. Jaramillo, R. Gomperts, R. E. Stratmann, 
 O. Yazyev, A. J. Austin, R. Cammi, C. Pomelli, J. W. Ochterski, 
 R. L. Martin, K. Morokuma, V. G. Zakrzewski, G. A. Voth, 
 P. Salvador, J. J. Dannenberg, S. Dapprich, A. D. Daniels, 
 O. Farkas, J. B. Foresman, J. V. Ortiz, J. Cioslowski, 
 and D. J. Fox, Gaussian, Inc., Wallingford CT, 2013.
 
 ******************************************
 Gaussian 09:  AM64L-G09RevD.01 24-Apr-2013
                 7-Aug-2020 
 ******************************************
 %nproc=1
 Will use up to    1 processors via shared memory.
 %Chk=SM38.n.13.pdb.xyz.mst.n.w.chk
 %subst l502 /dades/curu/work_g09D01_MST_AddSphPartition_ReadGammas/exe-dir/
 ----------------------------------------------------------------------
 #p b3lyp/6-31G(d) scrf=(iefpcm,read,solvent=Water) geom=allcheck guess
 =read
 ----------------------------------------------------------------------
 1/29=7,38=1,40=2/1;
 2/12=2,40=1/2;
 3/5=1,6=6,7=1,11=2,14=-4,16=1,25=1,30=1,70=2203,72=1,74=-5,116=-2/1,2,3;
 4/5=1/1;
 5/5=2,38=6,53=1/2;
 6/7=2,8=2,9=2,10=2,28=1/1;
 99/5=1,9=1/99;
 Leave Link    1 at Fri Aug  7 23:29:04 2020, MaxMem=           0 cpu:         0.0
 (Enter /prod/apps/gaussian/g09d1/l101.exe)
 Structure from the checkpoint file:  "SM38.n.13.pdb.xyz.mst.n.w.chk"
 -----------------
 SM38.n.13.pdb.xyz
 -----------------
 Charge =  0 Multiplicity = 1
 Z-Matrix found in file.
 C,0,1.994,1.124,-0.911
 S,0,2.717,-0.074,0.218
 N,0,3.462,-1.281,-0.674
 C,0,2.758,-2.448,-1.253
 C,0,2.284,-3.399,-0.106
 S,0,3.794,-4.397,-0.3
 C,0,3.883,-3.379,-1.813
 O,0,4.84,-4.035,0.678
 O,0,3.547,-5.829,-0.553
 C,0,1.673,-2.052,-2.269
 C,0,0.924,-3.202,-2.966
 C,0,-0.145,-2.681,-3.903
 C,0,0.162,-2.347,-5.229
 C,0,-0.819,-1.843,-6.085
 C,0,-2.126,-1.665,-5.626
 C,0,-2.444,-1.995,-4.307
 C,0,-1.46,-2.498,-3.454
 O,0,3.8,0.614,0.934
 O,0,1.632,-0.709,0.982
 H,0,2.783,1.524,-1.547
 H,0,1.564,1.914,-0.295
 H,0,1.224,0.638,-1.505
 H,0,4.167,-0.878,-1.292
 H,0,1.422,-4.004,-0.383
 H,0,2.15,-2.942,0.87
 H,0,3.569,-3.973,-2.672
 H,0,4.857,-2.926,-1.991
 H,0,2.143,-1.417,-3.027
 H,0,0.938,-1.434,-1.744
 H,0,0.46,-3.849,-2.216
 H,0,1.63,-3.819,-3.532
 H,0,1.175,-2.49,-5.595
 H,0,-0.563,-1.595,-7.11
 H,0,-2.89,-1.276,-6.291
 H,0,-3.458,-1.865,-3.943
 H,0,-1.714,-2.759,-2.431
 Recover connectivity data from disk.
 NAtoms=     36 NQM=       36 NQMF=       0 NMMI=      0 NMMIF=      0
                NMic=       0 NMicF=      0.
                    Isotopes and Nuclear Properties:
 (Nuclear quadrupole moments (NQMom) in fm**2, nuclear magnetic moments (NMagM)
  in nuclear magnetons)

  Atom         1           2           3           4           5           6           7           8           9          10
 IAtWgt=          12          32          14          12          12          32          12          16          16          12
 AtmWgt=  12.0000000  31.9720718  14.0030740  12.0000000  12.0000000  31.9720718  12.0000000  15.9949146  15.9949146  12.0000000
 NucSpn=           0           0           2           0           0           0           0           0           0           0
 AtZEff=  -3.6000000 -13.6000000  -4.5500000  -3.6000000  -3.6000000 -13.6000000  -3.6000000  -5.6000000  -5.6000000  -3.6000000
 NQMom=    0.0000000   0.0000000   2.0440000   0.0000000   0.0000000   0.0000000   0.0000000   0.0000000   0.0000000   0.0000000
 NMagM=    0.0000000   0.0000000   0.4037610   0.0000000   0.0000000   0.0000000   0.0000000   0.0000000   0.0000000   0.0000000
 AtZNuc=   6.0000000  16.0000000   7.0000000   6.0000000   6.0000000  16.0000000   6.0000000   8.0000000   8.0000000   6.0000000

  Atom        11          12          13          14          15          16          17          18          19          20
 IAtWgt=          12          12          12          12          12          12          12          16          16           1
 AtmWgt=  12.0000000  12.0000000  12.0000000  12.0000000  12.0000000  12.0000000  12.0000000  15.9949146  15.9949146   1.0078250
 NucSpn=           0           0           0           0           0           0           0           0           0           1
 AtZEff=  -3.6000000  -3.6000000  -3.6000000  -3.6000000  -3.6000000  -3.6000000  -3.6000000  -5.6000000  -5.6000000  -1.0000000
 NQMom=    0.0000000   0.0000000   0.0000000   0.0000000   0.0000000   0.0000000   0.0000000   0.0000000   0.0000000   0.0000000
 NMagM=    0.0000000   0.0000000   0.0000000   0.0000000   0.0000000   0.0000000   0.0000000   0.0000000   0.0000000   2.7928460
 AtZNuc=   6.0000000   6.0000000   6.0000000   6.0000000   6.0000000   6.0000000   6.0000000   8.0000000   8.0000000   1.0000000

  Atom        21          22          23          24          25          26          27          28          29          30
 IAtWgt=           1           1           1           1           1           1           1           1           1           1
 AtmWgt=   1.0078250   1.0078250   1.0078250   1.0078250   1.0078250   1.0078250   1.0078250   1.0078250   1.0078250   1.0078250
 NucSpn=           1           1           1           1           1           1           1           1           1           1
 AtZEff=  -1.0000000  -1.0000000  -1.0000000  -1.0000000  -1.0000000  -1.0000000  -1.0000000  -1.0000000  -1.0000000  -1.0000000
 NQMom=    0.0000000   0.0000000   0.0000000   0.0000000   0.0000000   0.0000000   0.0000000   0.0000000   0.0000000   0.0000000
 NMagM=    2.7928460   2.7928460   2.7928460   2.7928460   2.7928460   2.7928460   2.7928460   2.7928460   2.7928460   2.7928460
 AtZNuc=   1.0000000   1.0000000   1.0000000   1.0000000   1.0000000   1.0000000   1.0000000   1.0000000   1.0000000   1.0000000

  Atom        31          32          33          34          35          36
 IAtWgt=           1           1           1           1           1           1
 AtmWgt=   1.0078250   1.0078250   1.0078250   1.0078250   1.0078250   1.0078250
 NucSpn=           1           1           1           1           1           1
 AtZEff=  -1.0000000  -1.0000000  -1.0000000  -1.0000000  -1.0000000  -1.0000000
 NQMom=    0.0000000   0.0000000   0.0000000   0.0000000   0.0000000   0.0000000
 NMagM=    2.7928460   2.7928460   2.7928460   2.7928460   2.7928460   2.7928460
 AtZNuc=   1.0000000   1.0000000   1.0000000   1.0000000   1.0000000   1.0000000
 Leave Link  101 at Fri Aug  7 23:29:04 2020, MaxMem=    33554432 cpu:         0.1
 (Enter /prod/apps/gaussian/g09d1/l202.exe)
                          Input orientation:                          
 ---------------------------------------------------------------------
 Center     Atomic      Atomic             Coordinates (Angstroms)
 Number     Number       Type             X           Y           Z
 ---------------------------------------------------------------------
      1          6           0        1.994000    1.124000   -0.911000
[...]
    23  H   -0.000028  -0.005016   0.292357  -0.022570   0.004401  -0.000477
    24  H    0.000006  -0.000124   0.003458  -0.029819   0.333636  -0.006026
    25  H    0.000117  -0.000093  -0.003618  -0.019507   0.339357  -0.008920
    26  H    0.000003   0.000001   0.003228  -0.027861   0.004832  -0.004747
    27  H   -0.000003   0.000086  -0.004321  -0.022078   0.008540  -0.009937
    28  H   -0.000029  -0.001003  -0.000649  -0.033977   0.005163  -0.000092
    29  H   -0.005370   0.009823  -0.005308  -0.032658  -0.006266  -0.000144
    30  H    0.000000  -0.000011   0.000007  -0.005192   0.001389  -0.000043
    31  H   -0.000003   0.000016  -0.000011  -0.004627  -0.000260  -0.000092
    32  H    0.000000   0.000000   0.000001  -0.000053   0.000000   0.000000
    33  H    0.000000   0.000000   0.000000   0.000000   0.000000   0.000000
    34  H    0.000000   0.000000   0.000000   0.000000   0.000000   0.000000
    35  H    0.000000   0.000000   0.000000   0.000000   0.000000   0.000000
    36  H    0.000000  -0.000002   0.000000  -0.000043  -0.000003   0.000000
               7          8          9         10         11         12
     1  C   -0.000190   0.000000   0.000000  -0.000031   0.000153  -0.000002
     2  S    0.000488   0.000434  -0.000001  -0.004694   0.000030  -0.000042
     3  N   -0.046890   0.000130  -0.000050  -0.050113   0.003869  -0.000085
     4  C    0.336774  -0.000320   0.002824   0.356532  -0.027669   0.003809
     5  C   -0.186201  -0.044151  -0.046435  -0.044733  -0.006075   0.000113
     6  S    0.140428   0.423418   0.430685   0.002296  -0.000081   0.000000
     7  C    5.705859  -0.044969  -0.046194  -0.041709  -0.005636   0.000126
     8  O   -0.044969   8.273148  -0.047052  -0.000080  -0.000002   0.000000
     9  O   -0.046194  -0.047052   8.261335  -0.000194   0.000015   0.000000
    10  C   -0.041709  -0.000080  -0.000194   5.137426   0.338272  -0.038281
    11  C   -0.005636  -0.000002   0.000015   0.338272   5.196178   0.348659
    12  C    0.000126   0.000000   0.000000  -0.038281   0.348659   4.654369
    13  C    0.000002   0.000000   0.000000  -0.003746  -0.059002   0.545129
    14  C    0.000000   0.000000   0.000000  -0.000011   0.006543  -0.021572
    15  C    0.000000   0.000000   0.000000   0.000016   0.000360  -0.034182
    16  C    0.000000   0.000000   0.000000  -0.000062   0.006737  -0.022379
    17  C   -0.000005   0.000000   0.000000  -0.004662  -0.056593   0.547422
    18  O   -0.000086  -0.000002   0.000000  -0.000122   0.000000   0.000000
    19  O    0.000132  -0.000001   0.000000  -0.004560  -0.000019   0.000001
    20  H   -0.000005   0.000000   0.000000  -0.000113  -0.000004   0.000000
    21  H    0.000002   0.000000   0.000000   0.000085   0.000000   0.000000
    22  H    0.000018   0.000000   0.000000   0.002047  -0.000148   0.000047
    23  H   -0.005881  -0.000007   0.000002   0.000104  -0.000080   0.000001
    24  H    0.005116   0.001165   0.000987  -0.006371   0.001753   0.000026
    25  H    0.008000  -0.000407   0.000533   0.001055   0.000105  -0.000002
    26  H    0.334456   0.001125   0.000829  -0.006038   0.001999   0.000028
    27  H    0.345777  -0.000171   0.000634   0.000849   0.000078  -0.000001
    28  H   -0.005729   0.000001   0.000002   0.369812  -0.034520  -0.001884
    29  H    0.005074   0.000001   0.000001   0.364033  -0.036559  -0.000670
    30  H   -0.000329   0.000001  -0.000021  -0.038279   0.361207  -0.027647
    31  H    0.001437   0.000001  -0.000015  -0.038069   0.361001  -0.026380
    32  H   -0.000002   0.000000   0.000000   0.000194  -0.008897  -0.045658
    33  H    0.000000   0.000000   0.000000  -0.000001  -0.000176   0.003649
    34  H    0.000000   0.000000   0.000000   0.000000   0.000006   0.000625
    35  H    0.000000   0.000000   0.000000  -0.000001  -0.000177   0.003675
    36  H    0.000000   0.000000   0.000000   0.000133  -0.009276  -0.045238
              13         14         15         16         17         18
     1  C   -0.000002   0.000000   0.000000   0.000000  -0.000002  -0.063631
     2  S   -0.000001   0.000000   0.000000   0.000000  -0.000015   0.461384
     3  N   -0.000003   0.000000   0.000000   0.000000  -0.000002  -0.057464
     4  C    0.000096   0.000002   0.000000   0.000002   0.000078   0.002296
     5  C   -0.000005   0.000000   0.000000   0.000000   0.000001  -0.000072
     6  S    0.000001   0.000000   0.000000   0.000000   0.000001   0.000010
     7  C    0.000002   0.000000   0.000000   0.000000  -0.000005  -0.000086
     8  O    0.000000   0.000000   0.000000   0.000000   0.000000  -0.000002
     9  O    0.000000   0.000000   0.000000   0.000000   0.000000   0.000000
    10  C   -0.003746  -0.000011   0.000016  -0.000062  -0.004662  -0.000122
    11  C   -0.059002   0.006543   0.000360   0.006737  -0.056593   0.000000
    12  C    0.545129  -0.021572  -0.034182  -0.022379   0.547422   0.000000
    13  C    4.978786   0.520717  -0.038518  -0.046809  -0.038938   0.000000
    14  C    0.520717   4.894964   0.544854  -0.028669  -0.046753   0.000000
    15  C   -0.038518   0.544854   4.882145   0.545342  -0.038520   0.000000
    16  C   -0.046809  -0.028669   0.545342   4.896192   0.519522   0.000000
    17  C   -0.038938  -0.046753  -0.038520   0.519522   4.977166   0.000000
    18  O    0.000000   0.000000   0.000000   0.000000   0.000000   8.260678
    19  O    0.000000   0.000000   0.000000   0.000000   0.000000  -0.043642
    20  H    0.000000   0.000000   0.000000   0.000000   0.000000  -0.000351
    21  H    0.000000   0.000000   0.000000   0.000000   0.000000  -0.000270
    22  H    0.000014   0.000000   0.000000   0.000000   0.000019   0.002005
    23  H    0.000000   0.000000   0.000000   0.000000   0.000000  -0.000107
    24  H    0.000000   0.000000   0.000000   0.000000  -0.000004  -0.000001
    25  H    0.000000   0.000000   0.000000   0.000000   0.000000  -0.000252
    26  H   -0.000002   0.000000   0.000000   0.000000   0.000000   0.000000
    27  H    0.000000   0.000000   0.000000   0.000000   0.000000  -0.000008
    28  H    0.003753  -0.000134  -0.000004  -0.000003  -0.000021   0.000002
    29  H   -0.000048  -0.000020  -0.000006  -0.000145   0.003997   0.000010
    30  H    0.003775  -0.000196   0.000010   0.000137  -0.003816   0.000000
    31  H   -0.003851   0.000092   0.000013  -0.000205   0.003497   0.000000
    32  H    0.360140  -0.043744   0.004726   0.000276   0.005884   0.000000
    33  H   -0.038510   0.360825  -0.042007   0.004474   0.000770   0.000000
    34  H    0.004608  -0.042002   0.363269  -0.042007   0.004607   0.000000
    35  H    0.000768   0.004472  -0.042103   0.360723  -0.038367   0.000000
    36  H    0.005937   0.000276   0.004721  -0.043824   0.359980   0.000000
              19         20         21         22         23         24
     1  C   -0.054760   0.344255   0.351382   0.337013  -0.000028   0.000006
     2  S    0.407939  -0.007169  -0.011518  -0.010065  -0.005016  -0.000124
     3  N   -0.052147   0.000004   0.002179  -0.001021   0.292357   0.003458
     4  C    0.004440   0.000247  -0.000027  -0.000298  -0.022570  -0.029819
     5  C   -0.006400   0.000000   0.000007   0.000009   0.004401   0.333636
     6  S   -0.000324   0.000001   0.000000  -0.000004  -0.000477  -0.006026
     7  C    0.000132  -0.000005   0.000002   0.000018  -0.005881   0.005116
     8  O   -0.000001   0.000000   0.000000   0.000000  -0.000007   0.001165
     9  O    0.000000   0.000000   0.000000   0.000000   0.000002   0.000987
    10  C   -0.004560  -0.000113   0.000085   0.002047   0.000104  -0.006371
    11  C   -0.000019  -0.000004   0.000000  -0.000148  -0.000080   0.001753
    12  C    0.000001   0.000000   0.000000   0.000047   0.000001   0.000026
    13  C    0.000000   0.000000   0.000000   0.000014   0.000000   0.000000
    14  C    0.000000   0.000000   0.000000   0.000000   0.000000   0.000000
    15  C    0.000000   0.000000   0.000000   0.000000   0.000000   0.000000
    16  C    0.000000   0.000000   0.000000   0.000000   0.000000   0.000000
    17  C    0.000000   0.000000   0.000000   0.000019   0.000000  -0.000004
    18  O   -0.043642  -0.000351  -0.000270   0.002005  -0.000107  -0.000001
    19  O    8.313951   0.001759  -0.000335  -0.000804   0.001303   0.000028
    20  H    0.001759   0.469998  -0.017705  -0.021572   0.000075   0.000000
    21  H   -0.000335  -0.017705   0.455825  -0.018157   0.000024   0.000000
    22  H   -0.000804  -0.021572  -0.018157   0.482142   0.000064   0.000005
    23  H    0.001303   0.000075   0.000024   0.000064   0.313564  -0.000080
    24  H    0.000028   0.000000   0.000000   0.000005  -0.000080   0.474021
    25  H    0.014087  -0.000005   0.000001   0.000005   0.000042  -0.012244
    26  H    0.000001   0.000000   0.000000   0.000000   0.000075  -0.000004
    27  H    0.000004  -0.000002   0.000000   0.000000   0.004245  -0.000207
    28  H    0.000076   0.000127   0.000033   0.000483   0.002193   0.000122
    29  H    0.003462   0.000074   0.000104   0.005397  -0.000260   0.000499
    30  H    0.000004   0.000000   0.000000   0.000004   0.000004   0.006712
    31  H   -0.000001   0.000000   0.000000   0.000003  -0.000006   0.000033
    32  H    0.000000   0.000000   0.000000   0.000000   0.000000   0.000000
    33  H    0.000000   0.000000   0.000000   0.000000   0.000000   0.000000
    34  H    0.000000   0.000000   0.000000   0.000000   0.000000   0.000000
    35  H    0.000000   0.000000   0.000000   0.000000   0.000000   0.000000
    36  H    0.000000   0.000000   0.000000  -0.000001   0.000000   0.000046
              25         26         27         28         29         30
     1  C    0.000117   0.000003  -0.000003  -0.000029  -0.005370   0.000000
     2  S   -0.000093   0.000001   0.000086  -0.001003   0.009823  -0.000011
     3  N   -0.003618   0.003228  -0.004321  -0.000649  -0.005308   0.000007
     4  C   -0.019507  -0.027861  -0.022078  -0.033977  -0.032658  -0.005192
     5  C    0.339357   0.004832   0.008540   0.005163  -0.006266   0.001389
     6  S   -0.008920  -0.004747  -0.009937  -0.000092  -0.000144  -0.000043
     7  C    0.008000   0.334456   0.345777  -0.005729   0.005074  -0.000329
     8  O   -0.000407   0.001125  -0.000171   0.000001   0.000001   0.000001
     9  O    0.000533   0.000829   0.000634   0.000002   0.000001  -0.000021
    10  C    0.001055  -0.006038   0.000849   0.369812   0.364033  -0.038279
    11  C    0.000105   0.001999   0.000078  -0.034520  -0.036559   0.361207
    12  C   -0.000002   0.000028  -0.000001  -0.001884  -0.000670  -0.027647
    13  C    0.000000  -0.000002   0.000000   0.003753  -0.000048   0.003775
    14  C    0.000000   0.000000   0.000000  -0.000134  -0.000020  -0.000196
    15  C    0.000000   0.000000   0.000000  -0.000004  -0.000006   0.000010
    16  C    0.000000   0.000000   0.000000  -0.000003  -0.000145   0.000137
    17  C    0.000000   0.000000   0.000000  -0.000021   0.003997  -0.003816
    18  O   -0.000252   0.000000  -0.000008   0.000002   0.000010   0.000000
    19  O    0.014087   0.000001   0.000004   0.000076   0.003462   0.000004
    20  H   -0.000005   0.000000  -0.000002   0.000127   0.000074   0.000000
    21  H    0.000001   0.000000   0.000000   0.000033   0.000104   0.000000
    22  H    0.000005   0.000000   0.000000   0.000483   0.005397   0.000004
    23  H    0.000042   0.000075   0.004245   0.002193  -0.000260   0.000004
    24  H   -0.012244  -0.000004  -0.000207   0.000122   0.000499   0.006712
    25  H    0.430937  -0.000192  -0.000273  -0.000073   0.000236  -0.000004
    26  H   -0.000192   0.464109  -0.013759   0.000489   0.000162   0.000059
    27  H   -0.000273  -0.013759   0.449727   0.000338  -0.000068  -0.000002
    28  H   -0.000073   0.000489   0.000338   0.554098  -0.035962   0.005228
    29  H    0.000236   0.000162  -0.000068  -0.035962   0.553559  -0.004627
    30  H   -0.000004   0.000059  -0.000002   0.005228  -0.004627   0.559914
    31  H   -0.000002   0.006107   0.000001  -0.004878   0.005203  -0.033461
    32  H    0.000000   0.000035   0.000000   0.000817   0.000050   0.000066
    33  H    0.000000   0.000000   0.000000   0.000003   0.000000   0.000003
    34  H    0.000000   0.000000   0.000000   0.000000   0.000000   0.000000
    35  H    0.000000   0.000000   0.000000   0.000000   0.000003  -0.000007
    36  H    0.000000   0.000000   0.000000   0.000026   0.000690   0.005245
              31         32         33         34         35         36
     1  C   -0.000003   0.000000   0.000000   0.000000   0.000000   0.000000
     2  S    0.000016   0.000000   0.000000   0.000000   0.000000  -0.000002
     3  N   -0.000011   0.000001   0.000000   0.000000   0.000000   0.000000
     4  C   -0.004627  -0.000053   0.000000   0.000000   0.000000  -0.000043
     5  C   -0.000260   0.000000   0.000000   0.000000   0.000000  -0.000003
     6  S   -0.000092   0.000000   0.000000   0.000000   0.000000   0.000000
     7  C    0.001437  -0.000002   0.000000   0.000000   0.000000   0.000000
     8  O    0.000001   0.000000   0.000000   0.000000   0.000000   0.000000
     9  O   -0.000015   0.000000   0.000000   0.000000   0.000000   0.000000
    10  C   -0.038069   0.000194  -0.000001   0.000000  -0.000001   0.000133
    11  C    0.361001  -0.008897  -0.000176   0.000006  -0.000177  -0.009276
    12  C   -0.026380  -0.045658   0.003649   0.000625   0.003675  -0.045238
    13  C   -0.003851   0.360140  -0.038510   0.004608   0.000768   0.005937
    14  C    0.000092  -0.043744   0.360825  -0.042002   0.004472   0.000276
    15  C    0.000013   0.004726  -0.042007   0.363269  -0.042103   0.004721
    16  C   -0.000205   0.000276   0.004474  -0.042007   0.360723  -0.043824
    17  C    0.003497   0.005884   0.000770   0.004607  -0.038367   0.359980
    18  O    0.000000   0.000000   0.000000   0.000000   0.000000   0.000000
    19  O   -0.000001   0.000000   0.000000   0.000000   0.000000   0.000000
    20  H    0.000000   0.000000   0.000000   0.000000   0.000000   0.000000
    21  H    0.000000   0.000000   0.000000   0.000000   0.000000   0.000000
    22  H    0.000003   0.000000   0.000000   0.000000   0.000000  -0.000001
    23  H   -0.000006   0.000000   0.000000   0.000000   0.000000   0.000000
    24  H    0.000033   0.000000   0.000000   0.000000   0.000000   0.000046
    25  H   -0.000002   0.000000   0.000000   0.000000   0.000000   0.000000
    26  H    0.006107   0.000035   0.000000   0.000000   0.000000   0.000000
    27  H    0.000001   0.000000   0.000000   0.000000   0.000000   0.000000
    28  H   -0.004878   0.000817   0.000003   0.000000   0.000000   0.000026
    29  H    0.005203   0.000050   0.000000   0.000000   0.000003   0.000690
    30  H   -0.033461   0.000066   0.000003   0.000000  -0.000007   0.005245
    31  H    0.559389   0.004642  -0.000006   0.000000   0.000003   0.000083
    32  H    0.004642   0.580739  -0.005248  -0.000166   0.000017  -0.000164
    33  H   -0.000006  -0.005248   0.571109  -0.005195  -0.000175   0.000016
    34  H    0.000000  -0.000166  -0.005195   0.572074  -0.005214  -0.000166
    35  H    0.000003   0.000017  -0.000175  -0.005214   0.571052  -0.005230
    36  H    0.000083  -0.000164   0.000016  -0.000166  -0.005230   0.579997
 Mulliken charges:
               1
     1  C   -0.632746
     2  S    1.177539
     3  N   -0.716889
     4  C    0.170029
     5  C   -0.483460
     6  S    1.107924
     7  C   -0.499864
     8  O   -0.562262
     9  O   -0.557884
    10  C   -0.290986
    11  C   -0.382052
    12  C    0.156343
    13  C   -0.194289
    14  C   -0.149643
    15  C   -0.150115
    16  C   -0.149303
    17  C   -0.195245
    18  O   -0.560376
    19  O   -0.584192
    20  H    0.230385
    21  H    0.238369
    22  H    0.222794
    23  H    0.416059
    24  H    0.227267
    25  H    0.251116
    26  H    0.235064
    27  H    0.240551
    28  H    0.176192
    29  H    0.175732
    30  H    0.169869
    31  H    0.170346
    32  H    0.146344
    33  H    0.150468
    34  H    0.149560
    35  H    0.150559
    36  H    0.146795
 Sum of Mulliken charges =   0.00000
 Mulliken charges with hydrogens summed into heavy atoms:
               1
     1  C    0.058803
     2  S    1.177539
     3  N   -0.300830
     4  C    0.170029
     5  C   -0.005077
     6  S    1.107924
     7  C   -0.024249
     8  O   -0.562262
     9  O   -0.557884
    10  C    0.060938
    11  C   -0.041837
    12  C    0.156343
    13  C   -0.047946
    14  C    0.000825
    15  C   -0.000555
    16  C    0.001256
    17  C   -0.048450
    18  O   -0.560376
    19  O   -0.584192
 Electronic spatial extent (au):  <R**2>=           7363.5172
 Charge=              0.0000 electrons
 Dipole moment (field-independent basis, Debye):
    X=            -10.2849    Y=              3.1967    Z=             -5.1435  Tot=             11.9354
 Quadrupole moment (field-independent basis, Debye-Ang):
   XX=           -160.8654   YY=           -142.5981   ZZ=           -113.9714
   XY=             -0.5014   XZ=             -5.3028   YZ=             -1.1234
 Traceless Quadrupole moment (field-independent basis, Debye-Ang):
   XX=            -21.7205   YY=             -3.4531   ZZ=             25.1736
   XY=             -0.5014   XZ=             -5.3028   YZ=             -1.1234
 Octapole moment (field-independent basis, Debye-Ang**2):
  XXX=           -152.9992  YYY=             95.9560  ZZZ=            -18.2120  XYY=            -61.9532
  XXY=             23.6468  XXZ=             -6.7904  XZZ=              8.9944  YZZ=             -9.2518
  YYZ=            -27.3412  XYZ=             -5.0870
 Hexadecapole moment (field-independent basis, Debye-Ang**3):
 XXXX=          -6537.3362 YYYY=          -2730.6457 ZZZZ=           -588.8179 XXXY=           -106.7442
 XXXZ=             49.1540 YYYX=             60.1751 YYYZ=             33.6764 ZZZX=            -30.3622
 ZZZY=            -20.0756 XXYY=          -1835.4200 XXZZ=          -1071.1459 YYZZ=           -528.5713
 XXYZ=             50.3173 YYXZ=            -26.9667 ZZXY=            -20.3034
 N-N= 1.821279651493D+03 E-N=-7.448263435034D+03  KE= 1.608797547627D+03
 No NMR shielding tensors so no spin-rotation constants.
 Leave Link  601 at Fri Aug  7 23:33:13 2020, MaxMem=    33554432 cpu:         0.3
 (Enter /prod/apps/gaussian/g09d1/l9999.exe)
 1\1\GINC-PIRINEUS21\SP\RB3LYP\6-31G(d)\C12H17N1O4S2\UBAFAR01\07-Aug-20
 20\0\\#p b3lyp/6-31G(d) scrf=(iefpcm,read,solvent=Water) geom=allcheck
  guess=read\\SM38.n.13.pdb.xyz\\0,1\C,0,1.994,1.124,-0.911\S,0,2.717,-
 0.074,0.218\N,0,3.462,-1.281,-0.674\C,0,2.758,-2.448,-1.253\C,0,2.284,
 -3.399,-0.106\S,0,3.794,-4.397,-0.3\C,0,3.883,-3.379,-1.813\O,0,4.84,-
 4.035,0.678\O,0,3.547,-5.829,-0.553\C,0,1.673,-2.052,-2.269\C,0,0.924,
 -3.202,-2.966\C,0,-0.145,-2.681,-3.903\C,0,0.162,-2.347,-5.229\C,0,-0.
 819,-1.843,-6.085\C,0,-2.126,-1.665,-5.626\C,0,-2.444,-1.995,-4.307\C,
 0,-1.46,-2.498,-3.454\O,0,3.8,0.614,0.934\O,0,1.632,-0.709,0.982\H,0,2
 .783,1.524,-1.547\H,0,1.564,1.914,-0.295\H,0,1.224,0.638,-1.505\H,0,4.
 167,-0.878,-1.292\H,0,1.422,-4.004,-0.383\H,0,2.15,-2.942,0.87\H,0,3.5
 69,-3.973,-2.672\H,0,4.857,-2.926,-1.991\H,0,2.143,-1.417,-3.027\H,0,0
 .938,-1.434,-1.744\H,0,0.46,-3.849,-2.216\H,0,1.63,-3.819,-3.532\H,0,1
 .175,-2.49,-5.595\H,0,-0.563,-1.595,-7.11\H,0,-2.89,-1.276,-6.291\H,0,
 -3.458,-1.865,-3.943\H,0,-1.714,-2.759,-2.431\\Version=AM64L-G09RevD.0
 1\State=1-A\HF=-1619.41472\RMSD=8.891e-09\Dipole=-1.5640027,1.9432223,
 -3.9784104\Quadrupole=5.2766015,-0.8260068,-4.4505947,5.2154487,-16.27
 23815,-3.008355\PG=C01 [X(C12H17N1O4S2)]\\@


 TIME GOES, YOU SAY?  AH NO!
 ALAS, TIME STAYS, WE GO.
    -- A. DOBSON (1840-1921)
 Job cpu time:       0 days  0 hours  4 minutes  8.3 seconds.
 File lengths (MBytes):  RWF=    185 Int=      0 D2E=      0 Chk=      6 Scr=      1
 Normal termination of Gaussian 09 at Fri Aug  7 23:33:13 2020.
