 Entering Gaussian System, Link 0=g16
 Initial command:
 /prod/apps/gaussian/g16b1/l1.exe "/tmp/ubafar01/1461349/Gau-145362.inp" -scrdir="/tmp/ubafar01/1461349/"
 Entering Link 1 = /prod/apps/gaussian/g16b1/l1.exe PID=    145363.
  
 Copyright (c) 1988-2017, Gaussian, Inc.  All Rights Reserved.
  
 This is part of the Gaussian(R) 16 program.  It is based on
 the Gaussian(R) 09 system (copyright 2009, Gaussian, Inc.),
 the Gaussian(R) 03 system (copyright 2003, Gaussian, Inc.),
 the Gaussian(R) 98 system (copyright 1998, Gaussian, Inc.),
 the Gaussian(R) 94 system (copyright 1995, Gaussian, Inc.),
 the Gaussian 92(TM) system (copyright 1992, Gaussian, Inc.),
 the Gaussian 90(TM) system (copyright 1990, Gaussian, Inc.),
 the Gaussian 88(TM) system (copyright 1988, Gaussian, Inc.),
 the Gaussian 86(TM) system (copyright 1986, Carnegie Mellon
 University), and the Gaussian 82(TM) system (copyright 1983,
 Carnegie Mellon University). Gaussian is a federally registered
 trademark of Gaussian, Inc.
  
 This software contains proprietary and confidential information,
 including trade secrets, belonging to Gaussian, Inc.
  
 This software is provided under written license and may be
 used, copied, transmitted, or stored only in accord with that
 written license.
  
 The following legend is applicable only to US Government
 contracts under FAR:
  
                    RESTRICTED RIGHTS LEGEND
  
 Use, reproduction and disclosure by the US Government is
 subject to restrictions as set forth in subparagraphs (a)
 and (c) of the Commercial Computer Software - Restricted
 Rights clause in FAR 52.227-19.
  
 Gaussian, Inc.
 340 Quinnipiac St., Bldg. 40, Wallingford CT 06492
  
  
 ---------------------------------------------------------------
 Warning -- This program may not be used in any manner that
 competes with the business of Gaussian, Inc. or will provide
 assistance to any competitor of Gaussian, Inc.  The licensee
 of this program is prohibited from giving any competitor of
 Gaussian, Inc. access to this program.  By using this program,
 the user acknowledges that Gaussian, Inc. is engaged in the
 business of creating and licensing software in the field of
 computational chemistry and represents and warrants to the
 licensee that it is not a competitor of Gaussian, Inc. and that
 it will not use this program in any manner prohibited above.
 ---------------------------------------------------------------
  

 Cite this work as:
 Gaussian 16, Revision B.01,
 M. J. Frisch, G. W. Trucks, H. B. Schlegel, G. E. Scuseria, 
 M. A. Robb, J. R. Cheeseman, G. Scalmani, V. Barone, 
 G. A. Petersson, H. Nakatsuji, X. Li, M. Caricato, A. V. Marenich, 
 J. Bloino, B. G. Janesko, R. Gomperts, B. Mennucci, H. P. Hratchian, 
 J. V. Ortiz, A. F. Izmaylov, J. L. Sonnenberg, D. Williams-Young, 
 F. Ding, F. Lipparini, F. Egidi, J. Goings, B. Peng, A. Petrone, 
 T. Henderson, D. Ranasinghe, V. G. Zakrzewski, J. Gao, N. Rega, 
 G. Zheng, W. Liang, M. Hada, M. Ehara, K. Toyota, R. Fukuda, 
 J. Hasegawa, M. Ishida, T. Nakajima, Y. Honda, O. Kitao, H. Nakai, 
 T. Vreven, K. Throssell, J. A. Montgomery, Jr., J. E. Peralta, 
 F. Ogliaro, M. J. Bearpark, J. J. Heyd, E. N. Brothers, K. N. Kudin, 
 V. N. Staroverov, T. A. Keith, R. Kobayashi, J. Normand, 
 K. Raghavachari, A. P. Rendell, J. C. Burant, S. S. Iyengar, 
 J. Tomasi, M. Cossi, J. M. Millam, M. Klene, C. Adamo, R. Cammi, 
 J. W. Ochterski, R. L. Martin, K. Morokuma, O. Farkas, 
 J. B. Foresman, and D. J. Fox, Gaussian, Inc., Wallingford CT, 2016.
 
 ******************************************
 Gaussian 16:  ES64L-G16RevB.01 20-Dec-2017
                24-Sep-2020 
 ******************************************
 %nproc=4
 Will use up to    4 processors via shared memory.
 %Chk=SM44_m1.a.8.pdb.xyz.mst.a.w.chk
 %mem=16GB
 ----------------------------------------------------------------------
 #p b3lyp/6-31G(d) opt freq NoSymm scf=(MaxCycle=2000,NoVarAcc,NoIncFoc
 k) scrf=(iefpcm,read,solvent=water)
 ----------------------------------------------------------------------
 1/18=20,19=15,26=3,38=1,40=2/1,3;
 2/9=110,12=2,15=1,17=6,18=5,40=1/2;
 3/5=1,6=6,7=1,11=2,25=1,30=1,70=2203,71=1,72=1,74=-5/1,2,3;
 4//1;
 5/5=100002,7=2000,38=1,53=1/2;
 6/7=2,8=2,9=2,10=2,28=1/1;
 7/30=1/1,2,3,16;
 1/18=20,19=15,26=3/3(2);
 2/9=110,15=1/2;
 99//99;
 2/9=110,15=1/2;
 3/5=1,6=6,7=1,11=2,25=1,30=1,70=2205,71=1,72=1,74=-5/1,2,3;
 4/5=5,16=3,69=1/1;
 5/5=100002,7=2000,38=1,53=1/2;
 7/30=1/1,2,3,16;
 1/18=20,19=15,26=3/3(-5);
 2/9=110,15=1/2;
 6/7=2,8=2,9=2,10=2,19=2,28=1/1;
 99/9=1/99;
 Leave Link    1 at Thu Sep 24 14:39:06 2020, MaxMem=  2147483648 cpu:               0.1 elap:               0.0
 (Enter /prod/apps/gaussian/g16b1/l101.exe)
 -------------------
 SM44_m1.a.8.pdb.xyz
 -------------------
 Symbolic Z-matrix:
 Charge = -1 Multiplicity = 1
 O                     4.536    -1.39     -0.585 
 S                     3.459    -0.441    -0.193 
 N                     2.073    -1.224    -0.379 
 C                     0.879    -0.589    -0.11 
 N                     0.694     0.624     0.517 
 N                    -0.593     0.877     0.626 
 C                    -0.386    -1.096    -0.394 
 N                    -1.258    -0.162     0.083 
 C                    -2.68     -0.171     0.045 
 C                    -3.401     0.476     1.055 
 C                    -4.794     0.473     1.01 
 C                    -5.469    -0.184    -0.023 
 C                    -4.74     -0.833    -1.023 
 C                    -3.344    -0.824    -0.999 
 C                     3.708    -0.105     1.567 
 O                     3.524     0.89     -0.868 
 H                    -0.705    -2.022    -0.844 
 H                    -2.869     0.968     1.862 
 H                    -5.353     0.976     1.793 
 H                    -6.554    -0.189    -0.049 
 H                    -5.254    -1.34     -1.833 
 H                    -2.78     -1.304    -1.791 
 H                     3.706    -1.053     2.109 
 H                     2.898     0.537     1.917 
 H                     4.671     0.396     1.687 
 
 ITRead=  0  0  0  0  0  0  0  0  0  0  0  0  0  0  0  0  0  0  0  0
 ITRead=  0  0  0  0  0
 MicOpt= -1 -1 -1 -1 -1 -1 -1 -1 -1 -1 -1 -1 -1 -1 -1 -1 -1 -1 -1 -1
 MicOpt= -1 -1 -1 -1 -1
 NAtoms=     25 NQM=       25 NQMF=       0 NMMI=      0 NMMIF=      0
                NMic=       0 NMicF=      0.
                    Isotopes and Nuclear Properties:
 (Nuclear quadrupole moments (NQMom) in fm**2, nuclear magnetic moments (NMagM)
  in nuclear magnetons)

  Atom         1           2           3           4           5           6           7           8           9          10
 IAtWgt=          16          32          14          12          14          14          12          14          12          12
 AtmWgt=  15.9949146  31.9720718  14.0030740  12.0000000  14.0030740  14.0030740  12.0000000  14.0030740  12.0000000  12.0000000
 NucSpn=           0           0           2           0           2           2           0           2           0           0
 AtZEff=  -0.0000000  -0.0000000  -0.0000000  -0.0000000  -0.0000000  -0.0000000  -0.0000000  -0.0000000  -0.0000000  -0.0000000
 NQMom=    0.0000000   0.0000000   2.0440000   0.0000000   2.0440000   2.0440000   0.0000000   2.0440000   0.0000000   0.0000000
 NMagM=    0.0000000   0.0000000   0.4037610   0.0000000   0.4037610   0.4037610   0.0000000   0.4037610   0.0000000   0.0000000
 AtZNuc=   8.0000000  16.0000000   7.0000000   6.0000000   7.0000000   7.0000000   6.0000000   7.0000000   6.0000000   6.0000000

  Atom        11          12          13          14          15          16          17          18          19          20
 IAtWgt=          12          12          12          12          12          16           1           1           1           1
 AtmWgt=  12.0000000  12.0000000  12.0000000  12.0000000  12.0000000  15.9949146   1.0078250   1.0078250   1.0078250   1.0078250
 NucSpn=           0           0           0           0           0           0           1           1           1           1
 AtZEff=  -0.0000000  -0.0000000  -0.0000000  -0.0000000  -0.0000000  -0.0000000  -0.0000000  -0.0000000  -0.0000000  -0.0000000
 NQMom=    0.0000000   0.0000000   0.0000000   0.0000000   0.0000000   0.0000000   0.0000000   0.0000000   0.0000000   0.0000000
 NMagM=    0.0000000   0.0000000   0.0000000   0.0000000   0.0000000   0.0000000   2.7928460   2.7928460   2.7928460   2.7928460
 AtZNuc=   6.0000000   6.0000000   6.0000000   6.0000000   6.0000000   8.0000000   1.0000000   1.0000000   1.0000000   1.0000000

  Atom        21          22          23          24          25
 IAtWgt=           1           1           1           1           1
 AtmWgt=   1.0078250   1.0078250   1.0078250   1.0078250   1.0078250
 NucSpn=           1           1           1           1           1
 AtZEff=  -0.0000000  -0.0000000  -0.0000000  -0.0000000  -0.0000000
 NQMom=    0.0000000   0.0000000   0.0000000   0.0000000   0.0000000
 NMagM=    2.7928460   2.7928460   2.7928460   2.7928460   2.7928460
 AtZNuc=   1.0000000   1.0000000   1.0000000   1.0000000   1.0000000
 Leave Link  101 at Thu Sep 24 14:39:06 2020, MaxMem=  2147483648 cpu:               1.3 elap:               0.3
 (Enter /prod/apps/gaussian/g16b1/l103.exe)

 GradGradGradGradGradGradGradGradGradGradGradGradGradGradGradGradGradGrad
 Berny optimization.
 Initialization pass.
                           ----------------------------
                           !    Initial Parameters    !
                           ! (Angstroms and Degrees)  !
 --------------------------                            --------------------------
 ! Name  Definition              Value          Derivative Info.                !
 --------------------------------------------------------------------------------
 ! R1    R(1,2)                  1.488          estimate D2E/DX2                !
 ! R2    R(2,3)                  1.6027         estimate D2E/DX2                !
 ! R3    R(2,15)                 1.809          estimate D2E/DX2                !
 ! R4    R(2,16)                 1.4938         estimate D2E/DX2                !
 ! R5    R(3,4)                  1.3788         estimate D2E/DX2                !
 ! R6    R(4,5)                  1.3779         estimate D2E/DX2                !
 ! R7    R(4,7)                  1.3921         estimate D2E/DX2                !
 ! R8    R(5,6)                  1.3162         estimate D2E/DX2                !
 ! R9    R(6,8)                  1.3478         estimate D2E/DX2                !
 ! R10   R(7,8)                  1.3639         estimate D2E/DX2                !
 ! R11   R(7,17)                 1.0778         estimate D2E/DX2                !
 ! R12   R(8,9)                  1.4225         estimate D2E/DX2                !
 ! R13   R(9,10)                 1.3995         estimate D2E/DX2                !
 ! R14   R(9,14)                 1.399          estimate D2E/DX2                !
 ! R15   R(10,11)                1.3937         estimate D2E/DX2                !
 ! R16   R(10,18)                1.0846         estimate D2E/DX2                !
 ! R17   R(11,12)                1.398          estimate D2E/DX2                !
 ! R18   R(11,19)                1.0856         estimate D2E/DX2                !
 ! R19   R(12,13)                1.3974         estimate D2E/DX2                !
 ! R20   R(12,20)                1.0853         estimate D2E/DX2                !
 ! R21   R(13,14)                1.3962         estimate D2E/DX2                !
 ! R22   R(13,21)                1.0851         estimate D2E/DX2                !
 ! R23   R(14,22)                1.0843         estimate D2E/DX2                !
 ! R24   R(15,23)                1.092          estimate D2E/DX2                !
 ! R25   R(15,24)                1.0912         estimate D2E/DX2                !
 ! R26   R(15,25)                1.0921         estimate D2E/DX2                !
 ! A1    A(1,2,3)              106.4851         estimate D2E/DX2                !
 ! A2    A(1,2,15)             105.9699         estimate D2E/DX2                !
 ! A3    A(1,2,16)             114.6911         estimate D2E/DX2                !
 ! A4    A(3,2,15)             108.8253         estimate D2E/DX2                !
 ! A5    A(3,2,16)             114.8658         estimate D2E/DX2                !
 ! A6    A(15,2,16)            105.5539         estimate D2E/DX2                !
 ! A7    A(2,3,4)              120.0808         estimate D2E/DX2                !
 ! A8    A(3,4,5)              127.6209         estimate D2E/DX2                !
 ! A9    A(3,4,7)              125.4053         estimate D2E/DX2                !
 ! A10   A(5,4,7)              106.9438         estimate D2E/DX2                !
 ! A11   A(4,5,6)              109.7664         estimate D2E/DX2                !
 ! A12   A(5,6,8)              107.5126         estimate D2E/DX2                !
 ! A13   A(4,7,8)              105.0829         estimate D2E/DX2                !
 ! A14   A(4,7,17)             131.8366         estimate D2E/DX2                !
 ! A15   A(8,7,17)             123.0326         estimate D2E/DX2                !
 ! A16   A(6,8,7)              110.6921         estimate D2E/DX2                !
 ! A17   A(6,8,9)              120.587          estimate D2E/DX2                !
 ! A18   A(7,8,9)              128.713          estimate D2E/DX2                !
 ! A19   A(8,9,10)             119.5243         estimate D2E/DX2                !
 ! A20   A(8,9,14)             119.8234         estimate D2E/DX2                !
 ! A21   A(10,9,14)            120.6523         estimate D2E/DX2                !
 ! A22   A(9,10,11)            119.3816         estimate D2E/DX2                !
 ! A23   A(9,10,18)            119.6037         estimate D2E/DX2                !
 ! A24   A(11,10,18)           121.0142         estimate D2E/DX2                !
 ! A25   A(10,11,12)           120.4944         estimate D2E/DX2                !
 ! A26   A(10,11,19)           119.3641         estimate D2E/DX2                !
 ! A27   A(12,11,19)           120.1371         estimate D2E/DX2                !
 ! A28   A(11,12,13)           119.681          estimate D2E/DX2                !
 ! A29   A(11,12,20)           120.1696         estimate D2E/DX2                !
 ! A30   A(13,12,20)           120.1494         estimate D2E/DX2                !
 ! A31   A(12,13,14)           120.4185         estimate D2E/DX2                !
 ! A32   A(12,13,21)           120.272          estimate D2E/DX2                !
 ! A33   A(14,13,21)           119.3059         estimate D2E/DX2                !
 ! A34   A(9,14,13)            119.3653         estimate D2E/DX2                !
 ! A35   A(9,14,22)            120.3188         estimate D2E/DX2                !
 ! A36   A(13,14,22)           120.3077         estimate D2E/DX2                !
 ! A37   A(2,15,23)            108.7472         estimate D2E/DX2                !
 ! A38   A(2,15,24)            108.6119         estimate D2E/DX2                !
 ! A39   A(2,15,25)            108.2686         estimate D2E/DX2                !
 ! A40   A(23,15,24)           110.4991         estimate D2E/DX2                !
 ! A41   A(23,15,25)           110.2012         estimate D2E/DX2                !
 ! A42   A(24,15,25)           110.4498         estimate D2E/DX2                !
 ! D1    D(1,2,3,4)           -179.0074         estimate D2E/DX2                !
 ! D2    D(15,2,3,4)            67.1621         estimate D2E/DX2                !
 ! D3    D(16,2,3,4)           -50.8884         estimate D2E/DX2                !
 ! D4    D(1,2,15,23)          -55.9303         estimate D2E/DX2                !
 ! D5    D(1,2,15,24)         -176.2298         estimate D2E/DX2                !
 ! D6    D(1,2,15,25)           63.8094         estimate D2E/DX2                !
 ! D7    D(3,2,15,23)           58.237          estimate D2E/DX2                !
 ! D8    D(3,2,15,24)          -62.0625         estimate D2E/DX2                !
 ! D9    D(3,2,15,25)          177.9767         estimate D2E/DX2                !
 ! D10   D(16,2,15,23)        -177.9807         estimate D2E/DX2                !
 ! D11   D(16,2,15,24)          61.7198         estimate D2E/DX2                !
 ! D12   D(16,2,15,25)         -58.241          estimate D2E/DX2                !
 ! D13   D(2,3,4,5)            -11.0287         estimate D2E/DX2                !
 ! D14   D(2,3,4,7)            171.2286         estimate D2E/DX2                !
 ! D15   D(3,4,5,6)           -178.1334         estimate D2E/DX2                !
 ! D16   D(7,4,5,6)             -0.0566         estimate D2E/DX2                !
 ! D17   D(3,4,7,8)            177.8942         estimate D2E/DX2                !
 ! D18   D(3,4,7,17)             0.4216         estimate D2E/DX2                !
 ! D19   D(5,4,7,8)             -0.2368         estimate D2E/DX2                !
 ! D20   D(5,4,7,17)          -177.7095         estimate D2E/DX2                !
 ! D21   D(4,5,6,8)              0.3331         estimate D2E/DX2                !
 ! D22   D(5,6,8,7)             -0.4968         estimate D2E/DX2                !
 ! D23   D(5,6,8,9)           -179.5587         estimate D2E/DX2                !
 ! D24   D(4,7,8,6)              0.451          estimate D2E/DX2                !
 ! D25   D(4,7,8,9)            179.4161         estimate D2E/DX2                !
 ! D26   D(17,7,8,6)           178.2051         estimate D2E/DX2                !
 ! D27   D(17,7,8,9)            -2.8298         estimate D2E/DX2                !
 ! D28   D(6,8,9,10)           -30.7577         estimate D2E/DX2                !
 ! D29   D(6,8,9,14)           149.208          estimate D2E/DX2                !
 ! D30   D(7,8,9,10)           150.3669         estimate D2E/DX2                !
 ! D31   D(7,8,9,14)           -29.6674         estimate D2E/DX2                !
 ! D32   D(8,9,10,11)          179.572          estimate D2E/DX2                !
 ! D33   D(8,9,10,18)           -0.679          estimate D2E/DX2                !
 ! D34   D(14,9,10,11)          -0.3935         estimate D2E/DX2                !
 ! D35   D(14,9,10,18)         179.3555         estimate D2E/DX2                !
 ! D36   D(8,9,14,13)          179.6587         estimate D2E/DX2                !
 ! D37   D(8,9,14,22)           -1.3795         estimate D2E/DX2                !
 ! D38   D(10,9,14,13)          -0.376          estimate D2E/DX2                !
 ! D39   D(10,9,14,22)         178.5859         estimate D2E/DX2                !
 ! D40   D(9,10,11,12)           0.8404         estimate D2E/DX2                !
 ! D41   D(9,10,11,19)        -179.9275         estimate D2E/DX2                !
 ! D42   D(18,10,11,12)       -178.9049         estimate D2E/DX2                !
 ! D43   D(18,10,11,19)          0.3272         estimate D2E/DX2                !
 ! D44   D(10,11,12,13)         -0.5142         estimate D2E/DX2                !
 ! D45   D(10,11,12,20)        179.563          estimate D2E/DX2                !
 ! D46   D(19,11,12,13)       -179.7404         estimate D2E/DX2                !
 ! D47   D(19,11,12,20)          0.3368         estimate D2E/DX2                !
 ! D48   D(11,12,13,14)         -0.2684         estimate D2E/DX2                !
 ! D49   D(11,12,13,21)       -179.5723         estimate D2E/DX2                !
 ! D50   D(20,12,13,14)        179.6544         estimate D2E/DX2                !
 ! D51   D(20,12,13,21)          0.3505         estimate D2E/DX2                !
 ! D52   D(12,13,14,9)           0.7077         estimate D2E/DX2                !
 ! D53   D(12,13,14,22)       -178.2543         estimate D2E/DX2                !
 ! D54   D(21,13,14,9)        -179.9817         estimate D2E/DX2                !
 ! D55   D(21,13,14,22)          1.0563         estimate D2E/DX2                !
 --------------------------------------------------------------------------------
 Trust Radius=3.00D-01 FncErr=1.00D-07 GrdErr=1.00D-06 EigMax=2.50D+02 EigMin=1.00D-04
 Number of steps in this run=    133 maximum allowed number of steps=    150.
 GradGradGradGradGradGradGradGradGradGradGradGradGradGradGradGradGradGrad

 Leave Link  103 at Thu Sep 24 14:39:06 2020, MaxMem=  2147483648 cpu:               0.1 elap:               0.0
 (Enter /prod/apps/gaussian/g16b1/l202.exe)
                          Input orientation:                          
 ---------------------------------------------------------------------
 Center     Atomic      Atomic             Coordinates (Angstroms)
 Number     Number       Type             X           Y           Z
 ---------------------------------------------------------------------
      1          8           0        4.536000   -1.390000   -0.585000
      2         16           0        3.459000   -0.441000   -0.193000
      3          7           0        2.073000   -1.224000   -0.379000
      4          6           0        0.879000   -0.589000   -0.110000
      5          7           0        0.694000    0.624000    0.517000
      6          7           0       -0.593000    0.877000    0.626000
      7          6           0       -0.386000   -1.096000   -0.394000
      8          7           0       -1.258000   -0.162000    0.083000
      9          6           0       -2.680000   -0.171000    0.045000
     10          6           0       -3.401000    0.476000    1.055000
     11          6           0       -4.794000    0.473000    1.010000
     12          6           0       -5.469000   -0.184000   -0.023000
     13          6           0       -4.740000   -0.833000   -1.023000
     14          6           0       -3.344000   -0.824000   -0.999000
     15          6           0        3.708000   -0.105000    1.567000
     16          8           0        3.524000    0.890000   -0.868000
     17          1           0       -0.705000   -2.022000   -0.844000
     18          1           0       -2.869000    0.968000    1.862000
     19          1           0       -5.353000    0.976000    1.793000
     20          1           0       -6.554000   -0.189000   -0.049000
     21          1           0       -5.254000   -1.340000   -1.833000
     22          1           0       -2.780000   -1.304000   -1.791000
     23          1           0        3.706000   -1.053000    2.109000
     24          1           0        2.898000    0.537000    1.917000
     25          1           0        4.671000    0.396000    1.687000
 ---------------------------------------------------------------------
                    Distance matrix (angstroms):
                    1          2          3          4          5
     1  O    0.000000
     2  S    1.488017   0.000000
     3  N    2.477168   1.602711   0.000000
     4  C    3.773708   2.585574   1.378848   0.000000
     5  N    4.475664   3.046892   2.473775   1.377942   0.000000
     6  N    5.736937   4.338962   3.540026   2.204005   1.316153
     7  C    4.934471   3.905567   2.462375   1.392096   2.225920
     8  N    5.960255   4.733298   3.526592   2.187772   2.148594
     9  C    7.345306   6.149542   4.886675   3.586813   3.498383
    10  C    8.316702   7.032638   5.908556   4.561781   4.132841
    11  C    9.646953   8.390150   7.208663   5.879215   5.512168
    12  C   10.093082   8.933316   7.621686   6.361501   6.239153
    13  C    9.303025   8.250222   6.854530   5.697918   5.832907
    14  C    7.911141   6.861278   5.467018   4.321953   4.549770
    15  C    2.639680   1.809004   2.777103   3.324128   3.273857
    16  O    2.510505   1.493791   2.610272   3.123785   3.161943
    17  H    5.285318   4.501362   2.927510   2.258606   3.287984
    18  H    8.147515   6.800874   5.852376   4.512265   3.823916
    19  H   10.442469   9.143491   8.043821   6.701377   6.190177
    20  H   11.167712  10.017206   8.695128   7.444005   7.315383
    21  H    9.869352   8.911463   7.470776   6.414547   6.690179
    22  H    7.415234   6.497961   5.054874   4.089654   4.594858
    23  H    2.839032   2.394735   2.980952   3.623698   3.797228
    24  H    3.557580   2.392343   3.008881   3.074568   2.612506
    25  H    2.893096   2.388287   3.693557   4.310301   4.151796
                    6          7          8          9         10
     6  N    0.000000
     7  C    2.230690   0.000000
     8  N    1.347811   1.363917   0.000000
     9  C    2.406540   2.512127   1.422536   0.000000
    10  C    2.868746   3.696080   2.438089   1.399482   0.000000
    11  C    4.237815   4.885022   3.710236   2.411422   1.393730
    12  C    5.032127   5.177478   4.212391   2.789859   2.423697
    13  C    4.779216   4.407054   3.714539   2.412979   2.797228
    14  C    3.619672   3.031464   2.441386   1.399014   2.431494
    15  C    4.510921   4.646336   5.183306   6.567144   7.151055
    16  O    4.379714   4.411006   4.987848   6.359945   7.198955
    17  H    3.252329   1.077839   2.150520   2.849061   4.136982
    18  H    2.591554   3.938898   2.652746   2.152796   1.084591
    19  H    4.901968   5.809238   4.581285   3.393529   2.145914
    20  H    6.093070   6.243869   5.297714   3.875182   3.406237
    21  H    5.717228   5.082094   4.585494   3.393954   3.882269
    22  H    3.921941   2.779588   2.670679   2.159765   3.413760
    23  H    4.940201   4.797012   5.435058   6.768975   7.345625
    24  H    3.737561   4.334982   4.596139   5.926190   6.358000
    25  H    5.391361   5.668322   6.167432   7.553466   8.097099
                   11         12         13         14         15
    11  C    0.000000
    12  C    1.397985   0.000000
    13  C    2.416949   1.397370   0.000000
    14  C    2.796568   2.424418   1.396235   0.000000
    15  C    8.539809   9.314058   8.866047   7.538702   0.000000
    16  O    8.537558   9.096238   8.443130   7.079857   2.636874
    17  H    5.136367   5.171845   4.210343   2.902335   5.381671
    18  H    2.162534   3.411793   3.881684   3.409136   6.670478
    19  H    1.085624   2.157988   3.402662   3.882183   9.128053
    20  H    2.158084   1.085323   2.157315   3.407319  10.388800
    21  H    3.403119   2.158393   1.085055   2.147071   9.664506
    22  H    3.880661   3.407484   2.157143   1.084325   7.403236
    23  H    8.705543   9.459451   9.010701   7.708087   1.092004
    24  H    7.745554   8.619172   8.298165   7.022673   1.091221
    25  H    9.489493  10.299519   9.870231   8.540680   1.092140
                   16         17         18         19         20
    16  O    0.000000
    17  H    5.134663   0.000000
    18  H    6.951937   4.576618   0.000000
    19  H    9.267656   6.127453   2.484971   0.000000
    20  H   10.168632   6.180834   4.309268   2.488492   0.000000
    21  H    9.108096   4.704960   4.966701   4.303665   2.489469
    22  H    6.738396   2.391225   4.302826   4.966265   4.303587
    23  H    3.559621   5.395933   6.883028   9.288820  10.520031
    24  H    2.876232   5.210874   5.783345   8.263601   9.681556
    25  H    2.843883   6.415143   7.563690  10.041325  11.373502
                   21         22         23         24         25
    21  H    0.000000
    22  H    2.474618   0.000000
    23  H    9.793025   7.572397   0.000000
    24  H    9.167373   7.026964   1.793831   0.000000
    25  H   10.672850   8.396659   1.791343   1.793407   0.000000
 Symmetry turned off by external request.
 Stoichiometry    C9H9N4O2S(1-)
 Framework group  C1[X(C9H9N4O2S)]
 Deg. of freedom    69
 Full point group                 C1      NOp   1
 Rotational constants (GHZ):           1.9498456           0.1892053           0.1802187
 Leave Link  202 at Thu Sep 24 14:39:06 2020, MaxMem=  2147483648 cpu:               0.0 elap:               0.0
 (Enter /prod/apps/gaussian/g16b1/l301.exe)
 Standard basis: 6-31G(d) (6D, 7F)
 Ernie: Thresh=  0.10000D-02 Tol=  0.10000D-05 Strict=F.
   262 basis functions,   508 primitive gaussians,   262 cartesian basis functions
    62 alpha electrons       62 beta electrons
       nuclear repulsion energy      1161.7735625823 Hartrees.
 IExCor=  402 DFT=T Ex+Corr=B3LYP ExCW=0 ScaHFX=  0.200000
 ScaDFX=  0.800000  0.720000  1.000000  0.810000 ScalE2=  1.000000  1.000000
 IRadAn=      5 IRanWt=     -1 IRanGd=            0 ICorTp=0 IEmpDi=  4
 NAtoms=   25 NActive=   25 NUniq=   25 SFac= 1.00D+00 NAtFMM=   60 NAOKFM=F Big=F
 Integral buffers will be    131072 words long.
 Raffenetti 2 integral format.
 Two-electron integral symmetry is turned off.
 Using the following non-standard input for PCM:
 MSTModel=DFT cav MSTcharged
 --- end of non-standard input.
 MST model for solvation energy: B3LYP parametrization.
 MST cavity parameters:
 ISph   IAn     Re0     Alpha   Atom Type   QCorr
 ------------------------------------------------
   1      8     1.40     1.25      O          F
   2     16     1.75     1.25      S          F
   3      7     1.40     1.15      N          T
   4      6     1.50     1.25      C          F
   5      7     1.40     1.25      N          F
   6      7     1.40     1.25      N          F
   7      6     1.50     1.25      CH         F
   8      7     1.40     1.25      N          F
   9      6     1.50     1.25      C          F
  10      6     1.50     1.25      CH         F
  11      6     1.50     1.25      CH         F
  12      6     1.50     1.25      CH         F
  13      6     1.50     1.25      CH         F
  14      6     1.50     1.25      CH         F
  15      6     1.50     1.25      CH3        F
  16      8     1.40     1.25      O          F
  17      1     1.20     1.25      CH         F
  18      1     1.20     1.25      CH         F
  19      1     1.20     1.25      CH         F
  20      1     1.20     1.25      CH         F
  21      1     1.20     1.25      CH         F
  22      1     1.20     1.25      CH         F
  23      1     1.20     1.25      CH3        F
  24      1     1.20     1.25      CH3        F
  25      1     1.20     1.25      CH3        F
 ------------------------------------------------------------------------------
 Polarizable Continuum Model (PCM)
 =================================
 Model                : PCM.
 Atomic radii         : MST.
 Polarization charges : Total charges.
 Charge compensation  : None.
 Solution method      : On-the-fly selection.
 Cavity type          : Scaled VdW (van der Waals Surface) (Alpha=1.250).
 Cavity algorithm     : GePol (No added spheres)
                        Default sphere list used, NSphG=   25.
                        Lebedev-Laikov grids with approx.  5.0 points / Ang**2.
                        Smoothing algorithm: York/Karplus (Gamma=1.0000).
                        Polarization charges: spherical gaussians, with
                                              point-specific exponents (IZeta= 3).
                        Self-potential: point-specific (ISelfS= 7).
                        Self-field    : sphere-specific E.n sum rule (ISelfD= 2).
 1st derivatives      : Analytical E(r).r(x)/FMM algorithm (CHGder, D1EAlg=3).
                        Cavity 1st derivative terms included.
 Solvent              : Water, Eps=  78.355300 Eps(inf)=   1.777849
 ------------------------------------------------------------------------------
 GePol: Number of generator spheres                  =      25
 GePol: Total number of spheres                      =      25
 GePol: Number of exposed spheres                    =      25 (100.00%)
 GePol: Number of points                             =    2010
 GePol: Average weight of points                     =       0.13
 GePol: Minimum weight of points                     =   0.15D-09
 GePol: Maximum weight of points                     =    0.22001
 GePol: Number of points with low weight             =     107
 GePol: Fraction of low-weight points (<1% of avg)   =       5.32%
 GePol: Cavity surface area                          =    270.869 Ang**2
 GePol: Cavity volume                                =    250.617 Ang**3
 PCM non-electrostatic energy =         0.0038176282 Hartrees.
 Nuclear repulsion after PCM non-electrostatic terms =     1161.7773802105 Hartrees.
 Leave Link  301 at Thu Sep 24 14:39:06 2020, MaxMem=  2147483648 cpu:               0.3 elap:               0.1
 (Enter /prod/apps/gaussian/g16b1/l302.exe)
 NPDir=0 NMtPBC=     1 NCelOv=     1 NCel=       1 NClECP=     1 NCelD=      1
         NCelK=      1 NCelE2=     1 NClLst=     1 CellRange=     0.0.
 One-electron integrals computed using PRISM.
 NBasis=   262 RedAO= T EigKep=  4.72D-04  NBF=   262
 NBsUse=   262 1.00D-06 EigRej= -1.00D+00 NBFU=   262
 Precomputing XC quadrature grid using
 IXCGrd= 4 IRadAn=           5 IRanWt=          -1 IRanGd=           0 AccXCQ= 0.00D+00.
 Generated NRdTot=       0 NPtTot=           0 NUsed=           0 NTot=          32
 NSgBfM=   260   260   260   260   260 MxSgAt=    25 MxSgA2=    25.
 Leave Link  302 at Thu Sep 24 14:39:06 2020, MaxMem=  2147483648 cpu:               1.1 elap:               0.3
 (Enter /prod/apps/gaussian/g16b1/l303.exe)
 DipDrv:  MaxL=1.
 Leave Link  303 at Thu Sep 24 14:39:06 2020, MaxMem=  2147483648 cpu:               0.1 elap:               0.0
 (Enter /prod/apps/gaussian/g16b1/l401.exe)
 ExpMin= 1.17D-01 ExpMax= 2.19D+04 ExpMxC= 3.30D+03 IAcc=3 IRadAn=         5 AccDes= 0.00D+00
 Harris functional with IExCor=  402 and IRadAn=       5 diagonalized for initial guess.
 HarFok:  IExCor=  402 AccDes= 0.00D+00 IRadAn=         5 IDoV= 1 UseB2=F ITyADJ=14
 ICtDFT=  3500011 ScaDFX=  1.000000  1.000000  1.000000  1.000000
 FoFCou: FMM=F IPFlag=           0 FMFlag=      100000 FMFlg1=           0
         NFxFlg=           0 DoJE=T BraDBF=F KetDBF=T FulRan=T
         wScrn=  0.000000 ICntrl=       500 IOpCl=  0 I1Cent=   200000004 NGrid=           0
         NMat0=    1 NMatS0=      1 NMatT0=    0 NMatD0=    1 NMtDS0=    0 NMtDT0=    0
 Symmetry not used in FoFCou.
 Harris En= -1116.11076247499    
 JPrj=0 DoOrth=F DoCkMO=F.
 Leave Link  401 at Thu Sep 24 14:39:08 2020, MaxMem=  2147483648 cpu:               5.5 elap:               1.4
 (Enter /prod/apps/gaussian/g16b1/l502.exe)
 Keep R1 ints in memory in canonical form, NReq=602618509.
 FoFCou: FMM=F IPFlag=           0 FMFlag=           0 FMFlg1=           0
         NFxFlg=           0 DoJE=F BraDBF=F KetDBF=F FulRan=T
         wScrn=  0.000000 ICntrl=       600 IOpCl=  0 I1Cent=           0 NGrid=           0
         NMat0=    1 NMatS0=  34453 NMatT0=    0 NMatD0=    1 NMtDS0=    0 NMtDT0=    0
 Symmetry not used in FoFCou.
 Two-electron integral symmetry not used.
 Closed shell SCF:
 Using DIIS extrapolation, IDIIS=  1040.
 NGot=  2147483648 LenX=  1553820706 LenY=  1553751621
 Requested convergence on RMS density matrix=1.00D-08 within2000 cycles.
 Requested convergence on MAX density matrix=1.00D-06.
 Requested convergence on             energy=1.00D-06.
 No special actions if energy rises.

 Cycle   1  Pass 1  IDiag  1:
 Inv3:  Mode=1 IEnd=    12120300.
 Iteration    1 A*A^-1 deviation from unit magnitude is 3.66D-15 for    365.
 Iteration    1 A*A^-1 deviation from orthogonality  is 1.89D-15 for   1335   1120.
 Iteration    1 A^-1*A deviation from unit magnitude is 3.44D-15 for    365.
 Iteration    1 A^-1*A deviation from orthogonality  is 3.93D-15 for   1981   1153.
 E= -1115.55010141868    
 DIIS: error= 3.34D-02 at cycle   1 NSaved=   1.
 NSaved= 1 IEnMin= 1 EnMin= -1115.55010141868     IErMin= 1 ErrMin= 3.34D-02
 ErrMax= 3.34D-02  0.00D+00 EMaxC= 1.00D-01 BMatC= 6.07D-01 BMatP= 6.07D-01
 IDIUse=3 WtCom= 6.66D-01 WtEn= 3.34D-01
 Coeff-Com:  0.100D+01
 Coeff-En:   0.100D+01
 Coeff:      0.100D+01
 Gap=     0.225 Goal=   None    Shift=    0.000
 GapD=    0.225 DampG=1.000 DampE=0.500 DampFc=0.5000 IDamp=-1.
 Damping current iteration by 5.00D-01
 RMSDP=7.02D-03 MaxDP=5.02D-01              OVMax= 2.21D-01

 Cycle   2  Pass 1  IDiag  1:
 E= -1115.71659386426     Delta-E=       -0.166492445579 Rises=F Damp=T
 DIIS: error= 1.25D-02 at cycle   2 NSaved=   2.
 NSaved= 2 IEnMin= 2 EnMin= -1115.71659386426     IErMin= 2 ErrMin= 1.25D-02
 ErrMax= 1.25D-02  0.00D+00 EMaxC= 1.00D-01 BMatC= 6.57D-02 BMatP= 6.07D-01
 IDIUse=3 WtCom= 8.75D-01 WtEn= 1.25D-01
 Coeff-Com:  0.185D+00 0.815D+00
 Coeff-En:   0.302D+00 0.698D+00
 Coeff:      0.200D+00 0.800D+00
 Gap=     0.200 Goal=   None    Shift=    0.000
 RMSDP=1.77D-03 MaxDP=1.07D-01 DE=-1.66D-01 OVMax= 1.64D-01

 Cycle   3  Pass 1  IDiag  1:
 E= -1116.03779540536     Delta-E=       -0.321201541103 Rises=F Damp=F
 DIIS: error= 8.56D-03 at cycle   3 NSaved=   3.
 NSaved= 3 IEnMin= 3 EnMin= -1116.03779540536     IErMin= 3 ErrMin= 8.56D-03
 ErrMax= 8.56D-03  0.00D+00 EMaxC= 1.00D-01 BMatC= 2.92D-02 BMatP= 6.57D-02
 IDIUse=3 WtCom= 9.14D-01 WtEn= 8.56D-02
 Coeff-Com:  0.500D-01 0.401D+00 0.549D+00
 Coeff-En:   0.000D+00 0.000D+00 0.100D+01
 Coeff:      0.457D-01 0.366D+00 0.588D+00
 Gap=     0.159 Goal=   None    Shift=    0.000
 RMSDP=8.86D-04 MaxDP=2.73D-02 DE=-3.21D-01 OVMax= 4.01D-02

 Cycle   4  Pass 1  IDiag  1:
 E= -1116.05984704626     Delta-E=       -0.022051640899 Rises=F Damp=F
 DIIS: error= 3.45D-03 at cycle   4 NSaved=   4.
 NSaved= 4 IEnMin= 4 EnMin= -1116.05984704626     IErMin= 4 ErrMin= 3.45D-03
 ErrMax= 3.45D-03  0.00D+00 EMaxC= 1.00D-01 BMatC= 5.51D-03 BMatP= 2.92D-02
 IDIUse=3 WtCom= 9.65D-01 WtEn= 3.45D-02
 Coeff-Com:  0.437D-02 0.843D-01 0.320D+00 0.592D+00
 Coeff-En:   0.000D+00 0.000D+00 0.144D+00 0.856D+00
 Coeff:      0.422D-02 0.814D-01 0.314D+00 0.601D+00
 Gap=     0.157 Goal=   None    Shift=    0.000
 RMSDP=3.25D-04 MaxDP=1.12D-02 DE=-2.21D-02 OVMax= 1.84D-02

 Cycle   5  Pass 1  IDiag  1:
 E= -1116.06411073099     Delta-E=       -0.004263684729 Rises=F Damp=F
 DIIS: error= 9.05D-04 at cycle   5 NSaved=   5.
 NSaved= 5 IEnMin= 5 EnMin= -1116.06411073099     IErMin= 5 ErrMin= 9.05D-04
 ErrMax= 9.05D-04  0.00D+00 EMaxC= 1.00D-01 BMatC= 6.81D-04 BMatP= 5.51D-03
 IDIUse=3 WtCom= 9.91D-01 WtEn= 9.05D-03
 Coeff-Com: -0.969D-03 0.188D-01 0.139D+00 0.354D+00 0.489D+00
 Coeff-En:   0.000D+00 0.000D+00 0.000D+00 0.423D-01 0.958D+00
 Coeff:     -0.960D-03 0.186D-01 0.137D+00 0.351D+00 0.494D+00
 Gap=     0.158 Goal=   None    Shift=    0.000
 RMSDP=1.13D-04 MaxDP=5.95D-03 DE=-4.26D-03 OVMax= 6.58D-03

 Cycle   6  Pass 1  IDiag  1:
 E= -1116.06464961368     Delta-E=       -0.000538882690 Rises=F Damp=F
 DIIS: error= 2.73D-04 at cycle   6 NSaved=   6.
 NSaved= 6 IEnMin= 6 EnMin= -1116.06464961368     IErMin= 6 ErrMin= 2.73D-04
 ErrMax= 2.73D-04  0.00D+00 EMaxC= 1.00D-01 BMatC= 5.08D-05 BMatP= 6.81D-04
 IDIUse=3 WtCom= 9.97D-01 WtEn= 2.73D-03
 Coeff-Com: -0.982D-03 0.296D-02 0.494D-01 0.145D+00 0.280D+00 0.523D+00
 Coeff-En:   0.000D+00 0.000D+00 0.000D+00 0.000D+00 0.000D+00 0.100D+01
 Coeff:     -0.979D-03 0.295D-02 0.493D-01 0.145D+00 0.280D+00 0.525D+00
 Gap=     0.158 Goal=   None    Shift=    0.000
 RMSDP=2.97D-05 MaxDP=1.34D-03 DE=-5.39D-04 OVMax= 1.41D-03

 Cycle   7  Pass 1  IDiag  1:
 E= -1116.06469015083     Delta-E=       -0.000040537149 Rises=F Damp=F
 DIIS: error= 6.48D-05 at cycle   7 NSaved=   7.
 NSaved= 7 IEnMin= 7 EnMin= -1116.06469015083     IErMin= 7 ErrMin= 6.48D-05
 ErrMax= 6.48D-05  0.00D+00 EMaxC= 1.00D-01 BMatC= 3.15D-06 BMatP= 5.08D-05
 IDIUse=1 WtCom= 1.00D+00 WtEn= 0.00D+00
 Coeff-Com: -0.426D-03 0.229D-03 0.152D-01 0.477D-01 0.108D+00 0.278D+00
 Coeff-Com:  0.551D+00
 Coeff:     -0.426D-03 0.229D-03 0.152D-01 0.477D-01 0.108D+00 0.278D+00
 Coeff:      0.551D+00
 Gap=     0.158 Goal=   None    Shift=    0.000
 RMSDP=8.50D-06 MaxDP=3.48D-04 DE=-4.05D-05 OVMax= 5.64D-04

 Cycle   8  Pass 1  IDiag  1:
 E= -1116.06469252289     Delta-E=       -0.000002372062 Rises=F Damp=F
 DIIS: error= 2.33D-05 at cycle   8 NSaved=   8.
 NSaved= 8 IEnMin= 8 EnMin= -1116.06469252289     IErMin= 8 ErrMin= 2.33D-05
 ErrMax= 2.33D-05  0.00D+00 EMaxC= 1.00D-01 BMatC= 4.86D-07 BMatP= 3.15D-06
 IDIUse=1 WtCom= 1.00D+00 WtEn= 0.00D+00
 Coeff-Com: -0.170D-03-0.255D-03 0.423D-02 0.145D-01 0.380D-01 0.117D+00
 Coeff-Com:  0.334D+00 0.493D+00
 Coeff:     -0.170D-03-0.255D-03 0.423D-02 0.145D-01 0.380D-01 0.117D+00
 Coeff:      0.334D+00 0.493D+00
 Gap=     0.158 Goal=   None    Shift=    0.000
 RMSDP=3.26D-06 MaxDP=1.28D-04 DE=-2.37D-06 OVMax= 2.72D-04

 Cycle   9  Pass 1  IDiag  1:
 E= -1116.06469294020     Delta-E=       -0.000000417312 Rises=F Damp=F
 DIIS: error= 5.85D-06 at cycle   9 NSaved=   9.
 NSaved= 9 IEnMin= 9 EnMin= -1116.06469294020     IErMin= 9 ErrMin= 5.85D-06
 ErrMax= 5.85D-06  0.00D+00 EMaxC= 1.00D-01 BMatC= 2.79D-08 BMatP= 4.86D-07
 IDIUse=1 WtCom= 1.00D+00 WtEn= 0.00D+00
 Coeff-Com: -0.159D-04-0.133D-03-0.175D-03-0.157D-03 0.229D-02 0.148D-01
 Coeff-Com:  0.766D-01 0.234D+00 0.673D+00
 Coeff:     -0.159D-04-0.133D-03-0.175D-03-0.157D-03 0.229D-02 0.148D-01
 Coeff:      0.766D-01 0.234D+00 0.673D+00
 Gap=     0.158 Goal=   None    Shift=    0.000
 RMSDP=7.61D-07 MaxDP=2.67D-05 DE=-4.17D-07 OVMax= 6.35D-05

 Cycle  10  Pass 1  IDiag  1:
 E= -1116.06469296351     Delta-E=       -0.000000023309 Rises=F Damp=F
 DIIS: error= 1.90D-06 at cycle  10 NSaved=  10.
 NSaved=10 IEnMin=10 EnMin= -1116.06469296351     IErMin=10 ErrMin= 1.90D-06
 ErrMax= 1.90D-06  0.00D+00 EMaxC= 1.00D-01 BMatC= 2.92D-09 BMatP= 2.79D-08
 IDIUse=1 WtCom= 1.00D+00 WtEn= 0.00D+00
 Coeff-Com: -0.250D-05-0.582D-04-0.278D-03-0.722D-03-0.394D-03 0.280D-02
 Coeff-Com:  0.277D-01 0.106D+00 0.372D+00 0.493D+00
 Coeff:     -0.250D-05-0.582D-04-0.278D-03-0.722D-03-0.394D-03 0.280D-02
 Coeff:      0.277D-01 0.106D+00 0.372D+00 0.493D+00
 Gap=     0.158 Goal=   None    Shift=    0.000
 RMSDP=2.59D-07 MaxDP=1.12D-05 DE=-2.33D-08 OVMax= 2.12D-05

 Cycle  11  Pass 1  IDiag  1:
 E= -1116.06469296586     Delta-E=       -0.000000002353 Rises=F Damp=F
 DIIS: error= 7.55D-07 at cycle  11 NSaved=  11.
 NSaved=11 IEnMin=11 EnMin= -1116.06469296586     IErMin=11 ErrMin= 7.55D-07
 ErrMax= 7.55D-07  0.00D+00 EMaxC= 1.00D-01 BMatC= 3.57D-10 BMatP= 2.92D-09
 IDIUse=1 WtCom= 1.00D+00 WtEn= 0.00D+00
 Coeff-Com:  0.444D-06-0.691D-05-0.129D-03-0.391D-03-0.640D-03-0.117D-02
 Coeff-Com:  0.291D-02 0.191D-01 0.934D-01 0.278D+00 0.609D+00
 Coeff:      0.444D-06-0.691D-05-0.129D-03-0.391D-03-0.640D-03-0.117D-02
 Coeff:      0.291D-02 0.191D-01 0.934D-01 0.278D+00 0.609D+00
 Gap=     0.158 Goal=   None    Shift=    0.000
 RMSDP=8.73D-08 MaxDP=4.26D-06 DE=-2.35D-09 OVMax= 7.42D-06

 Cycle  12  Pass 1  IDiag  1:
 E= -1116.06469296615     Delta-E=       -0.000000000281 Rises=F Damp=F
 DIIS: error= 2.74D-07 at cycle  12 NSaved=  12.
 NSaved=12 IEnMin=12 EnMin= -1116.06469296615     IErMin=12 ErrMin= 2.74D-07
 ErrMax= 2.74D-07  0.00D+00 EMaxC= 1.00D-01 BMatC= 4.27D-11 BMatP= 3.57D-10
 IDIUse=1 WtCom= 1.00D+00 WtEn= 0.00D+00
 Coeff-Com:  0.302D-06 0.176D-05-0.515D-04-0.162D-03-0.338D-03-0.978D-03
 Coeff-Com: -0.927D-03 0.585D-03 0.173D-01 0.111D+00 0.345D+00 0.528D+00
 Coeff:      0.302D-06 0.176D-05-0.515D-04-0.162D-03-0.338D-03-0.978D-03
 Coeff:     -0.927D-03 0.585D-03 0.173D-01 0.111D+00 0.345D+00 0.528D+00
 Gap=     0.158 Goal=   None    Shift=    0.000
 RMSDP=2.78D-08 MaxDP=1.18D-06 DE=-2.81D-10 OVMax= 2.55D-06

 Cycle  13  Pass 1  IDiag  1:
 E= -1116.06469296619     Delta-E=       -0.000000000042 Rises=F Damp=F
 DIIS: error= 6.00D-08 at cycle  13 NSaved=  13.
 NSaved=13 IEnMin=13 EnMin= -1116.06469296619     IErMin=13 ErrMin= 6.00D-08
 ErrMax= 6.00D-08  0.00D+00 EMaxC= 1.00D-01 BMatC= 1.92D-12 BMatP= 4.27D-11
 IDIUse=1 WtCom= 1.00D+00 WtEn= 0.00D+00
 Coeff-Com: -0.336D-08 0.144D-05-0.111D-04-0.345D-04-0.925D-04-0.338D-03
 Coeff-Com: -0.704D-03-0.177D-02-0.204D-02 0.214D-01 0.904D-01 0.226D+00
 Coeff-Com:  0.667D+00
 Coeff:     -0.336D-08 0.144D-05-0.111D-04-0.345D-04-0.925D-04-0.338D-03
 Coeff:     -0.704D-03-0.177D-02-0.204D-02 0.214D-01 0.904D-01 0.226D+00
 Coeff:      0.667D+00
 Gap=     0.158 Goal=   None    Shift=    0.000
 RMSDP=7.75D-09 MaxDP=1.93D-07 DE=-4.23D-11 OVMax= 6.51D-07

 Error on total polarization charges =  0.02260
 SCF Done:  E(RB3LYP) =  -1116.06469297     A.U. after   13 cycles
            NFock= 13  Conv=0.78D-08     -V/T= 2.0074
 KE= 1.107916853810D+03 PE=-4.959827412548D+03 EE= 1.574068485561D+03
 Leave Link  502 at Thu Sep 24 14:39:52 2020, MaxMem=  2147483648 cpu:             144.7 elap:              44.0
 (Enter /prod/apps/gaussian/g16b1/l601.exe)
 Copying SCF densities to generalized density rwf, IOpCl= 0 IROHF=0.

 **********************************************************************

            Population analysis using the SCF Density.

 **********************************************************************

 Alpha  occ. eigenvalues --  -89.08062 -19.10961 -19.10918 -14.42856 -14.38440
 Alpha  occ. eigenvalues --  -14.34512 -14.29432 -10.24500 -10.23977 -10.21320
 Alpha  occ. eigenvalues --  -10.20187 -10.20002 -10.19876 -10.19824 -10.19567
 Alpha  occ. eigenvalues --  -10.19482  -8.10495  -6.06985  -6.06901  -6.06843
 Alpha  occ. eigenvalues --   -1.09048  -1.07068  -0.95745  -0.92592  -0.88047
 Alpha  occ. eigenvalues --   -0.85176  -0.78417  -0.75572  -0.75206  -0.73339
 Alpha  occ. eigenvalues --   -0.65169  -0.63981  -0.60882  -0.58816  -0.56516
 Alpha  occ. eigenvalues --   -0.53343  -0.50068  -0.48212  -0.47772  -0.46856
 Alpha  occ. eigenvalues --   -0.45505  -0.44544  -0.44470  -0.43159  -0.42731
 Alpha  occ. eigenvalues --   -0.41456  -0.40493  -0.38087  -0.36793  -0.35610
 Alpha  occ. eigenvalues --   -0.34741  -0.32983  -0.31289  -0.30712  -0.29326
 Alpha  occ. eigenvalues --   -0.28131  -0.27882  -0.27129  -0.26111  -0.24647
 Alpha  occ. eigenvalues --   -0.24504  -0.19082
 Alpha virt. eigenvalues --   -0.03269  -0.01085   0.02362   0.06604   0.09477
 Alpha virt. eigenvalues --    0.10981   0.12026   0.12659   0.13485   0.14085
 Alpha virt. eigenvalues --    0.15261   0.15458   0.16093   0.16558   0.18408
 Alpha virt. eigenvalues --    0.18784   0.19120   0.19171   0.21047   0.23437
 Alpha virt. eigenvalues --    0.24028   0.26871   0.29731   0.30977   0.32745
 Alpha virt. eigenvalues --    0.33487   0.34318   0.38348   0.39303   0.41474
 Alpha virt. eigenvalues --    0.43945   0.45214   0.48073   0.48700   0.51292
 Alpha virt. eigenvalues --    0.51524   0.52883   0.53167   0.54425   0.55445
 Alpha virt. eigenvalues --    0.56361   0.57256   0.57718   0.58474   0.58883
 Alpha virt. eigenvalues --    0.59343   0.59975   0.60832   0.61259   0.61796
 Alpha virt. eigenvalues --    0.63488   0.64050   0.65935   0.67902   0.69201
 Alpha virt. eigenvalues --    0.72625   0.73148   0.74883   0.76186   0.77230
 Alpha virt. eigenvalues --    0.79198   0.79687   0.81314   0.81762   0.83290
 Alpha virt. eigenvalues --    0.83522   0.84047   0.84191   0.84793   0.87223
 Alpha virt. eigenvalues --    0.89121   0.90341   0.90590   0.91331   0.92298
 Alpha virt. eigenvalues --    0.93816   0.94117   0.95144   0.97299   0.98421
 Alpha virt. eigenvalues --    0.99859   1.00446   1.02360   1.02824   1.03912
 Alpha virt. eigenvalues --    1.05427   1.05661   1.06580   1.08724   1.09869
 Alpha virt. eigenvalues --    1.12904   1.15663   1.16600   1.17180   1.18878
 Alpha virt. eigenvalues --    1.19839   1.21965   1.23588   1.25737   1.26301
 Alpha virt. eigenvalues --    1.31084   1.32749   1.35694   1.38495   1.41972
 Alpha virt. eigenvalues --    1.42091   1.43958   1.44507   1.46064   1.46760
 Alpha virt. eigenvalues --    1.48293   1.50270   1.53980   1.55922   1.58905
 Alpha virt. eigenvalues --    1.60331   1.64332   1.69426   1.70213   1.71686
 Alpha virt. eigenvalues --    1.76665   1.79377   1.80302   1.80810   1.82353
 Alpha virt. eigenvalues --    1.82627   1.83625   1.85279   1.87133   1.88894
 Alpha virt. eigenvalues --    1.89487   1.91696   1.92841   1.94723   1.96715
 Alpha virt. eigenvalues --    1.98378   2.00374   2.02206   2.05453   2.07010
 Alpha virt. eigenvalues --    2.08021   2.10802   2.11595   2.12739   2.13417
 Alpha virt. eigenvalues --    2.15345   2.16717   2.17322   2.20659   2.21352
 Alpha virt. eigenvalues --    2.24192   2.25130   2.25724   2.27788   2.29278
 Alpha virt. eigenvalues --    2.30040   2.31224   2.33467   2.34394   2.36276
 Alpha virt. eigenvalues --    2.47899   2.49235   2.52258   2.55416   2.57984
 Alpha virt. eigenvalues --    2.59027   2.61350   2.64484   2.66837   2.68322
 Alpha virt. eigenvalues --    2.71118   2.72814   2.73454   2.74017   2.79869
 Alpha virt. eigenvalues --    2.82498   2.83947   2.88029   2.89882   3.03936
 Alpha virt. eigenvalues --    3.07623   3.15859   3.25964   3.42052   3.63720
 Alpha virt. eigenvalues --    3.81824   3.90503   3.99215   4.03695   4.07592
 Alpha virt. eigenvalues --    4.09956   4.10870   4.14253   4.21280   4.22714
 Alpha virt. eigenvalues --    4.25063   4.32057   4.40008   4.48345   4.71239
          Condensed to atoms (all electrons):
               1          2          3          4          5          6
     1  O    8.374902   0.446487  -0.067958   0.001152  -0.000048   0.000000
     2  S    0.446487  13.654269   0.273059  -0.020602   0.001826   0.000208
     3  N   -0.067958   0.273059   7.464324   0.359243  -0.076166   0.006155
     4  C    0.001152  -0.020602   0.359243   4.545804   0.330785  -0.075473
     5  N   -0.000048   0.001826  -0.076166   0.330785   7.063326   0.255622
     6  N    0.000000   0.000208   0.006155  -0.075473   0.255622   6.851808
     7  C   -0.000053  -0.001006  -0.065936   0.503999  -0.077913  -0.098246
     8  N    0.000000   0.000384   0.002092  -0.026601  -0.093287   0.221221
     9  C   -0.000000  -0.000016  -0.000095   0.003830   0.006737  -0.040786
    10  C   -0.000000  -0.000000   0.000000  -0.000418   0.000288   0.000990
    11  C   -0.000000  -0.000000  -0.000000   0.000006  -0.000004   0.000248
    12  C   -0.000000  -0.000000  -0.000000   0.000000  -0.000000   0.000020
    13  C   -0.000000  -0.000000   0.000000  -0.000007   0.000002  -0.000076
    14  C    0.000000   0.000001   0.000001   0.000797  -0.000308   0.002511
    15  C   -0.064230   0.178804  -0.064960  -0.003328  -0.008266   0.000165
    16  O   -0.052943   0.408492  -0.059044  -0.001754   0.000417   0.000007
    17  H   -0.000001  -0.000125   0.000024  -0.028927   0.005239   0.004067
    18  H   -0.000000  -0.000000  -0.000000   0.000030  -0.000354   0.015120
    19  H    0.000000   0.000000   0.000000  -0.000000   0.000000  -0.000008
    20  H   -0.000000  -0.000000  -0.000000  -0.000000   0.000000   0.000000
    21  H   -0.000000   0.000000   0.000000   0.000000  -0.000000   0.000001
    22  H    0.000000  -0.000000  -0.000004  -0.000014  -0.000005  -0.000101
    23  H   -0.000035  -0.006441   0.000157   0.000086   0.000198  -0.000004
    24  H    0.002129  -0.003976  -0.003048  -0.000988   0.016462  -0.000643
    25  H   -0.000686  -0.005343   0.002532   0.000152   0.000108   0.000001
               7          8          9         10         11         12
     1  O   -0.000053   0.000000  -0.000000  -0.000000  -0.000000  -0.000000
     2  S   -0.001006   0.000384  -0.000016  -0.000000  -0.000000  -0.000000
     3  N   -0.065936   0.002092  -0.000095   0.000000  -0.000000  -0.000000
     4  C    0.503999  -0.026601   0.003830  -0.000418   0.000006   0.000000
     5  N   -0.077913  -0.093287   0.006737   0.000288  -0.000004  -0.000000
     6  N   -0.098246   0.221221  -0.040786   0.000990   0.000248   0.000020
     7  C    5.115495   0.312286  -0.030230   0.006923  -0.000101   0.000017
     8  N    0.312286   6.879931   0.207521  -0.062185   0.004734   0.000302
     9  C   -0.030230   0.207521   4.633523   0.509885  -0.011569  -0.038057
    10  C    0.006923  -0.062185   0.509885   5.008941   0.515919  -0.039341
    11  C   -0.000101   0.004734  -0.011569   0.515919   4.887737   0.538391
    12  C    0.000017   0.000302  -0.038057  -0.039341   0.538391   4.878824
    13  C   -0.000003   0.004811  -0.010842  -0.041356  -0.025701   0.542785
    14  C   -0.006359  -0.052189   0.526282  -0.070290  -0.041242  -0.040797
    15  C   -0.000380  -0.000017   0.000000   0.000000   0.000000   0.000000
    16  O   -0.000139   0.000001   0.000000  -0.000000   0.000000  -0.000000
    17  H    0.362788  -0.038371  -0.000793  -0.000084  -0.000006  -0.000001
    18  H    0.000180  -0.012583  -0.040890   0.356177  -0.038570   0.004610
    19  H    0.000001  -0.000103   0.003542  -0.037746   0.363244  -0.040497
    20  H   -0.000000   0.000003   0.000482   0.004615  -0.041528   0.365483
    21  H   -0.000004  -0.000108   0.003441   0.000708   0.004441  -0.040077
    22  H    0.006204  -0.008710  -0.038867   0.005511   0.000194   0.004370
    23  H   -0.000013   0.000001   0.000000  -0.000000  -0.000000   0.000000
    24  H    0.000182   0.000055  -0.000001  -0.000000  -0.000000  -0.000000
    25  H    0.000006  -0.000000  -0.000000   0.000000   0.000000  -0.000000
              13         14         15         16         17         18
     1  O   -0.000000   0.000000  -0.064230  -0.052943  -0.000001  -0.000000
     2  S   -0.000000   0.000001   0.178804   0.408492  -0.000125  -0.000000
     3  N    0.000000   0.000001  -0.064960  -0.059044   0.000024  -0.000000
     4  C   -0.000007   0.000797  -0.003328  -0.001754  -0.028927   0.000030
     5  N    0.000002  -0.000308  -0.008266   0.000417   0.005239  -0.000354
     6  N   -0.000076   0.002511   0.000165   0.000007   0.004067   0.015120
     7  C   -0.000003  -0.006359  -0.000380  -0.000139   0.362788   0.000180
     8  N    0.004811  -0.052189  -0.000017   0.000001  -0.038371  -0.012583
     9  C   -0.010842   0.526282   0.000000   0.000000  -0.000793  -0.040890
    10  C   -0.041356  -0.070290   0.000000  -0.000000  -0.000084   0.356177
    11  C   -0.025701  -0.041242   0.000000   0.000000  -0.000006  -0.038570
    12  C    0.542785  -0.040797   0.000000  -0.000000  -0.000001   0.004610
    13  C    4.875426   0.522397  -0.000000   0.000000   0.000124   0.000087
    14  C    0.522397   4.999544  -0.000000   0.000000   0.001888   0.005665
    15  C   -0.000000  -0.000000   5.655540  -0.062725   0.000004   0.000000
    16  O    0.000000   0.000000  -0.062725   8.414772   0.000000   0.000000
    17  H    0.000124   0.001888   0.000004   0.000000   0.500195  -0.000011
    18  H    0.000087   0.005665   0.000000   0.000000  -0.000011   0.548789
    19  H    0.004479   0.000679  -0.000000   0.000000   0.000000  -0.005272
    20  H   -0.041469   0.004774   0.000000   0.000000  -0.000000  -0.000137
    21  H    0.363035  -0.037683  -0.000000  -0.000000  -0.000001   0.000013
    22  H   -0.036661   0.354213  -0.000000   0.000000   0.001314  -0.000127
    23  H   -0.000000  -0.000000   0.339887   0.002170  -0.000000  -0.000000
    24  H   -0.000000   0.000000   0.325176  -0.001059  -0.000003  -0.000000
    25  H    0.000000   0.000000   0.340961  -0.000012  -0.000000   0.000000
              19         20         21         22         23         24
     1  O    0.000000  -0.000000  -0.000000   0.000000  -0.000035   0.002129
     2  S    0.000000  -0.000000   0.000000  -0.000000  -0.006441  -0.003976
     3  N    0.000000  -0.000000   0.000000  -0.000004   0.000157  -0.003048
     4  C   -0.000000  -0.000000   0.000000  -0.000014   0.000086  -0.000988
     5  N    0.000000   0.000000  -0.000000  -0.000005   0.000198   0.016462
     6  N   -0.000008   0.000000   0.000001  -0.000101  -0.000004  -0.000643
     7  C    0.000001  -0.000000  -0.000004   0.006204  -0.000013   0.000182
     8  N   -0.000103   0.000003  -0.000108  -0.008710   0.000001   0.000055
     9  C    0.003542   0.000482   0.003441  -0.038867   0.000000  -0.000001
    10  C   -0.037746   0.004615   0.000708   0.005511  -0.000000  -0.000000
    11  C    0.363244  -0.041528   0.004441   0.000194  -0.000000  -0.000000
    12  C   -0.040497   0.365483  -0.040077   0.004370   0.000000  -0.000000
    13  C    0.004479  -0.041469   0.363035  -0.036661  -0.000000  -0.000000
    14  C    0.000679   0.004774  -0.037683   0.354213  -0.000000   0.000000
    15  C   -0.000000   0.000000  -0.000000  -0.000000   0.339887   0.325176
    16  O    0.000000   0.000000  -0.000000   0.000000   0.002170  -0.001059
    17  H    0.000000  -0.000000  -0.000001   0.001314  -0.000000  -0.000003
    18  H   -0.005272  -0.000137   0.000013  -0.000127  -0.000000  -0.000000
    19  H    0.556487  -0.005079  -0.000166   0.000013   0.000000   0.000000
    20  H   -0.005079   0.561307  -0.005057  -0.000144  -0.000000  -0.000000
    21  H   -0.000166  -0.005057   0.555615  -0.005185   0.000000   0.000000
    22  H    0.000013  -0.000144  -0.005185   0.546875  -0.000000  -0.000000
    23  H    0.000000  -0.000000   0.000000  -0.000000   0.515297  -0.022757
    24  H    0.000000  -0.000000   0.000000  -0.000000  -0.022757   0.509002
    25  H   -0.000000  -0.000000  -0.000000   0.000000  -0.022935  -0.022027
              25
     1  O   -0.000686
     2  S   -0.005343
     3  N    0.002532
     4  C    0.000152
     5  N    0.000108
     6  N    0.000001
     7  C    0.000006
     8  N   -0.000000
     9  C   -0.000000
    10  C    0.000000
    11  C    0.000000
    12  C   -0.000000
    13  C    0.000000
    14  C    0.000000
    15  C    0.340961
    16  O   -0.000012
    17  H   -0.000000
    18  H    0.000000
    19  H   -0.000000
    20  H   -0.000000
    21  H   -0.000000
    22  H    0.000000
    23  H   -0.022935
    24  H   -0.022027
    25  H    0.509588
 Mulliken charges:
               1
     1  O   -0.638717
     2  S    1.073980
     3  N   -0.770377
     4  C    0.412227
     5  N   -0.424658
     6  N   -0.142805
     7  C   -0.027699
     8  N   -0.339188
     9  C    0.316902
    10  C   -0.158534
    11  C   -0.156190
    12  C   -0.136031
    13  C   -0.157034
    14  C   -0.169887
    15  C   -0.636633
    16  O   -0.648183
    17  H    0.192681
    18  H    0.167275
    19  H    0.160426
    20  H    0.156748
    21  H    0.161027
    22  H    0.171126
    23  H    0.194391
    24  H    0.201496
    25  H    0.197656
 Sum of Mulliken charges =  -1.00000
 Mulliken charges with hydrogens summed into heavy atoms:
               1
     1  O   -0.638717
     2  S    1.073980
     3  N   -0.770377
     4  C    0.412227
     5  N   -0.424658
     6  N   -0.142805
     7  C    0.164983
     8  N   -0.339188
     9  C    0.316902
    10  C    0.008740
    11  C    0.004235
    12  C    0.020717
    13  C    0.003993
    14  C    0.001240
    15  C   -0.043089
    16  O   -0.648183
 Electronic spatial extent (au):  <R**2>=           5752.3589
 Charge=             -1.0000 electrons
 Dipole moment (field-independent basis, Debye):
    X=            -17.7396    Y=             -0.2331    Z=              3.6372  Tot=             18.1102
 Quadrupole moment (field-independent basis, Debye-Ang):
   XX=           -139.2736   YY=           -112.4980   ZZ=            -98.1311
   XY=             12.7693   XZ=             20.8195   YZ=              1.3745
 Traceless Quadrupole moment (field-independent basis, Debye-Ang):
   XX=            -22.6394   YY=              4.1363   ZZ=             18.5031
   XY=             12.7693   XZ=             20.8195   YZ=              1.3745
 Octapole moment (field-independent basis, Debye-Ang**2):
  XXX=           -286.4185  YYY=             79.2821  ZZZ=             -3.7946  XYY=            -21.7835
  XXY=             68.8191  XXZ=             73.9715  XZZ=             -0.5954  YZZ=             21.6481
  YYZ=             -1.2754  XYZ=            -23.5169
 Hexadecapole moment (field-independent basis, Debye-Ang**3):
 XXXX=          -6989.3375 YYYY=           -482.0647 ZZZZ=           -468.1333 XXXY=            335.6919
 XXXZ=            324.5600 YYYX=            133.3095 YYYZ=            -95.1234 ZZZX=             29.1484
 ZZZY=            -81.4848 XXYY=          -1353.6433 XXZZ=          -1152.5310 YYZZ=           -150.3050
 XXYZ=             19.0444 YYXZ=             40.5801 ZZXY=             30.5967
 N-N= 1.161777380210D+03 E-N=-4.959827411053D+03  KE= 1.107916853810D+03
 No NMR shielding tensors so no spin-rotation constants.
 Leave Link  601 at Thu Sep 24 14:39:52 2020, MaxMem=  2147483648 cpu:               0.4 elap:               0.1
 (Enter /prod/apps/gaussian/g16b1/l701.exe)
 ... and contract with generalized density number  0.
 Compute integral first derivatives.
 D1PCM: PCM CHGder 1st derivatives, ID1Alg=3 FixD1E=F DoIter=F DoCFld=F I1PDM=0.
 GePol: Maximum number of non-zero 1st derivatives   =     183
 Leave Link  701 at Thu Sep 24 14:39:54 2020, MaxMem=  2147483648 cpu:               6.1 elap:               1.5
 (Enter /prod/apps/gaussian/g16b1/l702.exe)
 L702 exits ... SP integral derivatives will be done elsewhere.
 Leave Link  702 at Thu Sep 24 14:39:54 2020, MaxMem=  2147483648 cpu:               0.1 elap:               0.0
 (Enter /prod/apps/gaussian/g16b1/l703.exe)
 Integral derivatives from FoFJK, PRISM(SPDF).
 Compute integral first derivatives, UseDBF=F ICtDFT=           0.
 Calling FoFJK, ICntrl=      2127 FMM=F ISym2X=0 I1Cent= 0 IOpClX= 0 NMat=1 NMatS=1 NMatT=0.
 FoFJK:  IHMeth= 1 ICntrl=    2127 DoSepK=F KAlg= 0 I1Cent=           0 FoldK=F
 IRaf=         0 NMat=       1 IRICut=       1 DoRegI=T DoRafI=F ISym2E= 0 IDoP0=0 IntGTp=1.
 FoFCou: FMM=F IPFlag=           0 FMFlag=      100000 FMFlg1=         800
         NFxFlg=           0 DoJE=F BraDBF=F KetDBF=F FulRan=T
         wScrn=  0.000000 ICntrl=      2127 IOpCl=  0 I1Cent=           0 NGrid=           0
         NMat0=    1 NMatS0=      1 NMatT0=    0 NMatD0=    1 NMtDS0=    0 NMtDT0=    0
 Symmetry not used in FoFCou.
 Leave Link  703 at Thu Sep 24 14:40:04 2020, MaxMem=  2147483648 cpu:              42.6 elap:              10.7
 (Enter /prod/apps/gaussian/g16b1/l716.exe)
 Dipole        =-6.97930764D+00-9.17034410D-02 1.43098536D+00
 -------------------------------------------------------------------
 Center     Atomic                   Forces (Hartrees/Bohr)
 Number     Number              X              Y              Z
 -------------------------------------------------------------------
      1        8          -0.001037996    0.000831856    0.000418534
      2       16           0.000527212    0.000705850   -0.000238482
      3        7          -0.000242709    0.000260720    0.000130625
      4        6          -0.000895447    0.000152368   -0.000020721
      5        7           0.000652331   -0.000465090   -0.000007586
      6        7          -0.000288517   -0.000173118    0.000078285
      7        6           0.000096950   -0.001116284   -0.000627676
      8        7           0.000704918   -0.000150080    0.000066983
      9        6          -0.001167052   -0.000447285   -0.000570560
     10        6           0.000972880    0.000475065    0.000502753
     11        6          -0.000524553   -0.000212272   -0.000147991
     12        6           0.000671513   -0.000111883   -0.000405329
     13        6           0.000970838    0.000396325    0.000734170
     14        6          -0.000966489    0.000391758    0.000606637
     15        6          -0.000465569   -0.000059195    0.000237339
     16        8          -0.000077423   -0.001363922    0.000731650
     17        1          -0.000030094    0.001724315    0.000492076
     18        1          -0.000495267   -0.000717341   -0.001301807
     19        1           0.000481314   -0.000376240   -0.000586411
     20        1           0.000608488   -0.000032717    0.000039534
     21        1           0.000184555    0.000196917    0.000324069
     22        1           0.000258580    0.000160454    0.000884198
     23        1          -0.000004485    0.000910594   -0.000564900
     24        1           0.000558115   -0.000719563   -0.000663012
     25        1          -0.000492093   -0.000261233   -0.000112379
 -------------------------------------------------------------------
 Cartesian Forces:  Max     0.001724315 RMS     0.000603211
 Leave Link  716 at Thu Sep 24 14:40:04 2020, MaxMem=  2147483648 cpu:               0.1 elap:               0.1
 (Enter /prod/apps/gaussian/g16b1/l103.exe)

 GradGradGradGradGradGradGradGradGradGradGradGradGradGradGradGradGradGrad
 Berny optimization.
 FormGI is forming the generalized inverse of G from B-inverse, IUseBI=4.
 GSVD:  received Info=                   1 from GESDD.
 Internal  Forces:  Max     0.002254393 RMS     0.000633339
 Search for a local minimum.
 Step number   1 out of a maximum of  133
 All quantities printed in internal units (Hartrees-Bohrs-Radians)
 RMS Force = .63334D-03 SwitMx=.10000D-02 MixMth= 2
 Mixed Optimization -- En-DIIS/RFO-DIIS
 Second derivative matrix not updated -- first step.
 ITU=  0
     Eigenvalues ---    0.00251   0.01394   0.01826   0.01887   0.01972
     Eigenvalues ---    0.02083   0.02103   0.02119   0.02120   0.02121
     Eigenvalues ---    0.02125   0.02132   0.02133   0.02134   0.02139
     Eigenvalues ---    0.02150   0.02185   0.02583   0.05874   0.05927
     Eigenvalues ---    0.08500   0.09541   0.15976   0.15997   0.15999
     Eigenvalues ---    0.15999   0.16000   0.16000   0.16000   0.16000
     Eigenvalues ---    0.16000   0.16690   0.21199   0.21999   0.22000
     Eigenvalues ---    0.23490   0.23786   0.24983   0.24996   0.24999
     Eigenvalues ---    0.25000   0.25000   0.25000   0.25420   0.34566
     Eigenvalues ---    0.34582   0.34672   0.35323   0.35359   0.35390
     Eigenvalues ---    0.35445   0.35477   0.36257   0.41818   0.41968
     Eigenvalues ---    0.42081   0.44102   0.45665   0.45829   0.45876
     Eigenvalues ---    0.46097   0.46510   0.49313   0.50697   0.50816
     Eigenvalues ---    0.53667   0.60515   0.78770   0.80786
 RFO step:  Lambda=-2.25707644D-04 EMin= 2.51190247D-03
 Linear search not attempted -- first point.
 Iteration  1 RMS(Cart)=  0.02159903 RMS(Int)=  0.00015105
 Iteration  2 RMS(Cart)=  0.00020338 RMS(Int)=  0.00000391
 Iteration  3 RMS(Cart)=  0.00000003 RMS(Int)=  0.00000391
 ITry= 1 IFail=0 DXMaxC= 8.37D-02 DCOld= 1.00D+10 DXMaxT= 3.00D-01 DXLimC= 3.00D+00 Rises=F
 Variable       Old X    -DE/DX   Delta X   Delta X   Delta X     New X
                                 (Linear)    (Quad)   (Total)
    R1        2.81194  -0.00139   0.00000  -0.00172  -0.00172   2.81022
    R2        3.02868  -0.00087   0.00000  -0.00172  -0.00172   3.02696
    R3        3.41852  -0.00114   0.00000  -0.00449  -0.00449   3.41404
    R4        2.82286  -0.00155   0.00000  -0.00197  -0.00197   2.82089
    R5        2.60565  -0.00119   0.00000  -0.00242  -0.00242   2.60323
    R6        2.60393  -0.00048   0.00000  -0.00094  -0.00094   2.60299
    R7        2.63068  -0.00123   0.00000  -0.00271  -0.00271   2.62797
    R8        2.48717  -0.00013   0.00000  -0.00012  -0.00012   2.48705
    R9        2.54699  -0.00034   0.00000  -0.00059  -0.00059   2.54640
   R10        2.57743  -0.00117   0.00000  -0.00231  -0.00231   2.57512
   R11        2.03682  -0.00168   0.00000  -0.00463  -0.00463   2.03219
   R12        2.68820  -0.00100   0.00000  -0.00237  -0.00237   2.68584
   R13        2.64464  -0.00145   0.00000  -0.00316  -0.00316   2.64148
   R14        2.64375  -0.00207   0.00000  -0.00465  -0.00465   2.63911
   R15        2.63377  -0.00052   0.00000  -0.00097  -0.00097   2.63280
   R16        2.04958  -0.00154   0.00000  -0.00434  -0.00434   2.04524
   R17        2.64181  -0.00084   0.00000  -0.00171  -0.00171   2.64010
   R18        2.05153  -0.00085   0.00000  -0.00239  -0.00239   2.04914
   R19        2.64065  -0.00126   0.00000  -0.00274  -0.00274   2.63790
   R20        2.05096  -0.00061   0.00000  -0.00172  -0.00172   2.04924
   R21        2.63850  -0.00187   0.00000  -0.00418  -0.00418   2.63432
   R22        2.05046  -0.00042   0.00000  -0.00119  -0.00119   2.04927
   R23        2.04908  -0.00058   0.00000  -0.00164  -0.00164   2.04744
   R24        2.06359  -0.00106   0.00000  -0.00307  -0.00307   2.06052
   R25        2.06211  -0.00105   0.00000  -0.00303  -0.00303   2.05908
   R26        2.06385  -0.00057   0.00000  -0.00165  -0.00165   2.06220
    A1        1.85852   0.00021   0.00000   0.00145   0.00145   1.85997
    A2        1.84952   0.00038   0.00000   0.00213   0.00214   1.85166
    A3        2.00174  -0.00000   0.00000   0.00124   0.00124   2.00298
    A4        1.89936  -0.00084   0.00000  -0.00401  -0.00401   1.89535
    A5        2.00479   0.00025   0.00000   0.00001   0.00000   2.00479
    A6        1.84226  -0.00006   0.00000  -0.00104  -0.00104   1.84122
    A7        2.09581  -0.00225   0.00000  -0.00901  -0.00901   2.08680
    A8        2.22741  -0.00096   0.00000  -0.00381  -0.00381   2.22359
    A9        2.18874   0.00035   0.00000   0.00141   0.00141   2.19014
   A10        1.86652   0.00061   0.00000   0.00231   0.00231   1.86883
   A11        1.91578  -0.00036   0.00000  -0.00107  -0.00107   1.91472
   A12        1.87645  -0.00052   0.00000  -0.00171  -0.00171   1.87474
   A13        1.83404  -0.00040   0.00000  -0.00212  -0.00212   1.83192
   A14        2.30098   0.00077   0.00000   0.00468   0.00468   2.30566
   A15        2.14732  -0.00036   0.00000  -0.00238  -0.00239   2.14494
   A16        1.93194   0.00067   0.00000   0.00255   0.00255   1.93449
   A17        2.10464   0.00045   0.00000   0.00182   0.00182   2.10646
   A18        2.24647  -0.00112   0.00000  -0.00443  -0.00443   2.24203
   A19        2.08609   0.00027   0.00000   0.00118   0.00117   2.08727
   A20        2.09131  -0.00085   0.00000  -0.00333  -0.00333   2.08798
   A21        2.10578   0.00058   0.00000   0.00215   0.00215   2.10793
   A22        2.08360  -0.00051   0.00000  -0.00196  -0.00196   2.08164
   A23        2.08748  -0.00005   0.00000  -0.00091  -0.00091   2.08657
   A24        2.11210   0.00056   0.00000   0.00287   0.00287   2.11497
   A25        2.10302  -0.00022   0.00000  -0.00038  -0.00039   2.10264
   A26        2.08330   0.00006   0.00000  -0.00014  -0.00014   2.08316
   A27        2.09679   0.00016   0.00000   0.00053   0.00053   2.09732
   A28        2.08883   0.00007   0.00000   0.00059   0.00059   2.08942
   A29        2.09735  -0.00003   0.00000  -0.00029  -0.00030   2.09706
   A30        2.09700  -0.00003   0.00000  -0.00029  -0.00029   2.09671
   A31        2.10170  -0.00006   0.00000  -0.00054  -0.00053   2.10116
   A32        2.09914   0.00001   0.00000   0.00018   0.00018   2.09932
   A33        2.08228   0.00004   0.00000   0.00037   0.00037   2.08265
   A34        2.08332   0.00014   0.00000   0.00014   0.00013   2.08345
   A35        2.09996  -0.00074   0.00000  -0.00421  -0.00422   2.09574
   A36        2.09977   0.00060   0.00000   0.00418   0.00417   2.10394
   A37        1.89800   0.00002   0.00000   0.00011   0.00011   1.89810
   A38        1.89564  -0.00058   0.00000  -0.00393  -0.00393   1.89171
   A39        1.88964   0.00005   0.00000   0.00070   0.00070   1.89035
   A40        1.92857   0.00018   0.00000   0.00038   0.00038   1.92895
   A41        1.92337   0.00004   0.00000   0.00096   0.00096   1.92433
   A42        1.92771   0.00026   0.00000   0.00169   0.00169   1.92940
    D1       -3.12427  -0.00043   0.00000  -0.01428  -0.01428  -3.13855
    D2        1.17220  -0.00058   0.00000  -0.01558  -0.01558   1.15662
    D3       -0.88817  -0.00007   0.00000  -0.01144  -0.01144  -0.89961
    D4       -0.97617  -0.00000   0.00000   0.00918   0.00919  -0.96698
    D5       -3.07579   0.00011   0.00000   0.01098   0.01098  -3.06481
    D6        1.11368   0.00010   0.00000   0.01080   0.01080   1.12449
    D7        1.01643   0.00004   0.00000   0.01006   0.01006   1.02648
    D8       -1.08319   0.00015   0.00000   0.01185   0.01185  -1.07135
    D9        3.10628   0.00014   0.00000   0.01168   0.01167   3.11795
   D10       -3.10635  -0.00016   0.00000   0.00720   0.00720  -3.09915
   D11        1.07721  -0.00006   0.00000   0.00899   0.00899   1.08621
   D12       -1.01650  -0.00007   0.00000   0.00882   0.00882  -1.00768
   D13       -0.19249  -0.00020   0.00000  -0.01003  -0.01003  -0.20251
   D14        2.98850  -0.00013   0.00000  -0.00656  -0.00656   2.98194
   D15       -3.10901   0.00000   0.00000   0.00054   0.00053  -3.10848
   D16       -0.00099  -0.00005   0.00000  -0.00241  -0.00241  -0.00340
   D17        3.10484  -0.00008   0.00000  -0.00306  -0.00306   3.10178
   D18        0.00736  -0.00017   0.00000  -0.00766  -0.00768  -0.00032
   D19       -0.00413   0.00000   0.00000  -0.00007  -0.00007  -0.00420
   D20       -3.10162  -0.00008   0.00000  -0.00467  -0.00468  -3.10629
   D21        0.00581   0.00008   0.00000   0.00391   0.00391   0.00972
   D22       -0.00867  -0.00008   0.00000  -0.00404  -0.00404  -0.01271
   D23       -3.13389  -0.00000   0.00000  -0.00065  -0.00065  -3.13454
   D24        0.00787   0.00005   0.00000   0.00249   0.00249   0.01036
   D25        3.13140  -0.00002   0.00000  -0.00116  -0.00115   3.13025
   D26        3.11027   0.00016   0.00000   0.00680   0.00679   3.11706
   D27       -0.04939   0.00009   0.00000   0.00315   0.00314  -0.04625
   D28       -0.53682   0.00038   0.00000   0.02814   0.02814  -0.50868
   D29        2.60417   0.00043   0.00000   0.03066   0.03066   2.63483
   D30        2.62440   0.00046   0.00000   0.03210   0.03210   2.65650
   D31       -0.51779   0.00051   0.00000   0.03463   0.03462  -0.48317
   D32        3.13412   0.00001   0.00000   0.00074   0.00074   3.13486
   D33       -0.01185   0.00005   0.00000   0.00250   0.00250  -0.00935
   D34       -0.00687  -0.00004   0.00000  -0.00180  -0.00181  -0.00867
   D35        3.13034   0.00000   0.00000  -0.00004  -0.00005   3.13030
   D36        3.13564  -0.00002   0.00000  -0.00079  -0.00079   3.13485
   D37       -0.02408   0.00014   0.00000   0.00594   0.00593  -0.01815
   D38       -0.00656   0.00003   0.00000   0.00176   0.00177  -0.00480
   D39        3.11691   0.00019   0.00000   0.00849   0.00848   3.12539
   D40        0.01467  -0.00001   0.00000  -0.00017  -0.00017   0.01450
   D41       -3.14033   0.00001   0.00000   0.00068   0.00068  -3.13965
   D42       -3.12248  -0.00004   0.00000  -0.00194  -0.00195  -3.12443
   D43        0.00571  -0.00002   0.00000  -0.00110  -0.00110   0.00461
   D44       -0.00897   0.00004   0.00000   0.00213   0.00213  -0.00685
   D45        3.13396  -0.00002   0.00000  -0.00085  -0.00086   3.13311
   D46       -3.13706   0.00003   0.00000   0.00128   0.00128  -3.13578
   D47        0.00588  -0.00004   0.00000  -0.00170  -0.00170   0.00417
   D48       -0.00469  -0.00004   0.00000  -0.00217  -0.00217  -0.00685
   D49       -3.13413  -0.00007   0.00000  -0.00326  -0.00326  -3.13739
   D50        3.13556   0.00002   0.00000   0.00081   0.00081   3.13637
   D51        0.00612  -0.00000   0.00000  -0.00028  -0.00028   0.00583
   D52        0.01235   0.00001   0.00000   0.00024   0.00024   0.01259
   D53       -3.11112  -0.00013   0.00000  -0.00641  -0.00642  -3.11754
   D54       -3.14127   0.00003   0.00000   0.00132   0.00132  -3.13995
   D55        0.01844  -0.00011   0.00000  -0.00532  -0.00534   0.01310
         Item               Value     Threshold  Converged?
 Maximum Force            0.002254     0.000450     NO 
 RMS     Force            0.000633     0.000300     NO 
 Maximum Displacement     0.083655     0.001800     NO 
 RMS     Displacement     0.021633     0.001200     NO 
 Predicted change in Energy=-1.135853D-04
 Lowest energy point so far.  Saving SCF results.
 GradGradGradGradGradGradGradGradGradGradGradGradGradGradGradGradGradGrad

 Leave Link  103 at Thu Sep 24 14:40:04 2020, MaxMem=  2147483648 cpu:               0.1 elap:               0.1
 (Enter /prod/apps/gaussian/g16b1/l202.exe)
                          Input orientation:                          
 ---------------------------------------------------------------------
 Center     Atomic      Atomic             Coordinates (Angstroms)
 Number     Number       Type             X           Y           Z
 ---------------------------------------------------------------------
      1          8           0        4.536481   -1.377968   -0.586163
      2         16           0        3.450951   -0.437945   -0.199560
      3          7           0        2.071228   -1.227182   -0.397627
      4          6           0        0.880097   -0.595031   -0.116045
      5          7           0        0.703505    0.603505    0.539452
      6          7           0       -0.581974    0.861191    0.654481
      7          6           0       -0.385791   -1.090321   -0.409571
      8          7           0       -1.250787   -0.163983    0.091044
      9          6           0       -2.671533   -0.169367    0.052363
     10          6           0       -3.391831    0.486405    1.054861
     11          6           0       -4.784187    0.483766    1.005945
     12          6           0       -5.455704   -0.181069   -0.023080
     13          6           0       -4.725255   -0.840204   -1.013317
     14          6           0       -3.331546   -0.831472   -0.985119
     15          6           0        3.678113   -0.107915    1.562085
     16          8           0        3.512244    0.896191   -0.866362
     17          1           0       -0.712655   -1.999234   -0.882332
     18          1           0       -2.860238    0.984358    1.855372
     19          1           0       -5.344334    0.993598    1.781921
     20          1           0       -6.539724   -0.186436   -0.051740
     21          1           0       -5.236999   -1.355859   -1.818426
     22          1           0       -2.761912   -1.323339   -1.764520
     23          1           0        3.685608   -1.057214    2.098462
     24          1           0        2.853732    0.517338    1.903726
     25          1           0        4.630512    0.408189    1.694150
 ---------------------------------------------------------------------
                    Distance matrix (angstroms):
                    1          2          3          4          5
     1  O    0.000000
     2  S    1.487105   0.000000
     3  N    2.477046   1.601800   0.000000
     4  C    3.768707   2.577002   1.377569   0.000000
     5  N    4.459255   3.029723   2.469859   1.377444   0.000000
     6  N    5.722903   4.322225   3.536625   2.202713   1.316089
     7  C    4.933831   3.897472   2.460857   1.390662   2.226265
     8  N    5.951877   4.718670   3.522070   2.183885   2.146942
     9  C    7.336478   6.133548   4.880087   3.581009   3.496494
    10  C    8.308248   7.017953   5.906871   4.559594   4.129302
    11  C    9.637205   8.373786   7.203754   5.874247   5.508785
    12  C   10.079356   8.912106   7.608505   6.349991   6.234409
    13  C    9.287164   8.226442   6.835277   5.682005   5.828106
    14  C    7.897067   6.839169   5.449009   4.306870   4.545889
    15  C    2.639090   1.806631   2.770435   3.298832   3.224933
    16  O    2.509855   1.492748   2.608630   3.116876   3.154519
    17  H    5.294065   4.498824   2.929336   2.257397   3.286522
    18  H    8.139603   6.787990   5.855449   4.513432   3.817979
    19  H   10.433727   9.128670   8.041943   6.698474   6.186457
    20  H   11.152923   9.994933   8.680512   7.431341   7.310122
    21  H    9.850882   8.885030   7.446167   6.394984   6.684929
    22  H    7.393109   6.467820   5.023633   4.063513   4.585862
    23  H    2.834445   2.391540   2.977512   3.603963   3.752525
    24  H    3.552940   2.386011   2.991971   3.035140   2.547969
    25  H    2.898108   2.386094   3.687805   4.283558   4.097909
                    6          7          8          9         10
     6  N    0.000000
     7  C    2.231388   0.000000
     8  N    1.347498   1.362694   0.000000
     9  C    2.406419   2.507221   1.421283   0.000000
    10  C    2.862877   3.696877   2.436395   1.397809   0.000000
    11  C    4.233742   4.881324   3.706958   2.408154   1.393217
    12  C    5.029775   5.165282   4.206501   2.785218   2.422200
    13  C    4.779442   4.388395   3.707940   2.409039   2.795581
    14  C    3.621262   3.012595   2.435822   1.396556   2.429393
    15  C    4.462203   4.622539   5.144041   6.526948   7.112989
[...]
 Alpha  occ. eigenvalues --   -1.03872  -0.95485  -0.94368  -0.92037  -0.85981
 Alpha  occ. eigenvalues --   -0.78886  -0.76892  -0.71120  -0.69893  -0.66099
 Alpha  occ. eigenvalues --   -0.62021  -0.58804  -0.56045  -0.55301  -0.53436
 Alpha  occ. eigenvalues --   -0.52110  -0.51707  -0.50483  -0.48629  -0.47063
 Alpha  occ. eigenvalues --   -0.44866  -0.44196  -0.43690  -0.43148  -0.42600
 Alpha  occ. eigenvalues --   -0.39696  -0.35101  -0.32984  -0.32414  -0.30767
 Alpha  occ. eigenvalues --   -0.28802  -0.28691  -0.27173  -0.26951  -0.24367
 Alpha  occ. eigenvalues --   -0.23737  -0.15058
 Alpha virt. eigenvalues --    0.08723   0.09712   0.10785   0.12818   0.12980
 Alpha virt. eigenvalues --    0.13816   0.14430   0.15391   0.16738   0.17077
 Alpha virt. eigenvalues --    0.17464   0.17764   0.18728   0.19397   0.19916
 Alpha virt. eigenvalues --    0.20141   0.20641   0.20937   0.21597   0.22020
 Alpha virt. eigenvalues --    0.22515   0.22780   0.23276   0.23618   0.23769
 Alpha virt. eigenvalues --    0.24451   0.24815   0.25278   0.25398   0.25558
 Alpha virt. eigenvalues --    0.26062   0.26963   0.27303   0.28056   0.28402
 Alpha virt. eigenvalues --    0.28735   0.29044   0.29925   0.30290   0.30730
 Alpha virt. eigenvalues --    0.31517   0.31974   0.33060   0.34053   0.34583
 Alpha virt. eigenvalues --    0.35050   0.35992   0.36918   0.37154   0.37520
 Alpha virt. eigenvalues --    0.38149   0.38490   0.39127   0.39455   0.40019
 Alpha virt. eigenvalues --    0.40295   0.40720   0.41132   0.41594   0.42597
 Alpha virt. eigenvalues --    0.42850   0.43104   0.43302   0.44362   0.44845
 Alpha virt. eigenvalues --    0.45071   0.45211   0.45519   0.45888   0.46051
 Alpha virt. eigenvalues --    0.46327   0.46931   0.47223   0.47668   0.48086
 Alpha virt. eigenvalues --    0.48161   0.49089   0.49373   0.49850   0.50086
 Alpha virt. eigenvalues --    0.50185   0.51131   0.51671   0.51810   0.52358
 Alpha virt. eigenvalues --    0.52807   0.53428   0.54430   0.54918   0.55179
 Alpha virt. eigenvalues --    0.55417   0.56627   0.56739   0.57655   0.58009
 Alpha virt. eigenvalues --    0.58287   0.58363   0.59409   0.60565   0.60800
 Alpha virt. eigenvalues --    0.60973   0.62169   0.63104   0.63841   0.64924
 Alpha virt. eigenvalues --    0.64989   0.66130   0.66463   0.66949   0.67027
 Alpha virt. eigenvalues --    0.67984   0.68914   0.69170   0.69428   0.70029
 Alpha virt. eigenvalues --    0.70801   0.71698   0.72522   0.72664   0.73258
 Alpha virt. eigenvalues --    0.73578   0.73842   0.74639   0.74889   0.75572
 Alpha virt. eigenvalues --    0.75934   0.76273   0.76779   0.77463   0.78010
 Alpha virt. eigenvalues --    0.78584   0.78806   0.80172   0.80494   0.81401
 Alpha virt. eigenvalues --    0.82430   0.82707   0.83235   0.83678   0.84221
 Alpha virt. eigenvalues --    0.84757   0.85042   0.85507   0.85963   0.86767
 Alpha virt. eigenvalues --    0.88039   0.88211   0.89158   0.89913   0.90287
 Alpha virt. eigenvalues --    0.90894   0.91949   0.93132   0.94270   0.94740
 Alpha virt. eigenvalues --    0.95209   0.96368   0.96689   0.97446   0.98430
 Alpha virt. eigenvalues --    0.98808   0.99121   0.99532   1.00040   1.00736
 Alpha virt. eigenvalues --    1.00900   1.01200   1.01684   1.02871   1.03203
 Alpha virt. eigenvalues --    1.04216   1.04963   1.05892   1.06656   1.07022
 Alpha virt. eigenvalues --    1.08065   1.09134   1.09242   1.09817   1.10935
 Alpha virt. eigenvalues --    1.11782   1.12090   1.13132   1.13308   1.14038
 Alpha virt. eigenvalues --    1.15378   1.16148   1.17068   1.18886   1.19575
 Alpha virt. eigenvalues --    1.19893   1.21549   1.22190   1.22989   1.24002
 Alpha virt. eigenvalues --    1.24965   1.25122   1.26456   1.27376   1.28254
 Alpha virt. eigenvalues --    1.29332   1.29496   1.30127   1.30551   1.32329
 Alpha virt. eigenvalues --    1.32695   1.35085   1.35245   1.36625   1.37129
 Alpha virt. eigenvalues --    1.38126   1.38818   1.40485   1.41534   1.42965
 Alpha virt. eigenvalues --    1.43758   1.45502   1.48011   1.48641   1.49716
 Alpha virt. eigenvalues --    1.50410   1.51722   1.54161   1.54634   1.54943
 Alpha virt. eigenvalues --    1.56445   1.56914   1.57700   1.58990   1.59555
 Alpha virt. eigenvalues --    1.61387   1.61494   1.62087   1.63276   1.64250
 Alpha virt. eigenvalues --    1.65542   1.66367   1.66873   1.67224   1.68895
 Alpha virt. eigenvalues --    1.69179   1.70507   1.71075   1.71667   1.73391
 Alpha virt. eigenvalues --    1.74286   1.74761   1.75330   1.76915   1.77166
 Alpha virt. eigenvalues --    1.77901   1.79261   1.80230   1.80327   1.80988
 Alpha virt. eigenvalues --    1.82181   1.83701   1.84934   1.85192   1.87032
 Alpha virt. eigenvalues --    1.87261   1.88781   1.89672   1.91166   1.93578
 Alpha virt. eigenvalues --    1.94150   1.94903   1.96562   1.96695   1.97559
 Alpha virt. eigenvalues --    1.99718   2.00186   2.01448   2.02565   2.03005
 Alpha virt. eigenvalues --    2.04323   2.04916   2.05399   2.06146   2.07707
 Alpha virt. eigenvalues --    2.08303   2.09237   2.09694   2.12246   2.14649
 Alpha virt. eigenvalues --    2.15051   2.16351   2.17538   2.18120   2.18720
 Alpha virt. eigenvalues --    2.20613   2.22482   2.22864   2.24206   2.24630
 Alpha virt. eigenvalues --    2.26618   2.28490   2.29000   2.30928   2.31519
 Alpha virt. eigenvalues --    2.31591   2.32900   2.34853   2.35514   2.36494
 Alpha virt. eigenvalues --    2.36959   2.38413   2.39271   2.40410   2.41050
 Alpha virt. eigenvalues --    2.42765   2.44449   2.44901   2.45570   2.46454
 Alpha virt. eigenvalues --    2.47587   2.47874   2.51812   2.52710   2.53292
 Alpha virt. eigenvalues --    2.54375   2.56226   2.56481   2.59318   2.60191
 Alpha virt. eigenvalues --    2.62786   2.66018   2.68489   2.69928   2.71605
 Alpha virt. eigenvalues --    2.72599   2.73166   2.75673   2.77226   2.78914
 Alpha virt. eigenvalues --    2.80976   2.82847   2.84263   2.87133   2.89341
 Alpha virt. eigenvalues --    2.89606   2.91505   2.92690   2.95013   2.96648
 Alpha virt. eigenvalues --    2.99331   3.01118   3.02415   3.03506   3.06522
 Alpha virt. eigenvalues --    3.07141   3.07378   3.11161   3.13972   3.14616
 Alpha virt. eigenvalues --    3.15808   3.18763   3.20233   3.22287   3.23848
 Alpha virt. eigenvalues --    3.25540   3.29020   3.32605   3.34313   3.35913
 Alpha virt. eigenvalues --    3.39353   3.42332   3.46495   3.50712   3.56171
 Alpha virt. eigenvalues --    3.57791   3.64848   3.70770   3.73223   3.76355
 Alpha virt. eigenvalues --    3.83434   3.86118   3.91279   3.93033   3.95489
 Alpha virt. eigenvalues --    3.97234   3.98540   3.99471   4.01169   4.02956
 Alpha virt. eigenvalues --    4.04273   4.07092   4.17156   4.42458   4.48801
 Alpha virt. eigenvalues --    4.96781
          Condensed to atoms (all electrons):
               1          2          3          4          5          6
     1  O    9.406854  -0.292369   0.039788   0.000403   0.024123   0.011565
     2  S   -0.292369  14.387795  -0.197538  -0.046600   0.021224  -0.213067
     3  N    0.039788  -0.197538   8.707852  -0.771278   0.045237   0.045544
     4  C    0.000403  -0.046600  -0.771278  12.502940  -0.087291   0.213512
     5  N    0.024123   0.021224   0.045237  -0.087291  10.197439  -2.054596
     6  N    0.011565  -0.213067   0.045544   0.213512  -2.054596  10.018376
     7  C    0.044394  -0.245133   0.424892  -6.747804   0.425192  -0.640849
     8  N   -0.002350   0.003189  -0.011365   0.167786  -0.374652  -0.193403
     9  C    0.003078  -0.032285  -0.021545   0.041852  -0.468235   0.090155
    10  C    0.000685  -0.017180   0.006448  -0.064229  -0.059006   0.417422
    11  C    0.000077  -0.004294  -0.000891  -0.037025  -0.056237  -0.027066
    12  C   -0.000006   0.000189  -0.001484   0.002351   0.003238   0.004757
    13  C   -0.000154   0.004078   0.005330   0.046543   0.010595   0.011023
    14  C   -0.001278   0.016626  -0.003094  -0.289882   0.051185  -0.199855
    15  C   -0.063004   0.389553   0.032002   0.027814   0.024360  -0.053073
    16  O    0.010408  -0.394067   0.102713   0.092357   0.043343  -0.029130
    17  H   -0.005785   0.041692  -0.078147   1.000954  -0.059672  -0.062654
    18  H   -0.000034   0.001224   0.002188  -0.009309  -0.001100  -0.033636
    19  H    0.000002  -0.000092  -0.000126  -0.001864  -0.000499   0.003471
    20  H    0.000000  -0.000003  -0.000052  -0.001091   0.000066   0.001045
    21  H   -0.000001   0.000022   0.000075   0.006317  -0.001185   0.002062
    22  H    0.000477  -0.005903  -0.000841  -0.192196  -0.007570  -0.027475
    23  H    0.020502  -0.066457   0.026861  -0.014477  -0.006081   0.001558
    24  H    0.015005  -0.056592  -0.018782   0.029352   0.013111  -0.043606
    25  H    0.019591  -0.051950  -0.004142   0.023854   0.025400   0.013379
               7          8          9         10         11         12
     1  O    0.044394  -0.002350   0.003078   0.000685   0.000077  -0.000006
     2  S   -0.245133   0.003189  -0.032285  -0.017180  -0.004294   0.000189
     3  N    0.424892  -0.011365  -0.021545   0.006448  -0.000891  -0.001484
     4  C   -6.747804   0.167786   0.041852  -0.064229  -0.037025   0.002351
     5  N    0.425192  -0.374652  -0.468235  -0.059006  -0.056237   0.003238
     6  N   -0.640849  -0.193403   0.090155   0.417422  -0.027066   0.004757
     7  C   14.080719  -0.550322  -0.946177  -0.196379   0.226993  -0.041707
     8  N   -0.550322   9.199917  -0.584501  -0.271481  -0.149569   0.263657
     9  C   -0.946177  -0.584501  12.965312  -4.209817   2.552316  -3.230004
    10  C   -0.196379  -0.271481  -4.209817  12.440513  -3.929815   2.807994
    11  C    0.226993  -0.149569   2.552316  -3.929815  10.257298  -2.956001
    12  C   -0.041707   0.263657  -3.230004   2.807994  -2.956001   8.950574
    13  C   -0.266023  -0.299100   2.659087  -3.199444   3.039508  -3.028524
    14  C    0.514338   0.583261  -5.161052   2.248749  -3.384399   3.067578
    15  C   -0.117303  -0.003438  -0.008108   0.002334   0.000423  -0.000021
    16  O   -0.040203  -0.006169  -0.005256   0.002513   0.000494  -0.000065
    17  H   -1.586907   0.296928   0.089373  -0.138742   0.009403  -0.016895
    18  H    0.000951  -0.165500   0.590733  -0.882587   0.383499  -0.146371
    19  H    0.001904  -0.007597  -0.098410   0.669239  -0.783284   0.262919
    20  H   -0.000577  -0.001722   0.098724  -0.103961   0.390964  -0.650836
    21  H    0.007196   0.003174  -0.101322   0.099951  -0.232698   0.276385
    22  H    0.278761  -0.258525   0.863092  -0.079329   0.105636  -0.164234
    23  H    0.008745  -0.000009   0.000337   0.000569  -0.000094   0.000052
    24  H   -0.028122  -0.012636  -0.006863   0.000256   0.001744  -0.000201
    25  H   -0.000111   0.000573  -0.000172  -0.000262  -0.000060  -0.000010
              13         14         15         16         17         18
     1  O   -0.000154  -0.001278  -0.063004   0.010408  -0.005785  -0.000034
     2  S    0.004078   0.016626   0.389553  -0.394067   0.041692   0.001224
     3  N    0.005330  -0.003094   0.032002   0.102713  -0.078147   0.002188
     4  C    0.046543  -0.289882   0.027814   0.092357   1.000954  -0.009309
     5  N    0.010595   0.051185   0.024360   0.043343  -0.059672  -0.001100
     6  N    0.011023  -0.199855  -0.053073  -0.029130  -0.062654  -0.033636
     7  C   -0.266023   0.514338  -0.117303  -0.040203  -1.586907   0.000951
     8  N   -0.299100   0.583261  -0.003438  -0.006169   0.296928  -0.165500
     9  C    2.659087  -5.161052  -0.008108  -0.005256   0.089373   0.590733
    10  C   -3.199444   2.248749   0.002334   0.002513  -0.138742  -0.882587
    11  C    3.039508  -3.384399   0.000423   0.000494   0.009403   0.383499
    12  C   -3.028524   3.067578  -0.000021  -0.000065  -0.016895  -0.146371
    13  C   10.528459  -3.872048  -0.000588  -0.000358   0.104713   0.102521
    14  C   -3.872048  12.805424  -0.003716  -0.004169  -0.014331  -0.121843
    15  C   -0.000588  -0.003716   4.694490   0.009519   0.005605   0.000486
    16  O   -0.000358  -0.004169   0.009519   9.422199  -0.000236  -0.000312
    17  H    0.104713  -0.014331   0.005605  -0.000236   2.071917  -0.002369
    18  H    0.102521  -0.121843   0.000486  -0.000312  -0.002369   1.914900
    19  H   -0.220173   0.115005  -0.000034   0.000006   0.000315  -0.079395
    20  H    0.364673  -0.161856  -0.000006  -0.000003  -0.000156  -0.010283
    21  H   -0.836486   0.713480   0.000014   0.000009   0.003489   0.009388
    22  H    0.114843  -0.942566  -0.000814  -0.000607  -0.116739  -0.017345
    23  H   -0.000096  -0.000578   0.313613   0.022979   0.000716   0.000170
    24  H   -0.000129  -0.001783   0.418760   0.041078   0.000362  -0.000537
    25  H    0.000045   0.000223   0.284605   0.011331   0.000185  -0.000055
              19         20         21         22         23         24
     1  O    0.000002   0.000000  -0.000001   0.000477   0.020502   0.015005
     2  S   -0.000092  -0.000003   0.000022  -0.005903  -0.066457  -0.056592
     3  N   -0.000126  -0.000052   0.000075  -0.000841   0.026861  -0.018782
     4  C   -0.001864  -0.001091   0.006317  -0.192196  -0.014477   0.029352
     5  N   -0.000499   0.000066  -0.001185  -0.007570  -0.006081   0.013111
     6  N    0.003471   0.001045   0.002062  -0.027475   0.001558  -0.043606
     7  C    0.001904  -0.000577   0.007196   0.278761   0.008745  -0.028122
     8  N   -0.007597  -0.001722   0.003174  -0.258525  -0.000009  -0.012636
     9  C   -0.098410   0.098724  -0.101322   0.863092   0.000337  -0.006863
    10  C    0.669239  -0.103961   0.099951  -0.079329   0.000569   0.000256
    11  C   -0.783284   0.390964  -0.232698   0.105636  -0.000094   0.001744
    12  C    0.262919  -0.650836   0.276385  -0.164234   0.000052  -0.000201
    13  C   -0.220173   0.364673  -0.836486   0.114843  -0.000096  -0.000129
    14  C    0.115005  -0.161856   0.713480  -0.942566  -0.000578  -0.001783
    15  C   -0.000034  -0.000006   0.000014  -0.000814   0.313613   0.418760
    16  O    0.000006  -0.000003   0.000009  -0.000607   0.022979   0.041078
    17  H    0.000315  -0.000156   0.003489  -0.116739   0.000716   0.000362
    18  H   -0.079395  -0.010283   0.009388  -0.017345   0.000170  -0.000537
    19  H    1.654266  -0.056340  -0.018685   0.010531  -0.000014   0.000059
    20  H   -0.056340   1.659808  -0.050916  -0.015245   0.000001  -0.000005
    21  H   -0.018685  -0.050916   1.661831  -0.086309   0.000002   0.000005
    22  H    0.010531  -0.015245  -0.086309   2.195331  -0.000096  -0.000004
    23  H   -0.000014   0.000001   0.000002  -0.000096   0.858083  -0.051112
    24  H    0.000059  -0.000005   0.000005  -0.000004  -0.051112   0.895973
    25  H   -0.000000  -0.000001   0.000002  -0.000047  -0.102291  -0.158721
              25
     1  O    0.019591
     2  S   -0.051950
     3  N   -0.004142
     4  C    0.023854
     5  N    0.025400
     6  N    0.013379
     7  C   -0.000111
     8  N    0.000573
     9  C   -0.000172
    10  C   -0.000262
    11  C   -0.000060
    12  C   -0.000010
    13  C    0.000045
    14  C    0.000223
    15  C    0.284605
    16  O    0.011331
    17  H    0.000185
    18  H   -0.000055
    19  H   -0.000000
    20  H   -0.000001
    21  H    0.000002
    22  H   -0.000047
    23  H   -0.102291
    24  H   -0.158721
    25  H    1.006974
 Mulliken charges:
               1
     1  O   -1.231973
     2  S    2.757939
     3  N   -1.329647
     4  C    0.107011
     5  N   -0.708387
     6  N   -0.255457
     7  C    1.393532
     8  N   -0.626146
     9  C    0.919686
    10  C    0.455557
    11  C    0.593075
    12  C    0.596665
    13  C    0.731706
    14  C    0.046580
    15  C    0.046526
    16  O   -1.278374
    17  H   -0.543019
    18  H   -0.535382
    19  H   -0.451205
    20  H   -0.462229
    21  H   -0.455798
    22  H   -0.652827
    23  H   -0.012881
    24  H   -0.036611
    25  H   -0.068342
 Sum of Mulliken charges =  -1.00000
 Mulliken charges with hydrogens summed into heavy atoms:
               1
     1  O   -1.231973
     2  S    2.757939
     3  N   -1.329647
     4  C    0.107011
     5  N   -0.708387
     6  N   -0.255457
     7  C    0.850513
     8  N   -0.626146
     9  C    0.919686
    10  C   -0.079825
    11  C    0.141870
    12  C    0.134436
    13  C    0.275908
    14  C   -0.606248
    15  C   -0.071308
    16  O   -1.278374
 Electronic spatial extent (au):  <R**2>=           5722.3291
 Charge=             -1.0000 electrons
 Dipole moment (field-independent basis, Debye):
    X=             14.4604    Y=              1.6289    Z=             -3.0887  Tot=             14.8761
 Quadrupole moment (field-independent basis, Debye-Ang):
   XX=           -161.6904   YY=           -106.6502   ZZ=           -114.8641
   XY=            -17.0523   XZ=              8.8424   YZ=             -5.3105
 Traceless Quadrupole moment (field-independent basis, Debye-Ang):
   XX=            -33.9555   YY=             21.0847   ZZ=             12.8708
   XY=            -17.0523   XZ=              8.8424   YZ=             -5.3105
 Octapole moment (field-independent basis, Debye-Ang**2):
  XXX=            232.6025  YYY=             -1.3643  ZZZ=             -6.1800  XYY=             26.0822
  XXY=             73.4396  XXZ=            -28.1066  XZZ=             -8.0535  YZZ=             -0.2583
  YYZ=              0.4142  XYZ=             11.3806
 Hexadecapole moment (field-independent basis, Debye-Ang**3):
 XXXX=          -7948.6135 YYYY=           -667.6647 ZZZZ=           -289.9225 XXXY=           -307.2752
 XXXZ=             85.1828 YYYX=            -27.2928 YYYZ=             -5.5964 ZZZX=             30.8377
 ZZZY=             -4.0467 XXYY=          -1275.9983 XXZZ=          -1378.3859 YYZZ=           -172.6200
 XXYZ=            -61.3104 YYXZ=            -13.1885 ZZXY=              7.9511
 N-N= 1.163911875577D+03 E-N=-4.960747390904D+03  KE= 1.109779373851D+03
 Leave Link  601 at Thu Sep 24 15:57:13 2020, MaxMem=   262144000 cpu:               1.1 elap:               0.4
 (Enter /prod/apps/gaussian/g16b1/l9999.exe)
 1\1\GINC-PIRINEUS14\SP\RMP2-FC\Aug-CC-pVDZ\C9H9N4O2S1(1-)\UBAFAR01\24-
 Sep-2020\0\\#p mp2/aug-cc-pVDZ scf=(MaxCycle=2000,NoVarAcc,NoIncFock) 
 maxdisk=120GB geom=allcheck\\SM44_m1.a.8.pdb.xyz\\-1,1\O,0,4.545656195
 6,-1.2920534958,-0.6558094725\S,0,3.4540087566,-0.3880461052,-0.207339
 5889\N,0,2.0793148253,-1.1735763692,-0.4609942912\C,0,0.8837302985,-0.
 5711182125,-0.1347838715\N,0,0.7013855088,0.5747618454,0.6084102898\N,
 0,-0.5848969188,0.8171016838,0.7423051871\C,0,-0.3802612409,-1.0466768
 517,-0.4653492469\N,0,-1.2504742481,-0.1626530125,0.101300766\C,0,-2.6
 713472692,-0.170134782,0.0602762063\C,0,-3.3950574534,0.554411934,1.01
 26100633\C,0,-4.7872233886,0.5464811913,0.9618844185\C,0,-5.4578750207
 ,-0.1869325864,-0.0200755362\C,0,-4.7248757127,-0.9113718719,-0.961836
 1563\C,0,-3.3310870743,-0.9019514341,-0.9304109052\C,0,3.6767294587,-0
 .1730356595,1.5720991193\O,0,3.5044645886,0.9865735698,-0.7856300024\H
 ,0,-0.70275956,-1.9154174452,-1.0107451246\H,0,-2.8650620948,1.1085959
 64,1.7757743691\H,0,-5.3481358879,1.1093138471,1.6997514733\H,0,-6.541
 8929579,-0.1936363113,-0.0502169379\H,0,-5.234659419,-1.480760478,-1.7
 313103911\H,0,-2.7618671341,-1.4470908383,-1.6733987368\H,0,3.69705796
 67,-1.1555834556,2.0446269529\H,0,2.8414915634,0.4162484629,1.94917886
 77\H,0,4.6216362182,0.346550411,1.7396825481\\Version=ES64L-G16RevB.01
 \State=1-A\HF=-1111.0869619\MP2=-1113.5799617\RMSD=7.738e-09\PG=C01 [X
 (C9H9N4O2S1)]\\@


 IBM COMPATIBILITY IS LIKE PREGNANCY. YOU ARE OR
 OR YOU ARE NOT. -- ADAM OSBORNE
 Job cpu time:       0 days  0 hours 46 minutes 57.3 seconds.
 Elapsed time:       0 days  0 hours 12 minutes 33.8 seconds.
 File lengths (MBytes):  RWF=  32964 Int=      0 D2E=      0 Chk=     17 Scr=      1
 Normal termination of Gaussian 16 at Thu Sep 24 15:57:15 2020.
