 Entering Gaussian System, Link 0=g16
 Initial command:
 /prod/apps/gaussian/g16b1/l1.exe "/tmp/ubafar01/1461351/Gau-158437.inp" -scrdir="/tmp/ubafar01/1461351/"
 Entering Link 1 = /prod/apps/gaussian/g16b1/l1.exe PID=    158438.
  
 Copyright (c) 1988-2017, Gaussian, Inc.  All Rights Reserved.
  
 This is part of the Gaussian(R) 16 program.  It is based on
 the Gaussian(R) 09 system (copyright 2009, Gaussian, Inc.),
 the Gaussian(R) 03 system (copyright 2003, Gaussian, Inc.),
 the Gaussian(R) 98 system (copyright 1998, Gaussian, Inc.),
 the Gaussian(R) 94 system (copyright 1995, Gaussian, Inc.),
 the Gaussian 92(TM) system (copyright 1992, Gaussian, Inc.),
 the Gaussian 90(TM) system (copyright 1990, Gaussian, Inc.),
 the Gaussian 88(TM) system (copyright 1988, Gaussian, Inc.),
 the Gaussian 86(TM) system (copyright 1986, Carnegie Mellon
 University), and the Gaussian 82(TM) system (copyright 1983,
 Carnegie Mellon University). Gaussian is a federally registered
 trademark of Gaussian, Inc.
  
 This software contains proprietary and confidential information,
 including trade secrets, belonging to Gaussian, Inc.
  
 This software is provided under written license and may be
 used, copied, transmitted, or stored only in accord with that
 written license.
  
 The following legend is applicable only to US Government
 contracts under FAR:
  
                    RESTRICTED RIGHTS LEGEND
  
 Use, reproduction and disclosure by the US Government is
 subject to restrictions as set forth in subparagraphs (a)
 and (c) of the Commercial Computer Software - Restricted
 Rights clause in FAR 52.227-19.
  
 Gaussian, Inc.
 340 Quinnipiac St., Bldg. 40, Wallingford CT 06492
  
  
 ---------------------------------------------------------------
 Warning -- This program may not be used in any manner that
 competes with the business of Gaussian, Inc. or will provide
 assistance to any competitor of Gaussian, Inc.  The licensee
 of this program is prohibited from giving any competitor of
 Gaussian, Inc. access to this program.  By using this program,
 the user acknowledges that Gaussian, Inc. is engaged in the
 business of creating and licensing software in the field of
 computational chemistry and represents and warrants to the
 licensee that it is not a competitor of Gaussian, Inc. and that
 it will not use this program in any manner prohibited above.
 ---------------------------------------------------------------
  

 Cite this work as:
 Gaussian 16, Revision B.01,
 M. J. Frisch, G. W. Trucks, H. B. Schlegel, G. E. Scuseria, 
 M. A. Robb, J. R. Cheeseman, G. Scalmani, V. Barone, 
 G. A. Petersson, H. Nakatsuji, X. Li, M. Caricato, A. V. Marenich, 
 J. Bloino, B. G. Janesko, R. Gomperts, B. Mennucci, H. P. Hratchian, 
 J. V. Ortiz, A. F. Izmaylov, J. L. Sonnenberg, D. Williams-Young, 
 F. Ding, F. Lipparini, F. Egidi, J. Goings, B. Peng, A. Petrone, 
 T. Henderson, D. Ranasinghe, V. G. Zakrzewski, J. Gao, N. Rega, 
 G. Zheng, W. Liang, M. Hada, M. Ehara, K. Toyota, R. Fukuda, 
 J. Hasegawa, M. Ishida, T. Nakajima, Y. Honda, O. Kitao, H. Nakai, 
 T. Vreven, K. Throssell, J. A. Montgomery, Jr., J. E. Peralta, 
 F. Ogliaro, M. J. Bearpark, J. J. Heyd, E. N. Brothers, K. N. Kudin, 
 V. N. Staroverov, T. A. Keith, R. Kobayashi, J. Normand, 
 K. Raghavachari, A. P. Rendell, J. C. Burant, S. S. Iyengar, 
 J. Tomasi, M. Cossi, J. M. Millam, M. Klene, C. Adamo, R. Cammi, 
 J. W. Ochterski, R. L. Martin, K. Morokuma, O. Farkas, 
 J. B. Foresman, and D. J. Fox, Gaussian, Inc., Wallingford CT, 2016.
 
 ******************************************
 Gaussian 16:  ES64L-G16RevB.01 20-Dec-2017
                24-Sep-2020 
 ******************************************
 %nproc=4
 Will use up to    4 processors via shared memory.
 %Chk=SM44_m2.b.10.pdb.xyz.mst.b.w.chk
 %mem=16GB
 ----------------------------------------------------------------------
 #p b3lyp/6-31G(d) opt freq NoSymm scf=(MaxCycle=2000,NoVarAcc,NoIncFoc
 k) scrf=(iefpcm,read,solvent=water)
 ----------------------------------------------------------------------
 1/18=20,19=15,26=3,38=1,40=2/1,3;
 2/9=110,12=2,15=1,17=6,18=5,40=1/2;
 3/5=1,6=6,7=1,11=2,25=1,30=1,70=2203,71=1,72=1,74=-5/1,2,3;
 4//1;
 5/5=100002,7=2000,38=1,53=1/2;
 6/7=2,8=2,9=2,10=2,28=1/1;
 7/30=1/1,2,3,16;
 1/18=20,19=15,26=3/3(2);
 2/9=110,15=1/2;
 99//99;
 2/9=110,15=1/2;
 3/5=1,6=6,7=1,11=2,25=1,30=1,70=2205,71=1,72=1,74=-5/1,2,3;
 4/5=5,16=3,69=1/1;
 5/5=100002,7=2000,38=1,53=1/2;
 7/30=1/1,2,3,16;
 1/18=20,19=15,26=3/3(-5);
 2/9=110,15=1/2;
 6/7=2,8=2,9=2,10=2,19=2,28=1/1;
 99/9=1/99;
 Leave Link    1 at Thu Sep 24 14:39:06 2020, MaxMem=  2147483648 cpu:               0.1 elap:               0.0
 (Enter /prod/apps/gaussian/g16b1/l101.exe)
 --------------------
 SM44_m2.b.10.pdb.xyz
 --------------------
 Symbolic Z-matrix:
 Charge =  1 Multiplicity = 1
 O                     4.731    -0.489    -0.513 
 S                     3.515    -0.046     0.169 
 N                     2.243    -0.459    -0.913 
 C                     0.946    -0.028    -0.687 
 N                     0.566     1.279    -0.744 
 N                    -0.722     1.455    -0.546 
 C                    -0.223    -0.719    -0.434 
 N                    -1.195     0.232    -0.371 
 C                    -2.597     0.036    -0.125 
 C                    -3.286     0.97      0.65 
 C                    -4.645     0.768     0.885 
 C                    -5.293    -0.354     0.361 
 C                    -4.583    -1.278    -0.409 
 C                    -3.226    -1.088    -0.664 
 C                     3.259    -1.042     1.641 
 O                     3.313     1.368     0.499 
 H                     2.306    -1.434    -1.218 
 H                    -0.406    -1.769    -0.282 
 H                    -2.766     1.826     1.066 
 H                    -5.193     1.485     1.488 
 H                    -6.35     -0.508     0.554 
 H                    -5.086    -2.146    -0.824 
 H                    -2.677    -1.787    -1.285 
 H                     3.301    -2.095     1.359 
 H                     2.292    -0.785     2.076 
 H                     4.068    -0.795     2.332 
 H                     1.156     2.097    -0.918 
 
 ITRead=  0  0  0  0  0  0  0  0  0  0  0  0  0  0  0  0  0  0  0  0
 ITRead=  0  0  0  0  0  0  0
 MicOpt= -1 -1 -1 -1 -1 -1 -1 -1 -1 -1 -1 -1 -1 -1 -1 -1 -1 -1 -1 -1
 MicOpt= -1 -1 -1 -1 -1 -1 -1
 NAtoms=     27 NQM=       27 NQMF=       0 NMMI=      0 NMMIF=      0
                NMic=       0 NMicF=      0.
                    Isotopes and Nuclear Properties:
 (Nuclear quadrupole moments (NQMom) in fm**2, nuclear magnetic moments (NMagM)
  in nuclear magnetons)

  Atom         1           2           3           4           5           6           7           8           9          10
 IAtWgt=          16          32          14          12          14          14          12          14          12          12
 AtmWgt=  15.9949146  31.9720718  14.0030740  12.0000000  14.0030740  14.0030740  12.0000000  14.0030740  12.0000000  12.0000000
 NucSpn=           0           0           2           0           2           2           0           2           0           0
 AtZEff=  -0.0000000  -0.0000000  -0.0000000  -0.0000000  -0.0000000  -0.0000000  -0.0000000  -0.0000000  -0.0000000  -0.0000000
 NQMom=    0.0000000   0.0000000   2.0440000   0.0000000   2.0440000   2.0440000   0.0000000   2.0440000   0.0000000   0.0000000
 NMagM=    0.0000000   0.0000000   0.4037610   0.0000000   0.4037610   0.4037610   0.0000000   0.4037610   0.0000000   0.0000000
 AtZNuc=   8.0000000  16.0000000   7.0000000   6.0000000   7.0000000   7.0000000   6.0000000   7.0000000   6.0000000   6.0000000

  Atom        11          12          13          14          15          16          17          18          19          20
 IAtWgt=          12          12          12          12          12          16           1           1           1           1
 AtmWgt=  12.0000000  12.0000000  12.0000000  12.0000000  12.0000000  15.9949146   1.0078250   1.0078250   1.0078250   1.0078250
 NucSpn=           0           0           0           0           0           0           1           1           1           1
 AtZEff=  -0.0000000  -0.0000000  -0.0000000  -0.0000000  -0.0000000  -0.0000000  -0.0000000  -0.0000000  -0.0000000  -0.0000000
 NQMom=    0.0000000   0.0000000   0.0000000   0.0000000   0.0000000   0.0000000   0.0000000   0.0000000   0.0000000   0.0000000
 NMagM=    0.0000000   0.0000000   0.0000000   0.0000000   0.0000000   0.0000000   2.7928460   2.7928460   2.7928460   2.7928460
 AtZNuc=   6.0000000   6.0000000   6.0000000   6.0000000   6.0000000   8.0000000   1.0000000   1.0000000   1.0000000   1.0000000

  Atom        21          22          23          24          25          26          27
 IAtWgt=           1           1           1           1           1           1           1
 AtmWgt=   1.0078250   1.0078250   1.0078250   1.0078250   1.0078250   1.0078250   1.0078250
 NucSpn=           1           1           1           1           1           1           1
 AtZEff=  -0.0000000  -0.0000000  -0.0000000  -0.0000000  -0.0000000  -0.0000000  -0.0000000
 NQMom=    0.0000000   0.0000000   0.0000000   0.0000000   0.0000000   0.0000000   0.0000000
 NMagM=    2.7928460   2.7928460   2.7928460   2.7928460   2.7928460   2.7928460   2.7928460
 AtZNuc=   1.0000000   1.0000000   1.0000000   1.0000000   1.0000000   1.0000000   1.0000000
 Leave Link  101 at Thu Sep 24 14:39:06 2020, MaxMem=  2147483648 cpu:               1.5 elap:               0.4
 (Enter /prod/apps/gaussian/g16b1/l103.exe)

 GradGradGradGradGradGradGradGradGradGradGradGradGradGradGradGradGradGrad
 Berny optimization.
 Initialization pass.
                           ----------------------------
                           !    Initial Parameters    !
                           ! (Angstroms and Degrees)  !
 --------------------------                            --------------------------
 ! Name  Definition              Value          Derivative Info.                !
 --------------------------------------------------------------------------------
 ! R1    R(1,2)                  1.4629         estimate D2E/DX2                !
 ! R2    R(2,3)                  1.7203         estimate D2E/DX2                !
 ! R3    R(2,15)                 1.7956         estimate D2E/DX2                !
 ! R4    R(2,16)                 1.466          estimate D2E/DX2                !
 ! R5    R(3,4)                  1.3853         estimate D2E/DX2                !
 ! R6    R(3,17)                 1.0235         estimate D2E/DX2                !
 ! R7    R(4,5)                  1.3623         estimate D2E/DX2                !
 ! R8    R(4,7)                  1.3813         estimate D2E/DX2                !
 ! R9    R(5,6)                  1.315          estimate D2E/DX2                !
 ! R10   R(5,27)                 1.0235         estimate D2E/DX2                !
 ! R11   R(6,8)                  1.3229         estimate D2E/DX2                !
 ! R12   R(7,8)                  1.3613         estimate D2E/DX2                !
 ! R13   R(7,18)                 1.0766         estimate D2E/DX2                !
 ! R14   R(8,9)                  1.4368         estimate D2E/DX2                !
 ! R15   R(9,10)                 1.3956         estimate D2E/DX2                !
 ! R16   R(9,14)                 1.3963         estimate D2E/DX2                !
 ! R17   R(10,11)                1.3939         estimate D2E/DX2                !
 ! R18   R(10,19)                1.0845         estimate D2E/DX2                !
 ! R19   R(11,12)                1.3976         estimate D2E/DX2                !
 ! R20   R(11,20)                1.0854         estimate D2E/DX2                !
 ! R21   R(12,13)                1.3967         estimate D2E/DX2                !
 ! R22   R(12,21)                1.0855         estimate D2E/DX2                !
 ! R23   R(13,14)                1.3938         estimate D2E/DX2                !
 ! R24   R(13,22)                1.0857         estimate D2E/DX2                !
 ! R25   R(14,23)                1.0843         estimate D2E/DX2                !
 ! R26   R(15,24)                1.0909         estimate D2E/DX2                !
 ! R27   R(15,25)                1.091          estimate D2E/DX2                !
 ! R28   R(15,26)                1.0922         estimate D2E/DX2                !
 ! A1    A(1,2,3)              104.4008         estimate D2E/DX2                !
 ! A2    A(1,2,15)             109.4334         estimate D2E/DX2                !
 ! A3    A(1,2,16)             120.7685         estimate D2E/DX2                !
 ! A4    A(3,2,15)             106.0828         estimate D2E/DX2                !
 ! A5    A(3,2,16)             105.7397         estimate D2E/DX2                !
 ! A6    A(15,2,16)            109.3192         estimate D2E/DX2                !
 ! A7    A(2,3,4)              120.9967         estimate D2E/DX2                !
 ! A8    A(2,3,17)             111.7533         estimate D2E/DX2                !
 ! A9    A(4,3,17)             113.7417         estimate D2E/DX2                !
 ! A10   A(3,4,5)              123.561          estimate D2E/DX2                !
 ! A11   A(3,4,7)              131.8045         estimate D2E/DX2                !
 ! A12   A(5,4,7)              104.5684         estimate D2E/DX2                !
 ! A13   A(4,5,6)              113.2864         estimate D2E/DX2                !
 ! A14   A(4,5,27)             127.8141         estimate D2E/DX2                !
 ! A15   A(6,5,27)             118.8994         estimate D2E/DX2                !
 ! A16   A(5,6,8)              104.2644         estimate D2E/DX2                !
 ! A17   A(4,7,8)              105.2646         estimate D2E/DX2                !
 ! A18   A(4,7,18)             131.1163         estimate D2E/DX2                !
 ! A19   A(8,7,18)             123.6023         estimate D2E/DX2                !
 ! A20   A(6,8,7)              112.6076         estimate D2E/DX2                !
 ! A21   A(6,8,9)              119.8433         estimate D2E/DX2                !
 ! A22   A(7,8,9)              127.5411         estimate D2E/DX2                !
 ! A23   A(8,9,10)             119.0454         estimate D2E/DX2                !
 ! A24   A(8,9,14)             118.9            estimate D2E/DX2                !
 ! A25   A(10,9,14)            122.0537         estimate D2E/DX2                !
 ! A26   A(9,10,11)            118.5533         estimate D2E/DX2                !
 ! A27   A(9,10,19)            120.2996         estimate D2E/DX2                !
 ! A28   A(11,10,19)           121.1438         estimate D2E/DX2                !
 ! A29   A(10,11,12)           120.3426         estimate D2E/DX2                !
 ! A30   A(10,11,20)           119.3536         estimate D2E/DX2                !
 ! A31   A(12,11,20)           120.3005         estimate D2E/DX2                !
 ! A32   A(11,12,13)           120.1388         estimate D2E/DX2                !
 ! A33   A(11,12,21)           119.9154         estimate D2E/DX2                !
 ! A34   A(13,12,21)           119.9457         estimate D2E/DX2                !
 ! A35   A(12,13,14)           120.372          estimate D2E/DX2                !
 ! A36   A(12,13,22)           120.2744         estimate D2E/DX2                !
 ! A37   A(14,13,22)           119.3502         estimate D2E/DX2                !
 ! A38   A(9,14,13)            118.5366         estimate D2E/DX2                !
 ! A39   A(9,14,23)            120.7948         estimate D2E/DX2                !
 ! A40   A(13,14,23)           120.6558         estimate D2E/DX2                !
 ! A41   A(2,15,24)            108.5421         estimate D2E/DX2                !
 ! A42   A(2,15,25)            108.8168         estimate D2E/DX2                !
 ! A43   A(2,15,26)            106.7136         estimate D2E/DX2                !
 ! A44   A(24,15,25)           111.3802         estimate D2E/DX2                !
 ! A45   A(24,15,26)           110.6896         estimate D2E/DX2                !
 ! A46   A(25,15,26)           110.5467         estimate D2E/DX2                !
 ! D1    D(1,2,3,4)           -171.181          estimate D2E/DX2                !
 ! D2    D(1,2,3,17)            50.6232         estimate D2E/DX2                !
 ! D3    D(15,2,3,4)            73.2546         estimate D2E/DX2                !
 ! D4    D(15,2,3,17)          -64.9412         estimate D2E/DX2                !
 ! D5    D(16,2,3,4)           -42.7839         estimate D2E/DX2                !
 ! D6    D(16,2,3,17)          179.0203         estimate D2E/DX2                !
 ! D7    D(1,2,15,24)          -51.9861         estimate D2E/DX2                !
 ! D8    D(1,2,15,25)         -173.3533         estimate D2E/DX2                !
 ! D9    D(1,2,15,26)           67.3415         estimate D2E/DX2                !
 ! D10   D(3,2,15,24)           60.1117         estimate D2E/DX2                !
 ! D11   D(3,2,15,25)          -61.2555         estimate D2E/DX2                !
 ! D12   D(3,2,15,26)          179.4393         estimate D2E/DX2                !
 ! D13   D(16,2,15,24)         173.7046         estimate D2E/DX2                !
 ! D14   D(16,2,15,25)          52.3374         estimate D2E/DX2                !
 ! D15   D(16,2,15,26)         -66.9678         estimate D2E/DX2                !
 ! D16   D(2,3,4,5)             66.7068         estimate D2E/DX2                !
 ! D17   D(2,3,4,7)           -116.7277         estimate D2E/DX2                !
 ! D18   D(17,3,4,5)          -155.853          estimate D2E/DX2                !
 ! D19   D(17,3,4,7)            20.7126         estimate D2E/DX2                !
 ! D20   D(3,4,5,6)            177.5635         estimate D2E/DX2                !
 ! D21   D(3,4,5,27)            -2.3903         estimate D2E/DX2                !
 ! D22   D(7,4,5,6)              0.208          estimate D2E/DX2                !
 ! D23   D(7,4,5,27)          -179.7457         estimate D2E/DX2                !
 ! D24   D(3,4,7,8)           -176.6714         estimate D2E/DX2                !
 ! D25   D(3,4,7,18)             4.816          estimate D2E/DX2                !
 ! D26   D(5,4,7,8)              0.3721         estimate D2E/DX2                !
 ! D27   D(5,4,7,18)          -178.1405         estimate D2E/DX2                !
 ! D28   D(4,5,6,8)             -0.7079         estimate D2E/DX2                !
 ! D29   D(27,5,6,8)           179.2504         estimate D2E/DX2                !
 ! D30   D(5,6,8,7)              0.9611         estimate D2E/DX2                !
 ! D31   D(5,6,8,9)           -179.9858         estimate D2E/DX2                !
 ! D32   D(4,7,8,6)             -0.8533         estimate D2E/DX2                !
 ! D33   D(4,7,8,9)           -179.8174         estimate D2E/DX2                !
 ! D34   D(18,7,8,6)           177.8014         estimate D2E/DX2                !
 ! D35   D(18,7,8,9)            -1.1628         estimate D2E/DX2                !
 ! D36   D(6,8,9,10)           -36.4033         estimate D2E/DX2                !
 ! D37   D(6,8,9,14)           143.9205         estimate D2E/DX2                !
 ! D38   D(7,8,9,10)           142.4942         estimate D2E/DX2                !
 ! D39   D(7,8,9,14)           -37.1819         estimate D2E/DX2                !
 ! D40   D(8,9,10,11)         -179.8392         estimate D2E/DX2                !
 ! D41   D(8,9,10,19)           -0.502          estimate D2E/DX2                !
 ! D42   D(14,9,10,11)          -0.1737         estimate D2E/DX2                !
 ! D43   D(14,9,10,19)         179.1635         estimate D2E/DX2                !
 ! D44   D(8,9,14,13)          179.3391         estimate D2E/DX2                !
 ! D45   D(8,9,14,23)           -1.957          estimate D2E/DX2                !
 ! D46   D(10,9,14,13)          -0.3269         estimate D2E/DX2                !
 ! D47   D(10,9,14,23)         178.377          estimate D2E/DX2                !
 ! D48   D(9,10,11,12)           0.5096         estimate D2E/DX2                !
 ! D49   D(9,10,11,20)         179.852          estimate D2E/DX2                !
 ! D50   D(19,10,11,12)       -178.8218         estimate D2E/DX2                !
 ! D51   D(19,10,11,20)          0.5206         estimate D2E/DX2                !
 ! D52   D(10,11,12,13)         -0.3455         estimate D2E/DX2                !
 ! D53   D(10,11,12,21)        179.5813         estimate D2E/DX2                !
 ! D54   D(20,11,12,13)       -179.6816         estimate D2E/DX2                !
 ! D55   D(20,11,12,21)          0.2452         estimate D2E/DX2                !
 ! D56   D(11,12,13,14)         -0.1685         estimate D2E/DX2                !
 ! D57   D(11,12,13,22)       -179.4906         estimate D2E/DX2                !
 ! D58   D(21,12,13,14)        179.9048         estimate D2E/DX2                !
 ! D59   D(21,12,13,22)          0.5827         estimate D2E/DX2                !
 ! D60   D(12,13,14,9)           0.4955         estimate D2E/DX2                !
 ! D61   D(12,13,14,23)       -178.2102         estimate D2E/DX2                !
 ! D62   D(22,13,14,9)         179.8239         estimate D2E/DX2                !
 ! D63   D(22,13,14,23)          1.1181         estimate D2E/DX2                !
 --------------------------------------------------------------------------------
 Trust Radius=3.00D-01 FncErr=1.00D-07 GrdErr=1.00D-06 EigMax=2.50D+02 EigMin=1.00D-04
 Number of steps in this run=    147 maximum allowed number of steps=    162.
 GradGradGradGradGradGradGradGradGradGradGradGradGradGradGradGradGradGrad

 Leave Link  103 at Thu Sep 24 14:39:06 2020, MaxMem=  2147483648 cpu:               0.1 elap:               0.0
 (Enter /prod/apps/gaussian/g16b1/l202.exe)
                          Input orientation:                          
 ---------------------------------------------------------------------
 Center     Atomic      Atomic             Coordinates (Angstroms)
 Number     Number       Type             X           Y           Z
 ---------------------------------------------------------------------
      1          8           0        4.731000   -0.489000   -0.513000
      2         16           0        3.515000   -0.046000    0.169000
      3          7           0        2.243000   -0.459000   -0.913000
      4          6           0        0.946000   -0.028000   -0.687000
      5          7           0        0.566000    1.279000   -0.744000
      6          7           0       -0.722000    1.455000   -0.546000
      7          6           0       -0.223000   -0.719000   -0.434000
      8          7           0       -1.195000    0.232000   -0.371000
      9          6           0       -2.597000    0.036000   -0.125000
     10          6           0       -3.286000    0.970000    0.650000
     11          6           0       -4.645000    0.768000    0.885000
     12          6           0       -5.293000   -0.354000    0.361000
     13          6           0       -4.583000   -1.278000   -0.409000
     14          6           0       -3.226000   -1.088000   -0.664000
     15          6           0        3.259000   -1.042000    1.641000
     16          8           0        3.313000    1.368000    0.499000
     17          1           0        2.306000   -1.434000   -1.218000
     18          1           0       -0.406000   -1.769000   -0.282000
     19          1           0       -2.766000    1.826000    1.066000
     20          1           0       -5.193000    1.485000    1.488000
     21          1           0       -6.350000   -0.508000    0.554000
     22          1           0       -5.086000   -2.146000   -0.824000
     23          1           0       -2.677000   -1.787000   -1.285000
     24          1           0        3.301000   -2.095000    1.359000
     25          1           0        2.292000   -0.785000    2.076000
     26          1           0        4.068000   -0.795000    2.332000
     27          1           0        1.156000    2.097000   -0.918000
 ---------------------------------------------------------------------
                    Distance matrix (angstroms):
                    1          2          3          4          5
     1  O    0.000000
     2  S    1.462884   0.000000
     3  N    2.520128   1.720255   0.000000
     4  C    3.816939   2.707918   1.385296   0.000000
     5  N    4.530608   3.359434   2.421061   1.362313   0.000000
     6  N    5.789252   4.551527   3.548142   2.236380   1.314962
     7  C    4.959965   3.845671   2.525509   1.381322   2.170397
     8  N    5.971389   4.748998   3.548392   2.179756   2.082417
     9  C    7.357021   6.119616   4.928648   3.587867   3.454385
    10  C    8.231254   6.893273   5.920714   4.549000   4.108116
    11  C    9.562627   8.231698   7.223772   5.862088   5.483547
    12  C   10.062936   8.815475   7.643651   6.334801   6.181876
    13  C    9.347937   8.211547   6.893406   5.675352   5.758704
    14  C    7.980943   6.871734   5.510681   4.304615   4.470834
    15  C    2.666891   1.795644   2.809815   3.434785   4.281065
    16  O    2.546236   1.465981   2.544911   2.993009   3.016451
    17  H    2.696419   2.304776   1.023533   2.026918   3.257705
    18  H    5.299107   4.306550   3.021831   2.241207   3.232419
    19  H    8.003591   6.615131   5.850448   4.504361   3.831127
    20  H   10.314381   8.939406   8.052207   6.686338   6.179833
    21  H   11.132269   9.883314   8.717462   7.416340   7.260112
    22  H    9.960716   8.909167   7.521179   6.394507   6.609246
    23  H    7.560374   6.594396   5.109635   4.071586   4.495563
    24  H    2.851056   2.379138   2.992966   3.742276   4.825631
    25  H    3.569210   2.382960   3.007125   3.165270   3.897637
    26  H    2.937215   2.354863   3.738121   4.410163   5.101691
    27  H    4.430806   3.367328   2.777540   2.147810   1.023474
                    6          7          8          9         10
     6  N    0.000000
     7  C    2.233343   0.000000
     8  N    1.322907   1.361306   0.000000
     9  C    2.388813   2.510255   1.436849   0.000000
    10  C    2.870494   3.661932   2.441181   1.395601   0.000000
    11  C    4.231981   4.848197   3.710436   2.397963   1.393883
    12  C    4.998917   5.144915   4.203906   2.767076   2.421682
    13  C    4.732376   4.395760   3.709459   2.398218   2.803069
    14  C    3.570825   3.034315   2.439920   1.396259   2.442450
    15  C    5.183275   4.066236   5.050677   6.210763   6.918616
    16  O    4.169031   4.210624   4.729636   6.090296   6.612715
    17  H    4.238713   2.742576   3.968623   5.234019   6.367033
    18  H    3.250189   1.076612   2.152776   2.843089   4.082297
    19  H    2.629472   3.897932   2.659670   2.156651   1.084524
    20  H    4.912016   5.766507   4.583655   3.382394   2.145721
    21  H    6.061168   6.209734   5.289353   3.852530   3.403204
    22  H    5.664714   5.083030   4.582573   3.383023   3.888719
    23  H    3.857293   2.808370   2.666098   2.162251   3.422887
    24  H    5.693510   4.186502   5.349939   6.444364   7.299690
    25  H    4.580031   3.553826   4.379642   5.424091   6.018936
    26  H    6.024075   5.105802   6.005007   7.151897   7.747623
    27  H    2.019265   3.172657   3.050350   4.354490   4.843564
                   11         12         13         14         15
    11  C    0.000000
    12  C    1.397628   0.000000
    13  C    2.421652   1.396702   0.000000
    14  C    2.803159   2.421130   1.393763   0.000000
    15  C    8.143762   8.674586   8.108956   6.882613   0.000000
    16  O    7.989916   8.777674   8.376908   7.081174   2.667429
    17  H    7.588664   7.836099   6.938093   5.570427   3.039038
    18  H    5.076158   5.128201   4.207676   2.926104   4.202224
    19  H    2.163970   3.411034   3.887407   3.419926   6.697513
    20  H    1.085358   2.159178   3.406593   3.888512   8.823006
    21  H    2.155171   1.085456   2.154660   3.402837   9.685020
    22  H    3.406840   2.158318   1.085660   2.145825   8.771207
    23  H    3.887152   3.406796   2.158540   1.084271   6.659775
    24  H    8.459336   8.825187   8.121008   6.907120   1.090916
    25  H    7.207792   7.788402   7.326930   6.168284   1.091038
    26  H    8.969568   9.576411   9.087693   7.890773   1.092232
    27  H    6.218412   7.016612   6.677262   5.423160   4.563377
                   16         17         18         19         20
    16  O    0.000000
    17  H    3.437054   0.000000
    18  H    4.927646   2.888471   0.000000
    19  H    6.122540   6.447437   4.506743   0.000000
    20  H    8.564102   8.489876   6.052833   2.486905   0.000000
    21  H    9.843575   8.883907   6.133527   4.307523   2.486575
    22  H    9.200094   7.436655   4.726340   4.973056   4.305921
    23  H    7.001199   4.995937   2.482695   4.311484   4.972501
    24  H    3.568209   2.840400   4.067064   7.229701   9.218518
    25  H    2.857408   3.357355   3.715861   5.781071   7.843715
    26  H    2.934022   4.014407   5.272414   7.428052   9.574803
    27  H    2.681787   3.725649   4.217854   4.403610   6.817124
                   21         22         23         24         25
    21  H    0.000000
    22  H    2.485885   0.000000
    23  H    4.302173   2.478847   0.000000
    24  H    9.813684   8.666594   6.543858   0.000000
    25  H    8.779372   8.043457   6.082046   1.802296   0.000000
    26  H   10.572529   9.776567   7.717628   1.795834   1.794383
    27  H    8.080399   7.548142   5.469190   5.230547   4.308185
                   26         27
    26  H    0.000000
    27  H    5.235065   0.000000
 Symmetry turned off by external request.
 Stoichiometry    C9H11N4O2S(1+)
 Framework group  C1[X(C9H11N4O2S)]
 Deg. of freedom    75
 Full point group                 C1      NOp   1
 Rotational constants (GHZ):           1.6325382           0.1930945           0.1876281
 Leave Link  202 at Thu Sep 24 14:39:06 2020, MaxMem=  2147483648 cpu:               0.1 elap:               0.0
 (Enter /prod/apps/gaussian/g16b1/l301.exe)
 Standard basis: 6-31G(d) (6D, 7F)
 Ernie: Thresh=  0.10000D-02 Tol=  0.10000D-05 Strict=F.
   266 basis functions,   516 primitive gaussians,   266 cartesian basis functions
    62 alpha electrons       62 beta electrons
       nuclear repulsion energy      1203.0849588689 Hartrees.
 IExCor=  402 DFT=T Ex+Corr=B3LYP ExCW=0 ScaHFX=  0.200000
 ScaDFX=  0.800000  0.720000  1.000000  0.810000 ScalE2=  1.000000  1.000000
 IRadAn=      5 IRanWt=     -1 IRanGd=            0 ICorTp=0 IEmpDi=  4
 NAtoms=   27 NActive=   27 NUniq=   27 SFac= 1.00D+00 NAtFMM=   60 NAOKFM=F Big=F
 Integral buffers will be    131072 words long.
 Raffenetti 2 integral format.
 Two-electron integral symmetry is turned off.
 Using the following non-standard input for PCM:
 MSTModel=DFT cav MSTcharged
 --- end of non-standard input.
 MST model for solvation energy: B3LYP parametrization.
 MST cavity parameters:
 ISph   IAn     Re0     Alpha   Atom Type   QCorr
 ------------------------------------------------
   1      8     1.40     1.25      O          F
   2     16     1.75     1.25      S          F
   3      7     1.50     1.25      NH         F
   4      6     1.50     1.25      C          F
   5      7     1.50     1.15      NH         T
   6      7     1.40     1.25      N          F
   7      6     1.50     1.25      CH         F
   8      7     1.40     1.25      N          F
   9      6     1.50     1.25      C          F
  10      6     1.50     1.25      CH         F
  11      6     1.50     1.25      CH         F
  12      6     1.50     1.25      CH         F
  13      6     1.50     1.25      CH         F
  14      6     1.50     1.25      CH         F
  15      6     1.50     1.25      CH3        F
  16      8     1.40     1.25      O          F
  17      1     0.90     1.25      NH         F
  18      1     1.20     1.25      CH         F
  19      1     1.20     1.25      CH         F
  20      1     1.20     1.25      CH         F
  21      1     1.20     1.25      CH         F
  22      1     1.20     1.25      CH         F
  23      1     1.20     1.25      CH         F
  24      1     1.20     1.25      CH3        F
  25      1     1.20     1.25      CH3        F
  26      1     1.20     1.25      CH3        F
  27      1     0.90     1.15      NH         T
 ------------------------------------------------------------------------------
 Polarizable Continuum Model (PCM)
 =================================
 Model                : PCM.
 Atomic radii         : MST.
 Polarization charges : Total charges.
 Charge compensation  : None.
 Solution method      : On-the-fly selection.
 Cavity type          : Scaled VdW (van der Waals Surface) (Alpha=1.250).
 Cavity algorithm     : GePol (No added spheres)
                        Default sphere list used, NSphG=   27.
                        Lebedev-Laikov grids with approx.  5.0 points / Ang**2.
                        Smoothing algorithm: York/Karplus (Gamma=1.0000).
                        Polarization charges: spherical gaussians, with
                                              point-specific exponents (IZeta= 3).
                        Self-potential: point-specific (ISelfS= 7).
                        Self-field    : sphere-specific E.n sum rule (ISelfD= 2).
 1st derivatives      : Analytical E(r).r(x)/FMM algorithm (CHGder, D1EAlg=3).
                        Cavity 1st derivative terms included.
 Solvent              : Water, Eps=  78.355300 Eps(inf)=   1.777849
 ------------------------------------------------------------------------------
 GePol: Number of generator spheres                  =      27
 GePol: Total number of spheres                      =      27
 GePol: Number of exposed spheres                    =      27 (100.00%)
 GePol: Number of points                             =    2128
 GePol: Average weight of points                     =       0.13
 GePol: Minimum weight of points                     =   0.29D-11
 GePol: Maximum weight of points                     =    0.22001
 GePol: Number of points with low weight             =     113
 GePol: Fraction of low-weight points (<1% of avg)   =       5.31%
 GePol: Cavity surface area                          =    277.627 Ang**2
 GePol: Cavity volume                                =    254.905 Ang**3
 PCM non-electrostatic energy =         0.0019963922 Hartrees.
 Nuclear repulsion after PCM non-electrostatic terms =     1203.0869552612 Hartrees.
 Leave Link  301 at Thu Sep 24 14:39:06 2020, MaxMem=  2147483648 cpu:               0.4 elap:               0.1
 (Enter /prod/apps/gaussian/g16b1/l302.exe)
 NPDir=0 NMtPBC=     1 NCelOv=     1 NCel=       1 NClECP=     1 NCelD=      1
         NCelK=      1 NCelE2=     1 NClLst=     1 CellRange=     0.0.
 One-electron integrals computed using PRISM.
 NBasis=   266 RedAO= T EigKep=  4.77D-04  NBF=   266
 NBsUse=   266 1.00D-06 EigRej= -1.00D+00 NBFU=   266
 Precomputing XC quadrature grid using
 IXCGrd= 4 IRadAn=           5 IRanWt=          -1 IRanGd=           0 AccXCQ= 0.00D+00.
 Generated NRdTot=       0 NPtTot=           0 NUsed=           0 NTot=          32
 NSgBfM=   264   264   264   264   264 MxSgAt=    27 MxSgA2=    27.
 Leave Link  302 at Thu Sep 24 14:39:06 2020, MaxMem=  2147483648 cpu:               1.2 elap:               0.3
 (Enter /prod/apps/gaussian/g16b1/l303.exe)
 DipDrv:  MaxL=1.
 Leave Link  303 at Thu Sep 24 14:39:07 2020, MaxMem=  2147483648 cpu:               0.2 elap:               0.1
 (Enter /prod/apps/gaussian/g16b1/l401.exe)
 ExpMin= 1.17D-01 ExpMax= 2.19D+04 ExpMxC= 3.30D+03 IAcc=3 IRadAn=         5 AccDes= 0.00D+00
 Harris functional with IExCor=  402 and IRadAn=       5 diagonalized for initial guess.
 HarFok:  IExCor=  402 AccDes= 0.00D+00 IRadAn=         5 IDoV= 1 UseB2=F ITyADJ=14
 ICtDFT=  3500011 ScaDFX=  1.000000  1.000000  1.000000  1.000000
 FoFCou: FMM=F IPFlag=           0 FMFlag=      100000 FMFlg1=           0
         NFxFlg=           0 DoJE=T BraDBF=F KetDBF=T FulRan=T
         wScrn=  0.000000 ICntrl=       500 IOpCl=  0 I1Cent=   200000004 NGrid=           0
         NMat0=    1 NMatS0=      1 NMatT0=    0 NMatD0=    1 NMtDS0=    0 NMtDT0=    0
 Symmetry not used in FoFCou.
 Harris En= -1116.92372243723    
 JPrj=0 DoOrth=F DoCkMO=F.
 Leave Link  401 at Thu Sep 24 14:39:08 2020, MaxMem=  2147483648 cpu:               6.5 elap:               1.6
 (Enter /prod/apps/gaussian/g16b1/l502.exe)
 Keep R1 ints in memory in canonical form, NReq=640051412.
 FoFCou: FMM=F IPFlag=           0 FMFlag=           0 FMFlg1=           0
         NFxFlg=           0 DoJE=F BraDBF=F KetDBF=F FulRan=T
         wScrn=  0.000000 ICntrl=       600 IOpCl=  0 I1Cent=           0 NGrid=           0
         NMat0=    1 NMatS0=  35511 NMatT0=    0 NMatD0=    1 NMtDS0=    0 NMtDT0=    0
 Symmetry not used in FoFCou.
 Two-electron integral symmetry not used.
 Closed shell SCF:
 Using DIIS extrapolation, IDIIS=  1040.
 NGot=  2147483648 LenX=  1516804891 LenY=  1516733694
 Requested convergence on RMS density matrix=1.00D-08 within2000 cycles.
 Requested convergence on MAX density matrix=1.00D-06.
 Requested convergence on             energy=1.00D-06.
 No special actions if energy rises.

 Cycle   1  Pass 1  IDiag  1:
 Inv3:  Mode=1 IEnd=    13585152.
 Iteration    1 A*A^-1 deviation from unit magnitude is 3.55D-15 for    249.
 Iteration    1 A*A^-1 deviation from orthogonality  is 1.64D-15 for   1482    688.
 Iteration    1 A^-1*A deviation from unit magnitude is 3.11D-15 for    545.
 Iteration    1 A^-1*A deviation from orthogonality  is 4.10D-15 for   1764   1735.
 E= -1116.50888537769    
 DIIS: error= 3.05D-02 at cycle   1 NSaved=   1.
 NSaved= 1 IEnMin= 1 EnMin= -1116.50888537769     IErMin= 1 ErrMin= 3.05D-02
 ErrMax= 3.05D-02  0.00D+00 EMaxC= 1.00D-01 BMatC= 5.56D-01 BMatP= 5.56D-01
 IDIUse=3 WtCom= 6.95D-01 WtEn= 3.05D-01
 Coeff-Com:  0.100D+01
 Coeff-En:   0.100D+01
 Coeff:      0.100D+01
 Gap=     0.363 Goal=   None    Shift=    0.000
 GapD=    0.363 DampG=1.000 DampE=0.500 DampFc=0.5000 IDamp=-1.
 Damping current iteration by 5.00D-01
 RMSDP=6.79D-03 MaxDP=5.59D-01              OVMax= 2.60D-01

 Cycle   2  Pass 1  IDiag  1:
 E= -1116.63324328691     Delta-E=       -0.124357909225 Rises=F Damp=T
 DIIS: error= 1.43D-02 at cycle   2 NSaved=   2.
 NSaved= 2 IEnMin= 2 EnMin= -1116.63324328691     IErMin= 2 ErrMin= 1.43D-02
 ErrMax= 1.43D-02  0.00D+00 EMaxC= 1.00D-01 BMatC= 7.75D-02 BMatP= 5.56D-01
 IDIUse=3 WtCom= 8.57D-01 WtEn= 1.43D-01
 Coeff-Com:  0.220D+00 0.780D+00
 Coeff-En:   0.359D+00 0.641D+00
 Coeff:      0.240D+00 0.760D+00
 Gap=     0.184 Goal=   None    Shift=    0.000
 RMSDP=1.79D-03 MaxDP=1.11D-01 DE=-1.24D-01 OVMax= 1.87D-01

 Cycle   3  Pass 1  IDiag  1:
 E= -1116.95815683262     Delta-E=       -0.324913545705 Rises=F Damp=F
 DIIS: error= 8.57D-03 at cycle   3 NSaved=   3.
 NSaved= 3 IEnMin= 3 EnMin= -1116.95815683262     IErMin= 3 ErrMin= 8.57D-03
 ErrMax= 8.57D-03  0.00D+00 EMaxC= 1.00D-01 BMatC= 3.06D-02 BMatP= 7.75D-02
 IDIUse=3 WtCom= 9.14D-01 WtEn= 8.57D-02
 Coeff-Com:  0.681D-01 0.390D+00 0.542D+00
 Coeff-En:   0.000D+00 0.000D+00 0.100D+01
 Coeff:      0.622D-01 0.357D+00 0.581D+00
 Gap=     0.193 Goal=   None    Shift=    0.000
 RMSDP=8.34D-04 MaxDP=2.85D-02 DE=-3.25D-01 OVMax= 4.84D-02

 Cycle   4  Pass 1  IDiag  1:
 E= -1116.98073544012     Delta-E=       -0.022578607497 Rises=F Damp=F
 DIIS: error= 3.56D-03 at cycle   4 NSaved=   4.
 NSaved= 4 IEnMin= 4 EnMin= -1116.98073544012     IErMin= 4 ErrMin= 3.56D-03
 ErrMax= 3.56D-03  0.00D+00 EMaxC= 1.00D-01 BMatC= 5.36D-03 BMatP= 3.06D-02
 IDIUse=3 WtCom= 9.64D-01 WtEn= 3.56D-02
 Coeff-Com:  0.123D-02 0.708D-01 0.310D+00 0.618D+00
 Coeff-En:   0.000D+00 0.000D+00 0.134D+00 0.866D+00
 Coeff:      0.118D-02 0.682D-01 0.304D+00 0.627D+00
 Gap=     0.189 Goal=   None    Shift=    0.000
 RMSDP=2.78D-04 MaxDP=1.22D-02 DE=-2.26D-02 OVMax= 1.56D-02

 Cycle   5  Pass 1  IDiag  1:
 E= -1116.98496690533     Delta-E=       -0.004231465214 Rises=F Damp=F
 DIIS: error= 5.36D-04 at cycle   5 NSaved=   5.
 NSaved= 5 IEnMin= 5 EnMin= -1116.98496690533     IErMin= 5 ErrMin= 5.36D-04
 ErrMax= 5.36D-04  0.00D+00 EMaxC= 1.00D-01 BMatC= 3.85D-04 BMatP= 5.36D-03
 IDIUse=3 WtCom= 9.95D-01 WtEn= 5.36D-03
 Coeff-Com: -0.361D-02 0.150D-01 0.127D+00 0.331D+00 0.531D+00
 Coeff-En:   0.000D+00 0.000D+00 0.000D+00 0.000D+00 0.100D+01
 Coeff:     -0.359D-02 0.150D-01 0.126D+00 0.330D+00 0.533D+00
 Gap=     0.190 Goal=   None    Shift=    0.000
 RMSDP=8.34D-05 MaxDP=3.51D-03 DE=-4.23D-03 OVMax= 5.41D-03

 Cycle   6  Pass 1  IDiag  1:
 E= -1116.98527522397     Delta-E=       -0.000308318639 Rises=F Damp=F
 DIIS: error= 2.06D-04 at cycle   6 NSaved=   6.
 NSaved= 6 IEnMin= 6 EnMin= -1116.98527522397     IErMin= 6 ErrMin= 2.06D-04
 ErrMax= 2.06D-04  0.00D+00 EMaxC= 1.00D-01 BMatC= 3.26D-05 BMatP= 3.85D-04
 IDIUse=3 WtCom= 9.98D-01 WtEn= 2.06D-03
 Coeff-Com: -0.201D-02 0.285D-02 0.408D-01 0.120D+00 0.289D+00 0.550D+00
 Coeff-En:   0.000D+00 0.000D+00 0.000D+00 0.000D+00 0.787D-02 0.992D+00
 Coeff:     -0.200D-02 0.285D-02 0.407D-01 0.120D+00 0.288D+00 0.551D+00
 Gap=     0.190 Goal=   None    Shift=    0.000
 RMSDP=2.49D-05 MaxDP=1.16D-03 DE=-3.08D-04 OVMax= 1.80D-03

 Cycle   7  Pass 1  IDiag  1:
 E= -1116.98530444595     Delta-E=       -0.000029221985 Rises=F Damp=F
 DIIS: error= 5.41D-05 at cycle   7 NSaved=   7.
 NSaved= 7 IEnMin= 7 EnMin= -1116.98530444595     IErMin= 7 ErrMin= 5.41D-05
 ErrMax= 5.41D-05  0.00D+00 EMaxC= 1.00D-01 BMatC= 2.29D-06 BMatP= 3.26D-05
 IDIUse=1 WtCom= 1.00D+00 WtEn= 0.00D+00
 Coeff-Com: -0.846D-03 0.337D-03 0.121D-01 0.386D-01 0.113D+00 0.287D+00
 Coeff-Com:  0.550D+00
 Coeff:     -0.846D-03 0.337D-03 0.121D-01 0.386D-01 0.113D+00 0.287D+00
 Coeff:      0.550D+00
 Gap=     0.190 Goal=   None    Shift=    0.000
 RMSDP=6.86D-06 MaxDP=3.18D-04 DE=-2.92D-05 OVMax= 4.63D-04

 Cycle   8  Pass 1  IDiag  1:
 E= -1116.98530631346     Delta-E=       -0.000001867502 Rises=F Damp=F
 DIIS: error= 3.12D-05 at cycle   8 NSaved=   8.
 NSaved= 8 IEnMin= 8 EnMin= -1116.98530631346     IErMin= 8 ErrMin= 3.12D-05
 ErrMax= 3.12D-05  0.00D+00 EMaxC= 1.00D-01 BMatC= 3.91D-07 BMatP= 2.29D-06
 IDIUse=1 WtCom= 1.00D+00 WtEn= 0.00D+00
 Coeff-Com: -0.263D-03-0.136D-03 0.217D-02 0.807D-02 0.321D-01 0.106D+00
 Coeff-Com:  0.332D+00 0.520D+00
 Coeff:     -0.263D-03-0.136D-03 0.217D-02 0.807D-02 0.321D-01 0.106D+00
 Coeff:      0.332D+00 0.520D+00
 Gap=     0.190 Goal=   None    Shift=    0.000
 RMSDP=2.36D-06 MaxDP=1.52D-04 DE=-1.87D-06 OVMax= 1.67D-04

 Cycle   9  Pass 1  IDiag  1:
 E= -1116.98530662273     Delta-E=       -0.000000309275 Rises=F Damp=F
 DIIS: error= 8.01D-06 at cycle   9 NSaved=   9.
 NSaved= 9 IEnMin= 9 EnMin= -1116.98530662273     IErMin= 9 ErrMin= 8.01D-06
 ErrMax= 8.01D-06  0.00D+00 EMaxC= 1.00D-01 BMatC= 2.78D-08 BMatP= 3.91D-07
 IDIUse=1 WtCom= 1.00D+00 WtEn= 0.00D+00
 Coeff-Com: -0.183D-04-0.116D-03-0.629D-03-0.137D-02 0.761D-04 0.125D-01
 Coeff-Com:  0.889D-01 0.261D+00 0.639D+00
 Coeff:     -0.183D-04-0.116D-03-0.629D-03-0.137D-02 0.761D-04 0.125D-01
 Coeff:      0.889D-01 0.261D+00 0.639D+00
 Gap=     0.190 Goal=   None    Shift=    0.000
 RMSDP=6.32D-07 MaxDP=3.31D-05 DE=-3.09D-07 OVMax= 3.23D-05

 Cycle  10  Pass 1  IDiag  1:
 E= -1116.98530664601     Delta-E=       -0.000000023283 Rises=F Damp=F
 DIIS: error= 1.15D-06 at cycle  10 NSaved=  10.
 NSaved=10 IEnMin=10 EnMin= -1116.98530664601     IErMin=10 ErrMin= 1.15D-06
 ErrMax= 1.15D-06  0.00D+00 EMaxC= 1.00D-01 BMatC= 1.08D-09 BMatP= 2.78D-08
 IDIUse=1 WtCom= 1.00D+00 WtEn= 0.00D+00
 Coeff-Com:  0.136D-05-0.312D-04-0.318D-03-0.805D-03-0.123D-02 0.973D-03
 Coeff-Com:  0.231D-01 0.849D-01 0.256D+00 0.637D+00
 Coeff:      0.136D-05-0.312D-04-0.318D-03-0.805D-03-0.123D-02 0.973D-03
 Coeff:      0.231D-01 0.849D-01 0.256D+00 0.637D+00
 Gap=     0.190 Goal=   None    Shift=    0.000
 RMSDP=1.75D-07 MaxDP=9.27D-06 DE=-2.33D-08 OVMax= 1.61D-05

 Cycle  11  Pass 1  IDiag  1:
 E= -1116.98530664683     Delta-E=       -0.000000000818 Rises=F Damp=F
 DIIS: error= 6.09D-07 at cycle  11 NSaved=  11.
 NSaved=11 IEnMin=11 EnMin= -1116.98530664683     IErMin=11 ErrMin= 6.09D-07
 ErrMax= 6.09D-07  0.00D+00 EMaxC= 1.00D-01 BMatC= 3.00D-10 BMatP= 1.08D-09
 IDIUse=1 WtCom= 1.00D+00 WtEn= 0.00D+00
 Coeff-Com:  0.334D-05-0.195D-05-0.113D-03-0.306D-03-0.829D-03-0.134D-02
 Coeff-Com:  0.104D-02 0.126D-01 0.550D-01 0.369D+00 0.565D+00
 Coeff:      0.334D-05-0.195D-05-0.113D-03-0.306D-03-0.829D-03-0.134D-02
 Coeff:      0.104D-02 0.126D-01 0.550D-01 0.369D+00 0.565D+00
 Gap=     0.190 Goal=   None    Shift=    0.000
 RMSDP=6.81D-08 MaxDP=2.24D-06 DE=-8.18D-10 OVMax= 5.16D-06

 Cycle  12  Pass 1  IDiag  1:
 E= -1116.98530664710     Delta-E=       -0.000000000266 Rises=F Damp=F
 DIIS: error= 2.46D-07 at cycle  12 NSaved=  12.
 NSaved=12 IEnMin=12 EnMin= -1116.98530664710     IErMin=12 ErrMin= 2.46D-07
 ErrMax= 2.46D-07  0.00D+00 EMaxC= 1.00D-01 BMatC= 2.71D-11 BMatP= 3.00D-10
 IDIUse=1 WtCom= 1.00D+00 WtEn= 0.00D+00
 Coeff-Com:  0.188D-05 0.139D-05-0.413D-04-0.113D-03-0.406D-03-0.984D-03
 Coeff-Com: -0.180D-02-0.111D-02 0.734D-02 0.165D+00 0.319D+00 0.513D+00
 Coeff:      0.188D-05 0.139D-05-0.413D-04-0.113D-03-0.406D-03-0.984D-03
 Coeff:     -0.180D-02-0.111D-02 0.734D-02 0.165D+00 0.319D+00 0.513D+00
 Gap=     0.190 Goal=   None    Shift=    0.000
 RMSDP=2.19D-08 MaxDP=7.30D-07 DE=-2.66D-10 OVMax= 1.12D-06

 Cycle  13  Pass 1  IDiag  1:
 E= -1116.98530664710     Delta-E=       -0.000000000007 Rises=F Damp=F
 DIIS: error= 6.75D-08 at cycle  13 NSaved=  13.
 NSaved=13 IEnMin=13 EnMin= -1116.98530664710     IErMin=13 ErrMin= 6.75D-08
 ErrMax= 6.75D-08  0.00D+00 EMaxC= 1.00D-01 BMatC= 2.83D-12 BMatP= 2.71D-11
 IDIUse=1 WtCom= 1.00D+00 WtEn= 0.00D+00
 Coeff-Com:  0.419D-06 0.871D-06-0.644D-05-0.161D-04-0.874D-04-0.282D-03
 Coeff-Com: -0.819D-03-0.184D-02-0.300D-02 0.350D-01 0.770D-01 0.270D+00
 Coeff-Com:  0.624D+00
 Coeff:      0.419D-06 0.871D-06-0.644D-05-0.161D-04-0.874D-04-0.282D-03
 Coeff:     -0.819D-03-0.184D-02-0.300D-02 0.350D-01 0.770D-01 0.270D+00
 Coeff:      0.624D+00
 Gap=     0.190 Goal=   None    Shift=    0.000
 RMSDP=7.29D-09 MaxDP=3.23D-07 DE=-7.28D-12 OVMax= 4.50D-07

 Error on total polarization charges =  0.01850
 SCF Done:  E(RB3LYP) =  -1116.98530665     A.U. after   13 cycles
            NFock= 13  Conv=0.73D-08     -V/T= 2.0076
 KE= 1.108567110565D+03 PE=-5.003350041690D+03 EE= 1.574710669217D+03
 Leave Link  502 at Thu Sep 24 14:39:55 2020, MaxMem=  2147483648 cpu:             152.0 elap:              46.6
 (Enter /prod/apps/gaussian/g16b1/l601.exe)
 Copying SCF densities to generalized density rwf, IOpCl= 0 IROHF=0.

 **********************************************************************

            Population analysis using the SCF Density.

 **********************************************************************

 Alpha  occ. eigenvalues --  -89.14040 -19.17121 -19.17006 -14.49647 -14.47611
 Alpha  occ. eigenvalues --  -14.46065 -14.40720 -10.32376 -10.27958 -10.26556
 Alpha  occ. eigenvalues --  -10.23398 -10.21883 -10.21730 -10.20995 -10.20968
 Alpha  occ. eigenvalues --  -10.20866  -8.16610  -6.13152  -6.13018  -6.12853
 Alpha  occ. eigenvalues --   -1.18184  -1.13764  -1.02870  -1.00729  -0.96709
 Alpha  occ. eigenvalues --   -0.87865  -0.86282  -0.79565  -0.78696  -0.77016
 Alpha  occ. eigenvalues --   -0.71400  -0.70532  -0.66509  -0.62976  -0.61628
 Alpha  occ. eigenvalues --   -0.59555  -0.56176  -0.55698  -0.55165  -0.53634
 Alpha  occ. eigenvalues --   -0.50656  -0.50602  -0.49960  -0.48330  -0.47052
 Alpha  occ. eigenvalues --   -0.45500  -0.44676  -0.44327  -0.44269  -0.41185
 Alpha  occ. eigenvalues --   -0.39181  -0.38024  -0.37811  -0.37136  -0.36200
 Alpha  occ. eigenvalues --   -0.35271  -0.34477  -0.33229  -0.32828  -0.28841
 Alpha  occ. eigenvalues --   -0.27322  -0.26899
 Alpha virt. eigenvalues --   -0.07906  -0.03116  -0.02240  -0.00589   0.05119
 Alpha virt. eigenvalues --    0.05448   0.07590   0.08468   0.08941   0.09418
 Alpha virt. eigenvalues --    0.10670   0.11857   0.12374   0.13818   0.14278
 Alpha virt. eigenvalues --    0.14896   0.15213   0.15518   0.16722   0.17521
 Alpha virt. eigenvalues --    0.18618   0.18968   0.20239   0.21968   0.27579
 Alpha virt. eigenvalues --    0.28451   0.29099   0.31204   0.32504   0.32978
 Alpha virt. eigenvalues --    0.34848   0.36645   0.39986   0.41380   0.43095
 Alpha virt. eigenvalues --    0.45764   0.47252   0.48437   0.49901   0.50147
 Alpha virt. eigenvalues --    0.51022   0.52956   0.53443   0.54053   0.55529
 Alpha virt. eigenvalues --    0.55876   0.57341   0.57586   0.57863   0.58487
 Alpha virt. eigenvalues --    0.59359   0.59813   0.60211   0.60588   0.62405
 Alpha virt. eigenvalues --    0.64210   0.64821   0.67062   0.67816   0.69764
 Alpha virt. eigenvalues --    0.71925   0.73654   0.74619   0.76001   0.76989
 Alpha virt. eigenvalues --    0.77843   0.78570   0.80602   0.80817   0.80905
 Alpha virt. eigenvalues --    0.82747   0.83248   0.84617   0.85078   0.85265
 Alpha virt. eigenvalues --    0.86113   0.86850   0.89131   0.89860   0.91495
 Alpha virt. eigenvalues --    0.92207   0.93849   0.94642   0.95443   0.96898
 Alpha virt. eigenvalues --    0.97412   0.99744   1.00308   1.01030   1.03375
 Alpha virt. eigenvalues --    1.04682   1.06251   1.06702   1.11274   1.12081
 Alpha virt. eigenvalues --    1.12953   1.14587   1.16556   1.16948   1.17682
 Alpha virt. eigenvalues --    1.20389   1.22863   1.24663   1.25285   1.27635
 Alpha virt. eigenvalues --    1.30973   1.33345   1.36882   1.38197   1.40822
 Alpha virt. eigenvalues --    1.41892   1.42675   1.43294   1.44505   1.46412
 Alpha virt. eigenvalues --    1.47125   1.48852   1.50779   1.54376   1.57963
 Alpha virt. eigenvalues --    1.61981   1.65593   1.69578   1.71425   1.74250
 Alpha virt. eigenvalues --    1.75315   1.76058   1.77696   1.78378   1.78781
 Alpha virt. eigenvalues --    1.78949   1.82569   1.83079   1.84796   1.86535
 Alpha virt. eigenvalues --    1.87030   1.90050   1.93176   1.94752   1.98078
 Alpha virt. eigenvalues --    1.99447   2.00397   2.03439   2.05378   2.05568
 Alpha virt. eigenvalues --    2.05993   2.08174   2.09149   2.11289   2.12529
 Alpha virt. eigenvalues --    2.13092   2.14601   2.16895   2.18577   2.19542
 Alpha virt. eigenvalues --    2.21888   2.22225   2.23804   2.25390   2.27568
 Alpha virt. eigenvalues --    2.28461   2.29547   2.31205   2.33635   2.35560
 Alpha virt. eigenvalues --    2.42339   2.49283   2.51946   2.54533   2.56532
 Alpha virt. eigenvalues --    2.56844   2.61417   2.63238   2.64514   2.68531
 Alpha virt. eigenvalues --    2.70159   2.71718   2.71986   2.72710   2.77304
 Alpha virt. eigenvalues --    2.79839   2.82322   2.86395   2.97030   3.02902
 Alpha virt. eigenvalues --    3.10862   3.21323   3.40433   3.56616   3.74665
 Alpha virt. eigenvalues --    3.86175   3.90423   3.95547   4.02116   4.07094
 Alpha virt. eigenvalues --    4.09423   4.09684   4.12764   4.17004   4.21625
 Alpha virt. eigenvalues --    4.30818   4.37517   4.45511   4.69109
          Condensed to atoms (all electrons):
               1          2          3          4          5          6
     1  O    8.231492   0.455023  -0.049414   0.001258  -0.000008  -0.000000
     2  S    0.455023  13.620011   0.108134  -0.011946  -0.000793   0.000214
     3  N   -0.049414   0.108134   7.375759   0.293119  -0.060929   0.004409
     4  C    0.001258  -0.011946   0.293119   4.512477   0.291460  -0.059848
     5  N   -0.000008  -0.000793  -0.060929   0.291460   6.710692   0.256490
     6  N   -0.000000   0.000214   0.004409  -0.059848   0.256490   6.678907
     7  C   -0.000036  -0.004660  -0.067055   0.510803  -0.054444  -0.093142
     8  N    0.000000   0.000171   0.003449  -0.010300  -0.085456   0.272438
     9  C   -0.000000  -0.000006  -0.000106   0.001863   0.006309  -0.051831
    10  C    0.000000   0.000000   0.000000  -0.000566   0.000400  -0.000142
    11  C   -0.000000  -0.000000  -0.000000   0.000005  -0.000003   0.000190
    12  C    0.000000  -0.000000  -0.000000  -0.000000  -0.000000   0.000013
    13  C   -0.000000  -0.000000   0.000000  -0.000006   0.000003  -0.000071
    14  C   -0.000000   0.000000   0.000005   0.001073  -0.000295   0.003020
    15  C   -0.057920   0.247902  -0.056905  -0.002014   0.000018  -0.000004
    16  O   -0.042096   0.432211  -0.052190   0.000677   0.000483   0.000069
    17  H    0.000401  -0.002355   0.297483  -0.024740   0.002061  -0.000018
    18  H   -0.000000   0.000021  -0.001161  -0.023888   0.003164   0.003135
    19  H   -0.000000  -0.000000  -0.000000   0.000012  -0.000288   0.009007
    20  H    0.000000   0.000000   0.000000  -0.000000   0.000000  -0.000006
    21  H   -0.000000   0.000000  -0.000000   0.000000  -0.000000   0.000000
    22  H    0.000000   0.000000   0.000000   0.000000  -0.000000   0.000001
    23  H   -0.000000  -0.000000   0.000000  -0.000048  -0.000011  -0.000052
    24  H   -0.000042  -0.008379   0.000149   0.000125  -0.000008  -0.000000
    25  H    0.001653  -0.008072  -0.001514   0.001254   0.000020  -0.000019
    26  H   -0.000244  -0.014882   0.002120   0.000025  -0.000004   0.000000
    27  H   -0.000029   0.000717   0.000491  -0.022535   0.304131  -0.025009
               7          8          9         10         11         12
     1  O   -0.000036   0.000000  -0.000000   0.000000  -0.000000   0.000000
     2  S   -0.004660   0.000171  -0.000006   0.000000  -0.000000  -0.000000
     3  N   -0.067055   0.003449  -0.000106   0.000000  -0.000000  -0.000000
     4  C    0.510803  -0.010300   0.001863  -0.000566   0.000005  -0.000000
     5  N   -0.054444  -0.085456   0.006309   0.000400  -0.000003  -0.000000
     6  N   -0.093142   0.272438  -0.051831  -0.000142   0.000190   0.000013
     7  C    4.968895   0.313499  -0.030417   0.005897  -0.000081   0.000016
     8  N    0.313499   6.761645   0.206602  -0.055115   0.004320   0.000359
     9  C   -0.030417   0.206602   4.645570   0.521603  -0.011946  -0.036760
    10  C    0.005897  -0.055115   0.521603   4.952139   0.525521  -0.040222
    11  C   -0.000081   0.004320  -0.011946   0.525521   4.865910   0.538775
    12  C    0.000016   0.000359  -0.036760  -0.040222   0.538775   4.858345
    13  C   -0.000017   0.004390  -0.012347  -0.040698  -0.023983   0.541888
    14  C   -0.004376  -0.049143   0.531018  -0.064467  -0.041221  -0.041133
    15  C    0.000370  -0.000007  -0.000000  -0.000000   0.000000   0.000000
    16  O    0.000146  -0.000004   0.000000  -0.000000   0.000000   0.000000
    17  H   -0.002366  -0.000004   0.000003   0.000000  -0.000000  -0.000000
    18  H    0.366690  -0.031679  -0.001480  -0.000012  -0.000006   0.000000
    19  H    0.000128  -0.010630  -0.040454   0.359669  -0.034200   0.004294
    20  H    0.000001  -0.000107   0.003496  -0.036973   0.364606  -0.038614
    21  H   -0.000000   0.000003   0.000482   0.004683  -0.040512   0.366388
    22  H   -0.000004  -0.000112   0.003444   0.000748   0.004247  -0.038386
    23  H    0.004841  -0.008020  -0.040071   0.004647   0.000183   0.004161
    24  H    0.000082   0.000001   0.000000  -0.000000  -0.000000  -0.000000
    25  H    0.001235  -0.000036   0.000001  -0.000000  -0.000000   0.000000
    26  H   -0.000019   0.000000  -0.000000   0.000000   0.000000   0.000000
    27  H    0.004996   0.003793  -0.000056  -0.000002  -0.000000  -0.000000
              13         14         15         16         17         18
     1  O   -0.000000  -0.000000  -0.057920  -0.042096   0.000401  -0.000000
     2  S   -0.000000   0.000000   0.247902   0.432211  -0.002355   0.000021
     3  N    0.000000   0.000005  -0.056905  -0.052190   0.297483  -0.001161
     4  C   -0.000006   0.001073  -0.002014   0.000677  -0.024740  -0.023888
     5  N    0.000003  -0.000295   0.000018   0.000483   0.002061   0.003164
     6  N   -0.000071   0.003020  -0.000004   0.000069  -0.000018   0.003135
     7  C   -0.000017  -0.004376   0.000370   0.000146  -0.002366   0.366690
     8  N    0.004390  -0.049143  -0.000007  -0.000004  -0.000004  -0.031679
     9  C   -0.012347   0.531018  -0.000000   0.000000   0.000003  -0.001480
    10  C   -0.040698  -0.064467  -0.000000  -0.000000   0.000000  -0.000012
    11  C   -0.023983  -0.041221   0.000000   0.000000  -0.000000  -0.000006
    12  C    0.541888  -0.041133   0.000000   0.000000  -0.000000   0.000000
    13  C    4.856764   0.530031   0.000000  -0.000000  -0.000000   0.000078
    14  C    0.530031   4.952550   0.000000  -0.000000  -0.000000   0.002112
    15  C    0.000000   0.000000   5.501591  -0.055449   0.000073  -0.000001
    16  O   -0.000000  -0.000000  -0.055449   8.264504   0.001149   0.000001
    17  H   -0.000000  -0.000000   0.000073   0.001149   0.280660   0.000729
    18  H    0.000078   0.002112  -0.000001   0.000001   0.000729   0.415993
    19  H    0.000118   0.004842  -0.000000   0.000000   0.000000  -0.000008
    20  H    0.004276   0.000715  -0.000000  -0.000000   0.000000   0.000000
    21  H   -0.040501   0.004835   0.000000   0.000000   0.000000  -0.000000
    22  H    0.364291  -0.036840  -0.000000   0.000000   0.000000  -0.000000
    23  H   -0.031926   0.356997  -0.000000  -0.000000   0.000000   0.001011
    24  H   -0.000000   0.000000   0.344569   0.001678   0.000009  -0.000008
    25  H   -0.000000  -0.000000   0.343626  -0.000108   0.000102   0.000049
    26  H    0.000000   0.000000   0.356603  -0.000178  -0.000002   0.000000
    27  H   -0.000000   0.000002   0.000061   0.005542  -0.000033  -0.000049
              19         20         21         22         23         24
     1  O   -0.000000   0.000000  -0.000000   0.000000  -0.000000  -0.000042
     2  S   -0.000000   0.000000   0.000000   0.000000  -0.000000  -0.008379
     3  N   -0.000000   0.000000  -0.000000   0.000000   0.000000   0.000149
     4  C    0.000012  -0.000000   0.000000   0.000000  -0.000048   0.000125
     5  N   -0.000288   0.000000  -0.000000  -0.000000  -0.000011  -0.000008
     6  N    0.009007  -0.000006   0.000000   0.000001  -0.000052  -0.000000
     7  C    0.000128   0.000001  -0.000000  -0.000004   0.004841   0.000082
     8  N   -0.010630  -0.000107   0.000003  -0.000112  -0.008020   0.000001
     9  C   -0.040454   0.003496   0.000482   0.003444  -0.040071   0.000000
    10  C    0.359669  -0.036973   0.004683   0.000748   0.004647  -0.000000
    11  C   -0.034200   0.364606  -0.040512   0.004247   0.000183  -0.000000
    12  C    0.004294  -0.038614   0.366388  -0.038386   0.004161  -0.000000
    13  C    0.000118   0.004276  -0.040501   0.364291  -0.031926  -0.000000
    14  C    0.004842   0.000715   0.004835  -0.036840   0.356997   0.000000
    15  C   -0.000000  -0.000000   0.000000  -0.000000  -0.000000   0.344569
    16  O    0.000000  -0.000000   0.000000   0.000000  -0.000000   0.001678
    17  H    0.000000   0.000000   0.000000   0.000000   0.000000   0.000009
    18  H   -0.000008   0.000000  -0.000000  -0.000000   0.001011  -0.000008
    19  H    0.524963  -0.004898  -0.000131   0.000013  -0.000119  -0.000000
    20  H   -0.004898   0.539130  -0.004930  -0.000154   0.000013   0.000000
    21  H   -0.000131  -0.004930   0.544945  -0.004945  -0.000136  -0.000000
    22  H    0.000013  -0.000154  -0.004945   0.538927  -0.004893   0.000000
    23  H   -0.000119   0.000013  -0.000136  -0.004893   0.524070   0.000000
    24  H   -0.000000   0.000000  -0.000000   0.000000   0.000000   0.458948
    25  H   -0.000000  -0.000000  -0.000000   0.000000  -0.000000  -0.019616
    26  H    0.000000  -0.000000   0.000000   0.000000   0.000000  -0.016954
    27  H   -0.000002   0.000000  -0.000000   0.000000  -0.000000  -0.000002
              25         26         27
     1  O    0.001653  -0.000244  -0.000029
     2  S   -0.008072  -0.014882   0.000717
     3  N   -0.001514   0.002120   0.000491
     4  C    0.001254   0.000025  -0.022535
     5  N    0.000020  -0.000004   0.304131
     6  N   -0.000019   0.000000  -0.025009
     7  C    0.001235  -0.000019   0.004996
     8  N   -0.000036   0.000000   0.003793
     9  C    0.000001  -0.000000  -0.000056
    10  C   -0.000000   0.000000  -0.000002
    11  C   -0.000000   0.000000  -0.000000
    12  C    0.000000   0.000000  -0.000000
    13  C   -0.000000   0.000000  -0.000000
    14  C   -0.000000   0.000000   0.000002
    15  C    0.343626   0.356603   0.000061
    16  O   -0.000108  -0.000178   0.005542
    17  H    0.000102  -0.000002  -0.000033
    18  H    0.000049   0.000000  -0.000049
    19  H   -0.000000   0.000000  -0.000002
    20  H   -0.000000  -0.000000   0.000000
    21  H   -0.000000   0.000000  -0.000000
    22  H    0.000000   0.000000   0.000000
    23  H   -0.000000   0.000000  -0.000000
    24  H   -0.019616  -0.016954  -0.000002
    25  H    0.461011  -0.018258   0.000013
    26  H   -0.018258   0.444680  -0.000000
    27  H    0.000013  -0.000000   0.256158
 Mulliken charges:
               1
     1  O   -0.540039
     2  S    1.186690
     3  N   -0.795845
     4  C    0.541740
     5  N   -0.372995
     6  N    0.002247
     7  C    0.079019
     8  N   -0.320057
     9  C    0.305084
    10  C   -0.137113
    11  C   -0.151805
    12  C   -0.119124
    13  C   -0.152287
    14  C   -0.149725
    15  C   -0.622511
    16  O   -0.556434
    17  H    0.446848
    18  H    0.265309
    19  H    0.187684
    20  H    0.173445
    21  H    0.169819
    22  H    0.173664
    23  H    0.189354
    24  H    0.239449
    25  H    0.238659
    26  H    0.247114
    27  H    0.471812
 Sum of Mulliken charges =   1.00000
 Mulliken charges with hydrogens summed into heavy atoms:
               1
     1  O   -0.540039
     2  S    1.186690
     3  N   -0.348997
     4  C    0.541740
     5  N    0.098817
     6  N    0.002247
     7  C    0.344328
     8  N   -0.320057
     9  C    0.305084
    10  C    0.050571
    11  C    0.021640
    12  C    0.050695
    13  C    0.021376
    14  C    0.039628
    15  C    0.102712
    16  O   -0.556434
 Electronic spatial extent (au):  <R**2>=           5558.7841
 Charge=              1.0000 electrons
 Dipole moment (field-independent basis, Debye):
    X=             -4.6438    Y=             -4.4166    Z=              0.3778  Tot=              6.4198
 Quadrupole moment (field-independent basis, Debye-Ang):
   XX=            -84.7100   YY=            -81.5438   ZZ=            -89.7667
   XY=             -5.9491   XZ=              5.7635   YZ=              0.0242
 Traceless Quadrupole moment (field-independent basis, Debye-Ang):
   XX=              0.6302   YY=              3.7963   ZZ=             -4.4265
   XY=             -5.9491   XZ=              5.7635   YZ=              0.0242
 Octapole moment (field-independent basis, Debye-Ang**2):
  XXX=           -209.7504  YYY=             -9.7222  ZZZ=             15.2635  XYY=             11.7314
  XXY=            -44.1369  XXZ=             62.9649  XZZ=             31.3958  YZZ=             -3.5100
  YYZ=             -9.2278  XYZ=            -31.9684
 Hexadecapole moment (field-independent basis, Debye-Ang**3):
 XXXX=          -5973.4184 YYYY=           -505.1094 ZZZZ=           -388.7940 XXXY=              1.3622
 XXXZ=             82.8207 YYYX=            -14.4877 YYYZ=            -10.4188 ZZZX=             20.0830
 ZZZY=            -15.2687 XXYY=          -1058.3792 XXZZ=          -1048.8614 YYZZ=           -140.4875
 XXYZ=             20.0065 YYXZ=            -18.0938 ZZXY=            -28.7314
 N-N= 1.203086955261D+03 E-N=-5.003350049270D+03  KE= 1.108567110565D+03
 No NMR shielding tensors so no spin-rotation constants.
 Leave Link  601 at Thu Sep 24 14:39:55 2020, MaxMem=  2147483648 cpu:               0.4 elap:               0.1
 (Enter /prod/apps/gaussian/g16b1/l701.exe)
 ... and contract with generalized density number  0.
 Compute integral first derivatives.
 D1PCM: PCM CHGder 1st derivatives, ID1Alg=3 FixD1E=F DoIter=F DoCFld=F I1PDM=0.
 GePol: Maximum number of non-zero 1st derivatives   =     179
 Leave Link  701 at Thu Sep 24 14:39:57 2020, MaxMem=  2147483648 cpu:               6.7 elap:               1.7
 (Enter /prod/apps/gaussian/g16b1/l702.exe)
 L702 exits ... SP integral derivatives will be done elsewhere.
 Leave Link  702 at Thu Sep 24 14:39:57 2020, MaxMem=  2147483648 cpu:               0.1 elap:               0.0
 (Enter /prod/apps/gaussian/g16b1/l703.exe)
 Integral derivatives from FoFJK, PRISM(SPDF).
 Compute integral first derivatives, UseDBF=F ICtDFT=           0.
 Calling FoFJK, ICntrl=      2127 FMM=F ISym2X=0 I1Cent= 0 IOpClX= 0 NMat=1 NMatS=1 NMatT=0.
 FoFJK:  IHMeth= 1 ICntrl=    2127 DoSepK=F KAlg= 0 I1Cent=           0 FoldK=F
 IRaf=         0 NMat=       1 IRICut=       1 DoRegI=T DoRafI=F ISym2E= 0 IDoP0=0 IntGTp=1.
 FoFCou: FMM=F IPFlag=           0 FMFlag=      100000 FMFlg1=         800
         NFxFlg=           0 DoJE=F BraDBF=F KetDBF=F FulRan=T
         wScrn=  0.000000 ICntrl=      2127 IOpCl=  0 I1Cent=           0 NGrid=           0
         NMat0=    1 NMatS0=      1 NMatT0=    0 NMatD0=    1 NMtDS0=    0 NMtDT0=    0
 Symmetry not used in FoFCou.
 Leave Link  703 at Thu Sep 24 14:40:07 2020, MaxMem=  2147483648 cpu:              40.7 elap:              10.2
 (Enter /prod/apps/gaussian/g16b1/l716.exe)
 Dipole        =-1.82702017D+00-1.73762203D+00 1.48645185D-01
 -------------------------------------------------------------------
 Center     Atomic                   Forces (Hartrees/Bohr)
 Number     Number              X              Y              Z
 -------------------------------------------------------------------
      1        8          -0.000946439    0.000320977    0.000615445
      2       16           0.000003905    0.000148037   -0.000087549
      3        7          -0.000481480   -0.001490271   -0.000161529
      4        6          -0.000781264    0.000366947    0.000290991
      5        7          -0.000192514   -0.001015942    0.000179295
      6        7           0.000403889   -0.000873726    0.000201419
      7        6           0.000508295    0.001076267   -0.000264984
      8        7           0.000511491    0.000021932   -0.000117346
      9        6          -0.000335755   -0.000649408   -0.000128383
     10        6           0.000564004    0.000801313    0.000236866
     11        6          -0.000278988    0.000159289    0.000096700
     12        6           0.000040852    0.000289487    0.000300261
     13        6          -0.000817882   -0.000856223   -0.000432764
     14        6           0.000782064    0.000723516    0.000158693
     15        6          -0.000185175   -0.000256445    0.000303258
     16        8           0.000081021   -0.001194840   -0.000251968
     17        1          -0.000038953    0.001955381    0.000676737
     18        1          -0.000034754    0.000563319   -0.000113317
     19        1          -0.000520639   -0.001237317   -0.000760736
     20        1           0.000538113   -0.000729847   -0.000614478
     21        1           0.000852878    0.000135925   -0.000216477
     22        1           0.000674268    0.001056654    0.000510601
     23        1          -0.000228667    0.000442502    0.000488278
     24        1          -0.000014652    0.001155450    0.000230265
     25        1           0.000928272   -0.000213681   -0.000509346
     26        1          -0.000652550   -0.000163366   -0.000708207
     27        1          -0.000379340   -0.000535928    0.000078276
 -------------------------------------------------------------------
 Cartesian Forces:  Max     0.001955381 RMS     0.000609535
 Leave Link  716 at Thu Sep 24 14:40:07 2020, MaxMem=  2147483648 cpu:               0.1 elap:               0.0
 (Enter /prod/apps/gaussian/g16b1/l103.exe)

 GradGradGradGradGradGradGradGradGradGradGradGradGradGradGradGradGradGrad
 Berny optimization.
 FormGI is forming the generalized inverse of G from B-inverse, IUseBI=4.
 Internal  Forces:  Max     0.002073033 RMS     0.000539258
 Search for a local minimum.
 Step number   1 out of a maximum of  147
 All quantities printed in internal units (Hartrees-Bohrs-Radians)
 RMS Force = .53926D-03 SwitMx=.10000D-02 MixMth= 2
 Mixed Optimization -- En-DIIS/RFO-DIIS
 Second derivative matrix not updated -- first step.
 ITU=  0
     Eigenvalues ---    0.00428   0.01028   0.01204   0.01830   0.01866
     Eigenvalues ---    0.01886   0.02126   0.02131   0.02133   0.02144
     Eigenvalues ---    0.02146   0.02152   0.02155   0.02159   0.02160
     Eigenvalues ---    0.02240   0.02264   0.02280   0.02313   0.02322
     Eigenvalues ---    0.05983   0.06228   0.08022   0.08344   0.13233
     Eigenvalues ---    0.13861   0.15992   0.15996   0.15999   0.15999
     Eigenvalues ---    0.15999   0.16000   0.16000   0.16000   0.16000
     Eigenvalues ---    0.16000   0.18452   0.22000   0.22000   0.22732
     Eigenvalues ---    0.23360   0.23500   0.24063   0.24946   0.24996
     Eigenvalues ---    0.25000   0.25000   0.26463   0.33559   0.34556
     Eigenvalues ---    0.34693   0.34707   0.35319   0.35343   0.35355
     Eigenvalues ---    0.35453   0.35483   0.36407   0.40021   0.42008
     Eigenvalues ---    0.42238   0.43779   0.43788   0.45882   0.46116
     Eigenvalues ---    0.46122   0.46247   0.46394   0.46660   0.48147
     Eigenvalues ---    0.52323   0.58670   0.60882   0.89143   0.90409
 RFO step:  Lambda=-1.07652538D-04 EMin= 4.27928085D-03
 Linear search not attempted -- first point.
 Iteration  1 RMS(Cart)=  0.01101221 RMS(Int)=  0.00002853
 Iteration  2 RMS(Cart)=  0.00004503 RMS(Int)=  0.00000044
 Iteration  3 RMS(Cart)=  0.00000000 RMS(Int)=  0.00000044
 ITry= 1 IFail=0 DXMaxC= 3.73D-02 DCOld= 1.00D+10 DXMaxT= 3.00D-01 DXLimC= 3.00D+00 Rises=F
 Variable       Old X    -DE/DX   Delta X   Delta X   Delta X     New X
                                 (Linear)    (Quad)   (Total)
    R1        2.76445  -0.00117   0.00000  -0.00129  -0.00129   2.76316
    R2        3.25081  -0.00092   0.00000  -0.00275  -0.00275   3.24806
    R3        3.39327  -0.00092   0.00000  -0.00347  -0.00347   3.38981
    R4        2.77030  -0.00122   0.00000  -0.00136  -0.00136   2.76894
    R5        2.61783  -0.00130   0.00000  -0.00269  -0.00269   2.61514
    R6        1.93420  -0.00207   0.00000  -0.00473  -0.00473   1.92946
    R7        2.57440  -0.00154   0.00000  -0.00296  -0.00296   2.57144
    R8        2.61032  -0.00178   0.00000  -0.00367  -0.00367   2.60665
    R9        2.48492  -0.00108   0.00000  -0.00170  -0.00170   2.48322
   R10        1.93409  -0.00066   0.00000  -0.00151  -0.00151   1.93258
   R11        2.49993  -0.00118   0.00000  -0.00190  -0.00190   2.49803
   R12        2.57250  -0.00139   0.00000  -0.00263  -0.00263   2.56987
   R13        2.03450  -0.00056   0.00000  -0.00155  -0.00155   2.03296
   R14        2.71525  -0.00129   0.00000  -0.00322  -0.00322   2.71203
   R15        2.63730  -0.00105   0.00000  -0.00234  -0.00234   2.63497
   R16        2.63855  -0.00154   0.00000  -0.00337  -0.00337   2.63518
   R17        2.63406  -0.00072   0.00000  -0.00157  -0.00157   2.63248
   R18        2.04945  -0.00152   0.00000  -0.00428  -0.00428   2.04517
   R19        2.64113  -0.00080   0.00000  -0.00169  -0.00169   2.63944
   R20        2.05103  -0.00109   0.00000  -0.00309  -0.00309   2.04794
   R21        2.63938  -0.00046   0.00000  -0.00092  -0.00092   2.63847
   R22        2.05121  -0.00089   0.00000  -0.00250  -0.00250   2.04871
   R23        2.63383  -0.00031   0.00000  -0.00065  -0.00065   2.63318
   R24        2.05160  -0.00135   0.00000  -0.00382  -0.00382   2.04778
   R25        2.04897  -0.00068   0.00000  -0.00192  -0.00192   2.04705
   R26        2.06153  -0.00117   0.00000  -0.00338  -0.00338   2.05815
   R27        2.06176  -0.00109   0.00000  -0.00313  -0.00313   2.05863
   R28        2.06402  -0.00097   0.00000  -0.00281  -0.00281   2.06120
    A1        1.82214   0.00008   0.00000   0.00068   0.00068   1.82282
    A2        1.90997  -0.00005   0.00000  -0.00013  -0.00013   1.90984
    A3        2.10781   0.00005   0.00000   0.00041   0.00041   2.10822
    A4        1.85149   0.00002   0.00000  -0.00003  -0.00003   1.85147
    A5        1.84551  -0.00007   0.00000  -0.00062  -0.00062   1.84488
    A6        1.90798  -0.00002   0.00000  -0.00032  -0.00032   1.90766
    A7        2.11179  -0.00056   0.00000  -0.00260  -0.00260   2.10919
    A8        1.95046   0.00014   0.00000   0.00012   0.00012   1.95058
    A9        1.98517   0.00030   0.00000   0.00126   0.00126   1.98642
   A10        2.15655  -0.00020   0.00000  -0.00074  -0.00074   2.15581
   A11        2.30042   0.00005   0.00000   0.00028   0.00028   2.30070
   A12        1.82506   0.00015   0.00000   0.00047   0.00047   1.82553
   A13        1.97722   0.00012   0.00000   0.00048   0.00048   1.97770
   A14        2.23078  -0.00006   0.00000  -0.00023  -0.00023   2.23055
   A15        2.07519  -0.00006   0.00000  -0.00025  -0.00025   2.07493
   A16        1.81976  -0.00040   0.00000  -0.00148  -0.00148   1.81828
   A17        1.83721  -0.00009   0.00000  -0.00047  -0.00047   1.83674
   A18        2.28841   0.00017   0.00000   0.00102   0.00102   2.28943
   A19        2.15727  -0.00008   0.00000  -0.00054  -0.00054   2.15673
   A20        1.96537   0.00023   0.00000   0.00099   0.00099   1.96637
   A21        2.09166  -0.00017   0.00000  -0.00072  -0.00072   2.09094
   A22        2.22601  -0.00006   0.00000  -0.00030  -0.00031   2.22571
   A23        2.07773  -0.00046   0.00000  -0.00172  -0.00172   2.07601
   A24        2.07520  -0.00001   0.00000   0.00006   0.00006   2.07526
   A25        2.13024   0.00046   0.00000   0.00167   0.00167   2.13191
   A26        2.06914  -0.00013   0.00000  -0.00075  -0.00075   2.06840
   A27        2.09962  -0.00020   0.00000  -0.00128  -0.00128   2.09834
   A28        2.11436   0.00033   0.00000   0.00204   0.00204   2.11640
   A29        2.10037  -0.00008   0.00000  -0.00027  -0.00028   2.10010
   A30        2.08311   0.00006   0.00000   0.00027   0.00027   2.08338
   A31        2.09964   0.00002   0.00000   0.00000   0.00000   2.09964
   A32        2.09682   0.00010   0.00000   0.00073   0.00073   2.09755
   A33        2.09292  -0.00002   0.00000  -0.00021  -0.00021   2.09271
   A34        2.09345  -0.00007   0.00000  -0.00052  -0.00052   2.09293
   A35        2.10089  -0.00028   0.00000  -0.00104  -0.00104   2.09984
   A36        2.09918   0.00019   0.00000   0.00085   0.00085   2.10004
   A37        2.08305   0.00009   0.00000   0.00020   0.00020   2.08326
   A38        2.06885  -0.00007   0.00000  -0.00034  -0.00034   2.06852
   A39        2.10827  -0.00008   0.00000  -0.00051  -0.00051   2.10776
   A40        2.10584   0.00015   0.00000   0.00090   0.00089   2.10674
   A41        1.89442  -0.00011   0.00000  -0.00078  -0.00079   1.89363
   A42        1.89921  -0.00008   0.00000  -0.00040  -0.00040   1.89881
   A43        1.86250  -0.00017   0.00000  -0.00109  -0.00109   1.86142
   A44        1.94395   0.00010   0.00000   0.00067   0.00067   1.94462
   A45        1.93190   0.00010   0.00000   0.00040   0.00040   1.93230
   A46        1.92940   0.00014   0.00000   0.00107   0.00107   1.93047
    D1       -2.98767  -0.00003   0.00000   0.00008   0.00008  -2.98759
    D2        0.88354  -0.00001   0.00000   0.00106   0.00106   0.88460
    D3        1.27853  -0.00001   0.00000  -0.00007  -0.00006   1.27847
    D4       -1.13344   0.00001   0.00000   0.00091   0.00091  -1.13252
    D5       -0.74672   0.00003   0.00000   0.00060   0.00060  -0.74612
    D6        3.12449   0.00005   0.00000   0.00158   0.00157   3.12607
    D7       -0.90733  -0.00001   0.00000   0.00048   0.00048  -0.90685
    D8       -3.02559  -0.00001   0.00000   0.00038   0.00038  -3.02521
    D9        1.17533  -0.00004   0.00000  -0.00006  -0.00006   1.17527
   D10        1.04915   0.00007   0.00000   0.00119   0.00119   1.05034
   D11       -1.06911   0.00006   0.00000   0.00109   0.00109  -1.06802
   D12        3.13181   0.00003   0.00000   0.00065   0.00065   3.13245
   D13        3.03172  -0.00002   0.00000   0.00030   0.00030   3.03202
   D14        0.91346  -0.00002   0.00000   0.00020   0.00020   0.91366
   D15       -1.16881  -0.00005   0.00000  -0.00024  -0.00024  -1.16905
   D16        1.16425   0.00002   0.00000  -0.00058  -0.00058   1.16368
   D17       -2.03728   0.00002   0.00000  -0.00034  -0.00034  -2.03762
   D18       -2.72015  -0.00007   0.00000  -0.00205  -0.00205  -2.72220
   D19        0.36150  -0.00006   0.00000  -0.00181  -0.00181   0.35969
   D20        3.09907   0.00001   0.00000   0.00040   0.00040   3.09947
   D21       -0.04172   0.00002   0.00000   0.00079   0.00079  -0.04093
   D22        0.00363   0.00001   0.00000   0.00021   0.00021   0.00384
   D23       -3.13716   0.00001   0.00000   0.00060   0.00060  -3.13655
   D24       -3.08350   0.00000   0.00000  -0.00009  -0.00009  -3.08359
   D25        0.08406  -0.00001   0.00000  -0.00081  -0.00081   0.08325
   D26        0.00649  -0.00000   0.00000   0.00008   0.00008   0.00657
   D27       -3.10914  -0.00002   0.00000  -0.00064  -0.00064  -3.10977
   D28       -0.01235  -0.00001   0.00000  -0.00040  -0.00040  -0.01276
   D29        3.12851  -0.00001   0.00000  -0.00076  -0.00076   3.12775
   D30        0.01677   0.00001   0.00000   0.00046   0.00046   0.01723
   D31       -3.14135  -0.00003   0.00000  -0.00145  -0.00145   3.14039
   D32       -0.01489  -0.00001   0.00000  -0.00035  -0.00035  -0.01525
   D33       -3.13841   0.00003   0.00000   0.00174   0.00174  -3.13666
   D34        3.10322   0.00001   0.00000   0.00032   0.00032   3.10354
   D35       -0.02029   0.00005   0.00000   0.00242   0.00242  -0.01788
   D36       -0.63536   0.00022   0.00000   0.01752   0.01752  -0.61784
   D37        2.51189   0.00019   0.00000   0.01602   0.01602   2.52791
   D38        2.48699   0.00019   0.00000   0.01531   0.01531   2.50230
   D39       -0.64895   0.00016   0.00000   0.01381   0.01381  -0.63514
   D40       -3.13879  -0.00001   0.00000  -0.00033  -0.00033  -3.13912
   D41       -0.00876   0.00002   0.00000   0.00069   0.00069  -0.00807
   D42       -0.00303   0.00002   0.00000   0.00121   0.00122  -0.00182
   D43        3.12699   0.00005   0.00000   0.00224   0.00224   3.12923
   D44        3.13006   0.00000   0.00000   0.00025   0.00025   3.13031
   D45       -0.03416   0.00006   0.00000   0.00302   0.00302  -0.03114
   D46       -0.00571  -0.00003   0.00000  -0.00129  -0.00129  -0.00700
   D47        3.11327   0.00004   0.00000   0.00148   0.00148   3.11475
   D48        0.00889   0.00000   0.00000   0.00006   0.00006   0.00895
   D49        3.13901  -0.00001   0.00000  -0.00037  -0.00037   3.13864
   D50       -3.12103  -0.00002   0.00000  -0.00095  -0.00095  -3.12198
   D51        0.00909  -0.00003   0.00000  -0.00138  -0.00138   0.00771
   D52       -0.00603  -0.00002   0.00000  -0.00122  -0.00122  -0.00725
   D53        3.13428   0.00001   0.00000   0.00025   0.00025   3.13454
   D54       -3.13604  -0.00002   0.00000  -0.00079  -0.00079  -3.13683
   D55        0.00428   0.00002   0.00000   0.00068   0.00068   0.00496
   D56       -0.00294   0.00002   0.00000   0.00114   0.00114  -0.00180
   D57       -3.13270  -0.00001   0.00000  -0.00023  -0.00023  -3.13294
   D58        3.13993  -0.00001   0.00000  -0.00033  -0.00033   3.13960
   D59        0.01017  -0.00004   0.00000  -0.00170  -0.00170   0.00846
   D60        0.00865   0.00000   0.00000   0.00009   0.00009   0.00874
   D61       -3.11036  -0.00006   0.00000  -0.00266  -0.00266  -3.11302
   D62        3.13852   0.00003   0.00000   0.00146   0.00146   3.13998
   D63        0.01951  -0.00003   0.00000  -0.00129  -0.00129   0.01822
         Item               Value     Threshold  Converged?
 Maximum Force            0.002073     0.000450     NO 
[...]
 Alpha virt. eigenvalues --    0.22068   0.22447   0.22526   0.23229   0.23340
 Alpha virt. eigenvalues --    0.24102   0.24180   0.24810   0.25109   0.25215
 Alpha virt. eigenvalues --    0.25618   0.26459   0.26595   0.27084   0.27662
 Alpha virt. eigenvalues --    0.27877   0.27954   0.28412   0.29204   0.29236
 Alpha virt. eigenvalues --    0.29516   0.30261   0.30648   0.30862   0.31233
 Alpha virt. eigenvalues --    0.31854   0.32718   0.32895   0.33385   0.33441
 Alpha virt. eigenvalues --    0.33567   0.34309   0.34755   0.35281   0.36016
 Alpha virt. eigenvalues --    0.36242   0.37255   0.37317   0.38829   0.39215
 Alpha virt. eigenvalues --    0.39735   0.40297   0.41362   0.41498   0.41994
 Alpha virt. eigenvalues --    0.42765   0.43419   0.44238   0.44418   0.45077
 Alpha virt. eigenvalues --    0.45782   0.45903   0.46406   0.47365   0.47919
 Alpha virt. eigenvalues --    0.48466   0.48895   0.49780   0.49848   0.50077
 Alpha virt. eigenvalues --    0.50587   0.51806   0.52189   0.52417   0.53113
 Alpha virt. eigenvalues --    0.53396   0.54137   0.54390   0.55011   0.55244
 Alpha virt. eigenvalues --    0.55539   0.56091   0.56769   0.56983   0.57774
 Alpha virt. eigenvalues --    0.58196   0.58383   0.58613   0.59281   0.59672
 Alpha virt. eigenvalues --    0.59812   0.60944   0.61802   0.63071   0.63771
 Alpha virt. eigenvalues --    0.63990   0.64209   0.65378   0.65710   0.66730
 Alpha virt. eigenvalues --    0.67050   0.67374   0.67794   0.68448   0.68777
 Alpha virt. eigenvalues --    0.70912   0.71029   0.71572   0.72290   0.73107
 Alpha virt. eigenvalues --    0.73535   0.74372   0.74827   0.74907   0.75771
 Alpha virt. eigenvalues --    0.76547   0.77433   0.77982   0.78569   0.78827
 Alpha virt. eigenvalues --    0.80098   0.80203   0.80759   0.81310   0.82008
 Alpha virt. eigenvalues --    0.82526   0.82733   0.83401   0.84323   0.84514
 Alpha virt. eigenvalues --    0.85108   0.86345   0.87126   0.87644   0.88635
 Alpha virt. eigenvalues --    0.88892   0.89679   0.90425   0.91044   0.91830
 Alpha virt. eigenvalues --    0.92437   0.93217   0.93832   0.95491   0.95566
 Alpha virt. eigenvalues --    0.97475   0.98506   0.98681   0.99766   1.00692
 Alpha virt. eigenvalues --    1.01433   1.01576   1.02913   1.04121   1.04685
 Alpha virt. eigenvalues --    1.06054   1.06984   1.07508   1.08650   1.09057
 Alpha virt. eigenvalues --    1.09485   1.10562   1.11403   1.14301   1.14664
 Alpha virt. eigenvalues --    1.15190   1.15806   1.17152   1.18842   1.20398
 Alpha virt. eigenvalues --    1.21614   1.23198   1.24743   1.25530   1.26768
 Alpha virt. eigenvalues --    1.27226   1.29276   1.29991   1.30292   1.32095
 Alpha virt. eigenvalues --    1.32866   1.33401   1.35241   1.36644   1.37954
 Alpha virt. eigenvalues --    1.38496   1.39361   1.40556   1.41496   1.42459
 Alpha virt. eigenvalues --    1.43126   1.44176   1.45311   1.46621   1.48131
 Alpha virt. eigenvalues --    1.48607   1.49521   1.49992   1.50936   1.51200
 Alpha virt. eigenvalues --    1.52621   1.52993   1.53622   1.54451   1.54845
 Alpha virt. eigenvalues --    1.56369   1.57473   1.58491   1.58852   1.59411
 Alpha virt. eigenvalues --    1.60196   1.61310   1.61926   1.62760   1.64932
 Alpha virt. eigenvalues --    1.66404   1.67209   1.68206   1.68592   1.70398
 Alpha virt. eigenvalues --    1.70846   1.72192   1.73315   1.74147   1.74784
 Alpha virt. eigenvalues --    1.77174   1.78772   1.79148   1.80897   1.81685
 Alpha virt. eigenvalues --    1.82279   1.82781   1.83955   1.84862   1.86306
 Alpha virt. eigenvalues --    1.86639   1.86914   1.88850   1.89555   1.91857
 Alpha virt. eigenvalues --    1.93672   1.93974   1.95659   1.97900   1.98804
 Alpha virt. eigenvalues --    1.99309   2.00087   2.01958   2.03099   2.03377
 Alpha virt. eigenvalues --    2.03672   2.05175   2.05891   2.06809   2.07962
 Alpha virt. eigenvalues --    2.09014   2.09427   2.10763   2.11269   2.12413
 Alpha virt. eigenvalues --    2.13146   2.15791   2.15920   2.16897   2.19705
 Alpha virt. eigenvalues --    2.19943   2.20698   2.21104   2.22210   2.23002
 Alpha virt. eigenvalues --    2.24078   2.24621   2.25507   2.26228   2.27861
 Alpha virt. eigenvalues --    2.28440   2.31261   2.31468   2.33743   2.35223
 Alpha virt. eigenvalues --    2.35873   2.36486   2.37811   2.39615   2.40599
 Alpha virt. eigenvalues --    2.43748   2.46618   2.48338   2.50153   2.51284
 Alpha virt. eigenvalues --    2.53122   2.53456   2.53907   2.55837   2.58358
 Alpha virt. eigenvalues --    2.60422   2.62594   2.64701   2.66437   2.69240
 Alpha virt. eigenvalues --    2.69675   2.71275   2.72165   2.73397   2.74144
 Alpha virt. eigenvalues --    2.76753   2.79172   2.80549   2.84101   2.84783
 Alpha virt. eigenvalues --    2.85863   2.86688   2.87383   2.89336   2.90630
 Alpha virt. eigenvalues --    2.93163   2.95900   2.99359   3.01304   3.02023
 Alpha virt. eigenvalues --    3.03040   3.05774   3.07838   3.17989   3.21275
 Alpha virt. eigenvalues --    3.23477   3.24841   3.28845   3.35036   3.37118
 Alpha virt. eigenvalues --    3.42797   3.50419   3.52789   3.58708   3.60231
 Alpha virt. eigenvalues --    3.62275   3.62983   3.64816   3.66365   3.67538
 Alpha virt. eigenvalues --    3.68545   3.70460   3.73351   3.76747   3.82608
 Alpha virt. eigenvalues --    3.88252   4.16130   4.28503   4.75731
          Condensed to atoms (all electrons):
               1          2          3          4          5          6
     1  O    9.018683  -0.049676  -0.045702   0.106622  -0.008212  -0.001752
     2  S   -0.049676  13.487390   0.412346  -1.041096   0.052630   0.000453
     3  N   -0.045702   0.412346   8.282375  -1.379786  -0.092654  -0.174569
     4  C    0.106622  -1.041096  -1.379786  11.872785  -0.279489   0.376665
     5  N   -0.008212   0.052630  -0.092654  -0.279489   7.922187  -0.494509
     6  N   -0.001752   0.000453  -0.174569   0.376665  -0.494509   8.592408
     7  C   -0.021528   0.329518   0.650046  -4.681814   0.489740  -0.691942
     8  N   -0.001319   0.057788   0.004807  -0.027099  -0.383861  -0.101555
     9  C    0.002688  -0.015750   0.041291   0.311103  -0.204755  -0.480049
    10  C    0.000150  -0.001293  -0.002949  -0.123464  -0.037750   0.529604
    11  C    0.000024  -0.001241  -0.004327   0.056525  -0.035473   0.020044
    12  C   -0.000002   0.000106   0.000292  -0.029618  -0.000818   0.035657
    13  C   -0.000024  -0.000879  -0.007071   0.172797   0.009723  -0.016481
    14  C   -0.000755   0.007534  -0.006553  -0.152366   0.101632   0.002217
    15  C   -0.023616   0.433044  -0.015891   0.036326  -0.024209  -0.005087
    16  O    0.037483  -0.096964  -0.093824   0.278664  -0.037586  -0.027203
    17  H    0.017892  -0.092282   0.388811  -0.070090   0.033444   0.012501
    18  H   -0.000497  -0.007317  -0.150830   0.293738  -0.089648  -0.058322
    19  H    0.000026  -0.000393   0.000088   0.008943   0.000433   0.002050
    20  H    0.000001  -0.000096  -0.000243   0.002083  -0.000114  -0.001414
    21  H    0.000000  -0.000001   0.000006  -0.000564  -0.000049   0.001392
    22  H    0.000001  -0.000060  -0.000340   0.003983  -0.001036   0.000833
    23  H    0.000016   0.000550   0.004608  -0.013923  -0.002892  -0.023062
    24  H    0.023791   0.035110  -0.066680  -0.070837   0.004936   0.000895
    25  H    0.014099  -0.126335  -0.004527   0.010735   0.008324  -0.002813
    26  H   -0.002253   0.001545   0.014282  -0.006616   0.002204   0.002017
    27  H   -0.001430   0.033992   0.027701  -0.088515   0.431552  -0.210942
               7          8          9         10         11         12
     1  O   -0.021528  -0.001319   0.002688   0.000150   0.000024  -0.000002
     2  S    0.329518   0.057788  -0.015750  -0.001293  -0.001241   0.000106
     3  N    0.650046   0.004807   0.041291  -0.002949  -0.004327   0.000292
     4  C   -4.681814  -0.027099   0.311103  -0.123464   0.056525  -0.029618
     5  N    0.489740  -0.383861  -0.204755  -0.037750  -0.035473  -0.000818
     6  N   -0.691942  -0.101555  -0.480049   0.529604   0.020044   0.035657
     7  C   10.335340  -0.033240  -1.300713   0.036956  -0.023237   0.060352
     8  N   -0.033240   8.918862  -0.784147  -0.043845  -0.249301   0.332683
     9  C   -1.300713  -0.784147  14.280422  -4.954054   2.532751  -3.476686
    10  C    0.036956  -0.043845  -4.954054  12.083580  -3.061537   2.816313
    11  C   -0.023237  -0.249301   2.532751  -3.061537   9.389010  -2.799939
    12  C    0.060352   0.332683  -3.476686   2.816313  -2.799939   8.722545
    13  C   -0.395665  -0.333937   2.801265  -3.085136   2.842201  -2.878648
    14  C    0.519901   0.436217  -5.461409   2.095174  -3.190682   3.014411
    15  C   -0.021379   0.010203   0.004977  -0.001352  -0.000243   0.000278
    16  O   -0.064798  -0.002103   0.003279  -0.002017  -0.000028  -0.000098
    17  H   -0.070740   0.001235   0.006343   0.000021  -0.000001  -0.000259
    18  H   -0.568082   0.123488   0.167762  -0.147147  -0.007092  -0.000881
    19  H   -0.028815  -0.213340   0.708975  -0.883308   0.286329  -0.170707
    20  H   -0.003336  -0.007536  -0.111152   0.537435  -0.629352   0.272061
    21  H   -0.001023  -0.003582   0.118668  -0.120857   0.385383  -0.575084
    22  H   -0.000881   0.002788  -0.133606   0.114165  -0.229613   0.295966
    23  H    0.080853  -0.215109   0.963387  -0.127981   0.129088  -0.193495
    24  H    0.021856   0.005088   0.002679  -0.000217  -0.000218   0.000103
    25  H   -0.014057  -0.001640   0.011269  -0.003507   0.001508  -0.001212
    26  H    0.009755  -0.001087  -0.001743   0.000550  -0.000022   0.000065
    27  H   -0.057926   0.085184   0.011272  -0.001844   0.001802  -0.000355
              13         14         15         16         17         18
     1  O   -0.000024  -0.000755  -0.023616   0.037483   0.017892  -0.000497
     2  S   -0.000879   0.007534   0.433044  -0.096964  -0.092282  -0.007317
     3  N   -0.007071  -0.006553  -0.015891  -0.093824   0.388811  -0.150830
     4  C    0.172797  -0.152366   0.036326   0.278664  -0.070090   0.293738
     5  N    0.009723   0.101632  -0.024209  -0.037586   0.033444  -0.089648
     6  N   -0.016481   0.002217  -0.005087  -0.027203   0.012501  -0.058322
     7  C   -0.395665   0.519901  -0.021379  -0.064798  -0.070740  -0.568082
     8  N   -0.333937   0.436217   0.010203  -0.002103   0.001235   0.123488
     9  C    2.801265  -5.461409   0.004977   0.003279   0.006343   0.167762
    10  C   -3.085136   2.095174  -0.001352  -0.002017   0.000021  -0.147147
    11  C    2.842201  -3.190682  -0.000243  -0.000028  -0.000001  -0.007092
    12  C   -2.878648   3.014411   0.000278  -0.000098  -0.000259  -0.000881
    13  C    9.719009  -3.371407  -0.001128   0.000191  -0.000202   0.079747
    14  C   -3.371407  12.498122   0.000865  -0.000686  -0.004496   0.030806
    15  C   -0.001128   0.000865   4.566669  -0.014023  -0.020429  -0.000047
    16  O    0.000191  -0.000686  -0.014023   9.097836   0.002278   0.001550
    17  H   -0.000202  -0.004496  -0.020429   0.002278   0.802415   0.011760
    18  H    0.079747   0.030806  -0.000047   0.001550   0.011760   1.837751
    19  H    0.119180  -0.112636   0.000306  -0.000569  -0.000205  -0.003572
    20  H   -0.203810   0.115326  -0.000023   0.000021  -0.000005   0.000108
    21  H    0.345902  -0.176534   0.000011  -0.000004  -0.000008  -0.000108
    22  H   -0.694708   0.595025  -0.000053   0.000011   0.000012   0.002729
    23  H    0.138330  -1.045913   0.000461  -0.000178   0.001055  -0.054507
    24  H    0.000062   0.000872   0.309646   0.005179   0.013859   0.001037
    25  H    0.002080  -0.004695   0.337023   0.045782  -0.001404   0.004319
    26  H   -0.000258   0.000352   0.338927  -0.006173  -0.001483   0.000430
    27  H    0.000164  -0.002908  -0.001799  -0.000291   0.001607   0.000568
              19         20         21         22         23         24
     1  O    0.000026   0.000001   0.000000   0.000001   0.000016   0.023791
     2  S   -0.000393  -0.000096  -0.000001  -0.000060   0.000550   0.035110
     3  N    0.000088  -0.000243   0.000006  -0.000340   0.004608  -0.066680
     4  C    0.008943   0.002083  -0.000564   0.003983  -0.013923  -0.070837
     5  N    0.000433  -0.000114  -0.000049  -0.001036  -0.002892   0.004936
     6  N    0.002050  -0.001414   0.001392   0.000833  -0.023062   0.000895
     7  C   -0.028815  -0.003336  -0.001023  -0.000881   0.080853   0.021856
     8  N   -0.213340  -0.007536  -0.003582   0.002788  -0.215109   0.005088
     9  C    0.708975  -0.111152   0.118668  -0.133606   0.963387   0.002679
    10  C   -0.883308   0.537435  -0.120857   0.114165  -0.127981  -0.000217
    11  C    0.286329  -0.629352   0.385383  -0.229613   0.129088  -0.000218
    12  C   -0.170707   0.272061  -0.575084   0.295966  -0.193495   0.000103
    13  C    0.119180  -0.203810   0.345902  -0.694708   0.138330   0.000062
    14  C   -0.112636   0.115326  -0.176534   0.595025  -1.045913   0.000872
    15  C    0.000306  -0.000023   0.000011  -0.000053   0.000461   0.309646
    16  O   -0.000569   0.000021  -0.000004   0.000011  -0.000178   0.005179
    17  H   -0.000205  -0.000005  -0.000008   0.000012   0.001055   0.013859
    18  H   -0.003572   0.000108  -0.000108   0.002729  -0.054507   0.001037
    19  H    1.908233  -0.077792  -0.011519   0.009330  -0.017336   0.000213
    20  H   -0.077792   1.583520  -0.062796  -0.017257   0.009691  -0.000014
    21  H   -0.011519  -0.062796   1.591287  -0.059572  -0.014354   0.000002
    22  H    0.009330  -0.017257  -0.059572   1.606605  -0.082537  -0.000014
    23  H   -0.017336   0.009691  -0.014354  -0.082537   2.103420   0.000103
    24  H    0.000213  -0.000014   0.000002  -0.000014   0.000103   0.830597
    25  H   -0.000714   0.000093  -0.000022   0.000101  -0.000542  -0.059458
    26  H    0.000011  -0.000006   0.000003  -0.000013   0.000161  -0.099948
    27  H   -0.001850   0.000023  -0.000014  -0.000006  -0.000066  -0.000162
              25         26         27
     1  O    0.014099  -0.002253  -0.001430
     2  S   -0.126335   0.001545   0.033992
     3  N   -0.004527   0.014282   0.027701
     4  C    0.010735  -0.006616  -0.088515
     5  N    0.008324   0.002204   0.431552
     6  N   -0.002813   0.002017  -0.210942
     7  C   -0.014057   0.009755  -0.057926
     8  N   -0.001640  -0.001087   0.085184
     9  C    0.011269  -0.001743   0.011272
    10  C   -0.003507   0.000550  -0.001844
    11  C    0.001508  -0.000022   0.001802
    12  C   -0.001212   0.000065  -0.000355
    13  C    0.002080  -0.000258   0.000164
    14  C   -0.004695   0.000352  -0.002908
    15  C    0.337023   0.338927  -0.001799
    16  O    0.045782  -0.006173  -0.000291
    17  H   -0.001404  -0.001483   0.001607
    18  H    0.004319   0.000430   0.000568
    19  H   -0.000714   0.000011  -0.001850
    20  H    0.000093  -0.000006   0.000023
    21  H   -0.000022   0.000003  -0.000014
    22  H    0.000101  -0.000013  -0.000006
    23  H   -0.000542   0.000161  -0.000066
    24  H   -0.059458  -0.099948  -0.000162
    25  H    0.836974  -0.084633  -0.001375
    26  H   -0.084633   0.777731   0.000196
    27  H   -0.001375   0.000196   0.742837
 Mulliken charges:
               1
     1  O   -1.064710
     2  S    2.581376
     3  N   -0.780706
     4  C    0.434309
     5  N   -0.363750
     6  N   -0.287038
     7  C    1.444859
     8  N   -0.575641
     9  C    0.955933
    10  C    0.384311
    11  C    0.587642
    12  C    0.576969
    13  C    0.758703
    14  C    0.112584
    15  C    0.090545
    16  O   -1.125731
    17  H   -0.031629
    18  H   -0.467743
    19  H   -0.521360
    20  H   -0.405416
    21  H   -0.416561
    22  H   -0.411854
    23  H   -0.639831
    24  H    0.041522
    25  H    0.034624
    26  H    0.056008
    27  H    0.032584
 Sum of Mulliken charges =   1.00000
 Mulliken charges with hydrogens summed into heavy atoms:
               1
     1  O   -1.064710
     2  S    2.581376
     3  N   -0.812335
     4  C    0.434309
     5  N   -0.331166
     6  N   -0.287038
     7  C    0.977116
     8  N   -0.575641
     9  C    0.955933
    10  C   -0.137049
    11  C    0.182227
    12  C    0.160408
    13  C    0.346849
    14  C   -0.527246
    15  C    0.222699
    16  O   -1.125731
 Electronic spatial extent (au):  <R**2>=           5542.9332
 Charge=              1.0000 electrons
 Dipole moment (field-independent basis, Debye):
    X=             -5.1486    Y=             -3.6553    Z=              1.2719  Tot=              6.4410
 Quadrupole moment (field-independent basis, Debye-Ang):
   XX=            -69.3737   YY=            -82.9001   ZZ=            -93.1175
   XY=             -6.0534   XZ=              6.0823   YZ=             -1.1975
 Traceless Quadrupole moment (field-independent basis, Debye-Ang):
   XX=             12.4234   YY=             -1.1030   ZZ=            -11.3204
   XY=             -6.0534   XZ=              6.0823   YZ=             -1.1975
 Octapole moment (field-independent basis, Debye-Ang**2):
  XXX=           -224.6943  YYY=             -6.6432  ZZZ=              8.6781  XYY=              1.6948
  XXY=            -36.5577  XXZ=             76.6984  XZZ=             43.8080  YZZ=              0.1466
  YYZ=             -9.7935  XYZ=            -32.0484
 Hexadecapole moment (field-independent basis, Debye-Ang**3):
 XXXX=          -5559.9106 YYYY=           -531.2485 ZZZZ=           -375.8642 XXXY=             19.0689
 XXXZ=             72.7798 YYYX=             -8.9370 YYYZ=              3.8831 ZZZX=             52.0301
 ZZZY=             -9.7719 XXYY=          -1046.2044 XXZZ=          -1069.6155 YYZZ=           -149.6503
 XXYZ=             16.7467 YYXZ=            -15.3102 ZZXY=            -28.0412
 N-N= 1.204507528644D+03 E-N=-5.005904718258D+03  KE= 1.110631039093D+03
 Leave Link  601 at Thu Sep 24 15:25:33 2020, MaxMem=   262144000 cpu:               0.8 elap:               0.3
 (Enter /prod/apps/gaussian/g16b1/l9999.exe)
 1\1\GINC-PIRINEUS17\SP\RMP2-FC\Aug-CC-pVDZ\C9H11N4O2S1(1+)\UBAFAR01\24
 -Sep-2020\0\\#p mp2/aug-cc-pVDZ scf=(MaxCycle=2000,NoVarAcc,NoIncFock)
  maxdisk=120GB geom=allcheck\\SM44_m2.b.10.pdb.xyz\\1,1\O,0,4.72604955
 61,-0.4173815847,-0.527783261\S,0,3.5041023236,-0.038810113,0.17991553
 39\N,0,2.2346989774,-0.4326225316,-0.908500229\C,0,0.9393709554,-0.007
 4320738,-0.6725356551\N,0,0.5626444932,1.3001218516,-0.6900749077\N,0,
 -0.7248106243,1.4722532198,-0.489866202\C,0,-0.230295723,-0.7030074381
 ,-0.4459198588\N,0,-1.2002558213,0.2463998656,-0.3557426048\C,0,-2.600
 7786062,0.0453792408,-0.1182808584\C,0,-3.3144776587,1.0180713005,0.58
 1951085\C,0,-4.6731951052,0.8116069005,0.8086611118\C,0,-5.2965683808,
 -0.351741875,0.350662377\C,0,-4.5620261562,-1.3138206503,-0.3451781747
 \C,0,-3.2039650328,-1.1196702096,-0.5904680143\C,0,3.2889623993,-1.109
 0256043,1.6029314989\O,0,3.2666498159,1.3515188574,0.5758942264\H,0,2.
 3019260398,-1.395638689,-1.2414164368\H,0,-0.4168006524,-1.7564432147,
 -0.3331682462\H,0,-2.8116173015,1.9050090337,0.9446403344\H,0,-5.24055
 87912,1.5573266414,1.3533846412\H,0,-6.3532761191,-0.5079911132,0.5364
 52477\H,0,-5.0440287991,-2.2141306841,-0.708010114\H,0,-2.6342175641,-
 1.8502594551,-1.1515768283\H,0,3.366732177,-2.1434815888,1.2703354737\
 H,0,2.3174523585,-0.9075008268,2.0530310277\H,0,4.0925993995,-0.867068
 2442,2.2998976598\H,0,1.1536838401,2.1223389852,-0.8322360557\\Version
 =ES64L-G16RevB.01\State=1-A\HF=-1112.0025171\MP2=-1114.4723612\RMSD=6.
 041e-09\PG=C01 [X(C9H11N4O2S1)]\\@


 THE BEST WAY TO CONVINCE A FOOL THAT HE IS WRONG 
 IS TO LET HIM HAVE HIS OWN WAY.

                                         JOSH BILLINGS
 Job cpu time:       0 days  1 hours  7 minutes 15.0 seconds.
 Elapsed time:       0 days  0 hours 18 minutes 12.3 seconds.
 File lengths (MBytes):  RWF=  37489 Int=      0 D2E=      0 Chk=     18 Scr=      1
 Normal termination of Gaussian 16 at Thu Sep 24 15:25:34 2020.
