 Entering Gaussian System, Link 0=g16
 Initial command:
 /prod/apps/gaussian/g16b1/l1.exe "/tmp/ubafar01/1460620/Gau-198628.inp" -scrdir="/tmp/ubafar01/1460620/"
 Entering Link 1 = /prod/apps/gaussian/g16b1/l1.exe PID=    198629.
  
 Copyright (c) 1988-2017, Gaussian, Inc.  All Rights Reserved.
  
 This is part of the Gaussian(R) 16 program.  It is based on
 the Gaussian(R) 09 system (copyright 2009, Gaussian, Inc.),
 the Gaussian(R) 03 system (copyright 2003, Gaussian, Inc.),
 the Gaussian(R) 98 system (copyright 1998, Gaussian, Inc.),
 the Gaussian(R) 94 system (copyright 1995, Gaussian, Inc.),
 the Gaussian 92(TM) system (copyright 1992, Gaussian, Inc.),
 the Gaussian 90(TM) system (copyright 1990, Gaussian, Inc.),
 the Gaussian 88(TM) system (copyright 1988, Gaussian, Inc.),
 the Gaussian 86(TM) system (copyright 1986, Carnegie Mellon
 University), and the Gaussian 82(TM) system (copyright 1983,
 Carnegie Mellon University). Gaussian is a federally registered
 trademark of Gaussian, Inc.
  
 This software contains proprietary and confidential information,
 including trade secrets, belonging to Gaussian, Inc.
  
 This software is provided under written license and may be
 used, copied, transmitted, or stored only in accord with that
 written license.
  
 The following legend is applicable only to US Government
 contracts under FAR:
  
                    RESTRICTED RIGHTS LEGEND
  
 Use, reproduction and disclosure by the US Government is
 subject to restrictions as set forth in subparagraphs (a)
 and (c) of the Commercial Computer Software - Restricted
 Rights clause in FAR 52.227-19.
  
 Gaussian, Inc.
 340 Quinnipiac St., Bldg. 40, Wallingford CT 06492
  
  
 ---------------------------------------------------------------
 Warning -- This program may not be used in any manner that
 competes with the business of Gaussian, Inc. or will provide
 assistance to any competitor of Gaussian, Inc.  The licensee
 of this program is prohibited from giving any competitor of
 Gaussian, Inc. access to this program.  By using this program,
 the user acknowledges that Gaussian, Inc. is engaged in the
 business of creating and licensing software in the field of
 computational chemistry and represents and warrants to the
 licensee that it is not a competitor of Gaussian, Inc. and that
 it will not use this program in any manner prohibited above.
 ---------------------------------------------------------------
  

 Cite this work as:
 Gaussian 16, Revision B.01,
 M. J. Frisch, G. W. Trucks, H. B. Schlegel, G. E. Scuseria, 
 M. A. Robb, J. R. Cheeseman, G. Scalmani, V. Barone, 
 G. A. Petersson, H. Nakatsuji, X. Li, M. Caricato, A. V. Marenich, 
 J. Bloino, B. G. Janesko, R. Gomperts, B. Mennucci, H. P. Hratchian, 
 J. V. Ortiz, A. F. Izmaylov, J. L. Sonnenberg, D. Williams-Young, 
 F. Ding, F. Lipparini, F. Egidi, J. Goings, B. Peng, A. Petrone, 
 T. Henderson, D. Ranasinghe, V. G. Zakrzewski, J. Gao, N. Rega, 
 G. Zheng, W. Liang, M. Hada, M. Ehara, K. Toyota, R. Fukuda, 
 J. Hasegawa, M. Ishida, T. Nakajima, Y. Honda, O. Kitao, H. Nakai, 
 T. Vreven, K. Throssell, J. A. Montgomery, Jr., J. E. Peralta, 
 F. Ogliaro, M. J. Bearpark, J. J. Heyd, E. N. Brothers, K. N. Kudin, 
 V. N. Staroverov, T. A. Keith, R. Kobayashi, J. Normand, 
 K. Raghavachari, A. P. Rendell, J. C. Burant, S. S. Iyengar, 
 J. Tomasi, M. Cossi, J. M. Millam, M. Klene, C. Adamo, R. Cammi, 
 J. W. Ochterski, R. L. Martin, K. Morokuma, O. Farkas, 
 J. B. Foresman, and D. J. Fox, Gaussian, Inc., Wallingford CT, 2016.
 
 ******************************************
 Gaussian 16:  ES64L-G16RevB.01 20-Dec-2017
                23-Sep-2020 
 ******************************************
 %nproc=4
 Will use up to    4 processors via shared memory.
 %Chk=SM44_m0.n.4.pdb.xyz.mst.n.w.chk
 %mem=16GB
 ----------------------------------------------------------------------
 #p b3lyp/6-31G(d) opt freq NoSymm scf=(MaxCycle=2000,NoVarAcc,NoIncFoc
 k) scrf=(iefpcm,read,solvent=water)
 ----------------------------------------------------------------------
 1/18=20,19=15,26=3,38=1,40=2/1,3;
 2/9=110,12=2,15=1,17=6,18=5,40=1/2;
 3/5=1,6=6,7=1,11=2,25=1,30=1,70=2203,71=1,72=1,74=-5/1,2,3;
 4//1;
 5/5=100002,7=2000,38=1,53=1/2;
 6/7=2,8=2,9=2,10=2,28=1/1;
 7/30=1/1,2,3,16;
 1/18=20,19=15,26=3/3(2);
 2/9=110,15=1/2;
 99//99;
 2/9=110,15=1/2;
 3/5=1,6=6,7=1,11=2,25=1,30=1,70=2205,71=1,72=1,74=-5/1,2,3;
 4/5=5,16=3,69=1/1;
 5/5=100002,7=2000,38=1,53=1/2;
 7/30=1/1,2,3,16;
 1/18=20,19=15,26=3/3(-5);
 2/9=110,15=1/2;
 6/7=2,8=2,9=2,10=2,19=2,28=1/1;
 99/9=1/99;
 Leave Link    1 at Wed Sep 23 05:18:37 2020, MaxMem=  2147483648 cpu:               0.1 elap:               0.0
 (Enter /prod/apps/gaussian/g16b1/l101.exe)
 -------------------
 SM44_m0.n.4.pdb.xyz
 -------------------
 Symbolic Z-matrix:
 Charge =  0 Multiplicity = 1
 O                     4.716    -0.533    -0.438 
 S                     3.472    -0.093     0.204 
 N                     2.284    -0.246    -0.998 
 C                     0.959     0.151    -0.726 
 N                     0.591     1.463    -0.737 
 N                    -0.69      1.543    -0.497 
 C                    -0.155    -0.621    -0.469 
 N                    -1.159     0.28     -0.343 
 C                    -2.541     0.042    -0.09 
 C                    -3.115    -1.168    -0.483 
 C                    -4.465    -1.396    -0.222 
 C                    -5.235    -0.419     0.413 
 C                    -4.649     0.79      0.793 
 C                    -3.297     1.026     0.55 
 C                     3.056    -1.252     1.51 
 O                     3.368     1.267     0.741 
 H                     2.363    -1.154    -1.459 
 H                    -0.295    -1.682    -0.366 
 H                    -2.519    -1.914    -0.995 
 H                    -4.914    -2.335    -0.524 
 H                    -6.287    -0.599     0.61 
 H                    -5.241     1.551     1.288 
 H                    -2.826     1.953     0.851 
 H                     3.091    -2.262     1.102 
 H                     2.062    -1.015     1.887 
 H                     3.804    -1.129     2.295 
 
 ITRead=  0  0  0  0  0  0  0  0  0  0  0  0  0  0  0  0  0  0  0  0
 ITRead=  0  0  0  0  0  0
 MicOpt= -1 -1 -1 -1 -1 -1 -1 -1 -1 -1 -1 -1 -1 -1 -1 -1 -1 -1 -1 -1
 MicOpt= -1 -1 -1 -1 -1 -1
 NAtoms=     26 NQM=       26 NQMF=       0 NMMI=      0 NMMIF=      0
                NMic=       0 NMicF=      0.
                    Isotopes and Nuclear Properties:
 (Nuclear quadrupole moments (NQMom) in fm**2, nuclear magnetic moments (NMagM)
  in nuclear magnetons)

  Atom         1           2           3           4           5           6           7           8           9          10
 IAtWgt=          16          32          14          12          14          14          12          14          12          12
 AtmWgt=  15.9949146  31.9720718  14.0030740  12.0000000  14.0030740  14.0030740  12.0000000  14.0030740  12.0000000  12.0000000
 NucSpn=           0           0           2           0           2           2           0           2           0           0
 AtZEff=  -0.0000000  -0.0000000  -0.0000000  -0.0000000  -0.0000000  -0.0000000  -0.0000000  -0.0000000  -0.0000000  -0.0000000
 NQMom=    0.0000000   0.0000000   2.0440000   0.0000000   2.0440000   2.0440000   0.0000000   2.0440000   0.0000000   0.0000000
 NMagM=    0.0000000   0.0000000   0.4037610   0.0000000   0.4037610   0.4037610   0.0000000   0.4037610   0.0000000   0.0000000
 AtZNuc=   8.0000000  16.0000000   7.0000000   6.0000000   7.0000000   7.0000000   6.0000000   7.0000000   6.0000000   6.0000000

  Atom        11          12          13          14          15          16          17          18          19          20
 IAtWgt=          12          12          12          12          12          16           1           1           1           1
 AtmWgt=  12.0000000  12.0000000  12.0000000  12.0000000  12.0000000  15.9949146   1.0078250   1.0078250   1.0078250   1.0078250
 NucSpn=           0           0           0           0           0           0           1           1           1           1
 AtZEff=  -0.0000000  -0.0000000  -0.0000000  -0.0000000  -0.0000000  -0.0000000  -0.0000000  -0.0000000  -0.0000000  -0.0000000
 NQMom=    0.0000000   0.0000000   0.0000000   0.0000000   0.0000000   0.0000000   0.0000000   0.0000000   0.0000000   0.0000000
 NMagM=    0.0000000   0.0000000   0.0000000   0.0000000   0.0000000   0.0000000   2.7928460   2.7928460   2.7928460   2.7928460
 AtZNuc=   6.0000000   6.0000000   6.0000000   6.0000000   6.0000000   8.0000000   1.0000000   1.0000000   1.0000000   1.0000000

  Atom        21          22          23          24          25          26
 IAtWgt=           1           1           1           1           1           1
 AtmWgt=   1.0078250   1.0078250   1.0078250   1.0078250   1.0078250   1.0078250
 NucSpn=           1           1           1           1           1           1
 AtZEff=  -0.0000000  -0.0000000  -0.0000000  -0.0000000  -0.0000000  -0.0000000
 NQMom=    0.0000000   0.0000000   0.0000000   0.0000000   0.0000000   0.0000000
 NMagM=    2.7928460   2.7928460   2.7928460   2.7928460   2.7928460   2.7928460
 AtZNuc=   1.0000000   1.0000000   1.0000000   1.0000000   1.0000000   1.0000000
 Leave Link  101 at Wed Sep 23 05:18:37 2020, MaxMem=  2147483648 cpu:               1.3 elap:               0.3
 (Enter /prod/apps/gaussian/g16b1/l103.exe)

 GradGradGradGradGradGradGradGradGradGradGradGradGradGradGradGradGradGrad
 Berny optimization.
 Initialization pass.
                           ----------------------------
                           !    Initial Parameters    !
                           ! (Angstroms and Degrees)  !
 --------------------------                            --------------------------
 ! Name  Definition              Value          Derivative Info.                !
 --------------------------------------------------------------------------------
 ! R1    R(1,2)                  1.4674         estimate D2E/DX2                !
 ! R2    R(2,3)                  1.6969         estimate D2E/DX2                !
 ! R3    R(2,15)                 1.795          estimate D2E/DX2                !
 ! R4    R(2,16)                 1.4659         estimate D2E/DX2                !
 ! R5    R(3,4)                  1.4097         estimate D2E/DX2                !
 ! R6    R(3,17)                 1.0214         estimate D2E/DX2                !
 ! R7    R(4,5)                  1.3627         estimate D2E/DX2                !
 ! R8    R(4,7)                  1.3795         estimate D2E/DX2                !
 ! R9    R(5,6)                  1.3057         estimate D2E/DX2                !
 ! R10   R(6,8)                  1.356          estimate D2E/DX2                !
 ! R11   R(7,8)                  1.3549         estimate D2E/DX2                !
 ! R12   R(7,18)                 1.0751         estimate D2E/DX2                !
 ! R13   R(8,9)                  1.425          estimate D2E/DX2                !
 ! R14   R(9,10)                 1.3957         estimate D2E/DX2                !
 ! R15   R(9,14)                 1.3962         estimate D2E/DX2                !
 ! R16   R(10,11)                1.3938         estimate D2E/DX2                !
 ! R17   R(10,19)                1.0835         estimate D2E/DX2                !
 ! R18   R(11,12)                1.3967         estimate D2E/DX2                !
 ! R19   R(11,20)                1.0838         estimate D2E/DX2                !
 ! R20   R(12,13)                1.3962         estimate D2E/DX2                !
 ! R21   R(12,21)                1.0853         estimate D2E/DX2                !
 ! R22   R(13,14)                1.3938         estimate D2E/DX2                !
 ! R23   R(13,22)                1.0838         estimate D2E/DX2                !
 ! R24   R(14,23)                1.0825         estimate D2E/DX2                !
 ! R25   R(15,24)                1.0899         estimate D2E/DX2                !
 ! R26   R(15,25)                1.0892         estimate D2E/DX2                !
 ! R27   R(15,26)                1.0913         estimate D2E/DX2                !
 ! A1    A(1,2,3)              104.8663         estimate D2E/DX2                !
 ! A2    A(1,2,15)             108.7346         estimate D2E/DX2                !
 ! A3    A(1,2,16)             119.9081         estimate D2E/DX2                !
 ! A4    A(3,2,15)             107.152          estimate D2E/DX2                !
 ! A5    A(3,2,16)             107.0659         estimate D2E/DX2                !
 ! A6    A(15,2,16)            108.4255         estimate D2E/DX2                !
 ! A7    A(2,3,4)              119.7334         estimate D2E/DX2                !
 ! A8    A(2,3,17)             110.2253         estimate D2E/DX2                !
 ! A9    A(4,3,17)             114.2141         estimate D2E/DX2                !
 ! A10   A(3,4,5)              121.5623         estimate D2E/DX2                !
 ! A11   A(3,4,7)              129.5959         estimate D2E/DX2                !
 ! A12   A(5,4,7)              108.798          estimate D2E/DX2                !
 ! A13   A(4,5,6)              108.8109         estimate D2E/DX2                !
 ! A14   A(5,6,8)              107.6449         estimate D2E/DX2                !
 ! A15   A(4,7,8)              104.098          estimate D2E/DX2                !
 ! A16   A(4,7,18)             132.4745         estimate D2E/DX2                !
 ! A17   A(8,7,18)             123.4257         estimate D2E/DX2                !
 ! A18   A(6,8,7)              110.6418         estimate D2E/DX2                !
 ! A19   A(6,8,9)              120.7405         estimate D2E/DX2                !
 ! A20   A(7,8,9)              128.6174         estimate D2E/DX2                !
 ! A21   A(8,9,10)             119.5812         estimate D2E/DX2                !
 ! A22   A(8,9,14)             119.2623         estimate D2E/DX2                !
 ! A23   A(10,9,14)            121.1564         estimate D2E/DX2                !
 ! A24   A(9,10,11)            119.1719         estimate D2E/DX2                !
 ! A25   A(9,10,19)            120.2485         estimate D2E/DX2                !
 ! A26   A(11,10,19)           120.5755         estimate D2E/DX2                !
 ! A27   A(10,11,12)           120.312          estimate D2E/DX2                !
 ! A28   A(10,11,20)           119.3959         estimate D2E/DX2                !
 ! A29   A(12,11,20)           120.29           estimate D2E/DX2                !
 ! A30   A(11,12,13)           119.8725         estimate D2E/DX2                !
 ! A31   A(11,12,21)           120.0597         estimate D2E/DX2                !
 ! A32   A(13,12,21)           120.0678         estimate D2E/DX2                !
 ! A33   A(12,13,14)           120.4165         estimate D2E/DX2                !
 ! A34   A(12,13,22)           120.2022         estimate D2E/DX2                !
 ! A35   A(14,13,22)           119.3792         estimate D2E/DX2                !
 ! A36   A(9,14,13)            119.066          estimate D2E/DX2                !
 ! A37   A(9,14,23)            119.6961         estimate D2E/DX2                !
 ! A38   A(13,14,23)           121.2375         estimate D2E/DX2                !
 ! A39   A(2,15,24)            108.5756         estimate D2E/DX2                !
 ! A40   A(2,15,25)            108.8349         estimate D2E/DX2                !
 ! A41   A(2,15,26)            106.9629         estimate D2E/DX2                !
 ! A42   A(24,15,25)           111.133          estimate D2E/DX2                !
 ! A43   A(24,15,26)           110.5937         estimate D2E/DX2                !
 ! A44   A(25,15,26)           110.6113         estimate D2E/DX2                !
 ! D1    D(1,2,3,4)           -177.4348         estimate D2E/DX2                !
 ! D2    D(1,2,3,17)            47.0199         estimate D2E/DX2                !
 ! D3    D(15,2,3,4)            67.1165         estimate D2E/DX2                !
 ! D4    D(15,2,3,17)          -68.4288         estimate D2E/DX2                !
 ! D5    D(16,2,3,4)           -49.0362         estimate D2E/DX2                !
 ! D6    D(16,2,3,17)          175.4185         estimate D2E/DX2                !
 ! D7    D(1,2,15,24)          -50.483          estimate D2E/DX2                !
 ! D8    D(1,2,15,25)         -171.5808         estimate D2E/DX2                !
 ! D9    D(1,2,15,26)           68.8874         estimate D2E/DX2                !
 ! D10   D(3,2,15,24)           62.3598         estimate D2E/DX2                !
 ! D11   D(3,2,15,25)          -58.7381         estimate D2E/DX2                !
 ! D12   D(3,2,15,26)         -178.2698         estimate D2E/DX2                !
 ! D13   D(16,2,15,24)         177.6084         estimate D2E/DX2                !
 ! D14   D(16,2,15,25)          56.5106         estimate D2E/DX2                !
 ! D15   D(16,2,15,26)         -63.0212         estimate D2E/DX2                !
 ! D16   D(2,3,4,5)             78.1744         estimate D2E/DX2                !
 ! D17   D(2,3,4,7)           -104.5176         estimate D2E/DX2                !
 ! D18   D(17,3,4,5)          -147.9261         estimate D2E/DX2                !
 ! D19   D(17,3,4,7)            29.3819         estimate D2E/DX2                !
 ! D20   D(3,4,5,6)            177.9772         estimate D2E/DX2                !
 ! D21   D(7,4,5,6)              0.1681         estimate D2E/DX2                !
 ! D22   D(3,4,7,8)           -177.2391         estimate D2E/DX2                !
 ! D23   D(3,4,7,18)             3.2527         estimate D2E/DX2                !
 ! D24   D(5,4,7,8)              0.3381         estimate D2E/DX2                !
 ! D25   D(5,4,7,18)          -179.1701         estimate D2E/DX2                !
 ! D26   D(4,5,6,8)             -0.6093         estimate D2E/DX2                !
 ! D27   D(5,6,8,7)              0.8514         estimate D2E/DX2                !
 ! D28   D(5,6,8,9)           -178.9664         estimate D2E/DX2                !
 ! D29   D(4,7,8,6)             -0.7197         estimate D2E/DX2                !
 ! D30   D(4,7,8,9)            179.0799         estimate D2E/DX2                !
 ! D31   D(18,7,8,6)           178.8457         estimate D2E/DX2                !
 ! D32   D(18,7,8,9)            -1.3547         estimate D2E/DX2                !
 ! D33   D(6,8,9,10)           152.8971         estimate D2E/DX2                !
 ! D34   D(6,8,9,14)           -27.1929         estimate D2E/DX2                !
 ! D35   D(7,8,9,10)           -26.8848         estimate D2E/DX2                !
 ! D36   D(7,8,9,14)           153.0252         estimate D2E/DX2                !
 ! D37   D(8,9,10,11)          179.5049         estimate D2E/DX2                !
 ! D38   D(8,9,10,19)           -1.222          estimate D2E/DX2                !
 ! D39   D(14,9,10,11)          -0.4034         estimate D2E/DX2                !
 ! D40   D(14,9,10,19)         178.8697         estimate D2E/DX2                !
 ! D41   D(8,9,14,13)          179.8714         estimate D2E/DX2                !
 ! D42   D(8,9,14,23)           -0.3467         estimate D2E/DX2                !
 ! D43   D(10,9,14,13)          -0.2201         estimate D2E/DX2                !
 ! D44   D(10,9,14,23)         179.5618         estimate D2E/DX2                !
 ! D45   D(9,10,11,12)           0.6355         estimate D2E/DX2                !
 ! D46   D(9,10,11,20)        -179.8915         estimate D2E/DX2                !
 ! D47   D(19,10,11,12)       -178.6352         estimate D2E/DX2                !
 ! D48   D(19,10,11,20)          0.8378         estimate D2E/DX2                !
 ! D49   D(10,11,12,13)         -0.2461         estimate D2E/DX2                !
 ! D50   D(10,11,12,21)        179.709          estimate D2E/DX2                !
 ! D51   D(20,11,12,13)       -179.7144         estimate D2E/DX2                !
 ! D52   D(20,11,12,21)          0.2408         estimate D2E/DX2                !
 ! D53   D(11,12,13,14)         -0.3889         estimate D2E/DX2                !
 ! D54   D(11,12,13,22)       -179.8675         estimate D2E/DX2                !
 ! D55   D(21,12,13,14)        179.6559         estimate D2E/DX2                !
 ! D56   D(21,12,13,22)          0.1773         estimate D2E/DX2                !
 ! D57   D(12,13,14,9)           0.617          estimate D2E/DX2                !
 ! D58   D(12,13,14,23)       -179.1614         estimate D2E/DX2                !
 ! D59   D(22,13,14,9)        -179.9002         estimate D2E/DX2                !
 ! D60   D(22,13,14,23)          0.3214         estimate D2E/DX2                !
 --------------------------------------------------------------------------------
 Trust Radius=3.00D-01 FncErr=1.00D-07 GrdErr=1.00D-06 EigMax=2.50D+02 EigMin=1.00D-04
 Number of steps in this run=    141 maximum allowed number of steps=    156.
 GradGradGradGradGradGradGradGradGradGradGradGradGradGradGradGradGradGrad

 Leave Link  103 at Wed Sep 23 05:18:37 2020, MaxMem=  2147483648 cpu:               0.1 elap:               0.0
 (Enter /prod/apps/gaussian/g16b1/l202.exe)
                          Input orientation:                          
 ---------------------------------------------------------------------
 Center     Atomic      Atomic             Coordinates (Angstroms)
 Number     Number       Type             X           Y           Z
 ---------------------------------------------------------------------
      1          8           0        4.716000   -0.533000   -0.438000
      2         16           0        3.472000   -0.093000    0.204000
      3          7           0        2.284000   -0.246000   -0.998000
      4          6           0        0.959000    0.151000   -0.726000
      5          7           0        0.591000    1.463000   -0.737000
      6          7           0       -0.690000    1.543000   -0.497000
      7          6           0       -0.155000   -0.621000   -0.469000
      8          7           0       -1.159000    0.280000   -0.343000
      9          6           0       -2.541000    0.042000   -0.090000
     10          6           0       -3.115000   -1.168000   -0.483000
     11          6           0       -4.465000   -1.396000   -0.222000
     12          6           0       -5.235000   -0.419000    0.413000
     13          6           0       -4.649000    0.790000    0.793000
     14          6           0       -3.297000    1.026000    0.550000
     15          6           0        3.056000   -1.252000    1.510000
     16          8           0        3.368000    1.267000    0.741000
     17          1           0        2.363000   -1.154000   -1.459000
     18          1           0       -0.295000   -1.682000   -0.366000
     19          1           0       -2.519000   -1.914000   -0.995000
     20          1           0       -4.914000   -2.335000   -0.524000
     21          1           0       -6.287000   -0.599000    0.610000
     22          1           0       -5.241000    1.551000    1.288000
     23          1           0       -2.826000    1.953000    0.851000
     24          1           0        3.091000   -2.262000    1.102000
     25          1           0        2.062000   -1.015000    1.887000
     26          1           0        3.804000   -1.129000    2.295000
 ---------------------------------------------------------------------
                    Distance matrix (angstroms):
                    1          2          3          4          5
     1  O    0.000000
     2  S    1.467413   0.000000
     3  N    2.512089   1.696926   0.000000
     4  C    3.829602   2.690651   1.409687   0.000000
     5  N    4.592281   3.406872   2.419721   1.362677   0.000000
     6  N    5.791208   4.526604   3.506594   2.170094   1.305742
     7  C    4.871893   3.726505   2.523725   1.379503   2.229663
     8  N    5.931747   4.678087   3.544002   2.156213   2.148773
     9  C    7.288057   6.021697   4.918133   3.558985   3.499611
    10  C    7.856832   6.709409   5.501319   4.289089   4.552045
    11  C    9.224001   8.054518   6.890114   5.662773   5.831144
    12  C    9.987973   8.715607   7.652203   6.323595   6.229502
    13  C    9.537763   8.190070   7.235155   5.845113   5.500130
    14  C    8.222822   6.869588   5.929743   4.528503   4.118723
    15  C    2.658433   1.794986   2.810353   3.371278   4.300751
    16  O    2.539123   1.465873   2.547223   3.033286   3.151925
    17  H    2.639070   2.263000   1.021384   2.052201   3.241906
    18  H    5.141547   4.127967   3.018735   2.249890   3.288413
    19  H    7.386652   6.375400   5.084392   4.053772   4.598129
    20  H    9.797525   8.711001   7.509980   6.380684   6.691427
    21  H   11.052994   9.780540   8.727675   7.406208   7.305692
    22  H   10.318138   8.932758   8.067257   6.667548   6.174188
    23  H    8.045090   6.653535   5.862295   4.478879   3.799702
    24  H    2.828722   2.378261   3.020845   3.702645   4.848458
    25  H    3.561133   2.381317   2.993972   3.066583   3.897397
    26  H    2.942150   2.357075   3.732819   4.342680   5.121997
                    6          7          8          9         10
     6  N    0.000000
     7  C    2.229328   0.000000
     8  N    1.356041   1.354877   0.000000
     9  C    2.417613   2.505236   1.424983   0.000000
    10  C    3.637354   3.010150   2.437671   1.395717   0.000000
    11  C    4.792074   4.386084   3.708538   2.405628   1.393774
    12  C    5.033346   5.159954   4.204035   2.779058   2.420375
    13  C    4.231405   4.876433   3.705495   2.404757   2.795549
    14  C    2.856562   3.690953   2.434134   1.396206   2.431841
    15  C    5.086511   3.824281   4.852510   5.963291   6.485395
    16  O    4.251610   4.176143   4.758461   6.091590   7.032545
    17  H    4.185697   2.757628   3.963117   5.230085   5.564284
    18  H    3.251740   1.075142   2.143938   2.844797   2.868847
    19  H    3.942600   2.745364   2.662394   2.155329   1.083456
    20  H    5.734264   5.058547   4.579412   3.386682   2.144754
    21  H    6.094261   6.226247   5.289351   3.864375   3.402939
    22  H    4.888547   5.802760   4.575842   3.386143   3.879340
    23  H    2.558847   3.937273   2.646404   2.149099   3.406423
    24  H    5.597391   3.961999   5.158710   6.200702   6.497961
    25  H    4.449755   3.258997   4.126108   5.119901   5.695756
    26  H    5.927131   4.855043   5.794454   6.878844   7.455962
                   11         12         13         14         15
    11  C    0.000000
    12  C    1.396658   0.000000
    13  C    2.417163   1.396237   0.000000
    14  C    2.797551   2.421288   1.393789   0.000000
    15  C    7.719197   8.404640   8.003179   6.817000   0.000000
    16  O    8.329155   8.772787   8.031346   6.672090   2.652181
    17  H    6.943365   7.859657   7.617006   6.389373   3.050379
    18  H    4.182276   5.158063   5.139200   4.145398   3.864386
    19  H    2.157028   3.405018   3.878848   3.411145   6.147674
    20  H    1.083756   2.156865   3.401520   3.881300   8.296442
    21  H    2.155717   1.085317   2.155424   3.403575   9.408935
    22  H    3.401042   2.155588   1.083794   2.144622   8.760497
    23  H    3.879878   3.409033   2.163160   1.082484   6.730842
    24  H    7.719849   8.555329   8.325730   7.205706   1.089857
    25  H    6.869845   7.468206   7.035082   5.888305   1.089190
    26  H    8.647713   9.260105   8.797259   7.623205   1.091264
                   16         17         18         19         20
    16  O    0.000000
    17  H    3.422173   0.000000
    18  H    4.831109   2.922054   0.000000
    19  H    6.912975   4.962542   2.322852   0.000000
    20  H    9.119548   7.431266   4.667605   2.476915   0.000000
    21  H    9.834538   8.911301   6.166809   4.301520   2.486922
    22  H    8.631034   8.525482   6.136035   4.962620   4.300148
    23  H    6.232843   6.474200   4.593504   4.296004   4.963599
    24  H    3.558215   2.883812   3.735829   5.999218   8.168796
    25  H    2.868183   3.362386   3.328115   5.486318   7.497993
    26  H    2.888915   4.021147   4.918184   7.170820   9.241467
                   21         22         23         24         25
    21  H    0.000000
    22  H    2.485216   0.000000
    23  H    4.306891   2.486925   0.000000
    24  H    9.537008   9.164922   7.269121   0.000000
    25  H    8.456334   7.763824   5.811615   1.797241   0.000000
    26  H   10.244433   9.487280   7.452567   1.793128   1.792770
                   26
    26  H    0.000000
 Symmetry turned off by external request.
 Stoichiometry    C9H10N4O2S
 Framework group  C1[X(C9H10N4O2S)]
 Deg. of freedom    72
 Full point group                 C1      NOp   1
 Rotational constants (GHZ):           1.5899801           0.1981478           0.1907124
 Leave Link  202 at Wed Sep 23 05:18:37 2020, MaxMem=  2147483648 cpu:               0.0 elap:               0.0
 (Enter /prod/apps/gaussian/g16b1/l301.exe)
 Standard basis: 6-31G(d) (6D, 7F)
 Ernie: Thresh=  0.10000D-02 Tol=  0.10000D-05 Strict=F.
   264 basis functions,   512 primitive gaussians,   264 cartesian basis functions
    62 alpha electrons       62 beta electrons
       nuclear repulsion energy      1185.1493225845 Hartrees.
 IExCor=  402 DFT=T Ex+Corr=B3LYP ExCW=0 ScaHFX=  0.200000
 ScaDFX=  0.800000  0.720000  1.000000  0.810000 ScalE2=  1.000000  1.000000
 IRadAn=      5 IRanWt=     -1 IRanGd=            0 ICorTp=0 IEmpDi=  4
 NAtoms=   26 NActive=   26 NUniq=   26 SFac= 1.00D+00 NAtFMM=   60 NAOKFM=F Big=F
 Integral buffers will be    131072 words long.
 Raffenetti 2 integral format.
 Two-electron integral symmetry is turned off.
 Using the following non-standard input for PCM:
 MSTModel=DFT cav
 --- end of non-standard input.
 MST model for solvation energy: B3LYP parametrization.
 MST cavity parameters:
 ISph   IAn     Re0     Alpha   Atom Type   QCorr
 ------------------------------------------------
   1      8     1.40     1.25      O          F
   2     16     1.75     1.25      S          F
   3      7     1.50     1.25      NH         F
   4      6     1.50     1.25      C          F
   5      7     1.40     1.25      N          F
   6      7     1.40     1.25      N          F
   7      6     1.50     1.25      CH         F
   8      7     1.40     1.25      N          F
   9      6     1.50     1.25      C          F
  10      6     1.50     1.25      CH         F
  11      6     1.50     1.25      CH         F
  12      6     1.50     1.25      CH         F
  13      6     1.50     1.25      CH         F
  14      6     1.50     1.25      CH         F
  15      6     1.50     1.25      CH3        F
  16      8     1.40     1.25      O          F
  17      1     0.90     1.25      NH         F
  18      1     1.20     1.25      CH         F
  19      1     1.20     1.25      CH         F
  20      1     1.20     1.25      CH         F
  21      1     1.20     1.25      CH         F
  22      1     1.20     1.25      CH         F
  23      1     1.20     1.25      CH         F
  24      1     1.20     1.25      CH3        F
  25      1     1.20     1.25      CH3        F
  26      1     1.20     1.25      CH3        F
 ------------------------------------------------------------------------------
 Polarizable Continuum Model (PCM)
 =================================
 Model                : PCM.
 Atomic radii         : MST.
 Polarization charges : Total charges.
 Charge compensation  : None.
 Solution method      : On-the-fly selection.
 Cavity type          : Scaled VdW (van der Waals Surface) (Alpha=1.250).
 Cavity algorithm     : GePol (No added spheres)
                        Default sphere list used, NSphG=   26.
                        Lebedev-Laikov grids with approx.  5.0 points / Ang**2.
                        Smoothing algorithm: York/Karplus (Gamma=1.0000).
                        Polarization charges: spherical gaussians, with
                                              point-specific exponents (IZeta= 3).
                        Self-potential: point-specific (ISelfS= 7).
                        Self-field    : sphere-specific E.n sum rule (ISelfD= 2).
 1st derivatives      : Analytical E(r).r(x)/FMM algorithm (CHGder, D1EAlg=3).
                        Cavity 1st derivative terms included.
 Solvent              : Water, Eps=  78.355300 Eps(inf)=   1.777849
 ------------------------------------------------------------------------------
 GePol: Number of generator spheres                  =      26
 GePol: Total number of spheres                      =      26
 GePol: Number of exposed spheres                    =      26 (100.00%)
 GePol: Number of points                             =    2104
 GePol: Average weight of points                     =       0.13
 GePol: Minimum weight of points                     =   0.84D-08
 GePol: Maximum weight of points                     =    0.22001
 GePol: Number of points with low weight             =     143
 GePol: Fraction of low-weight points (<1% of avg)   =       6.80%
 GePol: Cavity surface area                          =    274.692 Ang**2
 GePol: Cavity volume                                =    254.029 Ang**3
 PCM non-electrostatic energy =         0.0029691838 Hartrees.
 Nuclear repulsion after PCM non-electrostatic terms =     1185.1522917683 Hartrees.
 Leave Link  301 at Wed Sep 23 05:18:37 2020, MaxMem=  2147483648 cpu:               0.3 elap:               0.1
 (Enter /prod/apps/gaussian/g16b1/l302.exe)
 NPDir=0 NMtPBC=     1 NCelOv=     1 NCel=       1 NClECP=     1 NCelD=      1
         NCelK=      1 NCelE2=     1 NClLst=     1 CellRange=     0.0.
 One-electron integrals computed using PRISM.
 NBasis=   264 RedAO= T EigKep=  4.68D-04  NBF=   264
 NBsUse=   264 1.00D-06 EigRej= -1.00D+00 NBFU=   264
 Precomputing XC quadrature grid using
 IXCGrd= 4 IRadAn=           5 IRanWt=          -1 IRanGd=           0 AccXCQ= 0.00D+00.
 Generated NRdTot=       0 NPtTot=           0 NUsed=           0 NTot=          32
 NSgBfM=   262   262   262   262   262 MxSgAt=    26 MxSgA2=    26.
 Leave Link  302 at Wed Sep 23 05:18:38 2020, MaxMem=  2147483648 cpu:               1.1 elap:               0.3
 (Enter /prod/apps/gaussian/g16b1/l303.exe)
 DipDrv:  MaxL=1.
 Leave Link  303 at Wed Sep 23 05:18:38 2020, MaxMem=  2147483648 cpu:               0.1 elap:               0.1
 (Enter /prod/apps/gaussian/g16b1/l401.exe)
 ExpMin= 1.17D-01 ExpMax= 2.19D+04 ExpMxC= 3.30D+03 IAcc=3 IRadAn=         5 AccDes= 0.00D+00
 Harris functional with IExCor=  402 and IRadAn=       5 diagonalized for initial guess.
 HarFok:  IExCor=  402 AccDes= 0.00D+00 IRadAn=         5 IDoV= 1 UseB2=F ITyADJ=14
 ICtDFT=  3500011 ScaDFX=  1.000000  1.000000  1.000000  1.000000
 FoFCou: FMM=F IPFlag=           0 FMFlag=      100000 FMFlg1=           0
         NFxFlg=           0 DoJE=T BraDBF=F KetDBF=T FulRan=T
         wScrn=  0.000000 ICntrl=       500 IOpCl=  0 I1Cent=   200000004 NGrid=           0
         NMat0=    1 NMatS0=      1 NMatT0=    0 NMatD0=    1 NMtDS0=    0 NMtDT0=    0
 Symmetry not used in FoFCou.
 Harris En= -1116.51841213489    
 JPrj=0 DoOrth=F DoCkMO=F.
 Leave Link  401 at Wed Sep 23 05:18:39 2020, MaxMem=  2147483648 cpu:               5.5 elap:               1.4
 (Enter /prod/apps/gaussian/g16b1/l502.exe)
 Keep R1 ints in memory in canonical form, NReq=621123487.
 FoFCou: FMM=F IPFlag=           0 FMFlag=           0 FMFlg1=           0
         NFxFlg=           0 DoJE=F BraDBF=F KetDBF=F FulRan=T
         wScrn=  0.000000 ICntrl=       600 IOpCl=  0 I1Cent=           0 NGrid=           0
         NMat0=    1 NMatS0=  34980 NMatT0=    0 NMatD0=    1 NMtDS0=    0 NMtDT0=    0
 Symmetry not used in FoFCou.
 Two-electron integral symmetry not used.
 Closed shell SCF:
 Using DIIS extrapolation, IDIIS=  1040.
 NGot=  2147483648 LenX=  1535522690 LenY=  1535452553
 Requested convergence on RMS density matrix=1.00D-08 within2000 cycles.
 Requested convergence on MAX density matrix=1.00D-06.
 Requested convergence on             energy=1.00D-06.
 No special actions if energy rises.

 Cycle   1  Pass 1  IDiag  1:
 Inv3:  Mode=1 IEnd=    13280448.
 Iteration    1 A*A^-1 deviation from unit magnitude is 2.89D-15 for    201.
 Iteration    1 A*A^-1 deviation from orthogonality  is 2.82D-15 for   1311    452.
 Iteration    1 A^-1*A deviation from unit magnitude is 2.89D-15 for   1462.
 Iteration    1 A^-1*A deviation from orthogonality  is 6.02D-13 for   1443   1413.
 E= -1116.05646347402    
 DIIS: error= 3.00D-02 at cycle   1 NSaved=   1.
 NSaved= 1 IEnMin= 1 EnMin= -1116.05646347402     IErMin= 1 ErrMin= 3.00D-02
 ErrMax= 3.00D-02  0.00D+00 EMaxC= 1.00D-01 BMatC= 5.66D-01 BMatP= 5.66D-01
 IDIUse=3 WtCom= 7.00D-01 WtEn= 3.00D-01
 Coeff-Com:  0.100D+01
 Coeff-En:   0.100D+01
 Coeff:      0.100D+01
 Gap=     0.311 Goal=   None    Shift=    0.000
 GapD=    0.311 DampG=1.000 DampE=0.500 DampFc=0.5000 IDamp=-1.
 Damping current iteration by 5.00D-01
 RMSDP=6.73D-03 MaxDP=5.48D-01              OVMax= 2.27D-01

 Cycle   2  Pass 1  IDiag  1:
 E= -1116.19203272861     Delta-E=       -0.135569254597 Rises=F Damp=T
 DIIS: error= 1.60D-02 at cycle   2 NSaved=   2.
 NSaved= 2 IEnMin= 2 EnMin= -1116.19203272861     IErMin= 2 ErrMin= 1.60D-02
 ErrMax= 1.60D-02  0.00D+00 EMaxC= 1.00D-01 BMatC= 7.59D-02 BMatP= 5.66D-01
 IDIUse=3 WtCom= 8.40D-01 WtEn= 1.60D-01
 Coeff-Com:  0.211D+00 0.789D+00
 Coeff-En:   0.341D+00 0.659D+00
 Coeff:      0.232D+00 0.768D+00
 Gap=     0.218 Goal=   None    Shift=    0.000
 RMSDP=1.79D-03 MaxDP=1.12D-01 DE=-1.36D-01 OVMax= 1.65D-01

 Cycle   3  Pass 1  IDiag  1:
 E= -1116.50903226810     Delta-E=       -0.316999539484 Rises=F Damp=F
 DIIS: error= 9.17D-03 at cycle   3 NSaved=   3.
 NSaved= 3 IEnMin= 3 EnMin= -1116.50903226810     IErMin= 3 ErrMin= 9.17D-03
 ErrMax= 9.17D-03  0.00D+00 EMaxC= 1.00D-01 BMatC= 3.29D-02 BMatP= 7.59D-02
 IDIUse=3 WtCom= 9.08D-01 WtEn= 9.17D-02
 Coeff-Com:  0.630D-01 0.398D+00 0.539D+00
 Coeff-En:   0.000D+00 0.000D+00 0.100D+01
 Coeff:      0.573D-01 0.362D+00 0.581D+00
 Gap=     0.201 Goal=   None    Shift=    0.000
 RMSDP=8.72D-04 MaxDP=2.84D-02 DE=-3.17D-01 OVMax= 4.52D-02

 Cycle   4  Pass 1  IDiag  1:
 E= -1116.53409757110     Delta-E=       -0.025065303003 Rises=F Damp=F
 DIIS: error= 3.02D-03 at cycle   4 NSaved=   4.
 NSaved= 4 IEnMin= 4 EnMin= -1116.53409757110     IErMin= 4 ErrMin= 3.02D-03
 ErrMax= 3.02D-03  0.00D+00 EMaxC= 1.00D-01 BMatC= 5.18D-03 BMatP= 3.29D-02
 IDIUse=3 WtCom= 9.70D-01 WtEn= 3.02D-02
 Coeff-Com:  0.359D-02 0.719D-01 0.301D+00 0.623D+00
 Coeff-En:   0.000D+00 0.000D+00 0.115D+00 0.885D+00
 Coeff:      0.348D-02 0.697D-01 0.296D+00 0.631D+00
 Gap=     0.200 Goal=   None    Shift=    0.000
 RMSDP=2.83D-04 MaxDP=1.11D-02 DE=-2.51D-02 OVMax= 1.37D-02

 Cycle   5  Pass 1  IDiag  1:
 E= -1116.53826047016     Delta-E=       -0.004162899058 Rises=F Damp=F
 DIIS: error= 6.85D-04 at cycle   5 NSaved=   5.
 NSaved= 5 IEnMin= 5 EnMin= -1116.53826047016     IErMin= 5 ErrMin= 6.85D-04
 ErrMax= 6.85D-04  0.00D+00 EMaxC= 1.00D-01 BMatC= 3.70D-04 BMatP= 5.18D-03
 IDIUse=3 WtCom= 9.93D-01 WtEn= 6.85D-03
 Coeff-Com: -0.179D-02 0.151D-01 0.119D+00 0.327D+00 0.540D+00
 Coeff-En:   0.000D+00 0.000D+00 0.000D+00 0.000D+00 0.100D+01
 Coeff:     -0.178D-02 0.150D-01 0.118D+00 0.325D+00 0.543D+00
 Gap=     0.200 Goal=   None    Shift=    0.000
 RMSDP=8.54D-05 MaxDP=5.03D-03 DE=-4.16D-03 OVMax= 5.35D-03

 Cycle   6  Pass 1  IDiag  1:
 E= -1116.53855390477     Delta-E=       -0.000293434613 Rises=F Damp=F
 DIIS: error= 2.43D-04 at cycle   6 NSaved=   6.
 NSaved= 6 IEnMin= 6 EnMin= -1116.53855390477     IErMin= 6 ErrMin= 2.43D-04
 ErrMax= 2.43D-04  0.00D+00 EMaxC= 1.00D-01 BMatC= 3.54D-05 BMatP= 3.70D-04
 IDIUse=3 WtCom= 9.98D-01 WtEn= 2.43D-03
 Coeff-Com: -0.136D-02 0.237D-02 0.406D-01 0.127D+00 0.302D+00 0.530D+00
 Coeff-En:   0.000D+00 0.000D+00 0.000D+00 0.000D+00 0.217D-03 0.100D+01
 Coeff:     -0.136D-02 0.236D-02 0.405D-01 0.127D+00 0.301D+00 0.531D+00
 Gap=     0.200 Goal=   None    Shift=    0.000
 RMSDP=2.38D-05 MaxDP=1.27D-03 DE=-2.93D-04 OVMax= 1.47D-03

 Cycle   7  Pass 1  IDiag  1:
 E= -1116.53858237592     Delta-E=       -0.000028471144 Rises=F Damp=F
 DIIS: error= 7.55D-05 at cycle   7 NSaved=   7.
 NSaved= 7 IEnMin= 7 EnMin= -1116.53858237592     IErMin= 7 ErrMin= 7.55D-05
 ErrMax= 7.55D-05  0.00D+00 EMaxC= 1.00D-01 BMatC= 2.46D-06 BMatP= 3.54D-05
 IDIUse=1 WtCom= 1.00D+00 WtEn= 0.00D+00
 Coeff-Com: -0.559D-03 0.205D-03 0.118D-01 0.397D-01 0.114D+00 0.282D+00
 Coeff-Com:  0.553D+00
 Coeff:     -0.559D-03 0.205D-03 0.118D-01 0.397D-01 0.114D+00 0.282D+00
 Coeff:      0.553D+00
 Gap=     0.200 Goal=   None    Shift=    0.000
 RMSDP=7.13D-06 MaxDP=3.78D-04 DE=-2.85D-05 OVMax= 4.80D-04

 Cycle   8  Pass 1  IDiag  1:
 E= -1116.53858431607     Delta-E=       -0.000001940158 Rises=F Damp=F
 DIIS: error= 2.70D-05 at cycle   8 NSaved=   8.
 NSaved= 8 IEnMin= 8 EnMin= -1116.53858431607     IErMin= 8 ErrMin= 2.70D-05
 ErrMax= 2.70D-05  0.00D+00 EMaxC= 1.00D-01 BMatC= 3.55D-07 BMatP= 2.46D-06
 IDIUse=1 WtCom= 1.00D+00 WtEn= 0.00D+00
 Coeff-Com: -0.207D-03-0.224D-03 0.285D-02 0.107D-01 0.377D-01 0.113D+00
 Coeff-Com:  0.328D+00 0.509D+00
 Coeff:     -0.207D-03-0.224D-03 0.285D-02 0.107D-01 0.377D-01 0.113D+00
 Coeff:      0.328D+00 0.509D+00
 Gap=     0.200 Goal=   None    Shift=    0.000
 RMSDP=2.65D-06 MaxDP=1.32D-04 DE=-1.94D-06 OVMax= 1.70D-04

 Cycle   9  Pass 1  IDiag  1:
 E= -1116.53858460895     Delta-E=       -0.000000292877 Rises=F Damp=F
 DIIS: error= 6.49D-06 at cycle   9 NSaved=   9.
 NSaved= 9 IEnMin= 9 EnMin= -1116.53858460895     IErMin= 9 ErrMin= 6.49D-06
 ErrMax= 6.49D-06  0.00D+00 EMaxC= 1.00D-01 BMatC= 3.00D-08 BMatP= 3.55D-07
 IDIUse=1 WtCom= 1.00D+00 WtEn= 0.00D+00
 Coeff-Com: -0.147D-04-0.127D-03-0.390D-03-0.814D-03 0.138D-02 0.138D-01
 Coeff-Com:  0.861D-01 0.266D+00 0.634D+00
 Coeff:     -0.147D-04-0.127D-03-0.390D-03-0.814D-03 0.138D-02 0.138D-01
 Coeff:      0.861D-01 0.266D+00 0.634D+00
 Gap=     0.200 Goal=   None    Shift=    0.000
 RMSDP=7.59D-07 MaxDP=3.13D-05 DE=-2.93D-07 OVMax= 4.23D-05

 Cycle  10  Pass 1  IDiag  1:
 E= -1116.53858463621     Delta-E=       -0.000000027259 Rises=F Damp=F
 DIIS: error= 1.72D-06 at cycle  10 NSaved=  10.
 NSaved=10 IEnMin=10 EnMin= -1116.53858463621     IErMin=10 ErrMin= 1.72D-06
 ErrMax= 1.72D-06  0.00D+00 EMaxC= 1.00D-01 BMatC= 1.54D-09 BMatP= 3.00D-08
 IDIUse=1 WtCom= 1.00D+00 WtEn= 0.00D+00
 Coeff-Com:  0.380D-06-0.444D-04-0.273D-03-0.753D-03-0.852D-03 0.145D-02
 Coeff-Com:  0.274D-01 0.977D-01 0.291D+00 0.584D+00
 Coeff:      0.380D-06-0.444D-04-0.273D-03-0.753D-03-0.852D-03 0.145D-02
 Coeff:      0.274D-01 0.977D-01 0.291D+00 0.584D+00
 Gap=     0.200 Goal=   None    Shift=    0.000
 RMSDP=1.95D-07 MaxDP=9.85D-06 DE=-2.73D-08 OVMax= 1.26D-05

 Cycle  11  Pass 1  IDiag  1:
 E= -1116.53858463742     Delta-E=       -0.000000001213 Rises=F Damp=F
 DIIS: error= 8.62D-07 at cycle  11 NSaved=  11.
 NSaved=11 IEnMin=11 EnMin= -1116.53858463742     IErMin=11 ErrMin= 8.62D-07
 ErrMax= 8.62D-07  0.00D+00 EMaxC= 1.00D-01 BMatC= 3.09D-10 BMatP= 1.54D-09
 IDIUse=1 WtCom= 1.00D+00 WtEn= 0.00D+00
 Coeff-Com:  0.242D-05-0.498D-05-0.106D-03-0.328D-03-0.750D-03-0.144D-02
 Coeff-Com:  0.329D-02 0.146D-01 0.698D-01 0.335D+00 0.580D+00
 Coeff:      0.242D-05-0.498D-05-0.106D-03-0.328D-03-0.750D-03-0.144D-02
 Coeff:      0.329D-02 0.146D-01 0.698D-01 0.335D+00 0.580D+00
 Gap=     0.200 Goal=   None    Shift=    0.000
 RMSDP=6.94D-08 MaxDP=5.25D-06 DE=-1.21D-09 OVMax= 5.54D-06

 Cycle  12  Pass 1  IDiag  1:
 E= -1116.53858463766     Delta-E=       -0.000000000241 Rises=F Damp=F
 DIIS: error= 3.10D-07 at cycle  12 NSaved=  12.
 NSaved=12 IEnMin=12 EnMin= -1116.53858463766     IErMin=12 ErrMin= 3.10D-07
 ErrMax= 3.10D-07  0.00D+00 EMaxC= 1.00D-01 BMatC= 3.61D-11 BMatP= 3.09D-10
 IDIUse=1 WtCom= 1.00D+00 WtEn= 0.00D+00
 Coeff-Com:  0.148D-05 0.105D-05-0.429D-04-0.138D-03-0.415D-03-0.116D-02
 Coeff-Com: -0.864D-03-0.164D-02 0.121D-01 0.149D+00 0.346D+00 0.498D+00
 Coeff:      0.148D-05 0.105D-05-0.429D-04-0.138D-03-0.415D-03-0.116D-02
 Coeff:     -0.864D-03-0.164D-02 0.121D-01 0.149D+00 0.346D+00 0.498D+00
 Gap=     0.200 Goal=   None    Shift=    0.000
 RMSDP=2.26D-08 MaxDP=1.39D-06 DE=-2.41D-10 OVMax= 1.53D-06

 Cycle  13  Pass 1  IDiag  1:
 E= -1116.53858463770     Delta-E=       -0.000000000042 Rises=F Damp=F
 DIIS: error= 5.49D-08 at cycle  13 NSaved=  13.
 NSaved=13 IEnMin=13 EnMin= -1116.53858463770     IErMin=13 ErrMin= 5.49D-08
 ErrMax= 5.49D-08  0.00D+00 EMaxC= 1.00D-01 BMatC= 1.61D-12 BMatP= 3.61D-11
 IDIUse=1 WtCom= 1.00D+00 WtEn= 0.00D+00
 Coeff-Com:  0.308D-06 0.864D-06-0.590D-05-0.185D-04-0.820D-04-0.311D-03
 Coeff-Com: -0.590D-03-0.229D-02-0.294D-02 0.256D-01 0.760D-01 0.205D+00
 Coeff-Com:  0.700D+00
 Coeff:      0.308D-06 0.864D-06-0.590D-05-0.185D-04-0.820D-04-0.311D-03
 Coeff:     -0.590D-03-0.229D-02-0.294D-02 0.256D-01 0.760D-01 0.205D+00
 Coeff:      0.700D+00
 Gap=     0.200 Goal=   None    Shift=    0.000
 RMSDP=6.61D-09 MaxDP=2.93D-07 DE=-4.18D-11 OVMax= 5.49D-07

 Error on total polarization charges =  0.01969
 SCF Done:  E(RB3LYP) =  -1116.53858464     A.U. after   13 cycles
            NFock= 13  Conv=0.66D-08     -V/T= 2.0074
 KE= 1.108363638648D+03 PE=-4.987143516379D+03 EE= 1.577089001324D+03
 Leave Link  502 at Wed Sep 23 05:19:22 2020, MaxMem=  2147483648 cpu:             139.2 elap:              42.6
 (Enter /prod/apps/gaussian/g16b1/l601.exe)
 Copying SCF densities to generalized density rwf, IOpCl= 0 IROHF=0.

 **********************************************************************

            Population analysis using the SCF Density.

 **********************************************************************

 Alpha  occ. eigenvalues --  -89.12455 -19.15593 -19.15525 -14.44660 -14.40476
 Alpha  occ. eigenvalues --  -14.38388 -14.37148 -10.26435 -10.25103 -10.24521
 Alpha  occ. eigenvalues --  -10.22396 -10.20675 -10.20437 -10.20203 -10.20140
 Alpha  occ. eigenvalues --  -10.19921  -8.15039  -6.11538  -6.11465  -6.11309
 Alpha  occ. eigenvalues --   -1.12370  -1.11346  -1.01308  -0.95720  -0.93020
 Alpha  occ. eigenvalues --   -0.86137  -0.81222  -0.77483  -0.76358  -0.75825
 Alpha  occ. eigenvalues --   -0.66817  -0.66348  -0.63033  -0.60930  -0.58735
 Alpha  occ. eigenvalues --   -0.56450  -0.53896  -0.52524  -0.49804  -0.49768
 Alpha  occ. eigenvalues --   -0.48726  -0.48240  -0.46961  -0.45382  -0.44545
 Alpha  occ. eigenvalues --   -0.43768  -0.43356  -0.43318  -0.38855  -0.37289
 Alpha  occ. eigenvalues --   -0.36425  -0.36002  -0.34943  -0.34022  -0.33002
 Alpha  occ. eigenvalues --   -0.32029  -0.31770  -0.31394  -0.28996  -0.26702
 Alpha  occ. eigenvalues --   -0.26445  -0.24414
 Alpha virt. eigenvalues --   -0.04416  -0.01487   0.01064   0.01959   0.06937
 Alpha virt. eigenvalues --    0.07389   0.09046   0.09902   0.10299   0.11015
 Alpha virt. eigenvalues --    0.12447   0.13881   0.15022   0.15120   0.15646
 Alpha virt. eigenvalues --    0.16032   0.16523   0.18468   0.19067   0.19801
 Alpha virt. eigenvalues --    0.21496   0.23377   0.24507   0.29406   0.30231
 Alpha virt. eigenvalues --    0.30939   0.32725   0.33527   0.35456   0.36417
 Alpha virt. eigenvalues --    0.39076   0.42586   0.42876   0.43436   0.48261
 Alpha virt. eigenvalues --    0.48676   0.50362   0.51816   0.52110   0.52767
 Alpha virt. eigenvalues --    0.54279   0.54783   0.55727   0.57282   0.57720
 Alpha virt. eigenvalues --    0.58222   0.58688   0.60031   0.60721   0.60833
 Alpha virt. eigenvalues --    0.61175   0.62708   0.63369   0.64122   0.66412
 Alpha virt. eigenvalues --    0.67760   0.68772   0.70176   0.70308   0.72922
 Alpha virt. eigenvalues --    0.74077   0.77485   0.77715   0.78639   0.79287
 Alpha virt. eigenvalues --    0.80746   0.83006   0.83599   0.83926   0.84386
 Alpha virt. eigenvalues --    0.84639   0.85383   0.86675   0.87010   0.88007
 Alpha virt. eigenvalues --    0.89452   0.90258   0.91701   0.93260   0.94048
 Alpha virt. eigenvalues --    0.95594   0.96809   0.97392   0.99167   1.00242
 Alpha virt. eigenvalues --    1.01254   1.02582   1.04056   1.05959   1.06375
 Alpha virt. eigenvalues --    1.07707   1.10147   1.12477   1.15014   1.15316
 Alpha virt. eigenvalues --    1.16251   1.17675   1.19165   1.19321   1.23990
 Alpha virt. eigenvalues --    1.24607   1.25800   1.30688   1.32030   1.35422
 Alpha virt. eigenvalues --    1.37193   1.40101   1.41764   1.42719   1.44028
 Alpha virt. eigenvalues --    1.45762   1.47050   1.47923   1.49768   1.51439
 Alpha virt. eigenvalues --    1.52122   1.56036   1.57831   1.61380   1.64420
 Alpha virt. eigenvalues --    1.68783   1.71950   1.74763   1.77167   1.78685
 Alpha virt. eigenvalues --    1.79071   1.79715   1.80642   1.81121   1.83798
 Alpha virt. eigenvalues --    1.85431   1.86561   1.88014   1.90146   1.90832
 Alpha virt. eigenvalues --    1.94267   1.96153   1.96710   2.00511   2.03151
 Alpha virt. eigenvalues --    2.05255   2.05925   2.07479   2.08813   2.10703
 Alpha virt. eigenvalues --    2.10909   2.13002   2.13816   2.14703   2.16989
 Alpha virt. eigenvalues --    2.19604   2.19912   2.21455   2.23160   2.24551
 Alpha virt. eigenvalues --    2.26136   2.27781   2.29099   2.30502   2.31607
 Alpha virt. eigenvalues --    2.34138   2.36980   2.38218   2.47858   2.50960
 Alpha virt. eigenvalues --    2.53014   2.56618   2.58059   2.59336   2.63862
 Alpha virt. eigenvalues --    2.63899   2.66957   2.69800   2.71624   2.72973
 Alpha virt. eigenvalues --    2.73745   2.75550   2.76789   2.81697   2.86117
 Alpha virt. eigenvalues --    2.88505   3.00163   3.05939   3.13070   3.24994
 Alpha virt. eigenvalues --    3.42135   3.60437   3.75848   3.87679   3.93521
 Alpha virt. eigenvalues --    3.96950   4.06227   4.07894   4.10106   4.10659
 Alpha virt. eigenvalues --    4.15203   4.19126   4.24011   4.31701   4.39127
 Alpha virt. eigenvalues --    4.48671   4.70903
          Condensed to atoms (all electrons):
               1          2          3          4          5          6
     1  O    8.267858   0.449641  -0.051647   0.001535  -0.000017  -0.000000
     2  S    0.449641  13.625319   0.136936  -0.017428   0.002140   0.000085
     3  N   -0.051647   0.136936   7.370219   0.258174  -0.058580   0.005673
     4  C    0.001535  -0.017428   0.258174   4.651684   0.371563  -0.083604
     5  N   -0.000017   0.002140  -0.058580   0.371563   6.887248   0.304511
     6  N   -0.000000   0.000085   0.005673  -0.083604   0.304511   6.772336
     7  C   -0.000039  -0.004811  -0.070640   0.518672  -0.071044  -0.098705
     8  N    0.000000   0.000303   0.003264  -0.035219  -0.096453   0.229276
     9  C   -0.000000  -0.000013  -0.000124   0.004180   0.006503  -0.043036
    10  C   -0.000000  -0.000000   0.000004   0.000915  -0.000328   0.002817
    11  C    0.000000  -0.000000   0.000000  -0.000008   0.000002  -0.000068
    12  C   -0.000000  -0.000000  -0.000000   0.000000  -0.000000   0.000017
    13  C   -0.000000  -0.000000  -0.000000   0.000006  -0.000004   0.000262
    14  C    0.000000   0.000000   0.000001  -0.000410   0.000355   0.000270
    15  C   -0.058648   0.236578  -0.060545  -0.002110   0.000018   0.000007
    16  O   -0.043761   0.442404  -0.052193  -0.000165   0.000871   0.000042
    17  H    0.000900  -0.004754   0.299077  -0.026034   0.001786  -0.000072
    18  H   -0.000000  -0.000038  -0.000587  -0.025697   0.004024   0.003476
    19  H   -0.000000  -0.000000   0.000000   0.000014  -0.000007  -0.000082
    20  H    0.000000   0.000000   0.000000   0.000000  -0.000000   0.000001
    21  H   -0.000000  -0.000000  -0.000000  -0.000000   0.000000   0.000000
    22  H    0.000000   0.000000   0.000000  -0.000000   0.000000  -0.000008
    23  H   -0.000000  -0.000000  -0.000000   0.000037  -0.000313   0.015043
    24  H    0.000026  -0.008502   0.000075   0.000262  -0.000004  -0.000000
    25  H    0.001783  -0.008418  -0.002288   0.002314  -0.000031  -0.000039
    26  H   -0.000405  -0.012900   0.002232   0.000010  -0.000002  -0.000000
               7          8          9         10         11         12
     1  O   -0.000039   0.000000  -0.000000  -0.000000   0.000000  -0.000000
     2  S   -0.004811   0.000303  -0.000013  -0.000000  -0.000000  -0.000000
     3  N   -0.070640   0.003264  -0.000124   0.000004   0.000000  -0.000000
     4  C    0.518672  -0.035219   0.004180   0.000915  -0.000008   0.000000
     5  N   -0.071044  -0.096453   0.006503  -0.000328   0.000002  -0.000000
     6  N   -0.098705   0.229276  -0.043036   0.002817  -0.000068   0.000017
     7  C    4.996473   0.331626  -0.030275  -0.006873  -0.000003   0.000020
     8  N    0.331626   6.876952   0.198520  -0.050466   0.004706   0.000329
     9  C   -0.030275   0.198520   4.627655   0.529590  -0.010195  -0.038212
    10  C   -0.006873  -0.050466   0.529590   4.989721   0.526749  -0.040911
    11  C   -0.000003   0.004706  -0.010195   0.526749   4.865850   0.542839
    12  C    0.000020   0.000329  -0.038212  -0.040911   0.542839   4.872464
    13  C   -0.000089   0.004574  -0.010846  -0.042071  -0.024895   0.539422
    14  C    0.007044  -0.059553   0.513689  -0.070597  -0.041434  -0.039350
    15  C    0.000096  -0.000023  -0.000001   0.000000   0.000000   0.000000
    16  O   -0.000189   0.000003   0.000000  -0.000000  -0.000000   0.000000
    17  H   -0.001577   0.000002   0.000003  -0.000000  -0.000000   0.000000
    18  H    0.363583  -0.034478  -0.001496   0.002081   0.000147  -0.000001
    19  H    0.005687  -0.009059  -0.039432   0.354461  -0.035034   0.004307
    20  H   -0.000004  -0.000109   0.003436  -0.037667   0.363757  -0.039597
    21  H   -0.000000   0.000003   0.000483   0.004858  -0.041284   0.365835
    22  H    0.000001  -0.000104   0.003547   0.000703   0.004458  -0.040108
    23  H    0.000218  -0.013059  -0.040066   0.005460   0.000096   0.004521
    24  H    0.000167   0.000000   0.000000   0.000000   0.000000  -0.000000
    25  H    0.002945  -0.000093   0.000003  -0.000000  -0.000000  -0.000000
    26  H   -0.000023   0.000001  -0.000000  -0.000000   0.000000   0.000000
              13         14         15         16         17         18
     1  O   -0.000000   0.000000  -0.058648  -0.043761   0.000900  -0.000000
     2  S   -0.000000   0.000000   0.236578   0.442404  -0.004754  -0.000038
     3  N   -0.000000   0.000001  -0.060545  -0.052193   0.299077  -0.000587
     4  C    0.000006  -0.000410  -0.002110  -0.000165  -0.026034  -0.025697
     5  N   -0.000004   0.000355   0.000018   0.000871   0.001786   0.004024
     6  N    0.000262   0.000270   0.000007   0.000042  -0.000072   0.003476
     7  C   -0.000089   0.007044   0.000096  -0.000189  -0.001577   0.363583
     8  N    0.004574  -0.059553  -0.000023   0.000003   0.000002  -0.034478
     9  C   -0.010846   0.513689  -0.000001   0.000000   0.000003  -0.001496
    10  C   -0.042071  -0.070597   0.000000  -0.000000  -0.000000   0.002081
    11  C   -0.024895  -0.041434   0.000000  -0.000000  -0.000000   0.000147
    12  C    0.539422  -0.039350   0.000000   0.000000   0.000000  -0.000001
    13  C    4.879329   0.519196   0.000000   0.000000  -0.000000  -0.000004
    14  C    0.519196   4.995451   0.000000  -0.000000   0.000000  -0.000087
    15  C    0.000000   0.000000   5.527689  -0.058432   0.000085   0.000074
    16  O    0.000000  -0.000000  -0.058432   8.275503   0.001298   0.000000
    17  H   -0.000000   0.000000   0.000085   0.001298   0.303959   0.000696
    18  H   -0.000004  -0.000087   0.000074   0.000000   0.000696   0.458344
    19  H    0.000200   0.005299  -0.000000  -0.000000   0.000000   0.001456
    20  H    0.004418   0.000723   0.000000  -0.000000   0.000000  -0.000001
    21  H   -0.041457   0.004671   0.000000   0.000000   0.000000  -0.000000
    22  H    0.364126  -0.037825  -0.000000  -0.000000   0.000000   0.000000
    23  H   -0.037853   0.357266   0.000000   0.000000   0.000000  -0.000010
    24  H   -0.000000  -0.000000   0.343864   0.001847   0.000012   0.000023
    25  H   -0.000000  -0.000000   0.342235  -0.000200   0.000147   0.000117
    26  H    0.000000  -0.000000   0.354935  -0.000085  -0.000006   0.000000
              19         20         21         22         23         24
     1  O   -0.000000   0.000000  -0.000000   0.000000  -0.000000   0.000026
     2  S   -0.000000   0.000000  -0.000000   0.000000  -0.000000  -0.008502
     3  N    0.000000   0.000000  -0.000000   0.000000  -0.000000   0.000075
     4  C    0.000014   0.000000  -0.000000  -0.000000   0.000037   0.000262
     5  N   -0.000007  -0.000000   0.000000   0.000000  -0.000313  -0.000004
     6  N   -0.000082   0.000001   0.000000  -0.000008   0.015043  -0.000000
     7  C    0.005687  -0.000004  -0.000000   0.000001   0.000218   0.000167
     8  N   -0.009059  -0.000109   0.000003  -0.000104  -0.013059   0.000000
     9  C   -0.039432   0.003436   0.000483   0.003547  -0.040066   0.000000
    10  C    0.354461  -0.037667   0.004858   0.000703   0.005460   0.000000
    11  C   -0.035034   0.363757  -0.041284   0.004458   0.000096   0.000000
    12  C    0.004307  -0.039597   0.365835  -0.040108   0.004521  -0.000000
    13  C    0.000200   0.004418  -0.041457   0.364126  -0.037853  -0.000000
    14  C    0.005299   0.000723   0.004671  -0.037825   0.357266  -0.000000
    15  C   -0.000000   0.000000   0.000000  -0.000000   0.000000   0.343864
    16  O   -0.000000  -0.000000   0.000000  -0.000000   0.000000   0.001847
    17  H    0.000000   0.000000   0.000000   0.000000   0.000000   0.000012
    18  H    0.001456  -0.000001  -0.000000   0.000000  -0.000010   0.000023
    19  H    0.541821  -0.005095  -0.000144   0.000013  -0.000130  -0.000000
    20  H   -0.005095   0.550695  -0.005062  -0.000164   0.000013   0.000000
    21  H   -0.000144  -0.005062   0.557239  -0.005102  -0.000135  -0.000000
    22  H    0.000013  -0.000164  -0.005102   0.551535  -0.005134   0.000000
    23  H   -0.000130   0.000013  -0.000135  -0.005134   0.539808  -0.000000
    24  H   -0.000000   0.000000  -0.000000   0.000000  -0.000000   0.472105
    25  H   -0.000000   0.000000  -0.000000  -0.000000  -0.000000  -0.020585
    26  H    0.000000   0.000000   0.000000  -0.000000   0.000000  -0.018192
              25         26
     1  O    0.001783  -0.000405
     2  S   -0.008418  -0.012900
     3  N   -0.002288   0.002232
     4  C    0.002314   0.000010
     5  N   -0.000031  -0.000002
     6  N   -0.000039  -0.000000
     7  C    0.002945  -0.000023
     8  N   -0.000093   0.000001
     9  C    0.000003  -0.000000
    10  C   -0.000000  -0.000000
    11  C   -0.000000   0.000000
    12  C   -0.000000   0.000000
    13  C   -0.000000   0.000000
    14  C   -0.000000  -0.000000
    15  C    0.342235   0.354935
    16  O   -0.000200  -0.000085
    17  H    0.000147  -0.000006
    18  H    0.000117   0.000000
    19  H   -0.000000   0.000000
    20  H    0.000000   0.000000
    21  H   -0.000000   0.000000
    22  H   -0.000000  -0.000000
    23  H   -0.000000   0.000000
    24  H   -0.020585  -0.018192
    25  H    0.472169  -0.019432
    26  H   -0.019432   0.457212
 Mulliken charges:
               1
     1  O   -0.567225
     2  S    1.163457
     3  N   -0.779051
     4  C    0.381308
     5  N   -0.352240
     6  N   -0.108204
     7  C    0.057740
     8  N   -0.350942
     9  C    0.326085
    10  C   -0.168448
    11  C   -0.155683
    12  C   -0.131574
    13  C   -0.154313
    14  C   -0.154709
    15  C   -0.625822
    16  O   -0.566944
    17  H    0.424480
    18  H    0.228377
    19  H    0.175725
    20  H    0.164656
    21  H    0.160096
    22  H    0.164061
    23  H    0.174237
    24  H    0.228903
    25  H    0.229375
    26  H    0.236656
 Sum of Mulliken charges =  -0.00000
 Mulliken charges with hydrogens summed into heavy atoms:
               1
     1  O   -0.567225
     2  S    1.163457
     3  N   -0.354571
     4  C    0.381308
     5  N   -0.352240
     6  N   -0.108204
     7  C    0.286117
     8  N   -0.350942
     9  C    0.326085
    10  C    0.007277
    11  C    0.008973
    12  C    0.028522
    13  C    0.009748
    14  C    0.019527
    15  C    0.069112
    16  O   -0.566944
 Electronic spatial extent (au):  <R**2>=           5478.1481
 Charge=             -0.0000 electrons
 Dipole moment (field-independent basis, Debye):
    X=             -7.8708    Y=            -10.1906    Z=              2.1372  Tot=             13.0525
 Quadrupole moment (field-independent basis, Debye-Ang):
   XX=           -109.2614   YY=            -97.5575   ZZ=            -95.7458
   XY=            -12.0091   XZ=              4.3729   YZ=              3.9265
 Traceless Quadrupole moment (field-independent basis, Debye-Ang):
   XX=             -8.4065   YY=              3.2974   ZZ=              5.1091
   XY=            -12.0091   XZ=              4.3729   YZ=              3.9265
 Octapole moment (field-independent basis, Debye-Ang**2):
  XXX=           -218.1483  YYY=            -36.8375  ZZZ=              6.3524  XYY=             -4.8094
  XXY=            -46.0394  XXZ=             48.1662  XZZ=             28.8173  YZZ=            -10.4350
  YYZ=              1.5774  XYZ=            -22.7613
 Hexadecapole moment (field-independent basis, Debye-Ang**3):
 XXXX=          -6293.9093 YYYY=           -631.8639 ZZZZ=           -372.0206 XXXY=            -10.7665
 XXXZ=             39.5589 YYYX=            -28.4831 YYYZ=             28.8787 ZZZX=             31.1879
 ZZZY=              4.8787 XXYY=          -1070.6002 XXZZ=          -1070.9935 YYZZ=           -164.2828
 XXYZ=              8.2027 YYXZ=             -1.8757 ZZXY=            -39.4741
 N-N= 1.185152291768D+03 E-N=-4.987143515940D+03  KE= 1.108363638648D+03
 No NMR shielding tensors so no spin-rotation constants.
 Leave Link  601 at Wed Sep 23 05:19:22 2020, MaxMem=  2147483648 cpu:               0.4 elap:               0.1
 (Enter /prod/apps/gaussian/g16b1/l701.exe)
 ... and contract with generalized density number  0.
 Compute integral first derivatives.
 D1PCM: PCM CHGder 1st derivatives, ID1Alg=3 FixD1E=F DoIter=F DoCFld=F I1PDM=0.
 GePol: Maximum number of non-zero 1st derivatives   =     178
 Leave Link  701 at Wed Sep 23 05:19:23 2020, MaxMem=  2147483648 cpu:               6.6 elap:               1.7
 (Enter /prod/apps/gaussian/g16b1/l702.exe)
 L702 exits ... SP integral derivatives will be done elsewhere.
 Leave Link  702 at Wed Sep 23 05:19:23 2020, MaxMem=  2147483648 cpu:               0.1 elap:               0.0
 (Enter /prod/apps/gaussian/g16b1/l703.exe)
 Integral derivatives from FoFJK, PRISM(SPDF).
 Compute integral first derivatives, UseDBF=F ICtDFT=           0.
 Calling FoFJK, ICntrl=      2127 FMM=F ISym2X=0 I1Cent= 0 IOpClX= 0 NMat=1 NMatS=1 NMatT=0.
 FoFJK:  IHMeth= 1 ICntrl=    2127 DoSepK=F KAlg= 0 I1Cent=           0 FoldK=F
 IRaf=         0 NMat=       1 IRICut=       1 DoRegI=T DoRafI=F ISym2E= 0 IDoP0=0 IntGTp=1.
 FoFCou: FMM=F IPFlag=           0 FMFlag=      100000 FMFlg1=         800
         NFxFlg=           0 DoJE=F BraDBF=F KetDBF=F FulRan=T
         wScrn=  0.000000 ICntrl=      2127 IOpCl=  0 I1Cent=           0 NGrid=           0
         NMat0=    1 NMatS0=      1 NMatT0=    0 NMatD0=    1 NMtDS0=    0 NMtDT0=    0
 Symmetry not used in FoFCou.
 Leave Link  703 at Wed Sep 23 05:19:34 2020, MaxMem=  2147483648 cpu:              40.6 elap:              10.2
 (Enter /prod/apps/gaussian/g16b1/l716.exe)
 Dipole        =-3.09663052D+00-4.00930439D+00 8.40826798D-01
 -------------------------------------------------------------------
 Center     Atomic                   Forces (Hartrees/Bohr)
 Number     Number              X              Y              Z
 -------------------------------------------------------------------
      1        8           0.000124592   -0.000060331   -0.000051904
      2       16           0.000364037   -0.000438024   -0.000778470
      3        7          -0.000729640   -0.001064246   -0.000290600
      4        6           0.000941864    0.000490261   -0.000120768
      5        7           0.000210996   -0.000470577   -0.000283549
      6        7           0.000022352   -0.000553682    0.000224367
      7        6          -0.000063540    0.001099384   -0.000107387
      8        7          -0.000421390    0.000264841   -0.000101067
      9        6           0.000371268    0.000553751    0.000292888
     10        6           0.000117745   -0.000653939   -0.000367622
     11        6          -0.000200372    0.000547804    0.000456784
     12        6          -0.000748329   -0.000484228   -0.000068620
     13        6           0.001023452   -0.000028441   -0.000450382
     14        6          -0.000664471    0.000218839    0.000222444
     15        6           0.000547445   -0.000539012    0.000060039
     16        8          -0.000073654    0.000996860    0.000389689
     17        1          -0.000067997    0.001238387    0.000567234
     18        1          -0.000039008   -0.000996539    0.000144438
     19        1          -0.000180893    0.000016115    0.000060149
     20        1          -0.000110247   -0.000239231   -0.000140947
     21        1           0.000578443    0.000074812   -0.000096786
     22        1          -0.000067184    0.000232210    0.000193288
     23        1          -0.000088129   -0.000293252   -0.000102025
     24        1          -0.000160851    0.000118631    0.000079987
     25        1          -0.000226137    0.000056569    0.000320822
     26        1          -0.000460352   -0.000086962   -0.000052002
 -------------------------------------------------------------------
 Cartesian Forces:  Max     0.001238387 RMS     0.000452856
 Leave Link  716 at Wed Sep 23 05:19:34 2020, MaxMem=  2147483648 cpu:               0.1 elap:               0.0
 (Enter /prod/apps/gaussian/g16b1/l103.exe)

 GradGradGradGradGradGradGradGradGradGradGradGradGradGradGradGradGradGrad
 Berny optimization.
 FormGI is forming the generalized inverse of G from B-inverse, IUseBI=4.
 GSVD:  received Info=                   1 from GESDD.
 Internal  Forces:  Max     0.001365354 RMS     0.000270050
 Search for a local minimum.
 Step number   1 out of a maximum of  141
 All quantities printed in internal units (Hartrees-Bohrs-Radians)
 RMS Force = .27005D-03 SwitMx=.10000D-02 MixMth= 2
 Mixed Optimization -- En-DIIS/RFO-DIIS
 Second derivative matrix not updated -- first step.
 ITU=  0
     Eigenvalues ---    0.00437   0.01337   0.01361   0.01564   0.01842
     Eigenvalues ---    0.01908   0.02016   0.02136   0.02139   0.02142
     Eigenvalues ---    0.02148   0.02149   0.02154   0.02157   0.02160
     Eigenvalues ---    0.02161   0.02293   0.02330   0.02561   0.05988
     Eigenvalues ---    0.06199   0.08136   0.08345   0.13311   0.13520
     Eigenvalues ---    0.15999   0.15999   0.15999   0.15999   0.16000
     Eigenvalues ---    0.16000   0.16000   0.16000   0.16000   0.18726
     Eigenvalues ---    0.22000   0.22000   0.22844   0.23494   0.23788
     Eigenvalues ---    0.24977   0.24997   0.25000   0.25000   0.25000
     Eigenvalues ---    0.26516   0.34667   0.34829   0.34906   0.35359
     Eigenvalues ---    0.35540   0.35544   0.35580   0.35696   0.36263
     Eigenvalues ---    0.36588   0.41719   0.42100   0.42213   0.44052
     Eigenvalues ---    0.44118   0.45531   0.46215   0.46289   0.46406
     Eigenvalues ---    0.46667   0.47670   0.52636   0.53111   0.63030
     Eigenvalues ---    0.88566   0.89187
 RFO step:  Lambda=-3.48888827D-05 EMin= 4.36633512D-03
 Linear search not attempted -- first point.
 Iteration  1 RMS(Cart)=  0.00947682 RMS(Int)=  0.00002432
 Iteration  2 RMS(Cart)=  0.00004373 RMS(Int)=  0.00000087
 Iteration  3 RMS(Cart)=  0.00000000 RMS(Int)=  0.00000087
 ITry= 1 IFail=0 DXMaxC= 4.23D-02 DCOld= 1.00D+10 DXMaxT= 3.00D-01 DXLimC= 3.00D+00 Rises=F
 Variable       Old X    -DE/DX   Delta X   Delta X   Delta X     New X
                                 (Linear)    (Quad)   (Total)
    R1        2.77301   0.00015   0.00000   0.00017   0.00017   2.77317
    R2        3.20672   0.00005   0.00000   0.00013   0.00013   3.20685
    R3        3.39203   0.00064   0.00000   0.00243   0.00243   3.39446
    R4        2.77010   0.00107   0.00000   0.00120   0.00120   2.77130
    R5        2.66392  -0.00074   0.00000  -0.00169  -0.00169   2.66224
    R6        1.93014  -0.00137   0.00000  -0.00309  -0.00309   1.92704
    R7        2.57509  -0.00061   0.00000  -0.00117  -0.00118   2.57391
    R8        2.60688   0.00034   0.00000   0.00070   0.00070   2.60758
    R9        2.46749   0.00016   0.00000   0.00023   0.00023   2.46772
   R10        2.56255  -0.00033   0.00000  -0.00061  -0.00061   2.56193
   R11        2.56035   0.00002   0.00000   0.00006   0.00006   2.56041
   R12        2.03172   0.00100   0.00000   0.00273   0.00273   2.03446
   R13        2.69283  -0.00001   0.00000  -0.00003  -0.00003   2.69280
   R14        2.63752   0.00068   0.00000   0.00153   0.00153   2.63905
   R15        2.63845  -0.00005   0.00000  -0.00012  -0.00012   2.63833
   R16        2.63385   0.00024   0.00000   0.00059   0.00059   2.63444
   R17        2.04743  -0.00014   0.00000  -0.00039  -0.00039   2.04704
   R18        2.63930  -0.00030   0.00000  -0.00065  -0.00065   2.63865
   R19        2.04800   0.00029   0.00000   0.00083   0.00083   2.04883
   R20        2.63851   0.00024   0.00000   0.00045   0.00045   2.63895
   R21        2.05095  -0.00059   0.00000  -0.00167  -0.00167   2.04928
   R22        2.63388  -0.00073   0.00000  -0.00164  -0.00164   2.63224
   R23        2.04807   0.00029   0.00000   0.00081   0.00081   2.04888
   R24        2.04560  -0.00032   0.00000  -0.00089  -0.00089   2.04470
   R25        2.05953  -0.00014   0.00000  -0.00041  -0.00041   2.05912
   R26        2.05827   0.00033   0.00000   0.00093   0.00093   2.05920
   R27        2.06219  -0.00037   0.00000  -0.00105  -0.00105   2.06114
    A1        1.83026   0.00014   0.00000   0.00023   0.00023   1.83049
    A2        1.89778   0.00015   0.00000   0.00052   0.00052   1.89830
    A3        2.09279  -0.00007   0.00000   0.00048   0.00048   2.09327
    A4        1.87016  -0.00064   0.00000  -0.00296  -0.00296   1.86720
    A5        1.86865   0.00021   0.00000   0.00076   0.00076   1.86941
    A6        1.89238   0.00012   0.00000   0.00046   0.00046   1.89284
    A7        2.08974   0.00010   0.00000   0.00007   0.00007   2.08981
    A8        1.92379  -0.00011   0.00000  -0.00134  -0.00134   1.92245
    A9        1.99341  -0.00002   0.00000  -0.00071  -0.00071   1.99270
   A10        2.12166   0.00019   0.00000   0.00076   0.00076   2.12242
   A11        2.26187  -0.00013   0.00000  -0.00051  -0.00051   2.26137
   A12        1.89888  -0.00007   0.00000  -0.00027  -0.00028   1.89861
   A13        1.89911  -0.00007   0.00000  -0.00040  -0.00040   1.89871
   A14        1.87876   0.00034   0.00000   0.00126   0.00126   1.88001
   A15        1.81685   0.00015   0.00000   0.00076   0.00076   1.81761
   A16        2.31212  -0.00016   0.00000  -0.00092  -0.00092   2.31119
   A17        2.15419   0.00001   0.00000   0.00013   0.00013   2.15432
   A18        1.93106  -0.00035   0.00000  -0.00137  -0.00137   1.92969
   A19        2.10732   0.00005   0.00000   0.00018   0.00018   2.10750
   A20        2.24480   0.00030   0.00000   0.00120   0.00120   2.24599
   A21        2.08709   0.00033   0.00000   0.00127   0.00127   2.08835
   A22        2.08152  -0.00019   0.00000  -0.00081  -0.00081   2.08071
   A23        2.11458  -0.00014   0.00000  -0.00045  -0.00046   2.11412
   A24        2.07994  -0.00019   0.00000  -0.00056  -0.00056   2.07938
   A25        2.09873   0.00023   0.00000   0.00112   0.00112   2.09985
   A26        2.10444  -0.00004   0.00000  -0.00055  -0.00055   2.10389
   A27        2.09984   0.00009   0.00000   0.00057   0.00057   2.10041
   A28        2.08385  -0.00007   0.00000  -0.00048  -0.00048   2.08337
   A29        2.09946  -0.00002   0.00000  -0.00011  -0.00011   2.09935
   A30        2.09217  -0.00011   0.00000  -0.00068  -0.00068   2.09149
   A31        2.09544   0.00004   0.00000   0.00021   0.00021   2.09565
   A32        2.09558   0.00008   0.00000   0.00047   0.00046   2.09604
   A33        2.10166   0.00024   0.00000   0.00075   0.00075   2.10242
   A34        2.09792  -0.00003   0.00000   0.00019   0.00019   2.09812
   A35        2.08356  -0.00021   0.00000  -0.00096  -0.00096   2.08260
   A36        2.07809   0.00012   0.00000   0.00035   0.00035   2.07845
   A37        2.08909  -0.00011   0.00000  -0.00052  -0.00052   2.08857
   A38        2.11599  -0.00001   0.00000   0.00016   0.00016   2.11616
   A39        1.89500   0.00004   0.00000   0.00058   0.00058   1.89558
   A40        1.89953   0.00012   0.00000   0.00034   0.00034   1.89987
   A41        1.86685   0.00032   0.00000   0.00213   0.00213   1.86898
   A42        1.93964  -0.00011   0.00000  -0.00089  -0.00089   1.93875
   A43        1.93022  -0.00006   0.00000   0.00052   0.00052   1.93074
   A44        1.93053  -0.00029   0.00000  -0.00251  -0.00251   1.92802
    D1       -3.09682  -0.00012   0.00000  -0.00430  -0.00430  -3.10112
    D2        0.82065  -0.00006   0.00000  -0.00165  -0.00165   0.81900
    D3        1.17140  -0.00007   0.00000  -0.00370  -0.00370   1.16771
    D4       -1.19431  -0.00001   0.00000  -0.00105  -0.00105  -1.19536
    D5       -0.85584   0.00001   0.00000  -0.00314  -0.00314  -0.85899
    D6        3.06163   0.00006   0.00000  -0.00050  -0.00050   3.06113
    D7       -0.88109  -0.00002   0.00000  -0.00621  -0.00621  -0.88731
    D8       -2.99465   0.00001   0.00000  -0.00569  -0.00569  -3.00034
    D9        1.20231   0.00011   0.00000  -0.00409  -0.00409   1.19822
   D10        1.08838  -0.00010   0.00000  -0.00717  -0.00717   1.08122
   D11       -1.02517  -0.00007   0.00000  -0.00664  -0.00664  -1.03182
   D12       -3.11140   0.00003   0.00000  -0.00505  -0.00505  -3.11644
   D13        3.09985  -0.00012   0.00000  -0.00757  -0.00757   3.09228
   D14        0.98630  -0.00009   0.00000  -0.00705  -0.00705   0.97925
   D15       -1.09993   0.00001   0.00000  -0.00545  -0.00545  -1.10538
   D16        1.36440   0.00018   0.00000   0.00993   0.00993   1.37433
   D17       -1.82418   0.00016   0.00000   0.00906   0.00906  -1.81511
   D18       -2.58180   0.00009   0.00000   0.00694   0.00694  -2.57485
   D19        0.51281   0.00007   0.00000   0.00608   0.00608   0.51889
   D20        3.10629   0.00006   0.00000   0.00293   0.00293   3.10922
   D21        0.00293   0.00008   0.00000   0.00365   0.00365   0.00658
   D22       -3.09341  -0.00004   0.00000  -0.00166  -0.00166  -3.09506
   D23        0.05677   0.00004   0.00000   0.00174   0.00173   0.05851
   D24        0.00590  -0.00006   0.00000  -0.00241  -0.00241   0.00349
   D25       -3.12711   0.00002   0.00000   0.00098   0.00098  -3.12613
   D26       -0.01064  -0.00007   0.00000  -0.00332  -0.00332  -0.01396
   D27        0.01486   0.00004   0.00000   0.00181   0.00181   0.01667
   D28       -3.12355  -0.00003   0.00000  -0.00175  -0.00174  -3.12530
   D29       -0.01256   0.00002   0.00000   0.00042   0.00042  -0.01214
   D30        3.12553   0.00009   0.00000   0.00433   0.00433   3.12986
   D31        3.12145  -0.00006   0.00000  -0.00258  -0.00259   3.11886
   D32       -0.02364   0.00002   0.00000   0.00132   0.00132  -0.02232
   D33        2.66856   0.00005   0.00000   0.00329   0.00329   2.67185
   D34       -0.47461   0.00007   0.00000   0.00399   0.00399  -0.47061
   D35       -0.46923  -0.00003   0.00000  -0.00096  -0.00096  -0.47019
   D36        2.67079  -0.00001   0.00000  -0.00026  -0.00026   2.67053
   D37        3.13295  -0.00001   0.00000  -0.00024  -0.00024   3.13271
   D38       -0.02133   0.00000   0.00000   0.00018   0.00018  -0.02115
   D39       -0.00704  -0.00002   0.00000  -0.00096  -0.00096  -0.00800
   D40        3.12187  -0.00001   0.00000  -0.00054  -0.00054   3.12133
   D41        3.13935  -0.00001   0.00000  -0.00060  -0.00059   3.13875
   D42       -0.00605  -0.00002   0.00000  -0.00107  -0.00107  -0.00712
   D43       -0.00384   0.00000   0.00000   0.00012   0.00012  -0.00372
   D44        3.13395  -0.00001   0.00000  -0.00035  -0.00035   3.13359
   D45        0.01109   0.00002   0.00000   0.00112   0.00112   0.01221
   D46       -3.13970  -0.00001   0.00000  -0.00054  -0.00054  -3.14024
   D47       -3.11777   0.00001   0.00000   0.00069   0.00069  -3.11709
   D48        0.01462  -0.00002   0.00000  -0.00097  -0.00097   0.01365
   D49       -0.00430  -0.00001   0.00000  -0.00046  -0.00046  -0.00475
   D50        3.13651   0.00000   0.00000   0.00025   0.00025   3.13676
   D51       -3.13661   0.00002   0.00000   0.00122   0.00122  -3.13539
   D52        0.00420   0.00004   0.00000   0.00192   0.00192   0.00612
   D53       -0.00679  -0.00001   0.00000  -0.00040  -0.00040  -0.00719
   D54       -3.13928   0.00004   0.00000   0.00189   0.00189  -3.13738
   D55        3.13559  -0.00002   0.00000  -0.00111  -0.00111   3.13448
   D56        0.00310   0.00003   0.00000   0.00119   0.00119   0.00429
   D57        0.01077   0.00001   0.00000   0.00057   0.00057   0.01134
   D58       -3.12696   0.00002   0.00000   0.00105   0.00105  -3.12590
   D59       -3.13985  -0.00004   0.00000  -0.00170  -0.00170  -3.14155
   D60        0.00561  -0.00003   0.00000  -0.00122  -0.00122   0.00439
         Item               Value     Threshold  Converged?
 Maximum Force            0.001365     0.000450     NO 
 RMS     Force            0.000270     0.000300     YES
 Maximum Displacement     0.042289     0.001800     NO 
 RMS     Displacement     0.009478     0.001200     NO 
 Predicted change in Energy=-1.746028D-05
 Lowest energy point so far.  Saving SCF results.
 GradGradGradGradGradGradGradGradGradGradGradGradGradGradGradGradGradGrad

 Leave Link  103 at Wed Sep 23 05:19:34 2020, MaxMem=  2147483648 cpu:               0.1 elap:               0.1
 (Enter /prod/apps/gaussian/g16b1/l202.exe)
                          Input orientation:                          
 ---------------------------------------------------------------------
 Center     Atomic      Atomic             Coordinates (Angstroms)
 Number     Number       Type             X           Y           Z
 ---------------------------------------------------------------------
      1          8           0        4.716891   -0.532358   -0.428703
      2         16           0        3.470892   -0.091112    0.208750
      3          7           0        2.287965   -0.237113   -0.999205
      4          6           0        0.962490    0.157427   -0.730586
      5          7           0        0.590682    1.467662   -0.746032
      6          7           0       -0.690361    1.544193   -0.504482
      7          6           0       -0.150203   -0.617148   -0.473687
      8          7           0       -1.157092    0.280869   -0.349104
      9          6           0       -2.537997    0.040751   -0.092237
     10          6           0       -3.112178   -1.171913   -0.479601
     11          6           0       -4.461512   -1.399808   -0.213447
     12          6           0       -5.230845   -0.421185    0.419103
     13          6           0       -4.644322    0.789978    0.792215
     14          6           0       -3.293921    1.026174    0.545528
     15          6           0        3.041829   -1.256241    1.506810
     16          8           0        3.367776    1.267299    0.751650
     17          1           0        2.368590   -1.142089   -1.462240
     18          1           0       -0.286550   -1.679747   -0.367214
     19          1           0       -2.517860   -1.919776   -0.990400
     20          1           0       -4.910765   -2.340475   -0.511424
[...]
 Alpha virt. eigenvalues --    0.12912   0.13242   0.14009   0.14187   0.14276
 Alpha virt. eigenvalues --    0.14592   0.14767   0.15113   0.15715   0.15989
 Alpha virt. eigenvalues --    0.16312   0.16619   0.16866   0.17267   0.17354
 Alpha virt. eigenvalues --    0.17980   0.18146   0.19104   0.19229   0.19447
 Alpha virt. eigenvalues --    0.19846   0.20171   0.20894   0.21168   0.22596
 Alpha virt. eigenvalues --    0.22860   0.23844   0.24320   0.24805   0.25057
 Alpha virt. eigenvalues --    0.25923   0.26317   0.26750   0.26844   0.27429
 Alpha virt. eigenvalues --    0.27873   0.28771   0.29465   0.29840   0.29931
 Alpha virt. eigenvalues --    0.30112   0.30758   0.31123   0.31309   0.31849
 Alpha virt. eigenvalues --    0.32162   0.32679   0.32859   0.33552   0.33951
 Alpha virt. eigenvalues --    0.34493   0.34941   0.35061   0.35565   0.35889
 Alpha virt. eigenvalues --    0.36170   0.36390   0.36896   0.37491   0.37677
 Alpha virt. eigenvalues --    0.38413   0.38474   0.38965   0.39263   0.39903
 Alpha virt. eigenvalues --    0.40120   0.40448   0.41323   0.41567   0.42061
 Alpha virt. eigenvalues --    0.42383   0.42886   0.43272   0.43518   0.44279
 Alpha virt. eigenvalues --    0.44651   0.44859   0.45822   0.46019   0.46355
 Alpha virt. eigenvalues --    0.46950   0.47777   0.48605   0.49361   0.49911
 Alpha virt. eigenvalues --    0.49969   0.50896   0.52115   0.52278   0.52882
 Alpha virt. eigenvalues --    0.53956   0.54498   0.54928   0.55473   0.55882
 Alpha virt. eigenvalues --    0.56789   0.57178   0.57998   0.58681   0.59109
 Alpha virt. eigenvalues --    0.59422   0.59827   0.60172   0.60288   0.61056
 Alpha virt. eigenvalues --    0.61705   0.62897   0.63294   0.64086   0.64390
 Alpha virt. eigenvalues --    0.64893   0.65022   0.65852   0.66134   0.66815
 Alpha virt. eigenvalues --    0.67225   0.67434   0.68218   0.68687   0.69359
 Alpha virt. eigenvalues --    0.69675   0.70388   0.71242   0.72255   0.72638
 Alpha virt. eigenvalues --    0.72843   0.73997   0.74674   0.75205   0.75566
 Alpha virt. eigenvalues --    0.75977   0.76053   0.76864   0.77124   0.77675
 Alpha virt. eigenvalues --    0.78808   0.79393   0.80517   0.81177   0.82574
 Alpha virt. eigenvalues --    0.83678   0.83909   0.84607   0.84701   0.85924
 Alpha virt. eigenvalues --    0.86426   0.87495   0.88057   0.88529   0.88867
 Alpha virt. eigenvalues --    0.89420   0.90380   0.90812   0.91451   0.91719
 Alpha virt. eigenvalues --    0.92621   0.93043   0.93396   0.93642   0.94216
 Alpha virt. eigenvalues --    0.95355   0.96118   0.96909   0.98008   0.99309
 Alpha virt. eigenvalues --    0.99374   0.99656   1.00461   1.01160   1.01580
 Alpha virt. eigenvalues --    1.02255   1.02896   1.04508   1.05025   1.05535
 Alpha virt. eigenvalues --    1.06236   1.06399   1.07835   1.08465   1.10280
 Alpha virt. eigenvalues --    1.10373   1.11994   1.12982   1.13403   1.13727
 Alpha virt. eigenvalues --    1.14437   1.15098   1.16142   1.16489   1.17275
 Alpha virt. eigenvalues --    1.19076   1.19246   1.20679   1.21819   1.23048
 Alpha virt. eigenvalues --    1.23307   1.23957   1.27448   1.27502   1.28656
 Alpha virt. eigenvalues --    1.29926   1.30742   1.31019   1.32907   1.34721
 Alpha virt. eigenvalues --    1.36697   1.37579   1.38911   1.39714   1.41355
 Alpha virt. eigenvalues --    1.41854   1.42227   1.43326   1.44589   1.45944
 Alpha virt. eigenvalues --    1.47061   1.47405   1.47919   1.50048   1.50379
 Alpha virt. eigenvalues --    1.51647   1.51929   1.53191   1.54753   1.55537
 Alpha virt. eigenvalues --    1.56579   1.57077   1.57938   1.58083   1.60530
 Alpha virt. eigenvalues --    1.60948   1.61944   1.62747   1.63384   1.64239
 Alpha virt. eigenvalues --    1.66019   1.67160   1.67290   1.67981   1.69393
 Alpha virt. eigenvalues --    1.70341   1.70882   1.71052   1.71553   1.73240
 Alpha virt. eigenvalues --    1.74308   1.75208   1.77116   1.78058   1.79180
 Alpha virt. eigenvalues --    1.80082   1.81413   1.81830   1.82664   1.84090
 Alpha virt. eigenvalues --    1.84980   1.86044   1.87925   1.89129   1.89608
 Alpha virt. eigenvalues --    1.90619   1.92660   1.92977   1.93768   1.93903
 Alpha virt. eigenvalues --    1.95387   1.95932   1.96856   1.97735   1.98831
 Alpha virt. eigenvalues --    1.99072   2.00997   2.02237   2.03220   2.04819
 Alpha virt. eigenvalues --    2.06639   2.07881   2.09191   2.10869   2.11206
 Alpha virt. eigenvalues --    2.11759   2.14489   2.15836   2.16148   2.17822
 Alpha virt. eigenvalues --    2.18305   2.19553   2.19932   2.20410   2.22392
 Alpha virt. eigenvalues --    2.22737   2.23615   2.24198   2.26111   2.27379
 Alpha virt. eigenvalues --    2.29831   2.30650   2.32157   2.32778   2.33846
 Alpha virt. eigenvalues --    2.34392   2.35202   2.36482   2.36836   2.37407
 Alpha virt. eigenvalues --    2.37996   2.40769   2.41609   2.42090   2.42905
 Alpha virt. eigenvalues --    2.44099   2.47575   2.48619   2.50798   2.51443
 Alpha virt. eigenvalues --    2.53585   2.55920   2.57663   2.58365   2.60364
 Alpha virt. eigenvalues --    2.61675   2.63677   2.65439   2.66645   2.69606
 Alpha virt. eigenvalues --    2.71755   2.72459   2.74961   2.76868   2.79884
 Alpha virt. eigenvalues --    2.80472   2.82177   2.84404   2.85569   2.87302
 Alpha virt. eigenvalues --    2.87586   2.88990   2.89496   2.93250   2.95061
 Alpha virt. eigenvalues --    2.96941   2.97789   2.99825   3.01674   3.02958
 Alpha virt. eigenvalues --    3.03833   3.06503   3.11424   3.12237   3.13104
 Alpha virt. eigenvalues --    3.14230   3.16561   3.20865   3.23381   3.29425
 Alpha virt. eigenvalues --    3.31924   3.35172   3.37575   3.39950   3.43777
 Alpha virt. eigenvalues --    3.54217   3.57057   3.61015   3.64906   3.71015
 Alpha virt. eigenvalues --    3.72344   3.73269   3.74941   3.76672   3.79228
 Alpha virt. eigenvalues --    3.80309   3.80921   3.82891   3.85582   3.88989
 Alpha virt. eigenvalues --    3.93269   4.01233   4.25651   4.35606   4.87241
          Condensed to atoms (all electrons):
               1          2          3          4          5          6
     1  O    9.140466  -0.089739  -0.088813   0.196867  -0.029408  -0.001749
     2  S   -0.089739  13.454667   0.528263  -1.408543   0.209111  -0.008702
     3  N   -0.088813   0.528263   8.143979  -1.666325   0.157315  -0.162983
     4  C    0.196867  -1.408543  -1.666325  13.721642  -1.256334   0.794535
     5  N   -0.029408   0.209111   0.157315  -1.256334   8.670737  -0.815244
     6  N   -0.001749  -0.008702  -0.162983   0.794535  -0.815244   8.948544
     7  C   -0.053220   0.524498   0.801233  -5.857367   0.935706  -0.928090
     8  N    0.001670   0.030373  -0.015553  -0.145853  -0.069050  -0.371287
     9  C    0.004032  -0.036762   0.003262   0.596421  -0.009810  -0.304357
    10  C   -0.001099   0.015385  -0.002688  -0.172865   0.068392  -0.095469
    11  C   -0.000049   0.000339  -0.002778   0.112773   0.014109   0.007099
    12  C   -0.000002   0.000253  -0.000725  -0.012958  -0.010830   0.009490
    13  C    0.000041  -0.002318  -0.001763   0.020963  -0.016072  -0.005280
    14  C    0.000274  -0.002174  -0.001358  -0.107056  -0.105538   0.456886
    15  C   -0.029832   0.417242  -0.000438   0.066294  -0.026269  -0.009482
    16  O    0.024348  -0.071628  -0.088466   0.292669  -0.070347  -0.017763
    17  H    0.025081  -0.096786   0.398305  -0.010435   0.008196   0.016266
    18  H   -0.002825   0.004637  -0.128591   0.287674  -0.070653  -0.067761
    19  H    0.000018  -0.000840  -0.001175  -0.004708   0.000862  -0.027715
    20  H    0.000001  -0.000019   0.000033   0.002176  -0.000376   0.001808
    21  H    0.000000  -0.000004  -0.000023  -0.000638  -0.000089   0.001042
    22  H    0.000001  -0.000064  -0.000061   0.001171   0.000565  -0.001616
    23  H    0.000049  -0.000606  -0.001290   0.012326  -0.009038   0.006025
    24  H    0.021553   0.052306  -0.049753  -0.094013   0.006005   0.000233
    25  H    0.014035  -0.105523  -0.001736   0.001825  -0.004979   0.001783
    26  H   -0.000801  -0.003313   0.016669  -0.024083   0.006290   0.001605
               7          8          9         10         11         12
     1  O   -0.053220   0.001670   0.004032  -0.001099  -0.000049  -0.000002
     2  S    0.524498   0.030373  -0.036762   0.015385   0.000339   0.000253
     3  N    0.801233  -0.015553   0.003262  -0.002688  -0.002778  -0.000725
     4  C   -5.857367  -0.145853   0.596421  -0.172865   0.112773  -0.012958
     5  N    0.935706  -0.069050  -0.009810   0.068392   0.014109  -0.010830
     6  N   -0.928090  -0.371287  -0.304357  -0.095469   0.007099   0.009490
     7  C   11.513415   0.052911  -1.759985   0.617906  -0.385982   0.057476
     8  N    0.052911   8.990608  -0.835580   0.495773  -0.361993   0.345206
     9  C   -1.759985  -0.835580  14.200584  -5.554336   2.899704  -3.480577
    10  C    0.617906   0.495773  -5.554336  12.612668  -3.680217   3.093452
    11  C   -0.385982  -0.361993   2.899704  -3.680217  10.121883  -2.990365
    12  C    0.057476   0.345206  -3.480577   3.093452  -2.990365   8.872179
    13  C    0.043643  -0.227334   2.584387  -3.259385   2.880903  -2.843518
    14  C    0.041151   0.015005  -4.798635   2.325477  -3.133434   2.796331
    15  C   -0.033307   0.008007   0.002522   0.001957  -0.002241   0.000640
    16  O   -0.077361   0.002362   0.005885  -0.002170  -0.000018  -0.000069
    17  H   -0.096436   0.009827   0.009616  -0.003942  -0.000259  -0.000257
    18  H   -0.595870   0.118279   0.162149   0.013915   0.080481  -0.003468
    19  H    0.089443  -0.195643   0.862074  -1.018316   0.167207  -0.183097
    20  H    0.005505   0.002645  -0.121731   0.646961  -0.765440   0.288246
    21  H    0.000396  -0.002432   0.113900  -0.171718   0.358991  -0.631802
    22  H   -0.003109  -0.007747  -0.106238   0.119777  -0.212259   0.281312
    23  H   -0.020040  -0.199467   0.663676  -0.107757   0.119406  -0.171933
    24  H    0.027998   0.006104   0.003497   0.000524  -0.000045   0.000188
    25  H   -0.013365   0.002027   0.022113  -0.009647   0.002399  -0.001853
    26  H    0.020643  -0.003007  -0.003788   0.001133  -0.000339   0.000115
              13         14         15         16         17         18
     1  O    0.000041   0.000274  -0.029832   0.024348   0.025081  -0.002825
     2  S   -0.002318  -0.002174   0.417242  -0.071628  -0.096786   0.004637
     3  N   -0.001763  -0.001358  -0.000438  -0.088466   0.398305  -0.128591
     4  C    0.020963  -0.107056   0.066294   0.292669  -0.010435   0.287674
     5  N   -0.016072  -0.105538  -0.026269  -0.070347   0.008196  -0.070653
     6  N   -0.005280   0.456886  -0.009482  -0.017763   0.016266  -0.067761
     7  C    0.043643   0.041151  -0.033307  -0.077361  -0.096436  -0.595870
     8  N   -0.227334   0.015005   0.008007   0.002362   0.009827   0.118279
     9  C    2.584387  -4.798635   0.002522   0.005885   0.009616   0.162149
    10  C   -3.259385   2.325477   0.001957  -0.002170  -0.003942   0.013915
    11  C    2.880903  -3.133434  -0.002241  -0.000018  -0.000259   0.080481
    12  C   -2.843518   2.796331   0.000640  -0.000069  -0.000257  -0.003468
    13  C    9.615149  -3.285364  -0.000590   0.000191   0.000092  -0.005993
    14  C   -3.285364  11.953964  -0.000745  -0.000042   0.000056  -0.134021
    15  C   -0.000590  -0.000745   4.626703  -0.024556  -0.024417  -0.001620
    16  O    0.000191  -0.000042  -0.024556   9.097839   0.004072  -0.001019
    17  H    0.000092   0.000056  -0.024417   0.004072   0.802438   0.009002
    18  H   -0.005993  -0.134021  -0.001620  -0.001019   0.009002   1.915130
    19  H    0.126364  -0.124482   0.000404   0.000048   0.001362  -0.082766
    20  H   -0.221599   0.102321  -0.000082   0.000003  -0.000017   0.002568
    21  H    0.397909  -0.113345   0.000021  -0.000002  -0.000005   0.000122
    22  H   -0.704392   0.586576  -0.000038   0.000003  -0.000001  -0.000059
    23  H    0.324450  -0.903547   0.000564   0.000016  -0.000128  -0.001363
    24  H   -0.000319   0.000218   0.291756   0.005249   0.014771   0.001098
    25  H    0.002692  -0.003006   0.324947   0.046389  -0.001806  -0.005823
    26  H   -0.000119   0.000427   0.334748   0.001764  -0.001526   0.002712
              19         20         21         22         23         24
     1  O    0.000018   0.000001   0.000000   0.000001   0.000049   0.021553
     2  S   -0.000840  -0.000019  -0.000004  -0.000064  -0.000606   0.052306
     3  N   -0.001175   0.000033  -0.000023  -0.000061  -0.001290  -0.049753
     4  C   -0.004708   0.002176  -0.000638   0.001171   0.012326  -0.094013
     5  N    0.000862  -0.000376  -0.000089   0.000565  -0.009038   0.006005
     6  N   -0.027715   0.001808   0.001042  -0.001616   0.006025   0.000233
     7  C    0.089443   0.005505   0.000396  -0.003109  -0.020040   0.027998
     8  N   -0.195643   0.002645  -0.002432  -0.007747  -0.199467   0.006104
     9  C    0.862074  -0.121731   0.113900  -0.106238   0.663676   0.003497
    10  C   -1.018316   0.646961  -0.171718   0.119777  -0.107757   0.000524
    11  C    0.167207  -0.765440   0.358991  -0.212259   0.119406  -0.000045
    12  C   -0.183097   0.288246  -0.631802   0.281312  -0.171933   0.000188
    13  C    0.126364  -0.221599   0.397909  -0.704392   0.324450  -0.000319
    14  C   -0.124482   0.102321  -0.113345   0.586576  -0.903547   0.000218
    15  C    0.000404  -0.000082   0.000021  -0.000038   0.000564   0.291756
    16  O    0.000048   0.000003  -0.000002   0.000003   0.000016   0.005249
    17  H    0.001362  -0.000017  -0.000005  -0.000001  -0.000128   0.014771
    18  H   -0.082766   0.002568   0.000122  -0.000059  -0.001363   0.001098
    19  H    2.152118  -0.082781  -0.015079   0.010193  -0.017936   0.000234
    20  H   -0.082781   1.640057  -0.055381  -0.017457   0.009061  -0.000021
    21  H   -0.015079  -0.055381   1.631946  -0.059046  -0.011243   0.000002
    22  H    0.010193  -0.017457  -0.059046   1.621176  -0.081963  -0.000014
    23  H   -0.017936   0.009061  -0.011243  -0.081963   1.919776   0.000192
    24  H    0.000234  -0.000021   0.000002  -0.000014   0.000192   0.865385
    25  H   -0.000230   0.000118  -0.000019   0.000094  -0.000713  -0.068330
    26  H    0.000051  -0.000017   0.000004  -0.000005  -0.000024  -0.107727
              25         26
     1  O    0.014035  -0.000801
     2  S   -0.105523  -0.003313
     3  N   -0.001736   0.016669
     4  C    0.001825  -0.024083
     5  N   -0.004979   0.006290
     6  N    0.001783   0.001605
     7  C   -0.013365   0.020643
     8  N    0.002027  -0.003007
     9  C    0.022113  -0.003788
    10  C   -0.009647   0.001133
    11  C    0.002399  -0.000339
    12  C   -0.001853   0.000115
    13  C    0.002692  -0.000119
    14  C   -0.003006   0.000427
    15  C    0.324947   0.334748
    16  O    0.046389   0.001764
    17  H   -0.001806  -0.001526
    18  H   -0.005823   0.002712
    19  H   -0.000230   0.000051
    20  H    0.000118  -0.000017
    21  H   -0.000019   0.000004
    22  H    0.000094  -0.000005
    23  H   -0.000713  -0.000024
    24  H   -0.068330  -0.107727
    25  H    0.869620  -0.101738
    26  H   -0.101738   0.840288
 Mulliken charges:
               1
     1  O   -1.130897
     2  S    2.589944
     3  N   -0.834540
     4  C    0.653840
     5  N   -0.583252
     6  N   -0.427818
     7  C    1.092208
     8  N   -0.645849
     9  C    0.877976
    10  C    0.066289
    11  C    0.770126
    12  C    0.586565
    13  C    0.577259
    14  C    0.434060
    15  C    0.077813
    16  O   -1.127396
    17  H   -0.063070
    18  H   -0.495936
    19  H   -0.655612
    20  H   -0.436583
    21  H   -0.443508
    22  H   -0.426800
    23  H   -0.528491
    24  H    0.022911
    25  H    0.030726
    26  H    0.020038
 Sum of Mulliken charges =  -0.00000
 Mulliken charges with hydrogens summed into heavy atoms:
               1
     1  O   -1.130897
     2  S    2.589944
     3  N   -0.897611
     4  C    0.653840
     5  N   -0.583252
     6  N   -0.427818
     7  C    0.596272
     8  N   -0.645849
     9  C    0.877976
    10  C   -0.589323
    11  C    0.333543
    12  C    0.143057
    13  C    0.150459
    14  C   -0.094431
    15  C    0.151488
    16  O   -1.127396
 Electronic spatial extent (au):  <R**2>=           5475.3416
 Charge=              0.0000 electrons
 Dipole moment (field-independent basis, Debye):
    X=             -6.7522    Y=             -7.4225    Z=              1.7550  Tot=             10.1866
 Quadrupole moment (field-independent basis, Debye-Ang):
   XX=           -112.5553   YY=           -100.0497   ZZ=            -99.9208
   XY=            -10.6770   XZ=              3.5254   YZ=              2.9666
 Traceless Quadrupole moment (field-independent basis, Debye-Ang):
   XX=             -8.3800   YY=              4.1255   ZZ=              4.2545
   XY=            -10.6770   XZ=              3.5254   YZ=              2.9666
 Octapole moment (field-independent basis, Debye-Ang**2):
  XXX=           -188.9684  YYY=            -26.1757  ZZZ=              5.5213  XYY=             -2.5620
  XXY=            -31.6870  XXZ=             48.3763  XZZ=             33.5637  YZZ=             -7.7202
  YYZ=              0.6345  XYZ=            -26.3447
 Hexadecapole moment (field-independent basis, Debye-Ang**3):
 XXXX=          -6507.7493 YYYY=           -660.2933 ZZZZ=           -398.3933 XXXY=              1.3399
 XXXZ=             31.1198 YYYX=            -28.0271 YYYZ=             29.3366 ZZZX=             32.0635
 ZZZY=              3.1248 XXYY=          -1113.7019 XXZZ=          -1119.9884 YYZZ=           -174.3570
 XXYZ=             10.1416 YYXZ=             -1.4344 ZZXY=            -41.7070
 N-N= 1.185352549280D+03 E-N=-4.985803703558D+03  KE= 1.110251010080D+03
 Leave Link  601 at Wed Sep 23 05:52:21 2020, MaxMem=   262144000 cpu:               2.2 elap:               0.9
 (Enter /prod/apps/gaussian/g16b1/l9999.exe)
 1\1\GINC-PIRINEUS12\SP\RMP2-FC\Aug-CC-pVDZ\C9H10N4O2S1\UBAFAR01\23-Sep
 -2020\0\\#p mp2/aug-cc-pVDZ scf=(MaxCycle=2000,NoVarAcc,NoIncFock) max
 disk=120GB geom=allcheck\\SM44_m0.n.4.pdb.xyz\\0,1\O,0,4.7175559855,-0
 .5214842594,-0.4198814779\S,0,3.4671025763,-0.0904816336,0.215846742\N
 ,0,2.2902964021,-0.226660002,-0.9987611867\C,0,0.9633476836,0.16399529
 34,-0.7328060255\N,0,0.5879253365,1.4730609252,-0.7540508185\N,0,-0.69
 33800344,1.547836998,-0.513958521\C,0,-0.1470782398,-0.6121827727,-0.4
 704146786\N,0,-1.1560797549,0.2838119168,-0.3507771746\C,0,-2.53623449
 24,0.0419022745,-0.0920555314\C,0,-3.1068727352,-1.1757621018,-0.46819
 39679\C,0,-4.4559639016,-1.4044395623,-0.2007829629\C,0,-5.2284227719,
 -0.4223846491,0.4222440243\C,0,-4.6450495712,0.7937359022,0.7845988313
 \C,0,-3.2953816722,1.0312160876,0.5361959821\C,0,3.0355621151,-1.26977
 93167,1.5001174399\O,0,3.357166103,1.2624408347,0.7718912797\H,0,2.377
 0023887,-1.1238853368,-1.4755997033\H,0,-0.2799312969,-1.6745821579,-0
 .3580600322\H,0,-2.5108892404,-1.9272366575,-0.9716763587\H,0,-4.90218
 19291,-2.3491118707,-0.4906118691\H,0,-6.2784172019,-0.6034014312,0.62
 40758782\H,0,-5.2379678805,1.5594154799,1.272203459\H,0,-2.8269035283,
 1.9631067021,0.824070965\H,0,3.0612991872,-2.2720454105,1.0735173621\H
 ,0,2.0421839222,-1.0298274789,1.8783470455\H,0,3.7793125505,-1.1692577
 733,2.2915212989\\Version=ES64L-G16RevB.01\State=1-A\HF=-1111.6318361\
 MP2=-1114.1087966\RMSD=5.129e-09\PG=C01 [X(C9H10N4O2S1)]\\@


 UNDER MOST GREENE GRASSE LY MOST GREATE SNAKES.
 -- PROVERBS AND REASONS OF THE YEAR 1585
           AS REPRINTED IN PAISLEY MAGAZINE 1828.
 Job cpu time:       0 days  1 hours 10 minutes 37.4 seconds.
 Elapsed time:       0 days  0 hours 19 minutes 37.5 seconds.
 File lengths (MBytes):  RWF=  35467 Int=      0 D2E=      0 Chk=     19 Scr=      1
 Normal termination of Gaussian 16 at Wed Sep 23 05:52:24 2020.
