 Entering Gaussian System, Link 0=g16
 Initial command:
 /prod/apps/gaussian/g16b1/l1.exe "/tmp/ubafar01/1460619/Gau-198905.inp" -scrdir="/tmp/ubafar01/1460619/"
 Entering Link 1 = /prod/apps/gaussian/g16b1/l1.exe PID=    198906.
  
 Copyright (c) 1988-2017, Gaussian, Inc.  All Rights Reserved.
  
 This is part of the Gaussian(R) 16 program.  It is based on
 the Gaussian(R) 09 system (copyright 2009, Gaussian, Inc.),
 the Gaussian(R) 03 system (copyright 2003, Gaussian, Inc.),
 the Gaussian(R) 98 system (copyright 1998, Gaussian, Inc.),
 the Gaussian(R) 94 system (copyright 1995, Gaussian, Inc.),
 the Gaussian 92(TM) system (copyright 1992, Gaussian, Inc.),
 the Gaussian 90(TM) system (copyright 1990, Gaussian, Inc.),
 the Gaussian 88(TM) system (copyright 1988, Gaussian, Inc.),
 the Gaussian 86(TM) system (copyright 1986, Carnegie Mellon
 University), and the Gaussian 82(TM) system (copyright 1983,
 Carnegie Mellon University). Gaussian is a federally registered
 trademark of Gaussian, Inc.
  
 This software contains proprietary and confidential information,
 including trade secrets, belonging to Gaussian, Inc.
  
 This software is provided under written license and may be
 used, copied, transmitted, or stored only in accord with that
 written license.
  
 The following legend is applicable only to US Government
 contracts under FAR:
  
                    RESTRICTED RIGHTS LEGEND
  
 Use, reproduction and disclosure by the US Government is
 subject to restrictions as set forth in subparagraphs (a)
 and (c) of the Commercial Computer Software - Restricted
 Rights clause in FAR 52.227-19.
  
 Gaussian, Inc.
 340 Quinnipiac St., Bldg. 40, Wallingford CT 06492
  
  
 ---------------------------------------------------------------
 Warning -- This program may not be used in any manner that
 competes with the business of Gaussian, Inc. or will provide
 assistance to any competitor of Gaussian, Inc.  The licensee
 of this program is prohibited from giving any competitor of
 Gaussian, Inc. access to this program.  By using this program,
 the user acknowledges that Gaussian, Inc. is engaged in the
 business of creating and licensing software in the field of
 computational chemistry and represents and warrants to the
 licensee that it is not a competitor of Gaussian, Inc. and that
 it will not use this program in any manner prohibited above.
 ---------------------------------------------------------------
  

 Cite this work as:
 Gaussian 16, Revision B.01,
 M. J. Frisch, G. W. Trucks, H. B. Schlegel, G. E. Scuseria, 
 M. A. Robb, J. R. Cheeseman, G. Scalmani, V. Barone, 
 G. A. Petersson, H. Nakatsuji, X. Li, M. Caricato, A. V. Marenich, 
 J. Bloino, B. G. Janesko, R. Gomperts, B. Mennucci, H. P. Hratchian, 
 J. V. Ortiz, A. F. Izmaylov, J. L. Sonnenberg, D. Williams-Young, 
 F. Ding, F. Lipparini, F. Egidi, J. Goings, B. Peng, A. Petrone, 
 T. Henderson, D. Ranasinghe, V. G. Zakrzewski, J. Gao, N. Rega, 
 G. Zheng, W. Liang, M. Hada, M. Ehara, K. Toyota, R. Fukuda, 
 J. Hasegawa, M. Ishida, T. Nakajima, Y. Honda, O. Kitao, H. Nakai, 
 T. Vreven, K. Throssell, J. A. Montgomery, Jr., J. E. Peralta, 
 F. Ogliaro, M. J. Bearpark, J. J. Heyd, E. N. Brothers, K. N. Kudin, 
 V. N. Staroverov, T. A. Keith, R. Kobayashi, J. Normand, 
 K. Raghavachari, A. P. Rendell, J. C. Burant, S. S. Iyengar, 
 J. Tomasi, M. Cossi, J. M. Millam, M. Klene, C. Adamo, R. Cammi, 
 J. W. Ochterski, R. L. Martin, K. Morokuma, O. Farkas, 
 J. B. Foresman, and D. J. Fox, Gaussian, Inc., Wallingford CT, 2016.
 
 ******************************************
 Gaussian 16:  ES64L-G16RevB.01 20-Dec-2017
                23-Sep-2020 
 ******************************************
 %nproc=4
 Will use up to    4 processors via shared memory.
 %Chk=SM44_m0.n.3.pdb.xyz.mst.n.w.chk
 %mem=16GB
 ----------------------------------------------------------------------
 #p b3lyp/6-31G(d) opt freq NoSymm scf=(MaxCycle=2000,NoVarAcc,NoIncFoc
 k) scrf=(iefpcm,read,solvent=water)
 ----------------------------------------------------------------------
 1/18=20,19=15,26=3,38=1,40=2/1,3;
 2/9=110,12=2,15=1,17=6,18=5,40=1/2;
 3/5=1,6=6,7=1,11=2,25=1,30=1,70=2203,71=1,72=1,74=-5/1,2,3;
 4//1;
 5/5=100002,7=2000,38=1,53=1/2;
 6/7=2,8=2,9=2,10=2,28=1/1;
 7/30=1/1,2,3,16;
 1/18=20,19=15,26=3/3(2);
 2/9=110,15=1/2;
 99//99;
 2/9=110,15=1/2;
 3/5=1,6=6,7=1,11=2,25=1,30=1,70=2205,71=1,72=1,74=-5/1,2,3;
 4/5=5,16=3,69=1/1;
 5/5=100002,7=2000,38=1,53=1/2;
 7/30=1/1,2,3,16;
 1/18=20,19=15,26=3/3(-5);
 2/9=110,15=1/2;
 6/7=2,8=2,9=2,10=2,19=2,28=1/1;
 99/9=1/99;
 Leave Link    1 at Wed Sep 23 05:18:40 2020, MaxMem=  2147483648 cpu:               0.1 elap:               0.0
 (Enter /prod/apps/gaussian/g16b1/l101.exe)
 -------------------
 SM44_m0.n.3.pdb.xyz
 -------------------
 Symbolic Z-matrix:
 Charge =  0 Multiplicity = 1
 O                    -4.716     0.505    -0.465 
 S                    -3.47      0.106     0.202 
 N                    -2.287     0.164    -1.013 
 C                    -0.962    -0.21     -0.719 
 N                    -0.588    -1.518    -0.648 
 N                     0.694    -1.576    -0.405 
 C                     0.149     0.581    -0.512 
 N                     1.159    -0.305    -0.331 
 C                     2.539    -0.046    -0.09 
 C                     3.084     1.186    -0.456 
 C                     4.434     1.433    -0.208 
 C                     5.232     0.455     0.39 
 C                     4.673    -0.773     0.744 
 C                     3.324    -1.03      0.514 
 C                    -3.043     1.354     1.419 
 O                    -3.37     -1.213     0.835 
 H                    -2.37      1.031    -1.548 
 H                     0.282     1.649    -0.479 
 H                     2.469     1.937    -0.937 
 H                     4.859     2.389    -0.491 
 H                     6.282     0.65      0.577 
 H                     5.286    -1.537     1.212 
 H                     2.875    -1.974     0.796 
 H                    -3.057     2.33      0.936 
 H                    -2.056     1.129     1.822 
 H                    -3.796     1.301     2.206 
 
 ITRead=  0  0  0  0  0  0  0  0  0  0  0  0  0  0  0  0  0  0  0  0
 ITRead=  0  0  0  0  0  0
 MicOpt= -1 -1 -1 -1 -1 -1 -1 -1 -1 -1 -1 -1 -1 -1 -1 -1 -1 -1 -1 -1
 MicOpt= -1 -1 -1 -1 -1 -1
 NAtoms=     26 NQM=       26 NQMF=       0 NMMI=      0 NMMIF=      0
                NMic=       0 NMicF=      0.
                    Isotopes and Nuclear Properties:
 (Nuclear quadrupole moments (NQMom) in fm**2, nuclear magnetic moments (NMagM)
  in nuclear magnetons)

  Atom         1           2           3           4           5           6           7           8           9          10
 IAtWgt=          16          32          14          12          14          14          12          14          12          12
 AtmWgt=  15.9949146  31.9720718  14.0030740  12.0000000  14.0030740  14.0030740  12.0000000  14.0030740  12.0000000  12.0000000
 NucSpn=           0           0           2           0           2           2           0           2           0           0
 AtZEff=  -0.0000000  -0.0000000  -0.0000000  -0.0000000  -0.0000000  -0.0000000  -0.0000000  -0.0000000  -0.0000000  -0.0000000
 NQMom=    0.0000000   0.0000000   2.0440000   0.0000000   2.0440000   2.0440000   0.0000000   2.0440000   0.0000000   0.0000000
 NMagM=    0.0000000   0.0000000   0.4037610   0.0000000   0.4037610   0.4037610   0.0000000   0.4037610   0.0000000   0.0000000
 AtZNuc=   8.0000000  16.0000000   7.0000000   6.0000000   7.0000000   7.0000000   6.0000000   7.0000000   6.0000000   6.0000000

  Atom        11          12          13          14          15          16          17          18          19          20
 IAtWgt=          12          12          12          12          12          16           1           1           1           1
 AtmWgt=  12.0000000  12.0000000  12.0000000  12.0000000  12.0000000  15.9949146   1.0078250   1.0078250   1.0078250   1.0078250
 NucSpn=           0           0           0           0           0           0           1           1           1           1
 AtZEff=  -0.0000000  -0.0000000  -0.0000000  -0.0000000  -0.0000000  -0.0000000  -0.0000000  -0.0000000  -0.0000000  -0.0000000
 NQMom=    0.0000000   0.0000000   0.0000000   0.0000000   0.0000000   0.0000000   0.0000000   0.0000000   0.0000000   0.0000000
 NMagM=    0.0000000   0.0000000   0.0000000   0.0000000   0.0000000   0.0000000   2.7928460   2.7928460   2.7928460   2.7928460
 AtZNuc=   6.0000000   6.0000000   6.0000000   6.0000000   6.0000000   8.0000000   1.0000000   1.0000000   1.0000000   1.0000000

  Atom        21          22          23          24          25          26
 IAtWgt=           1           1           1           1           1           1
 AtmWgt=   1.0078250   1.0078250   1.0078250   1.0078250   1.0078250   1.0078250
 NucSpn=           1           1           1           1           1           1
 AtZEff=  -0.0000000  -0.0000000  -0.0000000  -0.0000000  -0.0000000  -0.0000000
 NQMom=    0.0000000   0.0000000   0.0000000   0.0000000   0.0000000   0.0000000
 NMagM=    2.7928460   2.7928460   2.7928460   2.7928460   2.7928460   2.7928460
 AtZNuc=   1.0000000   1.0000000   1.0000000   1.0000000   1.0000000   1.0000000
 Leave Link  101 at Wed Sep 23 05:18:40 2020, MaxMem=  2147483648 cpu:               1.2 elap:               0.3
 (Enter /prod/apps/gaussian/g16b1/l103.exe)

 GradGradGradGradGradGradGradGradGradGradGradGradGradGradGradGradGradGrad
 Berny optimization.
 Initialization pass.
                           ----------------------------
                           !    Initial Parameters    !
                           ! (Angstroms and Degrees)  !
 --------------------------                            --------------------------
 ! Name  Definition              Value          Derivative Info.                !
 --------------------------------------------------------------------------------
 ! R1    R(1,2)                  1.4685         estimate D2E/DX2                !
 ! R2    R(2,3)                  1.6968         estimate D2E/DX2                !
 ! R3    R(2,15)                 1.7947         estimate D2E/DX2                !
 ! R4    R(2,16)                 1.4664         estimate D2E/DX2                !
 ! R5    R(3,4)                  1.4078         estimate D2E/DX2                !
 ! R6    R(3,17)                 1.0222         estimate D2E/DX2                !
 ! R7    R(4,5)                  1.3623         estimate D2E/DX2                !
 ! R8    R(4,7)                  1.3794         estimate D2E/DX2                !
 ! R9    R(5,6)                  1.3061         estimate D2E/DX2                !
 ! R10   R(6,8)                  1.3554         estimate D2E/DX2                !
 ! R11   R(7,8)                  1.3557         estimate D2E/DX2                !
 ! R12   R(7,18)                 1.0768         estimate D2E/DX2                !
 ! R13   R(8,9)                  1.4246         estimate D2E/DX2                !
 ! R14   R(9,10)                 1.396          estimate D2E/DX2                !
 ! R15   R(9,14)                 1.3962         estimate D2E/DX2                !
 ! R16   R(10,11)                1.3946         estimate D2E/DX2                !
 ! R17   R(10,19)                1.0833         estimate D2E/DX2                !
 ! R18   R(11,12)                1.3967         estimate D2E/DX2                !
 ! R19   R(11,20)                1.0838         estimate D2E/DX2                !
 ! R20   R(12,13)                1.3949         estimate D2E/DX2                !
 ! R21   R(12,21)                1.0842         estimate D2E/DX2                !
 ! R22   R(13,14)                1.3924         estimate D2E/DX2                !
 ! R23   R(13,22)                1.0856         estimate D2E/DX2                !
 ! R24   R(14,23)                1.0827         estimate D2E/DX2                !
 ! R25   R(15,24)                1.0891         estimate D2E/DX2                !
 ! R26   R(15,25)                1.0896         estimate D2E/DX2                !
 ! R27   R(15,26)                1.0905         estimate D2E/DX2                !
 ! A1    A(1,2,3)              104.894          estimate D2E/DX2                !
 ! A2    A(1,2,15)             108.719          estimate D2E/DX2                !
 ! A3    A(1,2,16)             119.8873         estimate D2E/DX2                !
 ! A4    A(3,2,15)             107.2126         estimate D2E/DX2                !
 ! A5    A(3,2,16)             106.9954         estimate D2E/DX2                !
 ! A6    A(15,2,16)            108.4533         estimate D2E/DX2                !
 ! A7    A(2,3,4)              119.8394         estimate D2E/DX2                !
 ! A8    A(2,3,17)             110.3142         estimate D2E/DX2                !
 ! A9    A(4,3,17)             114.2717         estimate D2E/DX2                !
 ! A10   A(3,4,5)              121.6247         estimate D2E/DX2                !
 ! A11   A(3,4,7)              129.5704         estimate D2E/DX2                !
 ! A12   A(5,4,7)              108.7622         estimate D2E/DX2                !
 ! A13   A(4,5,6)              108.7722         estimate D2E/DX2                !
 ! A14   A(5,6,8)              107.7733         estimate D2E/DX2                !
 ! A15   A(4,7,8)              104.2003         estimate D2E/DX2                !
 ! A16   A(4,7,18)             132.2867         estimate D2E/DX2                !
 ! A17   A(8,7,18)             123.5125         estimate D2E/DX2                !
 ! A18   A(6,8,7)              110.4852         estimate D2E/DX2                !
 ! A19   A(6,8,9)              120.7997         estimate D2E/DX2                !
 ! A20   A(7,8,9)              128.715          estimate D2E/DX2                !
 ! A21   A(8,9,10)             119.6213         estimate D2E/DX2                !
 ! A22   A(8,9,14)             119.3203         estimate D2E/DX2                !
 ! A23   A(10,9,14)            121.058          estimate D2E/DX2                !
 ! A24   A(9,10,11)            119.1821         estimate D2E/DX2                !
 ! A25   A(9,10,19)            120.4361         estimate D2E/DX2                !
 ! A26   A(11,10,19)           120.3782         estimate D2E/DX2                !
 ! A27   A(10,11,12)           120.3424         estimate D2E/DX2                !
 ! A28   A(10,11,20)           119.2993         estimate D2E/DX2                !
 ! A29   A(12,11,20)           120.3567         estimate D2E/DX2                !
 ! A30   A(11,12,13)           119.7432         estimate D2E/DX2                !
 ! A31   A(11,12,21)           120.0804         estimate D2E/DX2                !
 ! A32   A(13,12,21)           120.1764         estimate D2E/DX2                !
 ! A33   A(12,13,14)           120.5854         estimate D2E/DX2                !
 ! A34   A(12,13,22)           120.1771         estimate D2E/DX2                !
 ! A35   A(14,13,22)           119.2349         estimate D2E/DX2                !
 ! A36   A(9,14,13)            119.0849         estimate D2E/DX2                !
 ! A37   A(9,14,23)            119.604          estimate D2E/DX2                !
 ! A38   A(13,14,23)           121.3109         estimate D2E/DX2                !
 ! A39   A(2,15,24)            108.626          estimate D2E/DX2                !
 ! A40   A(2,15,25)            108.8284         estimate D2E/DX2                !
 ! A41   A(2,15,26)            106.9357         estimate D2E/DX2                !
 ! A42   A(24,15,25)           111.1457         estimate D2E/DX2                !
 ! A43   A(24,15,26)           110.778          estimate D2E/DX2                !
 ! A44   A(25,15,26)           110.3976         estimate D2E/DX2                !
 ! D1    D(1,2,3,4)           -177.8523         estimate D2E/DX2                !
 ! D2    D(1,2,3,17)            46.2852         estimate D2E/DX2                !
 ! D3    D(15,2,3,4)            66.677          estimate D2E/DX2                !
 ! D4    D(15,2,3,17)          -69.1855         estimate D2E/DX2                !
 ! D5    D(16,2,3,4)           -49.5029         estimate D2E/DX2                !
 ! D6    D(16,2,3,17)          174.6347         estimate D2E/DX2                !
 ! D7    D(1,2,15,24)          -51.5303         estimate D2E/DX2                !
 ! D8    D(1,2,15,25)         -172.67           estimate D2E/DX2                !
 ! D9    D(1,2,15,26)           68.0708         estimate D2E/DX2                !
 ! D10   D(3,2,15,24)           61.3673         estimate D2E/DX2                !
 ! D11   D(3,2,15,25)          -59.7724         estimate D2E/DX2                !
 ! D12   D(3,2,15,26)         -179.0316         estimate D2E/DX2                !
 ! D13   D(16,2,15,24)         176.5788         estimate D2E/DX2                !
 ! D14   D(16,2,15,25)          55.439          estimate D2E/DX2                !
 ! D15   D(16,2,15,26)         -63.8202         estimate D2E/DX2                !
 ! D16   D(2,3,4,5)             79.1028         estimate D2E/DX2                !
 ! D17   D(2,3,4,7)           -103.5543         estimate D2E/DX2                !
 ! D18   D(17,3,4,5)          -146.6548         estimate D2E/DX2                !
 ! D19   D(17,3,4,7)            30.6881         estimate D2E/DX2                !
 ! D20   D(3,4,5,6)            177.9886         estimate D2E/DX2                !
 ! D21   D(7,4,5,6)              0.1515         estimate D2E/DX2                !
 ! D22   D(3,4,7,8)           -177.2453         estimate D2E/DX2                !
 ! D23   D(3,4,7,18)             3.0281         estimate D2E/DX2                !
 ! D24   D(5,4,7,8)              0.3653         estimate D2E/DX2                !
 ! D25   D(5,4,7,18)          -179.3613         estimate D2E/DX2                !
 ! D26   D(4,5,6,8)             -0.6119         estimate D2E/DX2                !
 ! D27   D(5,6,8,7)              0.8706         estimate D2E/DX2                !
 ! D28   D(5,6,8,9)           -179.2152         estimate D2E/DX2                !
 ! D29   D(4,7,8,6)             -0.7477         estimate D2E/DX2                !
 ! D30   D(4,7,8,9)            179.3468         estimate D2E/DX2                !
 ! D31   D(18,7,8,6)           179.0097         estimate D2E/DX2                !
 ! D32   D(18,7,8,9)            -0.8958         estimate D2E/DX2                !
 ! D33   D(6,8,9,10)           158.3648         estimate D2E/DX2                !
 ! D34   D(6,8,9,14)           -21.8504         estimate D2E/DX2                !
 ! D35   D(7,8,9,10)           -21.7382         estimate D2E/DX2                !
 ! D36   D(7,8,9,14)           158.0465         estimate D2E/DX2                !
 ! D37   D(8,9,10,11)          179.591          estimate D2E/DX2                !
 ! D38   D(8,9,10,19)           -1.1009         estimate D2E/DX2                !
 ! D39   D(14,9,10,11)          -0.1899         estimate D2E/DX2                !
 ! D40   D(14,9,10,19)         179.1182         estimate D2E/DX2                !
 ! D41   D(8,9,14,13)          179.83           estimate D2E/DX2                !
 ! D42   D(8,9,14,23)           -0.3065         estimate D2E/DX2                !
 ! D43   D(10,9,14,13)          -0.3885         estimate D2E/DX2                !
 ! D44   D(10,9,14,23)         179.475          estimate D2E/DX2                !
 ! D45   D(9,10,11,12)           0.4832         estimate D2E/DX2                !
 ! D46   D(9,10,11,20)        -179.9747         estimate D2E/DX2                !
 ! D47   D(19,10,11,12)       -178.8252         estimate D2E/DX2                !
 ! D48   D(19,10,11,20)          0.7168         estimate D2E/DX2                !
 ! D49   D(10,11,12,13)         -0.1962         estimate D2E/DX2                !
 ! D50   D(10,11,12,21)        179.7393         estimate D2E/DX2                !
 ! D51   D(20,11,12,13)       -179.7334         estimate D2E/DX2                !
 ! D52   D(20,11,12,21)          0.2021         estimate D2E/DX2                !
 ! D53   D(11,12,13,14)         -0.3942         estimate D2E/DX2                !
 ! D54   D(11,12,13,22)       -179.8076         estimate D2E/DX2                !
 ! D55   D(21,12,13,14)        179.6703         estimate D2E/DX2                !
 ! D56   D(21,12,13,22)          0.2569         estimate D2E/DX2                !
 ! D57   D(12,13,14,9)           0.681          estimate D2E/DX2                !
 ! D58   D(12,13,14,23)       -179.1801         estimate D2E/DX2                !
 ! D59   D(22,13,14,9)        -179.9001         estimate D2E/DX2                !
 ! D60   D(22,13,14,23)          0.2388         estimate D2E/DX2                !
 --------------------------------------------------------------------------------
 Trust Radius=3.00D-01 FncErr=1.00D-07 GrdErr=1.00D-06 EigMax=2.50D+02 EigMin=1.00D-04
 Number of steps in this run=    141 maximum allowed number of steps=    156.
 GradGradGradGradGradGradGradGradGradGradGradGradGradGradGradGradGradGrad

 Leave Link  103 at Wed Sep 23 05:18:40 2020, MaxMem=  2147483648 cpu:               0.0 elap:               0.0
 (Enter /prod/apps/gaussian/g16b1/l202.exe)
                          Input orientation:                          
 ---------------------------------------------------------------------
 Center     Atomic      Atomic             Coordinates (Angstroms)
 Number     Number       Type             X           Y           Z
 ---------------------------------------------------------------------
      1          8           0       -4.716000    0.505000   -0.465000
      2         16           0       -3.470000    0.106000    0.202000
      3          7           0       -2.287000    0.164000   -1.013000
      4          6           0       -0.962000   -0.210000   -0.719000
      5          7           0       -0.588000   -1.518000   -0.648000
      6          7           0        0.694000   -1.576000   -0.405000
      7          6           0        0.149000    0.581000   -0.512000
      8          7           0        1.159000   -0.305000   -0.331000
      9          6           0        2.539000   -0.046000   -0.090000
     10          6           0        3.084000    1.186000   -0.456000
     11          6           0        4.434000    1.433000   -0.208000
     12          6           0        5.232000    0.455000    0.390000
     13          6           0        4.673000   -0.773000    0.744000
     14          6           0        3.324000   -1.030000    0.514000
     15          6           0       -3.043000    1.354000    1.419000
     16          8           0       -3.370000   -1.213000    0.835000
     17          1           0       -2.370000    1.031000   -1.548000
     18          1           0        0.282000    1.649000   -0.479000
     19          1           0        2.469000    1.937000   -0.937000
     20          1           0        4.859000    2.389000   -0.491000
     21          1           0        6.282000    0.650000    0.577000
     22          1           0        5.286000   -1.537000    1.212000
     23          1           0        2.875000   -1.974000    0.796000
     24          1           0       -3.057000    2.330000    0.936000
     25          1           0       -2.056000    1.129000    1.822000
     26          1           0       -3.796000    1.301000    2.206000
 ---------------------------------------------------------------------
                    Distance matrix (angstroms):
                    1          2          3          4          5
     1  O    0.000000
     2  S    1.468539   0.000000
     3  N    2.513290   1.696785   0.000000
     4  C    3.829916   2.690383   1.407813   0.000000
     5  N    4.600696   3.415523   2.418460   1.362271   0.000000
     6  N    5.796746   4.531718   3.504800   2.169536   1.306115
     7  C    4.865821   3.719218   2.521703   1.379439   2.228781
     8  N    5.932089   4.677676   3.544009   2.158289   2.150318
     9  C    7.285551   6.018010   4.917957   3.560834   3.500897
    10  C    7.829677   6.674899   5.495669   4.288135   4.564216
    11  C    9.200529   8.025101   6.886961   5.663690   5.841445
    12  C    9.984800   8.711025   7.654309   6.327538   6.232381
    13  C    9.552397   8.208219   7.239242   5.848980   5.492796
    14  C    8.243559   6.895381   5.936387   4.534588   4.110004
    15  C    2.658794   1.794693   2.811096   3.368635   4.306727
    16  O    2.540323   1.466441   2.546394   3.036345   3.167308
    17  H    2.636907   2.264536   1.022156   2.051776   3.237735
    18  H    5.127274   4.113650   3.014986   2.249670   3.288670
    19  H    7.341501   6.318354   5.076302   4.053257   4.622315
    20  H    9.758625   8.663982   7.502561   6.378936   6.705155
    21  H   11.048203   9.774358   8.728806   7.409099   7.307376
    22  H   10.345148   8.965885   8.074302   6.672870   6.161480
    23  H    8.084482   6.703601   5.872799   4.486590   3.779609
    24  H    2.836496   2.378130   3.013811   3.685058   4.838607
    25  H    3.563053   2.381244   3.003633   3.073506   3.906729
    26  H    2.935005   2.355911   3.732534   4.343996   5.136472
                    6          7          8          9         10
     6  N    0.000000
     7  C    2.227358   0.000000
     8  N    1.355412   1.355676   0.000000
     9  C    2.417468   2.506654   1.424627   0.000000
    10  C    3.652854   2.997230   2.438100   1.395996   0.000000
    11  C    4.804216   4.379446   3.709636   2.406738   1.394637
    12  C    5.034921   5.163949   4.205564   2.780944   2.421566
    13  C    4.218703   4.886454   3.704436   2.403756   2.793314
    14  C    2.838939   3.705216   2.434517   1.396172   2.430876
    15  C    5.086948   3.809876   4.844748   5.949437   6.409678
    16  O    4.264442   4.173273   4.764017   6.093750   7.005426
    17  H    4.182224   2.760644   3.964824   5.232970   5.564405
    18  H    3.252052   1.076755   2.146893   2.849280   2.840088
    19  H    3.971753   2.720618   2.666440   2.157452   1.083322
    20  H    5.751160   5.045137   4.579655   3.387097   2.144542
    21  H    6.094682   6.229315   5.289765   3.865146   3.403173
    22  H    4.868539   5.817806   4.575019   3.385896   3.878886
    23  H    2.521421   3.958531   2.645817   2.148273   3.405405
    24  H    5.578989   3.928631   5.130611   6.165490   6.399866
    25  H    4.454105   3.257282   4.126499   5.113746   5.622467
    26  H    5.937554   4.844476   5.793758   6.871554   7.377931
                   11         12         13         14         15
    11  C    0.000000
    12  C    1.396743   0.000000
    13  C    2.414511   1.394913   0.000000
    14  C    2.796382   2.420964   1.392390   0.000000
    15  C    7.652379   8.387054   8.032211   6.858657   0.000000
    16  O    8.306117   8.773520   8.055540   6.704190   2.652824
    17  H    6.946339   7.866259   7.623092   6.396968   3.059468
    18  H    4.166437   5.165588   5.161656   4.173350   3.839929
    19  H    2.155616   3.404618   3.876529   3.411673   6.022688
    20  H    1.083813   2.157695   3.399715   3.880182   8.195177
    21  H    2.155091   1.084202   2.154460   3.402372   9.389367
    22  H    3.400471   2.155612   1.085582   2.143291   8.818899
    23  H    3.878936   3.408860   2.162847   1.082710   6.818096
    24  H    7.630755   8.515942   8.331769   7.223908   1.089064
    25  H    6.806865   7.457871   7.075248   5.942773   1.089588
    26  H    8.577746   9.247614   8.840977   7.680548   1.090499
                   16         17         18         19         20
    16  O    0.000000
    17  H    3.422605   0.000000
    18  H    4.822317   2.925370   0.000000
    19  H    6.867052   4.960855   2.252926   0.000000
    20  H    9.080150   7.431006   4.636450   2.472917   0.000000
    21  H    9.833536   8.917280   6.173584   4.299713   2.487906
    22  H    8.670262   8.533848   6.168476   4.962093   4.300699
    23  H    6.291317   6.483393   4.634156   4.296981   4.962700
    24  H    3.558233   2.886109   3.689838   5.848013   8.043809
    25  H    2.861071   3.386015   3.321332   5.361023   7.399648
    26  H    2.895050   4.024785   4.894937   7.037981   9.130530
                   21         22         23         24         25
    21  H    0.000000
    22  H    2.485601   0.000000
    23  H    4.305925   2.485346   0.000000
    24  H    9.495694   9.199756   7.330255   0.000000
    25  H    8.444034   7.834834   5.915746   1.797053   0.000000
    26  H   10.229542   9.566870   7.564124   1.793840   1.790151
                   26
    26  H    0.000000
 Symmetry turned off by external request.
 Stoichiometry    C9H10N4O2S
 Framework group  C1[X(C9H10N4O2S)]
 Deg. of freedom    72
 Full point group                 C1      NOp   1
 Rotational constants (GHZ):           1.5846204           0.1987904           0.1904118
 Leave Link  202 at Wed Sep 23 05:18:40 2020, MaxMem=  2147483648 cpu:               0.1 elap:               0.0
 (Enter /prod/apps/gaussian/g16b1/l301.exe)
 Standard basis: 6-31G(d) (6D, 7F)
 Ernie: Thresh=  0.10000D-02 Tol=  0.10000D-05 Strict=F.
   264 basis functions,   512 primitive gaussians,   264 cartesian basis functions
    62 alpha electrons       62 beta electrons
       nuclear repulsion energy      1185.2235079180 Hartrees.
 IExCor=  402 DFT=T Ex+Corr=B3LYP ExCW=0 ScaHFX=  0.200000
 ScaDFX=  0.800000  0.720000  1.000000  0.810000 ScalE2=  1.000000  1.000000
 IRadAn=      5 IRanWt=     -1 IRanGd=            0 ICorTp=0 IEmpDi=  4
 NAtoms=   26 NActive=   26 NUniq=   26 SFac= 1.00D+00 NAtFMM=   60 NAOKFM=F Big=F
 Integral buffers will be    131072 words long.
 Raffenetti 2 integral format.
 Two-electron integral symmetry is turned off.
 Using the following non-standard input for PCM:
 MSTModel=DFT cav
 --- end of non-standard input.
 MST model for solvation energy: B3LYP parametrization.
 MST cavity parameters:
 ISph   IAn     Re0     Alpha   Atom Type   QCorr
 ------------------------------------------------
   1      8     1.40     1.25      O          F
   2     16     1.75     1.25      S          F
   3      7     1.50     1.25      NH         F
   4      6     1.50     1.25      C          F
   5      7     1.40     1.25      N          F
   6      7     1.40     1.25      N          F
   7      6     1.50     1.25      CH         F
   8      7     1.40     1.25      N          F
   9      6     1.50     1.25      C          F
  10      6     1.50     1.25      CH         F
  11      6     1.50     1.25      CH         F
  12      6     1.50     1.25      CH         F
  13      6     1.50     1.25      CH         F
  14      6     1.50     1.25      CH         F
  15      6     1.50     1.25      CH3        F
  16      8     1.40     1.25      O          F
  17      1     0.90     1.25      NH         F
  18      1     1.20     1.25      CH         F
  19      1     1.20     1.25      CH         F
  20      1     1.20     1.25      CH         F
  21      1     1.20     1.25      CH         F
  22      1     1.20     1.25      CH         F
  23      1     1.20     1.25      CH         F
  24      1     1.20     1.25      CH3        F
  25      1     1.20     1.25      CH3        F
  26      1     1.20     1.25      CH3        F
 ------------------------------------------------------------------------------
 Polarizable Continuum Model (PCM)
 =================================
 Model                : PCM.
 Atomic radii         : MST.
 Polarization charges : Total charges.
 Charge compensation  : None.
 Solution method      : On-the-fly selection.
 Cavity type          : Scaled VdW (van der Waals Surface) (Alpha=1.250).
 Cavity algorithm     : GePol (No added spheres)
                        Default sphere list used, NSphG=   26.
                        Lebedev-Laikov grids with approx.  5.0 points / Ang**2.
                        Smoothing algorithm: York/Karplus (Gamma=1.0000).
                        Polarization charges: spherical gaussians, with
                                              point-specific exponents (IZeta= 3).
                        Self-potential: point-specific (ISelfS= 7).
                        Self-field    : sphere-specific E.n sum rule (ISelfD= 2).
 1st derivatives      : Analytical E(r).r(x)/FMM algorithm (CHGder, D1EAlg=3).
                        Cavity 1st derivative terms included.
 Solvent              : Water, Eps=  78.355300 Eps(inf)=   1.777849
 ------------------------------------------------------------------------------
 GePol: Number of generator spheres                  =      26
 GePol: Total number of spheres                      =      26
 GePol: Number of exposed spheres                    =      26 (100.00%)
 GePol: Number of points                             =    2104
 GePol: Average weight of points                     =       0.13
 GePol: Minimum weight of points                     =   0.18D-11
 GePol: Maximum weight of points                     =    0.22001
 GePol: Number of points with low weight             =     132
 GePol: Fraction of low-weight points (<1% of avg)   =       6.27%
 GePol: Cavity surface area                          =    273.749 Ang**2
 GePol: Cavity volume                                =    253.536 Ang**3
 PCM non-electrostatic energy =         0.0029599055 Hartrees.
 Nuclear repulsion after PCM non-electrostatic terms =     1185.2264678235 Hartrees.
 Leave Link  301 at Wed Sep 23 05:18:41 2020, MaxMem=  2147483648 cpu:               0.3 elap:               0.1
 (Enter /prod/apps/gaussian/g16b1/l302.exe)
 NPDir=0 NMtPBC=     1 NCelOv=     1 NCel=       1 NClECP=     1 NCelD=      1
         NCelK=      1 NCelE2=     1 NClLst=     1 CellRange=     0.0.
 One-electron integrals computed using PRISM.
 NBasis=   264 RedAO= T EigKep=  4.66D-04  NBF=   264
 NBsUse=   264 1.00D-06 EigRej= -1.00D+00 NBFU=   264
 Precomputing XC quadrature grid using
 IXCGrd= 4 IRadAn=           5 IRanWt=          -1 IRanGd=           0 AccXCQ= 0.00D+00.
 Generated NRdTot=       0 NPtTot=           0 NUsed=           0 NTot=          32
 NSgBfM=   262   262   262   262   262 MxSgAt=    26 MxSgA2=    26.
 Leave Link  302 at Wed Sep 23 05:18:41 2020, MaxMem=  2147483648 cpu:               1.1 elap:               0.3
 (Enter /prod/apps/gaussian/g16b1/l303.exe)
 DipDrv:  MaxL=1.
 Leave Link  303 at Wed Sep 23 05:18:41 2020, MaxMem=  2147483648 cpu:               0.1 elap:               0.0
 (Enter /prod/apps/gaussian/g16b1/l401.exe)
 ExpMin= 1.17D-01 ExpMax= 2.19D+04 ExpMxC= 3.30D+03 IAcc=3 IRadAn=         5 AccDes= 0.00D+00
 Harris functional with IExCor=  402 and IRadAn=       5 diagonalized for initial guess.
 HarFok:  IExCor=  402 AccDes= 0.00D+00 IRadAn=         5 IDoV= 1 UseB2=F ITyADJ=14
 ICtDFT=  3500011 ScaDFX=  1.000000  1.000000  1.000000  1.000000
 FoFCou: FMM=F IPFlag=           0 FMFlag=      100000 FMFlg1=           0
         NFxFlg=           0 DoJE=T BraDBF=F KetDBF=T FulRan=T
         wScrn=  0.000000 ICntrl=       500 IOpCl=  0 I1Cent=   200000004 NGrid=           0
         NMat0=    1 NMatS0=      1 NMatT0=    0 NMatD0=    1 NMtDS0=    0 NMtDT0=    0
 Symmetry not used in FoFCou.
 Harris En= -1116.51875447271    
 JPrj=0 DoOrth=F DoCkMO=F.
 Leave Link  401 at Wed Sep 23 05:18:42 2020, MaxMem=  2147483648 cpu:               5.6 elap:               1.4
 (Enter /prod/apps/gaussian/g16b1/l502.exe)
 Keep R1 ints in memory in canonical form, NReq=621123487.
 FoFCou: FMM=F IPFlag=           0 FMFlag=           0 FMFlg1=           0
         NFxFlg=           0 DoJE=F BraDBF=F KetDBF=F FulRan=T
         wScrn=  0.000000 ICntrl=       600 IOpCl=  0 I1Cent=           0 NGrid=           0
         NMat0=    1 NMatS0=  34980 NMatT0=    0 NMatD0=    1 NMtDS0=    0 NMtDT0=    0
 Symmetry not used in FoFCou.
 Two-electron integral symmetry not used.
 Closed shell SCF:
 Using DIIS extrapolation, IDIIS=  1040.
 NGot=  2147483648 LenX=  1535522690 LenY=  1535452553
 Requested convergence on RMS density matrix=1.00D-08 within2000 cycles.
 Requested convergence on MAX density matrix=1.00D-06.
 Requested convergence on             energy=1.00D-06.
 No special actions if energy rises.

 Cycle   1  Pass 1  IDiag  1:
 Inv3:  Mode=1 IEnd=    13280448.
 Iteration    1 A*A^-1 deviation from unit magnitude is 3.33D-15 for    364.
 Iteration    1 A*A^-1 deviation from orthogonality  is 1.89D-15 for   1355    379.
 Iteration    1 A^-1*A deviation from unit magnitude is 3.11D-15 for    613.
 Iteration    1 A^-1*A deviation from orthogonality  is 1.36D-13 for   2019   1973.
 E= -1116.05490211832    
 DIIS: error= 3.40D-02 at cycle   1 NSaved=   1.
 NSaved= 1 IEnMin= 1 EnMin= -1116.05490211832     IErMin= 1 ErrMin= 3.40D-02
 ErrMax= 3.40D-02  0.00D+00 EMaxC= 1.00D-01 BMatC= 5.67D-01 BMatP= 5.67D-01
 IDIUse=3 WtCom= 6.60D-01 WtEn= 3.40D-01
 Coeff-Com:  0.100D+01
 Coeff-En:   0.100D+01
 Coeff:      0.100D+01
 Gap=     0.289 Goal=   None    Shift=    0.000
 GapD=    0.289 DampG=1.000 DampE=0.500 DampFc=0.5000 IDamp=-1.
 Damping current iteration by 5.00D-01
 RMSDP=6.75D-03 MaxDP=5.49D-01              OVMax= 2.26D-01

 Cycle   2  Pass 1  IDiag  1:
 E= -1116.19048419520     Delta-E=       -0.135582076874 Rises=F Damp=T
 DIIS: error= 1.75D-02 at cycle   2 NSaved=   2.
 NSaved= 2 IEnMin= 2 EnMin= -1116.19048419520     IErMin= 2 ErrMin= 1.75D-02
 ErrMax= 1.75D-02  0.00D+00 EMaxC= 1.00D-01 BMatC= 7.63D-02 BMatP= 5.67D-01
 IDIUse=3 WtCom= 8.25D-01 WtEn= 1.75D-01
 Coeff-Com:  0.212D+00 0.788D+00
 Coeff-En:   0.342D+00 0.658D+00
 Coeff:      0.234D+00 0.766D+00
 Gap=     0.216 Goal=   None    Shift=    0.000
 RMSDP=1.79D-03 MaxDP=1.11D-01 DE=-1.36D-01 OVMax= 1.64D-01

 Cycle   3  Pass 1  IDiag  1:
 E= -1116.50912553892     Delta-E=       -0.318641343721 Rises=F Damp=F
 DIIS: error= 9.63D-03 at cycle   3 NSaved=   3.
 NSaved= 3 IEnMin= 3 EnMin= -1116.50912553892     IErMin= 3 ErrMin= 9.63D-03
 ErrMax= 9.63D-03  0.00D+00 EMaxC= 1.00D-01 BMatC= 3.24D-02 BMatP= 7.63D-02
 IDIUse=3 WtCom= 9.04D-01 WtEn= 9.63D-02
 Coeff-Com:  0.647D-01 0.396D+00 0.540D+00
 Coeff-En:   0.000D+00 0.000D+00 0.100D+01
 Coeff:      0.585D-01 0.357D+00 0.584D+00
 Gap=     0.200 Goal=   None    Shift=    0.000
 RMSDP=8.73D-04 MaxDP=2.86D-02 DE=-3.19D-01 OVMax= 4.51D-02

 Cycle   4  Pass 1  IDiag  1:
 E= -1116.53374277369     Delta-E=       -0.024617234769 Rises=F Damp=F
 DIIS: error= 3.96D-03 at cycle   4 NSaved=   4.
 NSaved= 4 IEnMin= 4 EnMin= -1116.53374277369     IErMin= 4 ErrMin= 3.96D-03
 ErrMax= 3.96D-03  0.00D+00 EMaxC= 1.00D-01 BMatC= 5.32D-03 BMatP= 3.24D-02
 IDIUse=3 WtCom= 9.60D-01 WtEn= 3.96D-02
 Coeff-Com:  0.454D-02 0.703D-01 0.304D+00 0.621D+00
 Coeff-En:   0.000D+00 0.000D+00 0.121D+00 0.879D+00
 Coeff:      0.436D-02 0.675D-01 0.297D+00 0.631D+00
 Gap=     0.198 Goal=   None    Shift=    0.000
 RMSDP=2.87D-04 MaxDP=1.13D-02 DE=-2.46D-02 OVMax= 1.41D-02

 Cycle   5  Pass 1  IDiag  1:
 E= -1116.53801909998     Delta-E=       -0.004276326296 Rises=F Damp=F
 DIIS: error= 6.67D-04 at cycle   5 NSaved=   5.
 NSaved= 5 IEnMin= 5 EnMin= -1116.53801909998     IErMin= 5 ErrMin= 6.67D-04
 ErrMax= 6.67D-04  0.00D+00 EMaxC= 1.00D-01 BMatC= 3.81D-04 BMatP= 5.32D-03
 IDIUse=3 WtCom= 9.93D-01 WtEn= 6.67D-03
 Coeff-Com: -0.142D-02 0.144D-01 0.120D+00 0.328D+00 0.539D+00
 Coeff-En:   0.000D+00 0.000D+00 0.000D+00 0.000D+00 0.100D+01
 Coeff:     -0.141D-02 0.143D-01 0.119D+00 0.326D+00 0.542D+00
 Gap=     0.198 Goal=   None    Shift=    0.000
 RMSDP=8.61D-05 MaxDP=5.09D-03 DE=-4.28D-03 OVMax= 5.43D-03

 Cycle   6  Pass 1  IDiag  1:
 E= -1116.53832147555     Delta-E=       -0.000302375568 Rises=F Damp=F
 DIIS: error= 2.32D-04 at cycle   6 NSaved=   6.
 NSaved= 6 IEnMin= 6 EnMin= -1116.53832147555     IErMin= 6 ErrMin= 2.32D-04
 ErrMax= 2.32D-04  0.00D+00 EMaxC= 1.00D-01 BMatC= 3.48D-05 BMatP= 3.81D-04
 IDIUse=3 WtCom= 9.98D-01 WtEn= 2.32D-03
 Coeff-Com: -0.123D-02 0.211D-02 0.406D-01 0.127D+00 0.300D+00 0.532D+00
 Coeff-En:   0.000D+00 0.000D+00 0.000D+00 0.000D+00 0.000D+00 0.100D+01
 Coeff:     -0.122D-02 0.210D-02 0.405D-01 0.127D+00 0.299D+00 0.533D+00
 Gap=     0.198 Goal=   None    Shift=    0.000
 RMSDP=2.36D-05 MaxDP=1.27D-03 DE=-3.02D-04 OVMax= 1.45D-03

 Cycle   7  Pass 1  IDiag  1:
 E= -1116.53834958048     Delta-E=       -0.000028104929 Rises=F Damp=F
 DIIS: error= 6.54D-05 at cycle   7 NSaved=   7.
 NSaved= 7 IEnMin= 7 EnMin= -1116.53834958048     IErMin= 7 ErrMin= 6.54D-05
 ErrMax= 6.54D-05  0.00D+00 EMaxC= 1.00D-01 BMatC= 2.37D-06 BMatP= 3.48D-05
 IDIUse=1 WtCom= 1.00D+00 WtEn= 0.00D+00
 Coeff-Com: -0.510D-03 0.119D-03 0.117D-01 0.395D-01 0.113D+00 0.281D+00
 Coeff-Com:  0.556D+00
 Coeff:     -0.510D-03 0.119D-03 0.117D-01 0.395D-01 0.113D+00 0.281D+00
 Coeff:      0.556D+00
 Gap=     0.198 Goal=   None    Shift=    0.000
 RMSDP=7.01D-06 MaxDP=3.66D-04 DE=-2.81D-05 OVMax= 4.70D-04

 Cycle   8  Pass 1  IDiag  1:
 E= -1116.53835145047     Delta-E=       -0.000001869984 Rises=F Damp=F
 DIIS: error= 2.59D-05 at cycle   8 NSaved=   8.
 NSaved= 8 IEnMin= 8 EnMin= -1116.53835145047     IErMin= 8 ErrMin= 2.59D-05
 ErrMax= 2.59D-05  0.00D+00 EMaxC= 1.00D-01 BMatC= 3.46D-07 BMatP= 2.37D-06
 IDIUse=1 WtCom= 1.00D+00 WtEn= 0.00D+00
 Coeff-Com: -0.193D-03-0.244D-03 0.285D-02 0.108D-01 0.374D-01 0.113D+00
 Coeff-Com:  0.329D+00 0.508D+00
 Coeff:     -0.193D-03-0.244D-03 0.285D-02 0.108D-01 0.374D-01 0.113D+00
 Coeff:      0.329D+00 0.508D+00
 Gap=     0.198 Goal=   None    Shift=    0.000
 RMSDP=2.62D-06 MaxDP=1.32D-04 DE=-1.87D-06 OVMax= 1.68D-04

 Cycle   9  Pass 1  IDiag  1:
 E= -1116.53835173395     Delta-E=       -0.000000283483 Rises=F Damp=F
 DIIS: error= 7.75D-06 at cycle   9 NSaved=   9.
 NSaved= 9 IEnMin= 9 EnMin= -1116.53835173395     IErMin= 9 ErrMin= 7.75D-06
 ErrMax= 7.75D-06  0.00D+00 EMaxC= 1.00D-01 BMatC= 3.07D-08 BMatP= 3.46D-07
 IDIUse=1 WtCom= 1.00D+00 WtEn= 0.00D+00
 Coeff-Com: -0.148D-04-0.126D-03-0.387D-03-0.789D-03 0.137D-02 0.140D-01
 Coeff-Com:  0.869D-01 0.269D+00 0.630D+00
 Coeff:     -0.148D-04-0.126D-03-0.387D-03-0.789D-03 0.137D-02 0.140D-01
 Coeff:      0.869D-01 0.269D+00 0.630D+00
 Gap=     0.198 Goal=   None    Shift=    0.000
 RMSDP=7.66D-07 MaxDP=3.12D-05 DE=-2.83D-07 OVMax= 4.25D-05

 Cycle  10  Pass 1  IDiag  1:
 E= -1116.53835176189     Delta-E=       -0.000000027938 Rises=F Damp=F
 DIIS: error= 1.72D-06 at cycle  10 NSaved=  10.
 NSaved=10 IEnMin=10 EnMin= -1116.53835176189     IErMin=10 ErrMin= 1.72D-06
 ErrMax= 1.72D-06  0.00D+00 EMaxC= 1.00D-01 BMatC= 1.50D-09 BMatP= 3.07D-08
 IDIUse=1 WtCom= 1.00D+00 WtEn= 0.00D+00
 Coeff-Com: -0.900D-07-0.428D-04-0.271D-03-0.743D-03-0.852D-03 0.151D-02
 Coeff-Com:  0.275D-01 0.984D-01 0.288D+00 0.587D+00
 Coeff:     -0.900D-07-0.428D-04-0.271D-03-0.743D-03-0.852D-03 0.151D-02
 Coeff:      0.275D-01 0.984D-01 0.288D+00 0.587D+00
 Gap=     0.198 Goal=   None    Shift=    0.000
 RMSDP=1.94D-07 MaxDP=9.64D-06 DE=-2.79D-08 OVMax= 1.26D-05

 Cycle  11  Pass 1  IDiag  1:
 E= -1116.53835176306     Delta-E=       -0.000000001172 Rises=F Damp=F
 DIIS: error= 8.81D-07 at cycle  11 NSaved=  11.
 NSaved=11 IEnMin=11 EnMin= -1116.53835176306     IErMin=11 ErrMin= 8.81D-07
 ErrMax= 8.81D-07  0.00D+00 EMaxC= 1.00D-01 BMatC= 3.07D-10 BMatP= 1.50D-09
 IDIUse=1 WtCom= 1.00D+00 WtEn= 0.00D+00
 Coeff-Com:  0.213D-05-0.423D-05-0.106D-03-0.326D-03-0.752D-03-0.143D-02
 Coeff-Com:  0.319D-02 0.145D-01 0.684D-01 0.337D+00 0.579D+00
 Coeff:      0.213D-05-0.423D-05-0.106D-03-0.326D-03-0.752D-03-0.143D-02
 Coeff:      0.319D-02 0.145D-01 0.684D-01 0.337D+00 0.579D+00
 Gap=     0.198 Goal=   None    Shift=    0.000
 RMSDP=6.91D-08 MaxDP=5.26D-06 DE=-1.17D-09 OVMax= 5.47D-06

 Cycle  12  Pass 1  IDiag  1:
 E= -1116.53835176331     Delta-E=       -0.000000000252 Rises=F Damp=F
 DIIS: error= 3.10D-07 at cycle  12 NSaved=  12.
 NSaved=12 IEnMin=12 EnMin= -1116.53835176331     IErMin=12 ErrMin= 3.10D-07
 ErrMax= 3.10D-07  0.00D+00 EMaxC= 1.00D-01 BMatC= 3.53D-11 BMatP= 3.07D-10
 IDIUse=1 WtCom= 1.00D+00 WtEn= 0.00D+00
 Coeff-Com:  0.133D-05 0.132D-05-0.435D-04-0.139D-03-0.417D-03-0.116D-02
 Coeff-Com: -0.889D-03-0.163D-02 0.121D-01 0.151D+00 0.345D+00 0.496D+00
 Coeff:      0.133D-05 0.132D-05-0.435D-04-0.139D-03-0.417D-03-0.116D-02
 Coeff:     -0.889D-03-0.163D-02 0.121D-01 0.151D+00 0.345D+00 0.496D+00
 Gap=     0.198 Goal=   None    Shift=    0.000
 RMSDP=2.24D-08 MaxDP=1.39D-06 DE=-2.52D-10 OVMax= 1.47D-06

 Cycle  13  Pass 1  IDiag  1:
 E= -1116.53835176334     Delta-E=       -0.000000000028 Rises=F Damp=F
 DIIS: error= 5.67D-08 at cycle  13 NSaved=  13.
 NSaved=13 IEnMin=13 EnMin= -1116.53835176334     IErMin=13 ErrMin= 5.67D-08
 ErrMax= 5.67D-08  0.00D+00 EMaxC= 1.00D-01 BMatC= 1.59D-12 BMatP= 3.53D-11
 IDIUse=1 WtCom= 1.00D+00 WtEn= 0.00D+00
 Coeff-Com:  0.272D-06 0.910D-06-0.599D-05-0.186D-04-0.817D-04-0.307D-03
 Coeff-Com: -0.595D-03-0.230D-02-0.289D-02 0.257D-01 0.752D-01 0.205D+00
 Coeff-Com:  0.701D+00
 Coeff:      0.272D-06 0.910D-06-0.599D-05-0.186D-04-0.817D-04-0.307D-03
 Coeff:     -0.595D-03-0.230D-02-0.289D-02 0.257D-01 0.752D-01 0.205D+00
 Coeff:      0.701D+00
 Gap=     0.198 Goal=   None    Shift=    0.000
 RMSDP=6.60D-09 MaxDP=3.05D-07 DE=-2.82D-11 OVMax= 5.53D-07

 Error on total polarization charges =  0.01962
 SCF Done:  E(RB3LYP) =  -1116.53835176     A.U. after   13 cycles
            NFock= 13  Conv=0.66D-08     -V/T= 2.0074
 KE= 1.108363857578D+03 PE=-4.987269345319D+03 EE= 1.577140668154D+03
 Leave Link  502 at Wed Sep 23 05:19:26 2020, MaxMem=  2147483648 cpu:             141.5 elap:              43.4
 (Enter /prod/apps/gaussian/g16b1/l601.exe)
 Copying SCF densities to generalized density rwf, IOpCl= 0 IROHF=0.

 **********************************************************************

            Population analysis using the SCF Density.

 **********************************************************************

 Alpha  occ. eigenvalues --  -89.12469 -19.15594 -19.15528 -14.44739 -14.40489
 Alpha  occ. eigenvalues --  -14.38386 -14.37184 -10.26446 -10.25155 -10.24557
 Alpha  occ. eigenvalues --  -10.22401 -10.20685 -10.20396 -10.20211 -10.20123
 Alpha  occ. eigenvalues --  -10.19883  -8.15050  -6.11549  -6.11476  -6.11320
 Alpha  occ. eigenvalues --   -1.12334  -1.11382  -1.01270  -0.95769  -0.93045
 Alpha  occ. eigenvalues --   -0.86151  -0.81244  -0.77514  -0.76396  -0.75814
 Alpha  occ. eigenvalues --   -0.66876  -0.66409  -0.63054  -0.60852  -0.58738
 Alpha  occ. eigenvalues --   -0.56496  -0.53908  -0.52565  -0.49808  -0.49764
 Alpha  occ. eigenvalues --   -0.48714  -0.48309  -0.46985  -0.45451  -0.44523
 Alpha  occ. eigenvalues --   -0.43788  -0.43342  -0.43321  -0.38921  -0.37311
 Alpha  occ. eigenvalues --   -0.36458  -0.35941  -0.34910  -0.34032  -0.33006
 Alpha  occ. eigenvalues --   -0.32028  -0.31810  -0.31402  -0.28971  -0.26748
 Alpha  occ. eigenvalues --   -0.26419  -0.24384
 Alpha virt. eigenvalues --   -0.04566  -0.01493   0.01139   0.02111   0.06906
 Alpha virt. eigenvalues --    0.07354   0.08950   0.09877   0.10293   0.10963
 Alpha virt. eigenvalues --    0.12359   0.13866   0.15011   0.15295   0.15622
 Alpha virt. eigenvalues --    0.16150   0.16519   0.18400   0.19195   0.19796
 Alpha virt. eigenvalues --    0.21352   0.23362   0.24750   0.29382   0.30355
 Alpha virt. eigenvalues --    0.31351   0.32671   0.33590   0.35561   0.36478
 Alpha virt. eigenvalues --    0.39009   0.42539   0.43004   0.43428   0.48561
 Alpha virt. eigenvalues --    0.48659   0.50199   0.51832   0.52124   0.52883
 Alpha virt. eigenvalues --    0.54188   0.54782   0.55709   0.57338   0.57759
 Alpha virt. eigenvalues --    0.58190   0.58685   0.60109   0.60721   0.60790
 Alpha virt. eigenvalues --    0.61160   0.62656   0.63315   0.64252   0.66516
 Alpha virt. eigenvalues --    0.67785   0.68801   0.70268   0.70352   0.73099
 Alpha virt. eigenvalues --    0.74280   0.77389   0.77595   0.78641   0.79262
 Alpha virt. eigenvalues --    0.80854   0.83104   0.83695   0.83964   0.84497
 Alpha virt. eigenvalues --    0.84906   0.85244   0.86770   0.87040   0.88143
 Alpha virt. eigenvalues --    0.89424   0.90104   0.91608   0.93318   0.93672
 Alpha virt. eigenvalues --    0.95500   0.96682   0.97583   0.99131   1.00984
 Alpha virt. eigenvalues --    1.01184   1.02470   1.04370   1.05828   1.06363
 Alpha virt. eigenvalues --    1.08154   1.11345   1.12961   1.15567   1.15700
 Alpha virt. eigenvalues --    1.16711   1.17687   1.19098   1.19592   1.24367
 Alpha virt. eigenvalues --    1.24403   1.25566   1.30719   1.32237   1.35601
 Alpha virt. eigenvalues --    1.37152   1.39905   1.41800   1.42566   1.44470
 Alpha virt. eigenvalues --    1.45949   1.47211   1.47870   1.49808   1.51716
 Alpha virt. eigenvalues --    1.52153   1.56207   1.57733   1.61079   1.64610
 Alpha virt. eigenvalues --    1.68627   1.71908   1.74788   1.77117   1.78631
 Alpha virt. eigenvalues --    1.79028   1.79652   1.80837   1.81174   1.83815
 Alpha virt. eigenvalues --    1.85459   1.86498   1.88050   1.90038   1.90991
 Alpha virt. eigenvalues --    1.94320   1.96087   1.96753   2.00399   2.03203
 Alpha virt. eigenvalues --    2.05291   2.05961   2.07762   2.09015   2.10737
 Alpha virt. eigenvalues --    2.10907   2.13043   2.13825   2.14640   2.16929
 Alpha virt. eigenvalues --    2.19607   2.19981   2.21292   2.22544   2.24509
 Alpha virt. eigenvalues --    2.26004   2.27821   2.29171   2.30555   2.32003
 Alpha virt. eigenvalues --    2.34133   2.36880   2.38386   2.49037   2.51083
 Alpha virt. eigenvalues --    2.53305   2.56800   2.58004   2.59316   2.62412
 Alpha virt. eigenvalues --    2.64474   2.66980   2.69451   2.71621   2.72947
 Alpha virt. eigenvalues --    2.74072   2.75749   2.77060   2.81709   2.86542
 Alpha virt. eigenvalues --    2.88873   3.00196   3.06144   3.13135   3.25733
 Alpha virt. eigenvalues --    3.42317   3.60347   3.75813   3.87649   3.93979
 Alpha virt. eigenvalues --    3.96912   4.06442   4.08019   4.10073   4.10747
 Alpha virt. eigenvalues --    4.15308   4.19284   4.24057   4.31689   4.39118
 Alpha virt. eigenvalues --    4.48860   4.71060
          Condensed to atoms (all electrons):
               1          2          3          4          5          6
     1  O    8.269240   0.448626  -0.051452   0.001532  -0.000016  -0.000000
     2  S    0.448626  13.626225   0.136645  -0.017286   0.002104   0.000082
     3  N   -0.051452   0.136645   7.370888   0.258728  -0.058590   0.005655
     4  C    0.001532  -0.017286   0.258728   4.651974   0.369548  -0.082840
     5  N   -0.000016   0.002104  -0.058590   0.369548   6.891324   0.301880
     6  N   -0.000000   0.000082   0.005655  -0.082840   0.301880   6.772410
     7  C   -0.000039  -0.004901  -0.071060   0.519381  -0.071730  -0.099033
     8  N    0.000000   0.000305   0.003286  -0.035609  -0.095457   0.229834
     9  C   -0.000000  -0.000012  -0.000122   0.004211   0.006545  -0.044045
    10  C   -0.000000  -0.000000   0.000004   0.000978  -0.000336   0.003072
    11  C   -0.000000  -0.000000   0.000000  -0.000010   0.000003  -0.000066
    12  C   -0.000000  -0.000000  -0.000000   0.000000  -0.000000   0.000017
    13  C   -0.000000  -0.000000  -0.000000   0.000006  -0.000005   0.000310
    14  C    0.000000   0.000000   0.000001  -0.000397   0.000373  -0.000714
    15  C   -0.058451   0.236279  -0.060506  -0.002131   0.000020   0.000007
    16  O   -0.043706   0.442362  -0.052437  -0.000050   0.000856   0.000041
    17  H    0.000945  -0.004891   0.299108  -0.026194   0.001751  -0.000070
    18  H   -0.000000  -0.000035  -0.000525  -0.025783   0.004062   0.003474
    19  H   -0.000000  -0.000000   0.000000   0.000087  -0.000007  -0.000087
    20  H    0.000000   0.000000   0.000000   0.000000  -0.000000   0.000001
    21  H   -0.000000  -0.000000  -0.000000  -0.000000   0.000000   0.000000
    22  H    0.000000   0.000000   0.000000  -0.000000   0.000000  -0.000008
    23  H   -0.000000  -0.000000  -0.000000   0.000045  -0.000328   0.016806
    24  H    0.000011  -0.008496   0.000066   0.000254  -0.000004  -0.000000
    25  H    0.001787  -0.008189  -0.002199   0.002222  -0.000033  -0.000037
    26  H   -0.000408  -0.012978   0.002226   0.000014  -0.000001  -0.000000
               7          8          9         10         11         12
     1  O   -0.000039   0.000000  -0.000000  -0.000000  -0.000000  -0.000000
     2  S   -0.004901   0.000305  -0.000012  -0.000000  -0.000000  -0.000000
     3  N   -0.071060   0.003286  -0.000122   0.000004   0.000000  -0.000000
     4  C    0.519381  -0.035609   0.004211   0.000978  -0.000010   0.000000
     5  N   -0.071730  -0.095457   0.006545  -0.000336   0.000003  -0.000000
     6  N   -0.099033   0.229834  -0.044045   0.003072  -0.000066   0.000017
     7  C    4.997602   0.333080  -0.031885  -0.006841   0.000010   0.000020
     8  N    0.333080   6.879733   0.198367  -0.050434   0.004652   0.000326
     9  C   -0.031885   0.198367   4.624230   0.528605  -0.009200  -0.038405
    10  C   -0.006841  -0.050434   0.528605   4.994830   0.526948  -0.040787
    11  C    0.000010   0.004652  -0.009200   0.526948   4.865416   0.542751
    12  C    0.000020   0.000326  -0.038405  -0.040787   0.542751   4.871764
    13  C   -0.000084   0.004562  -0.010608  -0.042362  -0.024697   0.539695
    14  C    0.007304  -0.058691   0.512379  -0.072106  -0.041554  -0.039292
    15  C    0.000142  -0.000025  -0.000001  -0.000000   0.000000   0.000000
    16  O   -0.000197   0.000003   0.000000  -0.000000  -0.000000   0.000000
    17  H   -0.001576   0.000001   0.000002  -0.000000   0.000000   0.000000
    18  H    0.362557  -0.033986  -0.002034   0.002155   0.000182  -0.000002
    19  H    0.005776  -0.009324  -0.039306   0.354020  -0.035092   0.004295
    20  H   -0.000004  -0.000107   0.003420  -0.037738   0.363803  -0.039543
    21  H   -0.000000   0.000004   0.000474   0.004875  -0.041364   0.366053
    22  H    0.000001  -0.000103   0.003556   0.000707   0.004479  -0.040162
    23  H    0.000226  -0.013936  -0.039352   0.005494   0.000087   0.004507
    24  H    0.000180   0.000000   0.000000   0.000000   0.000000  -0.000000
    25  H    0.002882  -0.000092   0.000003  -0.000000  -0.000000  -0.000000
    26  H   -0.000022   0.000001  -0.000000  -0.000000   0.000000   0.000000
              13         14         15         16         17         18
     1  O   -0.000000   0.000000  -0.058451  -0.043706   0.000945  -0.000000
     2  S   -0.000000   0.000000   0.236279   0.442362  -0.004891  -0.000035
     3  N   -0.000000   0.000001  -0.060506  -0.052437   0.299108  -0.000525
     4  C    0.000006  -0.000397  -0.002131  -0.000050  -0.026194  -0.025783
     5  N   -0.000005   0.000373   0.000020   0.000856   0.001751   0.004062
     6  N    0.000310  -0.000714   0.000007   0.000041  -0.000070   0.003474
     7  C   -0.000084   0.007304   0.000142  -0.000197  -0.001576   0.362557
     8  N    0.004562  -0.058691  -0.000025   0.000003   0.000001  -0.033986
     9  C   -0.010608   0.512379  -0.000001   0.000000   0.000002  -0.002034
    10  C   -0.042362  -0.072106  -0.000000  -0.000000  -0.000000   0.002155
    11  C   -0.024697  -0.041554   0.000000  -0.000000   0.000000   0.000182
    12  C    0.539695  -0.039292   0.000000   0.000000   0.000000  -0.000002
    13  C    4.879165   0.519396   0.000000   0.000000  -0.000000  -0.000004
    14  C    0.519396   5.000522   0.000000  -0.000000   0.000000  -0.000113
    15  C    0.000000   0.000000   5.527358  -0.058396   0.000112   0.000085
    16  O    0.000000  -0.000000  -0.058396   8.275941   0.001303   0.000000
    17  H   -0.000000   0.000000   0.000112   0.001303   0.304043   0.000684
    18  H   -0.000004  -0.000113   0.000085   0.000000   0.000684   0.458388
    19  H    0.000212   0.005256  -0.000000  -0.000000   0.000000   0.001609
    20  H    0.004435   0.000728   0.000000  -0.000000   0.000000  -0.000001
    21  H   -0.041538   0.004688   0.000000   0.000000   0.000000  -0.000000
    22  H    0.364006  -0.037980  -0.000000  -0.000000   0.000000   0.000000
    23  H   -0.038064   0.356581   0.000000   0.000000   0.000000  -0.000010
    24  H   -0.000000  -0.000000   0.344052   0.001840   0.000008   0.000030
    25  H   -0.000000  -0.000000   0.342084  -0.000188   0.000145   0.000117
    26  H    0.000000  -0.000000   0.355119  -0.000108  -0.000007   0.000000
              19         20         21         22         23         24
     1  O   -0.000000   0.000000  -0.000000   0.000000  -0.000000   0.000011
     2  S   -0.000000   0.000000  -0.000000   0.000000  -0.000000  -0.008496
     3  N    0.000000   0.000000  -0.000000   0.000000  -0.000000   0.000066
     4  C    0.000087   0.000000  -0.000000  -0.000000   0.000045   0.000254
     5  N   -0.000007  -0.000000   0.000000   0.000000  -0.000328  -0.000004
     6  N   -0.000087   0.000001   0.000000  -0.000008   0.016806  -0.000000
     7  C    0.005776  -0.000004  -0.000000   0.000001   0.000226   0.000180
     8  N   -0.009324  -0.000107   0.000004  -0.000103  -0.013936   0.000000
     9  C   -0.039306   0.003420   0.000474   0.003556  -0.039352   0.000000
    10  C    0.354020  -0.037738   0.004875   0.000707   0.005494   0.000000
    11  C   -0.035092   0.363803  -0.041364   0.004479   0.000087   0.000000
    12  C    0.004295  -0.039543   0.366053  -0.040162   0.004507  -0.000000
    13  C    0.000212   0.004435  -0.041538   0.364006  -0.038064  -0.000000
    14  C    0.005256   0.000728   0.004688  -0.037980   0.356581  -0.000000
    15  C   -0.000000   0.000000   0.000000  -0.000000   0.000000   0.344052
    16  O   -0.000000  -0.000000   0.000000  -0.000000   0.000000   0.001840
    17  H    0.000000   0.000000   0.000000   0.000000   0.000000   0.000008
    18  H    0.001609  -0.000001  -0.000000   0.000000  -0.000010   0.000030
    19  H    0.542399  -0.005110  -0.000144   0.000013  -0.000129  -0.000000
    20  H   -0.005110   0.550730  -0.005044  -0.000164   0.000013   0.000000
    21  H   -0.000144  -0.005044   0.557234  -0.005129  -0.000134  -0.000000
    22  H    0.000013  -0.000164  -0.005129   0.552279  -0.005156   0.000000
    23  H   -0.000129   0.000013  -0.000134  -0.005156   0.538047  -0.000000
    24  H   -0.000000   0.000000  -0.000000   0.000000  -0.000000   0.471396
    25  H   -0.000000   0.000000  -0.000000  -0.000000  -0.000000  -0.020595
    26  H    0.000000   0.000000   0.000000  -0.000000   0.000000  -0.018021
              25         26
     1  O    0.001787  -0.000408
     2  S   -0.008189  -0.012978
     3  N   -0.002199   0.002226
     4  C    0.002222   0.000014
     5  N   -0.000033  -0.000001
     6  N   -0.000037  -0.000000
     7  C    0.002882  -0.000022
     8  N   -0.000092   0.000001
     9  C    0.000003  -0.000000
    10  C   -0.000000  -0.000000
    11  C   -0.000000   0.000000
    12  C   -0.000000   0.000000
    13  C   -0.000000   0.000000
    14  C   -0.000000  -0.000000
    15  C    0.342084   0.355119
    16  O   -0.000188  -0.000108
    17  H    0.000145  -0.000007
    18  H    0.000117   0.000000
    19  H   -0.000000   0.000000
    20  H    0.000000   0.000000
    21  H   -0.000000   0.000000
    22  H   -0.000000  -0.000000
    23  H   -0.000000   0.000000
    24  H   -0.020595  -0.018021
    25  H    0.472466  -0.019582
    26  H   -0.019582   0.456705
 Mulliken charges:
               1
     1  O   -0.568068
     2  S    1.164162
     3  N   -0.779715
     4  C    0.381320
     5  N   -0.351957
     6  N   -0.106688
     7  C    0.058211
     8  N   -0.356390
     9  C    0.333180
    10  C   -0.171082
    11  C   -0.156350
    12  C   -0.131237
    13  C   -0.154428
    14  C   -0.156382
    15  C   -0.625750
    16  O   -0.567264
    17  H    0.424635
    18  H    0.229148
    19  H    0.175533
    20  H    0.164583
    21  H    0.160026
    22  H    0.163661
    23  H    0.175303
    24  H    0.229279
    25  H    0.229209
    26  H    0.237062
 Sum of Mulliken charges =  -0.00000
 Mulliken charges with hydrogens summed into heavy atoms:
               1
     1  O   -0.568068
     2  S    1.164162
     3  N   -0.355080
     4  C    0.381320
     5  N   -0.351957
     6  N   -0.106688
     7  C    0.287359
     8  N   -0.356390
     9  C    0.333180
    10  C    0.004451
    11  C    0.008233
    12  C    0.028789
    13  C    0.009233
    14  C    0.018921
    15  C    0.069800
    16  O   -0.567264
 Electronic spatial extent (au):  <R**2>=           5475.0737
 Charge=             -0.0000 electrons
 Dipole moment (field-independent basis, Debye):
    X=              7.8450    Y=             10.2913    Z=              1.4112  Tot=             13.0172
 Quadrupole moment (field-independent basis, Debye-Ang):
   XX=           -109.5676   YY=            -97.5213   ZZ=            -95.8743
   XY=            -12.4264   XZ=             -3.2817   YZ=             -3.2321
 Traceless Quadrupole moment (field-independent basis, Debye-Ang):
   XX=             -8.5799   YY=              3.4664   ZZ=              5.1134
   XY=            -12.4264   XZ=             -3.2817   YZ=             -3.2321
 Octapole moment (field-independent basis, Debye-Ang**2):
  XXX=            218.4322  YYY=             37.5487  ZZZ=              3.7069  XYY=              4.3232
  XXY=             47.4682  XXZ=             44.4341  XZZ=            -28.5007  YZZ=             10.8232
  YYZ=              1.0487  XYZ=            -22.6462
 Hexadecapole moment (field-independent basis, Debye-Ang**3):
 XXXX=          -6293.8623 YYYY=           -652.4259 ZZZZ=           -354.4964 XXXY=            -22.1294
 XXXZ=            -33.2817 YYYX=            -26.8498 YYYZ=            -27.0543 ZZZX=            -24.5769
 ZZZY=             -3.9505 XXYY=          -1064.4287 XXZZ=          -1077.1709 YYZZ=           -164.6765
 XXYZ=             -1.5818 YYXZ=              0.1393 ZZXY=            -41.6217
 N-N= 1.185226467823D+03 E-N=-4.987269344870D+03  KE= 1.108363857578D+03
 No NMR shielding tensors so no spin-rotation constants.
 Leave Link  601 at Wed Sep 23 05:19:26 2020, MaxMem=  2147483648 cpu:               0.4 elap:               0.1
 (Enter /prod/apps/gaussian/g16b1/l701.exe)
 ... and contract with generalized density number  0.
 Compute integral first derivatives.
 D1PCM: PCM CHGder 1st derivatives, ID1Alg=3 FixD1E=F DoIter=F DoCFld=F I1PDM=0.
 GePol: Maximum number of non-zero 1st derivatives   =     189
 Leave Link  701 at Wed Sep 23 05:19:28 2020, MaxMem=  2147483648 cpu:               6.6 elap:               1.7
 (Enter /prod/apps/gaussian/g16b1/l702.exe)
 L702 exits ... SP integral derivatives will be done elsewhere.
 Leave Link  702 at Wed Sep 23 05:19:28 2020, MaxMem=  2147483648 cpu:               0.1 elap:               0.0
 (Enter /prod/apps/gaussian/g16b1/l703.exe)
 Integral derivatives from FoFJK, PRISM(SPDF).
 Compute integral first derivatives, UseDBF=F ICtDFT=           0.
 Calling FoFJK, ICntrl=      2127 FMM=F ISym2X=0 I1Cent= 0 IOpClX= 0 NMat=1 NMatS=1 NMatT=0.
 FoFJK:  IHMeth= 1 ICntrl=    2127 DoSepK=F KAlg= 0 I1Cent=           0 FoldK=F
 IRaf=         0 NMat=       1 IRICut=       1 DoRegI=T DoRafI=F ISym2E= 0 IDoP0=0 IntGTp=1.
 FoFCou: FMM=F IPFlag=           0 FMFlag=      100000 FMFlg1=         800
         NFxFlg=           0 DoJE=F BraDBF=F KetDBF=F FulRan=T
         wScrn=  0.000000 ICntrl=      2127 IOpCl=  0 I1Cent=           0 NGrid=           0
         NMat0=    1 NMatS0=      1 NMatT0=    0 NMatD0=    1 NMtDS0=    0 NMtDT0=    0
 Symmetry not used in FoFCou.
 Leave Link  703 at Wed Sep 23 05:19:37 2020, MaxMem=  2147483648 cpu:              38.7 elap:               9.7
 (Enter /prod/apps/gaussian/g16b1/l716.exe)
 Dipole        = 3.08645643D+00 4.04892137D+00 5.55206544D-01
 -------------------------------------------------------------------
 Center     Atomic                   Forces (Hartrees/Bohr)
 Number     Number              X              Y              Z
 -------------------------------------------------------------------
      1        8           0.000404375   -0.000064554    0.000194975
      2       16          -0.000535871    0.000479416   -0.000980068
      3        7          -0.000990073    0.000058631    0.000279651
      4        6           0.000252714   -0.000269135    0.000289781
      5        7           0.000664395   -0.000331367   -0.000124518
      6        7          -0.000559123   -0.000631861   -0.000025833
      7        6           0.000477589    0.000923268    0.000036708
      8        7          -0.001002916    0.000312188   -0.000169862
      9        6           0.000058030    0.000676390    0.000010329
     10        6           0.001028136    0.000298164   -0.000070463
     11        6          -0.000637724   -0.000712740    0.000304965
     12        6           0.000131359    0.001874181   -0.000901253
     13        6           0.001232082   -0.001972343    0.001222981
     14        6          -0.001026155   -0.001232253    0.000137028
     15        6           0.000464869   -0.000503080    0.000107337
     16        8           0.000035502   -0.000439950    0.000355299
     17        1          -0.000021489    0.000213854   -0.000170445
     18        1          -0.000286058   -0.000370712    0.000267796
     19        1           0.000287583    0.000194178   -0.000306479
     20        1           0.000195513    0.000310827   -0.000084288
     21        1           0.000143152    0.000027899    0.000045699
     22        1          -0.000316407    0.000469950   -0.000243460
     23        1           0.000249609    0.000281403   -0.000079141
     24        1          -0.000148116    0.000267459   -0.000052083
     25        1           0.000004727   -0.000005282   -0.000107646
     26        1          -0.000105701    0.000145467    0.000062992
 -------------------------------------------------------------------
 Cartesian Forces:  Max     0.001972343 RMS     0.000567655
 Leave Link  716 at Wed Sep 23 05:19:37 2020, MaxMem=  2147483648 cpu:               0.1 elap:               0.0
 (Enter /prod/apps/gaussian/g16b1/l103.exe)

 GradGradGradGradGradGradGradGradGradGradGradGradGradGradGradGradGradGrad
 Berny optimization.
 FormGI is forming the generalized inverse of G from B-inverse, IUseBI=4.
 GSVD:  received Info=                   1 from GESDD.
 Internal  Forces:  Max     0.001623215 RMS     0.000356377
 Search for a local minimum.
 Step number   1 out of a maximum of  141
 All quantities printed in internal units (Hartrees-Bohrs-Radians)
 RMS Force = .35638D-03 SwitMx=.10000D-02 MixMth= 2
 Mixed Optimization -- En-DIIS/RFO-DIIS
 Second derivative matrix not updated -- first step.
 ITU=  0
     Eigenvalues ---    0.00441   0.01339   0.01366   0.01588   0.01842
     Eigenvalues ---    0.01908   0.02026   0.02140   0.02142   0.02142
     Eigenvalues ---    0.02146   0.02149   0.02152   0.02163   0.02168
     Eigenvalues ---    0.02175   0.02293   0.02326   0.02552   0.05986
     Eigenvalues ---    0.06203   0.08130   0.08341   0.13328   0.13555
     Eigenvalues ---    0.15999   0.15999   0.16000   0.16000   0.16000
     Eigenvalues ---    0.16000   0.16000   0.16000   0.16000   0.18738
     Eigenvalues ---    0.22000   0.22000   0.22831   0.23493   0.23788
     Eigenvalues ---    0.24978   0.24997   0.25000   0.25000   0.25000
     Eigenvalues ---    0.26539   0.34755   0.34860   0.34921   0.35328
     Eigenvalues ---    0.35491   0.35538   0.35596   0.35669   0.36280
     Eigenvalues ---    0.36389   0.41771   0.42128   0.42248   0.43996
     Eigenvalues ---    0.44350   0.45564   0.46209   0.46342   0.46444
     Eigenvalues ---    0.46761   0.47662   0.52634   0.53143   0.62935
     Eigenvalues ---    0.88116   0.88957
 RFO step:  Lambda=-9.07711722D-05 EMin= 4.40506481D-03
 Linear search not attempted -- first point.
 Iteration  1 RMS(Cart)=  0.01901271 RMS(Int)=  0.00009906
 Iteration  2 RMS(Cart)=  0.00015411 RMS(Int)=  0.00000193
 Iteration  3 RMS(Cart)=  0.00000001 RMS(Int)=  0.00000193
 ITry= 1 IFail=0 DXMaxC= 7.33D-02 DCOld= 1.00D+10 DXMaxT= 3.00D-01 DXLimC= 3.00D+00 Rises=F
 Variable       Old X    -DE/DX   Delta X   Delta X   Delta X     New X
                                 (Linear)    (Quad)   (Total)
    R1        2.77514  -0.00045   0.00000  -0.00051  -0.00051   2.77462
    R2        3.20646  -0.00037   0.00000  -0.00103  -0.00103   3.20543
    R3        3.39148   0.00000   0.00000   0.00000   0.00000   3.39148
    R4        2.77117   0.00055   0.00000   0.00062   0.00062   2.77180
    R5        2.66038   0.00094   0.00000   0.00212   0.00212   2.66250
    R6        1.93159   0.00027   0.00000   0.00061   0.00061   1.93220
    R7        2.57432   0.00034   0.00000   0.00060   0.00060   2.57492
    R8        2.60676   0.00063   0.00000   0.00135   0.00135   2.60812
    R9        2.46820  -0.00048   0.00000  -0.00080  -0.00080   2.46740
   R10        2.56136   0.00065   0.00000   0.00118   0.00118   2.56254
   R11        2.56186   0.00026   0.00000   0.00055   0.00055   2.56241
   R12        2.03477  -0.00040   0.00000  -0.00109  -0.00109   2.03368
   R13        2.69215   0.00135   0.00000   0.00322   0.00322   2.69538
   R14        2.63805   0.00085   0.00000   0.00177   0.00177   2.63982
   R15        2.63838   0.00114   0.00000   0.00261   0.00261   2.64100
   R16        2.63548  -0.00053   0.00000  -0.00136  -0.00136   2.63412
   R17        2.04718   0.00011   0.00000   0.00031   0.00031   2.04749
   R18        2.63946  -0.00045   0.00000  -0.00112  -0.00112   2.63834
   R19        2.04811   0.00037   0.00000   0.00105   0.00105   2.04916
   R20        2.63600   0.00162   0.00000   0.00357   0.00357   2.63957
   R21        2.04884   0.00015   0.00000   0.00043   0.00043   2.04927
   R22        2.63124   0.00131   0.00000   0.00301   0.00301   2.63425
   R23        2.05145  -0.00062   0.00000  -0.00174  -0.00174   2.04971
   R24        2.04603  -0.00037   0.00000  -0.00104  -0.00104   2.04499
   R25        2.05803   0.00027   0.00000   0.00077   0.00077   2.05880
   R26        2.05902  -0.00003   0.00000  -0.00010  -0.00010   2.05892
   R27        2.06074   0.00011   0.00000   0.00032   0.00032   2.06106
    A1        1.83075   0.00016   0.00000   0.00086   0.00086   1.83161
    A2        1.89751   0.00019   0.00000   0.00095   0.00095   1.89846
    A3        2.09243  -0.00001   0.00000   0.00084   0.00084   2.09327
    A4        1.87121  -0.00060   0.00000  -0.00284  -0.00284   1.86837
    A5        1.86742   0.00026   0.00000   0.00076   0.00076   1.86818
    A6        1.89287  -0.00008   0.00000  -0.00101  -0.00101   1.89185
    A7        2.09159  -0.00001   0.00000  -0.00033  -0.00033   2.09126
    A8        1.92535   0.00002   0.00000  -0.00035  -0.00036   1.92499
    A9        1.99442  -0.00005   0.00000  -0.00091  -0.00091   1.99350
   A10        2.12275   0.00007   0.00000   0.00022   0.00022   2.12298
   A11        2.26143  -0.00008   0.00000  -0.00040  -0.00039   2.26104
   A12        1.89826   0.00001   0.00000   0.00013   0.00013   1.89838
   A13        1.89843   0.00010   0.00000   0.00010   0.00010   1.89853
   A14        1.88100   0.00012   0.00000   0.00022   0.00022   1.88121
   A15        1.81864  -0.00020   0.00000  -0.00054  -0.00055   1.81809
   A16        2.30884  -0.00009   0.00000  -0.00091  -0.00091   2.30792
   A17        2.15570   0.00029   0.00000   0.00145   0.00145   2.15715
   A18        1.92833  -0.00004   0.00000  -0.00001  -0.00001   1.92832
   A19        2.10835  -0.00057   0.00000  -0.00236  -0.00235   2.10600
   A20        2.24650   0.00061   0.00000   0.00236   0.00236   2.24887
   A21        2.08779   0.00072   0.00000   0.00283   0.00283   2.09062
   A22        2.08253  -0.00047   0.00000  -0.00192  -0.00193   2.08061
   A23        2.11286  -0.00026   0.00000  -0.00089  -0.00090   2.11196
   A24        2.08012   0.00029   0.00000   0.00064   0.00064   2.08076
   A25        2.10201   0.00022   0.00000   0.00195   0.00194   2.10395
   A26        2.10100  -0.00051   0.00000  -0.00263  -0.00263   2.09836
   A27        2.10037   0.00043   0.00000   0.00114   0.00114   2.10151
   A28        2.08217  -0.00017   0.00000  -0.00026  -0.00026   2.08190
   A29        2.10062  -0.00027   0.00000  -0.00090  -0.00090   2.09972
   A30        2.08991   0.00014   0.00000   0.00045   0.00045   2.09036
   A31        2.09580  -0.00007   0.00000  -0.00021  -0.00021   2.09559
   A32        2.09747  -0.00007   0.00000  -0.00023  -0.00023   2.09724
   A33        2.10461  -0.00049   0.00000  -0.00161  -0.00161   2.10300
   A34        2.09749   0.00020   0.00000   0.00049   0.00049   2.09798
   A35        2.08104   0.00030   0.00000   0.00113   0.00113   2.08217
   A36        2.07842  -0.00011   0.00000   0.00029   0.00029   2.07871
   A37        2.08748   0.00016   0.00000   0.00053   0.00053   2.08801
   A38        2.11728  -0.00005   0.00000  -0.00083  -0.00083   2.11645
   A39        1.89588   0.00002   0.00000  -0.00016  -0.00016   1.89572
   A40        1.89941  -0.00009   0.00000  -0.00033  -0.00033   1.89908
   A41        1.86638   0.00015   0.00000   0.00092   0.00092   1.86730
   A42        1.93986   0.00004   0.00000   0.00025   0.00025   1.94011
   A43        1.93344  -0.00015   0.00000  -0.00147  -0.00147   1.93197
   A44        1.92680   0.00004   0.00000   0.00083   0.00083   1.92763
    D1       -3.10411  -0.00017   0.00000  -0.00667  -0.00667  -3.11078
    D2        0.80783  -0.00010   0.00000  -0.00440  -0.00440   0.80343
    D3        1.16373  -0.00020   0.00000  -0.00690  -0.00690   1.15684
    D4       -1.20751  -0.00013   0.00000  -0.00463  -0.00463  -1.21214
    D5       -0.86399   0.00006   0.00000  -0.00470  -0.00470  -0.86869
    D6        3.04795   0.00013   0.00000  -0.00243  -0.00243   3.04552
    D7       -0.89937   0.00008   0.00000   0.00597   0.00597  -0.89341
    D8       -3.01366   0.00008   0.00000   0.00596   0.00596  -3.00770
    D9        1.18806  -0.00000   0.00000   0.00465   0.00465   1.19271
   D10        1.07106   0.00006   0.00000   0.00601   0.00600   1.07707
   D11       -1.04323   0.00006   0.00000   0.00600   0.00600  -1.03722
   D12       -3.12469  -0.00002   0.00000   0.00469   0.00468  -3.12001
   D13        3.08188   0.00001   0.00000   0.00492   0.00493   3.08681
   D14        0.96759   0.00001   0.00000   0.00492   0.00492   0.97252
   D15       -1.11387  -0.00007   0.00000   0.00360   0.00360  -1.11027
   D16        1.38060   0.00004   0.00000   0.00231   0.00231   1.38291
   D17       -1.80736   0.00002   0.00000   0.00098   0.00098  -1.80639
   D18       -2.55961   0.00000   0.00000   0.00019   0.00019  -2.55942
   D19        0.53561  -0.00002   0.00000  -0.00114  -0.00114   0.53447
   D20        3.10649   0.00005   0.00000   0.00219   0.00219   3.10867
   D21        0.00264   0.00007   0.00000   0.00328   0.00328   0.00593
   D22       -3.09351   0.00004   0.00000   0.00183   0.00183  -3.09168
   D23        0.05285   0.00011   0.00000   0.00492   0.00492   0.05777
   D24        0.00638   0.00001   0.00000   0.00064   0.00064   0.00702
   D25       -3.13044   0.00009   0.00000   0.00373   0.00373  -3.12672
   D26       -0.01068  -0.00013   0.00000  -0.00585  -0.00585  -0.01653
   D27        0.01520   0.00014   0.00000   0.00644   0.00644   0.02163
   D28       -3.12790   0.00013   0.00000   0.00575   0.00575  -3.12214
   D29       -0.01305  -0.00009   0.00000  -0.00424  -0.00424  -0.01729
   D30        3.13019  -0.00007   0.00000  -0.00348  -0.00348   3.12672
   D31        3.12431  -0.00016   0.00000  -0.00699  -0.00699   3.11732
   D32       -0.01563  -0.00014   0.00000  -0.00623  -0.00623  -0.02186
   D33        2.76399  -0.00038   0.00000  -0.02672  -0.02672   2.73727
   D34       -0.38136  -0.00027   0.00000  -0.02100  -0.02100  -0.40236
   D35       -0.37940  -0.00040   0.00000  -0.02755  -0.02755  -0.40695
   D36        2.75843  -0.00029   0.00000  -0.02183  -0.02183   2.73660
   D37        3.13445   0.00001   0.00000   0.00081   0.00081   3.13527
   D38       -0.01922  -0.00008   0.00000  -0.00332  -0.00332  -0.02253
   D39       -0.00331  -0.00010   0.00000  -0.00501  -0.00501  -0.00832
   D40        3.12620  -0.00019   0.00000  -0.00913  -0.00914   3.11706
   D41        3.13863   0.00000   0.00000  -0.00013  -0.00013   3.13850
   D42       -0.00535  -0.00005   0.00000  -0.00274  -0.00273  -0.00808
   D43       -0.00678   0.00012   0.00000   0.00568   0.00567  -0.00111
   D44        3.13243   0.00006   0.00000   0.00307   0.00307   3.13550
   D45        0.00843   0.00005   0.00000   0.00226   0.00226   0.01069
   D46       -3.14115  -0.00001   0.00000  -0.00032  -0.00031  -3.14147
   D47       -3.12109   0.00013   0.00000   0.00635   0.00634  -3.11474
   D48        0.01251   0.00008   0.00000   0.00377   0.00377   0.01628
   D49       -0.00342  -0.00001   0.00000  -0.00025  -0.00025  -0.00368
   D50        3.13704  -0.00000   0.00000  -0.00025  -0.00025   3.13680
   D51       -3.13694   0.00005   0.00000   0.00234   0.00234  -3.13460
   D52        0.00353   0.00005   0.00000   0.00235   0.00235   0.00588
   D53       -0.00688   0.00002   0.00000   0.00095   0.00095  -0.00593
   D54       -3.13824  -0.00000   0.00000  -0.00006  -0.00006  -3.13830
   D55        3.13584   0.00002   0.00000   0.00094   0.00094   3.13678
   D56        0.00448  -0.00000   0.00000  -0.00007  -0.00007   0.00441
   D57        0.01188  -0.00008   0.00000  -0.00362  -0.00362   0.00827
   D58       -3.12728  -0.00002   0.00000  -0.00097  -0.00097  -3.12825
   D59       -3.13985  -0.00006   0.00000  -0.00262  -0.00262   3.14072
   D60        0.00417  -0.00000   0.00000   0.00003   0.00003   0.00420
         Item               Value     Threshold  Converged?
 Maximum Force            0.001623     0.000450     NO 
 RMS     Force            0.000356     0.000300     NO 
 Maximum Displacement     0.073332     0.001800     NO 
 RMS     Displacement     0.019017     0.001200     NO 
 Predicted change in Energy=-4.554423D-05
 Lowest energy point so far.  Saving SCF results.
 GradGradGradGradGradGradGradGradGradGradGradGradGradGradGradGradGradGrad

 Leave Link  103 at Wed Sep 23 05:19:37 2020, MaxMem=  2147483648 cpu:               0.1 elap:               0.0
 (Enter /prod/apps/gaussian/g16b1/l202.exe)
                          Input orientation:                          
 ---------------------------------------------------------------------
 Center     Atomic      Atomic             Coordinates (Angstroms)
 Number     Number       Type             X           Y           Z
 ---------------------------------------------------------------------
      1          8           0       -4.719341    0.513686   -0.466296
      2         16           0       -3.475106    0.103036    0.196318
      3          7           0       -2.290450    0.172876   -1.015681
      4          6           0       -0.964320   -0.201271   -0.721593
      5          7           0       -0.587074   -1.509265   -0.662559
      6          7           0        0.693475   -1.566567   -0.414083
      7          6           0        0.144830    0.591014   -0.505031
      8          7           0        1.156752   -0.294784   -0.331751
      9          6           0        2.538798   -0.038249   -0.089748
     10          6           0        3.095653    1.183504   -0.475302
     11          6           0        4.445755    1.424741   -0.226238
     12          6           0        5.235541    0.452028    0.389636
     13          6           0        4.667686   -0.768525    0.762251
     14          6           0        3.316385   -1.020179    0.530197
     15          6           0       -3.042140    1.335493    1.426974
     16          8           0       -3.378812   -1.223130    0.815533
     17          1           0       -2.373127    1.045251   -1.542544
     18          1           0        0.273408    1.658484   -0.458822
     19          1           0        2.491323    1.930645   -0.975806
     20          1           0        4.879088    2.372813   -0.524972
[...]
 Alpha virt. eigenvalues --    0.12928   0.13229   0.14010   0.14179   0.14277
 Alpha virt. eigenvalues --    0.14603   0.14769   0.15089   0.15700   0.15946
 Alpha virt. eigenvalues --    0.16290   0.16599   0.16866   0.17281   0.17335
 Alpha virt. eigenvalues --    0.17943   0.18144   0.19061   0.19217   0.19426
 Alpha virt. eigenvalues --    0.19807   0.20157   0.20908   0.21180   0.22586
 Alpha virt. eigenvalues --    0.22848   0.23778   0.24301   0.24837   0.24969
 Alpha virt. eigenvalues --    0.25933   0.26308   0.26795   0.26920   0.27371
 Alpha virt. eigenvalues --    0.27886   0.28758   0.29477   0.29882   0.29917
 Alpha virt. eigenvalues --    0.30032   0.30776   0.31110   0.31290   0.31885
 Alpha virt. eigenvalues --    0.32228   0.32670   0.32797   0.33552   0.33927
 Alpha virt. eigenvalues --    0.34441   0.34944   0.35087   0.35562   0.35869
 Alpha virt. eigenvalues --    0.36127   0.36380   0.36878   0.37449   0.37692
 Alpha virt. eigenvalues --    0.38369   0.38433   0.38943   0.39318   0.39896
 Alpha virt. eigenvalues --    0.40144   0.40424   0.41317   0.41589   0.41998
 Alpha virt. eigenvalues --    0.42439   0.42801   0.43221   0.43531   0.44287
 Alpha virt. eigenvalues --    0.44660   0.44889   0.45793   0.45978   0.46335
 Alpha virt. eigenvalues --    0.46955   0.47714   0.48599   0.49247   0.49748
 Alpha virt. eigenvalues --    0.49951   0.50887   0.52054   0.52225   0.52827
 Alpha virt. eigenvalues --    0.53873   0.54486   0.54895   0.55453   0.55910
 Alpha virt. eigenvalues --    0.56708   0.57141   0.57904   0.58720   0.59110
 Alpha virt. eigenvalues --    0.59463   0.59819   0.60130   0.60332   0.61025
 Alpha virt. eigenvalues --    0.61685   0.62889   0.63381   0.64083   0.64335
 Alpha virt. eigenvalues --    0.64797   0.65052   0.65797   0.66044   0.66830
 Alpha virt. eigenvalues --    0.67195   0.67436   0.68212   0.68674   0.69290
 Alpha virt. eigenvalues --    0.69666   0.70385   0.71245   0.72107   0.72516
 Alpha virt. eigenvalues --    0.72856   0.73986   0.74623   0.75101   0.75601
 Alpha virt. eigenvalues --    0.75902   0.75995   0.76852   0.77027   0.77569
 Alpha virt. eigenvalues --    0.78927   0.79297   0.80427   0.81128   0.82496
 Alpha virt. eigenvalues --    0.83519   0.83884   0.84628   0.84663   0.85856
 Alpha virt. eigenvalues --    0.86404   0.87354   0.88059   0.88538   0.88859
 Alpha virt. eigenvalues --    0.89308   0.90259   0.90695   0.91508   0.91717
 Alpha virt. eigenvalues --    0.92597   0.93021   0.93342   0.93601   0.94249
 Alpha virt. eigenvalues --    0.95452   0.96027   0.96887   0.98002   0.99276
 Alpha virt. eigenvalues --    0.99403   0.99575   1.00556   1.01161   1.01667
 Alpha virt. eigenvalues --    1.02244   1.02763   1.04416   1.05019   1.05632
 Alpha virt. eigenvalues --    1.06179   1.06388   1.07651   1.08392   1.10232
 Alpha virt. eigenvalues --    1.10289   1.11942   1.13010   1.13318   1.13658
 Alpha virt. eigenvalues --    1.14418   1.15184   1.16131   1.16528   1.17220
 Alpha virt. eigenvalues --    1.19158   1.19288   1.20733   1.21738   1.23001
 Alpha virt. eigenvalues --    1.23208   1.23877   1.27406   1.27499   1.28618
 Alpha virt. eigenvalues --    1.29852   1.30737   1.31029   1.33020   1.34686
 Alpha virt. eigenvalues --    1.36512   1.37649   1.38848   1.39678   1.41262
 Alpha virt. eigenvalues --    1.41835   1.42272   1.43342   1.44585   1.45888
 Alpha virt. eigenvalues --    1.47043   1.47338   1.47879   1.49891   1.50283
 Alpha virt. eigenvalues --    1.51673   1.51900   1.53224   1.54680   1.55441
 Alpha virt. eigenvalues --    1.56559   1.56973   1.57853   1.58148   1.60487
 Alpha virt. eigenvalues --    1.60906   1.61907   1.62749   1.63281   1.64196
 Alpha virt. eigenvalues --    1.65911   1.67169   1.67238   1.67863   1.69227
 Alpha virt. eigenvalues --    1.70308   1.70714   1.70957   1.71567   1.73210
 Alpha virt. eigenvalues --    1.74242   1.75176   1.77057   1.78027   1.79094
 Alpha virt. eigenvalues --    1.80032   1.81304   1.81722   1.82588   1.83896
 Alpha virt. eigenvalues --    1.85056   1.86318   1.87989   1.89077   1.89456
 Alpha virt. eigenvalues --    1.90599   1.92544   1.92905   1.93764   1.93992
 Alpha virt. eigenvalues --    1.95308   1.95893   1.96885   1.97812   1.98827
 Alpha virt. eigenvalues --    1.99021   2.00925   2.02251   2.03136   2.04807
 Alpha virt. eigenvalues --    2.06696   2.07745   2.09168   2.10795   2.11180
 Alpha virt. eigenvalues --    2.11609   2.14446   2.15682   2.16175   2.17706
 Alpha virt. eigenvalues --    2.18234   2.19593   2.19848   2.20297   2.22293
 Alpha virt. eigenvalues --    2.22766   2.23604   2.24134   2.25997   2.27116
 Alpha virt. eigenvalues --    2.29814   2.30564   2.32232   2.32639   2.33970
 Alpha virt. eigenvalues --    2.34396   2.35210   2.36421   2.36718   2.37289
 Alpha virt. eigenvalues --    2.37974   2.40726   2.41527   2.42229   2.42860
 Alpha virt. eigenvalues --    2.43926   2.47613   2.48510   2.50760   2.51332
 Alpha virt. eigenvalues --    2.53665   2.55901   2.57701   2.58227   2.60311
 Alpha virt. eigenvalues --    2.61701   2.63752   2.65437   2.66581   2.69568
 Alpha virt. eigenvalues --    2.71852   2.72397   2.74736   2.76848   2.79850
 Alpha virt. eigenvalues --    2.80389   2.82011   2.84488   2.85475   2.87014
 Alpha virt. eigenvalues --    2.87486   2.88855   2.89480   2.93368   2.95090
 Alpha virt. eigenvalues --    2.96996   2.97918   2.99759   3.01562   3.02755
 Alpha virt. eigenvalues --    3.03821   3.06473   3.11476   3.12132   3.12916
 Alpha virt. eigenvalues --    3.14041   3.16478   3.20600   3.23488   3.29111
 Alpha virt. eigenvalues --    3.31409   3.34947   3.37392   3.39643   3.43724
 Alpha virt. eigenvalues --    3.54006   3.56644   3.60910   3.64620   3.70746
 Alpha virt. eigenvalues --    3.72057   3.73272   3.74924   3.76663   3.79187
 Alpha virt. eigenvalues --    3.80324   3.80913   3.82861   3.85561   3.88968
 Alpha virt. eigenvalues --    3.92960   4.01183   4.25307   4.34762   4.87158
          Condensed to atoms (all electrons):
               1          2          3          4          5          6
     1  O    9.140476  -0.088038  -0.090914   0.197630  -0.029384  -0.001733
     2  S   -0.088038  13.445454   0.528653  -1.392114   0.209592  -0.007252
     3  N   -0.090914   0.528653   8.148039  -1.646569   0.159040  -0.162343
     4  C    0.197630  -1.392114  -1.646569  13.550952  -1.241274   0.775526
     5  N   -0.029384   0.209592   0.159040  -1.241274   8.653623  -0.800614
     6  N   -0.001733  -0.007252  -0.162343   0.775526  -0.800614   8.926142
     7  C   -0.053716   0.518528   0.784954  -5.717789   0.924717  -0.912255
     8  N    0.001831   0.027234  -0.017912  -0.132481  -0.073721  -0.349827
     9  C    0.004132  -0.038776   0.002131   0.589977  -0.015632  -0.331807
    10  C   -0.001101   0.014554  -0.004720  -0.158975   0.061606  -0.070599
    11  C   -0.000048   0.000152  -0.003913   0.127841   0.012033   0.003003
    12  C   -0.000002   0.000214  -0.000636  -0.015435  -0.010955   0.013744
    13  C    0.000038  -0.002100  -0.001533   0.021141  -0.009581  -0.005697
    14  C    0.000250  -0.001360   0.001193  -0.130240  -0.098137   0.448923
    15  C   -0.029980   0.418369  -0.000675   0.066004  -0.025769  -0.009615
    16  O    0.023987  -0.073281  -0.090099   0.295375  -0.072270  -0.017662
    17  H    0.025562  -0.096751   0.401610  -0.015469   0.007905   0.015723
    18  H   -0.002772   0.003159  -0.128624   0.286738  -0.071815  -0.067009
    19  H    0.000016  -0.000781  -0.001205  -0.002426   0.000169  -0.027462
    20  H    0.000001  -0.000019   0.000005   0.002247  -0.000381   0.001651
    21  H    0.000000  -0.000004  -0.000022  -0.000667  -0.000114   0.000978
    22  H    0.000001  -0.000064  -0.000060   0.001287   0.000551  -0.002096
    23  H    0.000051  -0.000608  -0.001255   0.012888  -0.006629   0.010773
    24  H    0.021520   0.050623  -0.048561  -0.093266   0.005944   0.000173
    25  H    0.014201  -0.105011  -0.003848   0.004059  -0.005277   0.001606
    26  H   -0.000822  -0.002754   0.016709  -0.023774   0.006339   0.001659
               7          8          9         10         11         12
     1  O   -0.053716   0.001831   0.004132  -0.001101  -0.000048  -0.000002
     2  S    0.518528   0.027234  -0.038776   0.014554   0.000152   0.000214
     3  N    0.784954  -0.017912   0.002131  -0.004720  -0.003913  -0.000636
     4  C   -5.717789  -0.132481   0.589977  -0.158975   0.127841  -0.015435
     5  N    0.924717  -0.073721  -0.015632   0.061606   0.012033  -0.010955
     6  N   -0.912255  -0.349827  -0.331807  -0.070599   0.003003   0.013744
     7  C   11.340954   0.051982  -1.719420   0.600180  -0.389814   0.062042
     8  N    0.051982   8.960209  -0.834415   0.472756  -0.368272   0.349591
     9  C   -1.719420  -0.834415  14.291513  -5.598596   2.966129  -3.525985
    10  C    0.600180   0.472756  -5.598596  12.583299  -3.702869   3.121381
    11  C   -0.389814  -0.368272   2.966129  -3.702869  10.097910  -3.015083
    12  C    0.062042   0.349591  -3.525985   3.121381  -3.015083   8.890536
    13  C    0.029481  -0.239062   2.633729  -3.280429   2.910188  -2.865266
    14  C    0.073516   0.053251  -4.911259   2.415892  -3.175579   2.833632
    15  C   -0.034294   0.008124   0.002535   0.002119  -0.002214   0.000684
    16  O   -0.079088   0.003017   0.006545  -0.002053   0.000003  -0.000069
    17  H   -0.093829   0.010592   0.009812  -0.003832  -0.000211  -0.000265
    18  H   -0.577749   0.116025   0.159010   0.014029   0.079865  -0.002953
    19  H    0.084333  -0.194180   0.859444  -1.022519   0.180434  -0.184384
    20  H    0.003822   0.002585  -0.122272   0.637852  -0.756628   0.291139
    21  H    0.000287  -0.002515   0.115221  -0.173781   0.362037  -0.634295
    22  H   -0.003123  -0.007346  -0.110681   0.121306  -0.210409   0.287898
    23  H   -0.021713  -0.203121   0.668769  -0.106218   0.120846  -0.173241
    24  H    0.027834   0.006139   0.003597   0.000430  -0.000046   0.000173
    25  H   -0.013956   0.002300   0.021904  -0.009699   0.002518  -0.001912
    26  H    0.020384  -0.002999  -0.003825   0.001114  -0.000350   0.000121
              13         14         15         16         17         18
     1  O    0.000038   0.000250  -0.029980   0.023987   0.025562  -0.002772
     2  S   -0.002100  -0.001360   0.418369  -0.073281  -0.096751   0.003159
     3  N   -0.001533   0.001193  -0.000675  -0.090099   0.401610  -0.128624
     4  C    0.021141  -0.130240   0.066004   0.295375  -0.015469   0.286738
     5  N   -0.009581  -0.098137  -0.025769  -0.072270   0.007905  -0.071815
     6  N   -0.005697   0.448923  -0.009615  -0.017662   0.015723  -0.067009
     7  C    0.029481   0.073516  -0.034294  -0.079088  -0.093829  -0.577749
     8  N   -0.239062   0.053251   0.008124   0.003017   0.010592   0.116025
     9  C    2.633729  -4.911259   0.002535   0.006545   0.009812   0.159010
    10  C   -3.280429   2.415892   0.002119  -0.002053  -0.003832   0.014029
    11  C    2.910188  -3.175579  -0.002214   0.000003  -0.000211   0.079865
    12  C   -2.865266   2.833632   0.000684  -0.000069  -0.000265  -0.002953
    13  C    9.547059  -3.237511  -0.000705   0.000158   0.000095  -0.006294
    14  C   -3.237511  11.913631  -0.000746  -0.000309  -0.000039  -0.135796
    15  C   -0.000705  -0.000746   4.625190  -0.025076  -0.023576  -0.000661
    16  O    0.000158  -0.000309  -0.025076   9.100754   0.004413  -0.000702
    17  H    0.000095  -0.000039  -0.023576   0.004413   0.793916   0.009088
    18  H   -0.006294  -0.135796  -0.000661  -0.000702   0.009088   1.894272
    19  H    0.127801  -0.129839   0.000330   0.000020   0.001336  -0.075562
    20  H   -0.224345   0.105035  -0.000079   0.000003  -0.000017   0.002823
    21  H    0.399951  -0.114760   0.000022  -0.000002  -0.000006   0.000120
    22  H   -0.688068   0.567368  -0.000043   0.000003  -0.000000  -0.000123
    23  H    0.314890  -0.902375   0.000613   0.000015  -0.000133  -0.001079
    24  H   -0.000310   0.000211   0.291064   0.005468   0.014857   0.000891
    25  H    0.002787  -0.003231   0.324712   0.046870  -0.001560  -0.004841
    26  H   -0.000132   0.000473   0.334275   0.001442  -0.001481   0.002627
              19         20         21         22         23         24
     1  O    0.000016   0.000001   0.000000   0.000001   0.000051   0.021520
     2  S   -0.000781  -0.000019  -0.000004  -0.000064  -0.000608   0.050623
     3  N   -0.001205   0.000005  -0.000022  -0.000060  -0.001255  -0.048561
     4  C   -0.002426   0.002247  -0.000667   0.001287   0.012888  -0.093266
     5  N    0.000169  -0.000381  -0.000114   0.000551  -0.006629   0.005944
     6  N   -0.027462   0.001651   0.000978  -0.002096   0.010773   0.000173
     7  C    0.084333   0.003822   0.000287  -0.003123  -0.021713   0.027834
     8  N   -0.194180   0.002585  -0.002515  -0.007346  -0.203121   0.006139
     9  C    0.859444  -0.122272   0.115221  -0.110681   0.668769   0.003597
    10  C   -1.022519   0.637852  -0.173781   0.121306  -0.106218   0.000430
    11  C    0.180434  -0.756628   0.362037  -0.210409   0.120846  -0.000046
    12  C   -0.184384   0.291139  -0.634295   0.287898  -0.173241   0.000173
    13  C    0.127801  -0.224345   0.399951  -0.688068   0.314890  -0.000310
    14  C   -0.129839   0.105035  -0.114760   0.567368  -0.902375   0.000211
    15  C    0.000330  -0.000079   0.000022  -0.000043   0.000613   0.291064
    16  O    0.000020   0.000003  -0.000002   0.000003   0.000015   0.005468
    17  H    0.001336  -0.000017  -0.000006  -0.000000  -0.000133   0.014857
    18  H   -0.075562   0.002823   0.000120  -0.000123  -0.001079   0.000891
    19  H    2.144313  -0.084209  -0.014967   0.010226  -0.018423   0.000211
    20  H   -0.084209   1.640485  -0.055838  -0.017505   0.009253  -0.000020
    21  H   -0.014967  -0.055838   1.632604  -0.059298  -0.011422   0.000001
    22  H    0.010226  -0.017505  -0.059298   1.617612  -0.082164  -0.000014
    23  H   -0.018423   0.009253  -0.011422  -0.082164   1.918152   0.000203
    24  H    0.000211  -0.000020   0.000001  -0.000014   0.000203   0.866399
    25  H   -0.000194   0.000115  -0.000020   0.000100  -0.000863  -0.068211
    26  H    0.000050  -0.000016   0.000004  -0.000007  -0.000010  -0.107870
              25         26
     1  O    0.014201  -0.000822
     2  S   -0.105011  -0.002754
     3  N   -0.003848   0.016709
     4  C    0.004059  -0.023774
     5  N   -0.005277   0.006339
     6  N    0.001606   0.001659
     7  C   -0.013956   0.020384
     8  N    0.002300  -0.002999
     9  C    0.021904  -0.003825
    10  C   -0.009699   0.001114
    11  C    0.002518  -0.000350
    12  C   -0.001912   0.000121
    13  C    0.002787  -0.000132
    14  C   -0.003231   0.000473
    15  C    0.324712   0.334275
    16  O    0.046870   0.001442
    17  H   -0.001560  -0.001481
    18  H   -0.004841   0.002627
    19  H   -0.000194   0.000050
    20  H    0.000115  -0.000016
    21  H   -0.000020   0.000004
    22  H    0.000100  -0.000007
    23  H   -0.000863  -0.000010
    24  H   -0.068211  -0.107870
    25  H    0.870511  -0.102528
    26  H   -0.102528   0.841672
 Mulliken charges:
               1
     1  O   -1.131185
     2  S    2.592382
     3  N   -0.839444
     4  C    0.638812
     5  N   -0.579967
     6  N   -0.433932
     7  C    1.093731
     8  N   -0.639785
     9  C    0.878224
    10  C    0.088875
    11  C    0.762476
    12  C    0.579325
    13  C    0.573715
    14  C    0.427807
    15  C    0.079394
    16  O   -1.127463
    17  H   -0.057740
    18  H   -0.492669
    19  H   -0.652534
    20  H   -0.435684
    21  H   -0.443515
    22  H   -0.425352
    23  H   -0.527198
    24  H    0.022559
    25  H    0.029468
    26  H    0.019699
 Sum of Mulliken charges =  -0.00000
 Mulliken charges with hydrogens summed into heavy atoms:
               1
     1  O   -1.131185
     2  S    2.592382
     3  N   -0.897184
     4  C    0.638812
     5  N   -0.579967
     6  N   -0.433932
     7  C    0.601063
     8  N   -0.639785
     9  C    0.878224
    10  C   -0.563659
    11  C    0.326792
    12  C    0.135810
    13  C    0.148363
    14  C   -0.099391
    15  C    0.151120
    16  O   -1.127463
 Electronic spatial extent (au):  <R**2>=           5484.1309
 Charge=             -0.0000 electrons
 Dipole moment (field-independent basis, Debye):
    X=             -6.8156    Y=             -7.3423    Z=              1.9864  Tot=             10.2131
 Quadrupole moment (field-independent basis, Debye-Ang):
   XX=           -112.6614   YY=           -100.2478   ZZ=            -99.7318
   XY=            -10.3231   XZ=              3.9510   YZ=              3.2082
 Traceless Quadrupole moment (field-independent basis, Debye-Ang):
   XX=             -8.4478   YY=              3.9659   ZZ=              4.4819
   XY=            -10.3231   XZ=              3.9510   YZ=              3.2082
 Octapole moment (field-independent basis, Debye-Ang**2):
  XXX=           -190.6628  YYY=            -26.0421  ZZZ=              6.3507  XYY=             -3.5781
  XXY=            -30.3995  XXZ=             49.3389  XZZ=             34.2104  YZZ=             -7.4533
  YYZ=              0.7435  XYZ=            -26.2422
 Hexadecapole moment (field-independent basis, Debye-Ang**3):
 XXXX=          -6520.2913 YYYY=           -652.4837 ZZZZ=           -403.9847 XXXY=              9.3188
 XXXZ=             33.0648 YYYX=            -28.3082 YYYZ=             29.6463 ZZZX=             34.7867
 ZZZY=              3.6929 XXYY=          -1120.5771 XXZZ=          -1118.9387 YYZZ=           -174.1808
 XXYZ=             12.5575 YYXZ=             -2.1240 ZZXY=            -40.4379
 N-N= 1.184835871418D+03 E-N=-4.984756598714D+03  KE= 1.110227508273D+03
 Leave Link  601 at Wed Sep 23 05:58:12 2020, MaxMem=   262144000 cpu:               0.4 elap:               0.1
 (Enter /prod/apps/gaussian/g16b1/l9999.exe)
 1\1\GINC-PIRINEUS12\SP\RMP2-FC\Aug-CC-pVDZ\C9H10N4O2S1\UBAFAR01\23-Sep
 -2020\0\\#p mp2/aug-cc-pVDZ scf=(MaxCycle=2000,NoVarAcc,NoIncFock) max
 disk=120GB geom=allcheck\\SM44_m0.n.3.pdb.xyz\\0,1\O,0,-4.7179491899,0
 .5301746533,-0.4571914983\S,0,-3.472855086,0.0984723729,0.1899043309\N
 ,0,-2.2901827076,0.2111862493,-1.020296839\C,0,-0.9630263495,-0.172206
 7483,-0.7417189019\N,0,-0.5858595008,-1.4814886966,-0.7294437088\N,0,0
 .6952409131,-1.5486238224,-0.4865214452\C,0,0.1467574622,0.6116727672,
 -0.497634728\N,0,1.1573767507,-0.2800281379,-0.3549329604\C,0,2.538783
 2396,-0.0310776569,-0.1026316581\C,0,3.1175783115,1.1609147855,-0.5428
 898999\C,0,4.4663902989,1.397618077,-0.2820794333\C,0,5.2314449413,0.4
 478252316,0.3973756464\C,0,4.6412261317,-0.7444614666,0.8237717182\C,0
 ,3.2901400609,-0.9891108834,0.5828255613\C,0,-3.0387232793,1.288414993
 4,1.4618704704\O,0,-3.3756641519,-1.248400667,0.762953771\H,0,-2.37549
 1158,1.1001802049,-1.518175931\H,0,0.2777196638,1.676720489,-0.4110442
 654\H,0,2.5285167681,1.8865747023,-1.09138831\H,0,4.9187328052,2.32277
 42973,-0.6216805416\H,0,6.2814450694,0.6352296951,0.5933914834\H,0,5.2
 291729679,-1.4847597655,1.3553719198\H,0,2.8157253092,-1.9017425696,0.
 9199249705\H,0,-3.0582248255,2.2861798806,1.0246872974\H,0,-2.04759366
 31,1.0466016899,1.8440907555\H,0,-3.7846807819,1.1993603249,2.25246219
 61\\Version=ES64L-G16RevB.01\State=1-A\HF=-1111.631746\MP2=-1114.10897
 74\RMSD=4.717e-09\PG=C01 [X(C9H10N4O2S1)]\\@


 WHERE THERE IS MUCH DESIRE TO LEARN, THERE OF NECESSITY WILL BE
 MUCH ARGUING, MUCH WRITING, MANY OPINIONS; FOR OPINION IN GOOD MEN
 IS BUT KNOWLEDGE IN THE MAKING. -- JOHN MILTON.
 Job cpu time:       0 days  1 hours 21 minutes 35.7 seconds.
 Elapsed time:       0 days  0 hours 23 minutes 25.6 seconds.
 File lengths (MBytes):  RWF=  35452 Int=      0 D2E=      0 Chk=     19 Scr=      1
 Normal termination of Gaussian 16 at Wed Sep 23 05:58:13 2020.
