 Entering Gaussian System, Link 0=g16
 Initial command:
 /prod/apps/gaussian/g16b1/l1.exe "/tmp/ubafar01/1460616/Gau-18817.inp" -scrdir="/tmp/ubafar01/1460616/"
 Entering Link 1 = /prod/apps/gaussian/g16b1/l1.exe PID=     18818.
  
 Copyright (c) 1988-2017, Gaussian, Inc.  All Rights Reserved.
  
 This is part of the Gaussian(R) 16 program.  It is based on
 the Gaussian(R) 09 system (copyright 2009, Gaussian, Inc.),
 the Gaussian(R) 03 system (copyright 2003, Gaussian, Inc.),
 the Gaussian(R) 98 system (copyright 1998, Gaussian, Inc.),
 the Gaussian(R) 94 system (copyright 1995, Gaussian, Inc.),
 the Gaussian 92(TM) system (copyright 1992, Gaussian, Inc.),
 the Gaussian 90(TM) system (copyright 1990, Gaussian, Inc.),
 the Gaussian 88(TM) system (copyright 1988, Gaussian, Inc.),
 the Gaussian 86(TM) system (copyright 1986, Carnegie Mellon
 University), and the Gaussian 82(TM) system (copyright 1983,
 Carnegie Mellon University). Gaussian is a federally registered
 trademark of Gaussian, Inc.
  
 This software contains proprietary and confidential information,
 including trade secrets, belonging to Gaussian, Inc.
  
 This software is provided under written license and may be
 used, copied, transmitted, or stored only in accord with that
 written license.
  
 The following legend is applicable only to US Government
 contracts under FAR:
  
                    RESTRICTED RIGHTS LEGEND
  
 Use, reproduction and disclosure by the US Government is
 subject to restrictions as set forth in subparagraphs (a)
 and (c) of the Commercial Computer Software - Restricted
 Rights clause in FAR 52.227-19.
  
 Gaussian, Inc.
 340 Quinnipiac St., Bldg. 40, Wallingford CT 06492
  
  
 ---------------------------------------------------------------
 Warning -- This program may not be used in any manner that
 competes with the business of Gaussian, Inc. or will provide
 assistance to any competitor of Gaussian, Inc.  The licensee
 of this program is prohibited from giving any competitor of
 Gaussian, Inc. access to this program.  By using this program,
 the user acknowledges that Gaussian, Inc. is engaged in the
 business of creating and licensing software in the field of
 computational chemistry and represents and warrants to the
 licensee that it is not a competitor of Gaussian, Inc. and that
 it will not use this program in any manner prohibited above.
 ---------------------------------------------------------------
  

 Cite this work as:
 Gaussian 16, Revision B.01,
 M. J. Frisch, G. W. Trucks, H. B. Schlegel, G. E. Scuseria, 
 M. A. Robb, J. R. Cheeseman, G. Scalmani, V. Barone, 
 G. A. Petersson, H. Nakatsuji, X. Li, M. Caricato, A. V. Marenich, 
 J. Bloino, B. G. Janesko, R. Gomperts, B. Mennucci, H. P. Hratchian, 
 J. V. Ortiz, A. F. Izmaylov, J. L. Sonnenberg, D. Williams-Young, 
 F. Ding, F. Lipparini, F. Egidi, J. Goings, B. Peng, A. Petrone, 
 T. Henderson, D. Ranasinghe, V. G. Zakrzewski, J. Gao, N. Rega, 
 G. Zheng, W. Liang, M. Hada, M. Ehara, K. Toyota, R. Fukuda, 
 J. Hasegawa, M. Ishida, T. Nakajima, Y. Honda, O. Kitao, H. Nakai, 
 T. Vreven, K. Throssell, J. A. Montgomery, Jr., J. E. Peralta, 
 F. Ogliaro, M. J. Bearpark, J. J. Heyd, E. N. Brothers, K. N. Kudin, 
 V. N. Staroverov, T. A. Keith, R. Kobayashi, J. Normand, 
 K. Raghavachari, A. P. Rendell, J. C. Burant, S. S. Iyengar, 
 J. Tomasi, M. Cossi, J. M. Millam, M. Klene, C. Adamo, R. Cammi, 
 J. W. Ochterski, R. L. Martin, K. Morokuma, O. Farkas, 
 J. B. Foresman, and D. J. Fox, Gaussian, Inc., Wallingford CT, 2016.
 
 ******************************************
 Gaussian 16:  ES64L-G16RevB.01 20-Dec-2017
                23-Sep-2020 
 ******************************************
 %nproc=4
 Will use up to    4 processors via shared memory.
 %Chk=SM44_m0.n.10.pdb.xyz.mst.n.w.chk
 %mem=16GB
 ----------------------------------------------------------------------
 #p b3lyp/6-31G(d) opt freq NoSymm scf=(MaxCycle=2000,NoVarAcc,NoIncFoc
 k) scrf=(iefpcm,read,solvent=water)
 ----------------------------------------------------------------------
 1/18=20,19=15,26=3,38=1,40=2/1,3;
 2/9=110,12=2,15=1,17=6,18=5,40=1/2;
 3/5=1,6=6,7=1,11=2,25=1,30=1,70=2203,71=1,72=1,74=-5/1,2,3;
 4//1;
 5/5=100002,7=2000,38=1,53=1/2;
 6/7=2,8=2,9=2,10=2,28=1/1;
 7/30=1/1,2,3,16;
 1/18=20,19=15,26=3/3(2);
 2/9=110,15=1/2;
 99//99;
 2/9=110,15=1/2;
 3/5=1,6=6,7=1,11=2,25=1,30=1,70=2205,71=1,72=1,74=-5/1,2,3;
 4/5=5,16=3,69=1/1;
 5/5=100002,7=2000,38=1,53=1/2;
 7/30=1/1,2,3,16;
 1/18=20,19=15,26=3/3(-5);
 2/9=110,15=1/2;
 6/7=2,8=2,9=2,10=2,19=2,28=1/1;
 99/9=1/99;
 Leave Link    1 at Wed Sep 23 05:18:37 2020, MaxMem=  2147483648 cpu:               0.1 elap:               0.0
 (Enter /prod/apps/gaussian/g16b1/l101.exe)
 --------------------
 SM44_m0.n.10.pdb.xyz
 --------------------
 Symbolic Z-matrix:
 Charge =  0 Multiplicity = 1
 O                     4.703    -0.6      -0.435 
 S                     3.478    -0.095     0.194 
 N                     2.28     -0.258    -0.995 
 C                     0.958     0.145    -0.718 
 N                     0.597     1.457    -0.712 
 N                    -0.685     1.538    -0.471 
 C                    -0.159    -0.626    -0.476 
 N                    -1.16      0.275    -0.338 
 C                    -2.543     0.04     -0.089 
 C                    -3.308     1.041     0.513 
 C                    -4.661     0.808     0.751 
 C                    -5.241    -0.414     0.403 
 C                    -4.462    -1.407    -0.193 
 C                    -3.11     -1.184    -0.448 
 C                     3.03     -1.185     1.548 
 O                     3.423     1.288     0.679 
 H                     2.351    -1.172    -1.444 
 H                    -0.301    -1.69     -0.389 
 H                    -2.842     1.977     0.79 
 H                    -5.26      1.582     1.218 
 H                    -6.294    -0.592     0.595 
 H                    -4.905    -2.356    -0.47 
 H                    -2.508    -1.946    -0.93 
 H                     3.023    -2.21      1.182 
 H                     2.049    -0.894     1.924 
 H                     3.787    -1.058     2.324 
 
 ITRead=  0  0  0  0  0  0  0  0  0  0  0  0  0  0  0  0  0  0  0  0
 ITRead=  0  0  0  0  0  0
 MicOpt= -1 -1 -1 -1 -1 -1 -1 -1 -1 -1 -1 -1 -1 -1 -1 -1 -1 -1 -1 -1
 MicOpt= -1 -1 -1 -1 -1 -1
 NAtoms=     26 NQM=       26 NQMF=       0 NMMI=      0 NMMIF=      0
                NMic=       0 NMicF=      0.
                    Isotopes and Nuclear Properties:
 (Nuclear quadrupole moments (NQMom) in fm**2, nuclear magnetic moments (NMagM)
  in nuclear magnetons)

  Atom         1           2           3           4           5           6           7           8           9          10
 IAtWgt=          16          32          14          12          14          14          12          14          12          12
 AtmWgt=  15.9949146  31.9720718  14.0030740  12.0000000  14.0030740  14.0030740  12.0000000  14.0030740  12.0000000  12.0000000
 NucSpn=           0           0           2           0           2           2           0           2           0           0
 AtZEff=  -0.0000000  -0.0000000  -0.0000000  -0.0000000  -0.0000000  -0.0000000  -0.0000000  -0.0000000  -0.0000000  -0.0000000
 NQMom=    0.0000000   0.0000000   2.0440000   0.0000000   2.0440000   2.0440000   0.0000000   2.0440000   0.0000000   0.0000000
 NMagM=    0.0000000   0.0000000   0.4037610   0.0000000   0.4037610   0.4037610   0.0000000   0.4037610   0.0000000   0.0000000
 AtZNuc=   8.0000000  16.0000000   7.0000000   6.0000000   7.0000000   7.0000000   6.0000000   7.0000000   6.0000000   6.0000000

  Atom        11          12          13          14          15          16          17          18          19          20
 IAtWgt=          12          12          12          12          12          16           1           1           1           1
 AtmWgt=  12.0000000  12.0000000  12.0000000  12.0000000  12.0000000  15.9949146   1.0078250   1.0078250   1.0078250   1.0078250
 NucSpn=           0           0           0           0           0           0           1           1           1           1
 AtZEff=  -0.0000000  -0.0000000  -0.0000000  -0.0000000  -0.0000000  -0.0000000  -0.0000000  -0.0000000  -0.0000000  -0.0000000
 NQMom=    0.0000000   0.0000000   0.0000000   0.0000000   0.0000000   0.0000000   0.0000000   0.0000000   0.0000000   0.0000000
 NMagM=    0.0000000   0.0000000   0.0000000   0.0000000   0.0000000   0.0000000   2.7928460   2.7928460   2.7928460   2.7928460
 AtZNuc=   6.0000000   6.0000000   6.0000000   6.0000000   6.0000000   8.0000000   1.0000000   1.0000000   1.0000000   1.0000000

  Atom        21          22          23          24          25          26
 IAtWgt=           1           1           1           1           1           1
 AtmWgt=   1.0078250   1.0078250   1.0078250   1.0078250   1.0078250   1.0078250
 NucSpn=           1           1           1           1           1           1
 AtZEff=  -0.0000000  -0.0000000  -0.0000000  -0.0000000  -0.0000000  -0.0000000
 NQMom=    0.0000000   0.0000000   0.0000000   0.0000000   0.0000000   0.0000000
 NMagM=    2.7928460   2.7928460   2.7928460   2.7928460   2.7928460   2.7928460
 AtZNuc=   1.0000000   1.0000000   1.0000000   1.0000000   1.0000000   1.0000000
 Leave Link  101 at Wed Sep 23 05:18:37 2020, MaxMem=  2147483648 cpu:               1.2 elap:               0.3
 (Enter /prod/apps/gaussian/g16b1/l103.exe)

 GradGradGradGradGradGradGradGradGradGradGradGradGradGradGradGradGradGrad
 Berny optimization.
 Initialization pass.
                           ----------------------------
                           !    Initial Parameters    !
                           ! (Angstroms and Degrees)  !
 --------------------------                            --------------------------
 ! Name  Definition              Value          Derivative Info.                !
 --------------------------------------------------------------------------------
 ! R1    R(1,2)                  1.4667         estimate D2E/DX2                !
 ! R2    R(2,3)                  1.6957         estimate D2E/DX2                !
 ! R3    R(2,15)                 1.795          estimate D2E/DX2                !
 ! R4    R(2,16)                 1.4666         estimate D2E/DX2                !
 ! R5    R(3,4)                  1.4095         estimate D2E/DX2                !
 ! R6    R(3,17)                 1.0208         estimate D2E/DX2                !
 ! R7    R(4,5)                  1.3608         estimate D2E/DX2                !
 ! R8    R(4,7)                  1.3787         estimate D2E/DX2                !
 ! R9    R(5,6)                  1.307          estimate D2E/DX2                !
 ! R10   R(6,8)                  1.3559         estimate D2E/DX2                !
 ! R11   R(7,8)                  1.3538         estimate D2E/DX2                !
 ! R12   R(7,18)                 1.077          estimate D2E/DX2                !
 ! R13   R(8,9)                  1.4248         estimate D2E/DX2                !
 ! R14   R(9,10)                 1.3963         estimate D2E/DX2                !
 ! R15   R(9,14)                 1.3959         estimate D2E/DX2                !
 ! R16   R(10,11)                1.3934         estimate D2E/DX2                !
 ! R17   R(10,19)                1.0817         estimate D2E/DX2                !
 ! R18   R(11,12)                1.3967         estimate D2E/DX2                !
 ! R19   R(11,20)                1.0844         estimate D2E/DX2                !
 ! R20   R(12,13)                1.3957         estimate D2E/DX2                !
 ! R21   R(12,21)                1.0851         estimate D2E/DX2                !
 ! R22   R(13,14)                1.3938         estimate D2E/DX2                !
 ! R23   R(13,22)                1.0833         estimate D2E/DX2                !
 ! R24   R(14,23)                1.0841         estimate D2E/DX2                !
 ! R25   R(15,24)                1.0884         estimate D2E/DX2                !
 ! R26   R(15,25)                1.0901         estimate D2E/DX2                !
 ! R27   R(15,26)                1.0915         estimate D2E/DX2                !
 ! A1    A(1,2,3)              104.8481         estimate D2E/DX2                !
 ! A2    A(1,2,15)             108.8356         estimate D2E/DX2                !
 ! A3    A(1,2,16)             119.8555         estimate D2E/DX2                !
 ! A4    A(3,2,15)             107.11           estimate D2E/DX2                !
 ! A5    A(3,2,16)             107.219          estimate D2E/DX2                !
 ! A6    A(15,2,16)            108.2891         estimate D2E/DX2                !
 ! A7    A(2,3,4)              119.8233         estimate D2E/DX2                !
 ! A8    A(2,3,17)             110.2026         estimate D2E/DX2                !
 ! A9    A(4,3,17)             114.0583         estimate D2E/DX2                !
 ! A10   A(3,4,5)              121.6911         estimate D2E/DX2                !
 ! A11   A(3,4,7)              129.3823         estimate D2E/DX2                !
 ! A12   A(5,4,7)              108.8736         estimate D2E/DX2                !
 ! A13   A(4,5,6)              108.7107         estimate D2E/DX2                !
 ! A14   A(5,6,8)              107.6971         estimate D2E/DX2                !
 ! A15   A(4,7,8)              104.1679         estimate D2E/DX2                !
 ! A16   A(4,7,18)             132.3395         estimate D2E/DX2                !
 ! A17   A(8,7,18)             123.49           estimate D2E/DX2                !
 ! A18   A(6,8,7)              110.5424         estimate D2E/DX2                !
 ! A19   A(6,8,9)              120.7195         estimate D2E/DX2                !
 ! A20   A(7,8,9)              128.7381         estimate D2E/DX2                !
 ! A21   A(8,9,10)             119.2702         estimate D2E/DX2                !
 ! A22   A(8,9,14)             119.6017         estimate D2E/DX2                !
 ! A23   A(10,9,14)            121.1281         estimate D2E/DX2                !
 ! A24   A(9,10,11)            119.0624         estimate D2E/DX2                !
 ! A25   A(9,10,19)            119.6522         estimate D2E/DX2                !
 ! A26   A(11,10,19)           121.2847         estimate D2E/DX2                !
 ! A27   A(10,11,12)           120.4621         estimate D2E/DX2                !
 ! A28   A(10,11,20)           119.3776         estimate D2E/DX2                !
 ! A29   A(12,11,20)           120.1581         estimate D2E/DX2                !
 ! A30   A(11,12,13)           119.8071         estimate D2E/DX2                !
 ! A31   A(11,12,21)           120.161          estimate D2E/DX2                !
 ! A32   A(13,12,21)           120.0319         estimate D2E/DX2                !
 ! A33   A(12,13,14)           120.3768         estimate D2E/DX2                !
 ! A34   A(12,13,22)           120.2775         estimate D2E/DX2                !
 ! A35   A(14,13,22)           119.3435         estimate D2E/DX2                !
 ! A36   A(9,14,13)            119.1599         estimate D2E/DX2                !
 ! A37   A(9,14,23)            120.3377         estimate D2E/DX2                !
 ! A38   A(13,14,23)           120.4982         estimate D2E/DX2                !
 ! A39   A(2,15,24)            108.6515         estimate D2E/DX2                !
 ! A40   A(2,15,25)            108.8241         estimate D2E/DX2                !
 ! A41   A(2,15,26)            107.0094         estimate D2E/DX2                !
 ! A42   A(24,15,25)           111.1973         estimate D2E/DX2                !
 ! A43   A(24,15,26)           110.6776         estimate D2E/DX2                !
 ! A44   A(25,15,26)           110.355          estimate D2E/DX2                !
 ! D1    D(1,2,3,4)           -179.8145         estimate D2E/DX2                !
 ! D2    D(1,2,3,17)            44.8167         estimate D2E/DX2                !
 ! D3    D(15,2,3,4)            64.6491         estimate D2E/DX2                !
 ! D4    D(15,2,3,17)          -70.7196         estimate D2E/DX2                !
 ! D5    D(16,2,3,4)           -51.4006         estimate D2E/DX2                !
 ! D6    D(16,2,3,17)          173.2306         estimate D2E/DX2                !
 ! D7    D(1,2,15,24)          -50.8356         estimate D2E/DX2                !
 ! D8    D(1,2,15,25)         -172.0509         estimate D2E/DX2                !
 ! D9    D(1,2,15,26)           68.7015         estimate D2E/DX2                !
 ! D10   D(3,2,15,24)           62.0133         estimate D2E/DX2                !
 ! D11   D(3,2,15,25)          -59.202          estimate D2E/DX2                !
 ! D12   D(3,2,15,26)         -178.4496         estimate D2E/DX2                !
 ! D13   D(16,2,15,24)         177.3509         estimate D2E/DX2                !
 ! D14   D(16,2,15,25)          56.1357         estimate D2E/DX2                !
 ! D15   D(16,2,15,26)         -63.112          estimate D2E/DX2                !
 ! D16   D(2,3,4,5)             76.7168         estimate D2E/DX2                !
 ! D17   D(2,3,4,7)           -106.2394         estimate D2E/DX2                !
 ! D18   D(17,3,4,5)          -149.5065         estimate D2E/DX2                !
 ! D19   D(17,3,4,7)            27.5373         estimate D2E/DX2                !
 ! D20   D(3,4,5,6)            177.9461         estimate D2E/DX2                !
 ! D21   D(7,4,5,6)              0.3605         estimate D2E/DX2                !
 ! D22   D(3,4,7,8)           -177.1174         estimate D2E/DX2                !
 ! D23   D(3,4,7,18)             3.4751         estimate D2E/DX2                !
 ! D24   D(5,4,7,8)              0.2245         estimate D2E/DX2                !
 ! D25   D(5,4,7,18)          -179.183          estimate D2E/DX2                !
 ! D26   D(4,5,6,8)             -0.7982         estimate D2E/DX2                !
 ! D27   D(5,6,8,7)              0.97           estimate D2E/DX2                !
 ! D28   D(5,6,8,9)           -178.9948         estimate D2E/DX2                !
 ! D29   D(4,7,8,6)             -0.72           estimate D2E/DX2                !
 ! D30   D(4,7,8,9)            179.2412         estimate D2E/DX2                !
 ! D31   D(18,7,8,6)           178.7548         estimate D2E/DX2                !
 ! D32   D(18,7,8,9)            -1.284          estimate D2E/DX2                !
 ! D33   D(6,8,9,10)           -24.3301         estimate D2E/DX2                !
 ! D34   D(6,8,9,14)           155.7471         estimate D2E/DX2                !
 ! D35   D(7,8,9,10)           155.7122         estimate D2E/DX2                !
 ! D36   D(7,8,9,14)           -24.2107         estimate D2E/DX2                !
 ! D37   D(8,9,10,11)          179.8165         estimate D2E/DX2                !
 ! D38   D(8,9,10,19)           -0.5043         estimate D2E/DX2                !
 ! D39   D(14,9,10,11)          -0.2619         estimate D2E/DX2                !
 ! D40   D(14,9,10,19)         179.4173         estimate D2E/DX2                !
 ! D41   D(8,9,14,13)          179.6252         estimate D2E/DX2                !
 ! D42   D(8,9,14,23)           -1.1165         estimate D2E/DX2                !
 ! D43   D(10,9,14,13)          -0.2962         estimate D2E/DX2                !
 ! D44   D(10,9,14,23)         178.9622         estimate D2E/DX2                !
 ! D45   D(9,10,11,12)           0.5586         estimate D2E/DX2                !
 ! D46   D(9,10,11,20)        -179.982          estimate D2E/DX2                !
 ! D47   D(19,10,11,12)       -179.1151         estimate D2E/DX2                !
 ! D48   D(19,10,11,20)          0.3443         estimate D2E/DX2                !
 ! D49   D(10,11,12,13)         -0.2965         estimate D2E/DX2                !
 ! D50   D(10,11,12,21)        179.6997         estimate D2E/DX2                !
 ! D51   D(20,11,12,13)       -179.7518         estimate D2E/DX2                !
 ! D52   D(20,11,12,21)          0.2445         estimate D2E/DX2                !
 ! D53   D(11,12,13,14)         -0.2725         estimate D2E/DX2                !
 ! D54   D(11,12,13,22)       -179.7298         estimate D2E/DX2                !
 ! D55   D(21,12,13,14)        179.7313         estimate D2E/DX2                !
 ! D56   D(21,12,13,22)          0.274          estimate D2E/DX2                !
 ! D57   D(12,13,14,9)           0.5634         estimate D2E/DX2                !
 ! D58   D(12,13,14,23)       -178.6937         estimate D2E/DX2                !
 ! D59   D(22,13,14,9)        -179.9742         estimate D2E/DX2                !
 ! D60   D(22,13,14,23)          0.7687         estimate D2E/DX2                !
 --------------------------------------------------------------------------------
 Trust Radius=3.00D-01 FncErr=1.00D-07 GrdErr=1.00D-06 EigMax=2.50D+02 EigMin=1.00D-04
 Number of steps in this run=    141 maximum allowed number of steps=    156.
 GradGradGradGradGradGradGradGradGradGradGradGradGradGradGradGradGradGrad

 Leave Link  103 at Wed Sep 23 05:18:37 2020, MaxMem=  2147483648 cpu:               0.1 elap:               0.0
 (Enter /prod/apps/gaussian/g16b1/l202.exe)
                          Input orientation:                          
 ---------------------------------------------------------------------
 Center     Atomic      Atomic             Coordinates (Angstroms)
 Number     Number       Type             X           Y           Z
 ---------------------------------------------------------------------
      1          8           0        4.703000   -0.600000   -0.435000
      2         16           0        3.478000   -0.095000    0.194000
      3          7           0        2.280000   -0.258000   -0.995000
      4          6           0        0.958000    0.145000   -0.718000
      5          7           0        0.597000    1.457000   -0.712000
      6          7           0       -0.685000    1.538000   -0.471000
      7          6           0       -0.159000   -0.626000   -0.476000
      8          7           0       -1.160000    0.275000   -0.338000
      9          6           0       -2.543000    0.040000   -0.089000
     10          6           0       -3.308000    1.041000    0.513000
     11          6           0       -4.661000    0.808000    0.751000
     12          6           0       -5.241000   -0.414000    0.403000
     13          6           0       -4.462000   -1.407000   -0.193000
     14          6           0       -3.110000   -1.184000   -0.448000
     15          6           0        3.030000   -1.185000    1.548000
     16          8           0        3.423000    1.288000    0.679000
     17          1           0        2.351000   -1.172000   -1.444000
     18          1           0       -0.301000   -1.690000   -0.389000
     19          1           0       -2.842000    1.977000    0.790000
     20          1           0       -5.260000    1.582000    1.218000
     21          1           0       -6.294000   -0.592000    0.595000
     22          1           0       -4.905000   -2.356000   -0.470000
     23          1           0       -2.508000   -1.946000   -0.930000
     24          1           0        3.023000   -2.210000    1.182000
     25          1           0        2.049000   -0.894000    1.924000
     26          1           0        3.787000   -1.058000    2.324000
 ---------------------------------------------------------------------
                    Distance matrix (angstroms):
                    1          2          3          4          5
     1  O    0.000000
     2  S    1.466728   0.000000
     3  N    2.510277   1.695728   0.000000
     4  C    3.828856   2.690677   1.409547   0.000000
     5  N    4.600784   3.395541   2.419463   1.360772   0.000000
     6  N    5.796799   4.521005   3.505912   2.168158   1.306968
     7  C    4.862242   3.736125   2.520616   1.378657   2.228480
     8  N    5.928727   4.683051   3.542504   2.155742   2.150360
     9  C    7.282433   6.029159   4.916398   3.558605   3.500802
    10  C    8.232114   6.887819   5.931881   4.529562   4.113722
    11  C    9.543247   8.207861   7.236184   5.845570   5.496193
    12  C    9.980981   8.727337   7.651417   6.324296   6.231060
    13  C    9.203643   8.056967   6.886071   5.662219   5.836552
    14  C    7.834807   6.708191   5.496252   4.288096   4.559213
    15  C    2.659595   1.795026   2.808679   3.346168   4.243495
    16  O    2.538492   1.466608   2.549282   3.055206   3.154317
    17  H    2.622436   2.261217   1.020803   2.049881   3.244069
    18  H    5.121546   4.143037   3.013208   2.249566   3.288517
    19  H    8.066510   6.677634   5.866544   4.479987   3.788552
    20  H   10.332226   8.956202   8.070599   6.669077   6.168061
    21  H   11.045133   9.792844   8.726576   7.406662   7.307019
    22  H    9.767212   8.707911   7.503429   6.378971   6.698473
    23  H    7.352228   6.365671   5.077254   4.053441   4.611828
    24  H    2.833582   2.378317   3.016899   3.663366   4.787442
    25  H    3.563009   2.381878   2.996401   3.041376   3.818900
    26  H    2.942941   2.357912   3.731864   4.324837   5.071353
                    6          7          8          9         10
     6  N    0.000000
     7  C    2.227015   0.000000
     8  N    1.355907   1.353826   0.000000
     9  C    2.417042   2.505350   1.424751   0.000000
    10  C    2.845241   3.697731   2.434104   1.396292   0.000000
    11  C    4.223122   4.881587   3.704998   2.404443   1.393392
    12  C    5.033023   5.161813   4.204565   2.779817   2.421903
    13  C    4.797503   4.382449   3.708551   2.405657   2.796937
    14  C    3.645605   3.003423   2.437885   1.395903   2.431738
    15  C    5.029147   3.818217   4.821275   5.936221   6.796804
    16  O    4.273250   4.222339   4.802535   6.143328   6.737576
    17  H    4.184271   2.745039   3.955271   5.220748   6.383690
    18  H    3.251794   1.076954   2.145159   2.847712   4.161011
    19  H    2.536827   3.946752   2.645432   2.148025   1.081657
    20  H    4.877016   5.810775   4.575957   3.386459   2.144763
    21  H    6.093779   6.227875   5.289625   3.864878   3.404351
    22  H    5.742093   5.051480   4.578713   3.386004   3.880246
    23  H    3.958821   2.732456   2.664659   2.157012   3.412392
    24  H    5.525321   3.922135   5.097363   6.136636   7.148295
    25  H    4.373260   3.272169   4.096448   5.100097   5.867929
    26  H    5.877927   4.857730   5.773729   6.862731   7.617385
                   11         12         13         14         15
    11  C    0.000000
    12  C    1.396706   0.000000
    13  C    2.415981   1.395746   0.000000
    14  C    2.794864   2.420385   1.393793   0.000000
    15  C    7.984907   8.385398   7.694831   6.456285   0.000000
    16  O    8.098558   8.833905   8.378343   7.075380   2.650536
    17  H    7.609637   7.850123   6.930887   5.551097   3.068106
    18  H    5.152592   5.163239   4.175216   2.854820   3.886201
    19  H    2.162601   3.409084   3.878420   3.405347   6.712167
    20  H    1.084420   2.156062   3.400271   3.879280   8.745816
    21  H    2.156624   1.085061   2.154389   3.402377   9.391317
    22  H    3.400187   2.155548   1.083319   2.143850   8.270900
    23  H    3.878877   3.404879   2.156805   1.084146   6.114659
    24  H    8.266677   8.492712   7.652494   6.428317   1.088407
    25  H    7.021170   7.462435   6.865710   5.685575   1.090146
    26  H    8.793463   9.252554   8.631517   7.434277   1.091492
                   16         17         18         19         20
    16  O    0.000000
    17  H    3.421683   0.000000
    18  H    4.886439   2.900768   0.000000
    19  H    6.303750   6.471028   4.614500   0.000000
    20  H    8.704680   8.520451   6.154682   2.487154   0.000000
    21  H    9.897552   8.901120   6.171702   4.307446   2.486677
    22  H    9.162670   7.416203   4.652626   4.961699   4.299211
    23  H    6.944379   4.947035   2.286715   4.296497   4.963284
    24  H    3.556545   2.902569   3.713141   7.216845   9.109811
    25  H    2.863394   3.392921   3.392062   5.783639   7.749225
    26  H    2.888293   4.033970   4.946871   7.450371   9.488996
                   21         22         23         24         25
    21  H    0.000000
    22  H    2.485003   0.000000
    23  H    4.300318   2.474936   0.000000
    24  H    9.474649   8.099605   5.926399   0.000000
    25  H    8.453585   7.498453   5.478893   1.797525   0.000000
    26  H   10.238806   9.221828   7.141714   1.793032   1.790961
                   26
    26  H    0.000000
 Symmetry turned off by external request.
 Stoichiometry    C9H10N4O2S
 Framework group  C1[X(C9H10N4O2S)]
 Deg. of freedom    72
 Full point group                 C1      NOp   1
 Rotational constants (GHZ):           1.6002886           0.1979913           0.1902603
 Leave Link  202 at Wed Sep 23 05:18:37 2020, MaxMem=  2147483648 cpu:               0.0 elap:               0.0
 (Enter /prod/apps/gaussian/g16b1/l301.exe)
 Standard basis: 6-31G(d) (6D, 7F)
 Ernie: Thresh=  0.10000D-02 Tol=  0.10000D-05 Strict=F.
   264 basis functions,   512 primitive gaussians,   264 cartesian basis functions
    62 alpha electrons       62 beta electrons
       nuclear repulsion energy      1185.2844065307 Hartrees.
 IExCor=  402 DFT=T Ex+Corr=B3LYP ExCW=0 ScaHFX=  0.200000
 ScaDFX=  0.800000  0.720000  1.000000  0.810000 ScalE2=  1.000000  1.000000
 IRadAn=      5 IRanWt=     -1 IRanGd=            0 ICorTp=0 IEmpDi=  4
 NAtoms=   26 NActive=   26 NUniq=   26 SFac= 1.00D+00 NAtFMM=   60 NAOKFM=F Big=F
 Integral buffers will be    131072 words long.
 Raffenetti 2 integral format.
 Two-electron integral symmetry is turned off.
 Using the following non-standard input for PCM:
 MSTModel=DFT cav
 --- end of non-standard input.
 MST model for solvation energy: B3LYP parametrization.
 MST cavity parameters:
 ISph   IAn     Re0     Alpha   Atom Type   QCorr
 ------------------------------------------------
   1      8     1.40     1.25      O          F
   2     16     1.75     1.25      S          F
   3      7     1.50     1.25      NH         F
   4      6     1.50     1.25      C          F
   5      7     1.40     1.25      N          F
   6      7     1.40     1.25      N          F
   7      6     1.50     1.25      CH         F
   8      7     1.40     1.25      N          F
   9      6     1.50     1.25      C          F
  10      6     1.50     1.25      CH         F
  11      6     1.50     1.25      CH         F
  12      6     1.50     1.25      CH         F
  13      6     1.50     1.25      CH         F
  14      6     1.50     1.25      CH         F
  15      6     1.50     1.25      CH3        F
  16      8     1.40     1.25      O          F
  17      1     0.90     1.25      NH         F
  18      1     1.20     1.25      CH         F
  19      1     1.20     1.25      CH         F
  20      1     1.20     1.25      CH         F
  21      1     1.20     1.25      CH         F
  22      1     1.20     1.25      CH         F
  23      1     1.20     1.25      CH         F
  24      1     1.20     1.25      CH3        F
  25      1     1.20     1.25      CH3        F
  26      1     1.20     1.25      CH3        F
 ------------------------------------------------------------------------------
 Polarizable Continuum Model (PCM)
 =================================
 Model                : PCM.
 Atomic radii         : MST.
 Polarization charges : Total charges.
 Charge compensation  : None.
 Solution method      : On-the-fly selection.
 Cavity type          : Scaled VdW (van der Waals Surface) (Alpha=1.250).
 Cavity algorithm     : GePol (No added spheres)
                        Default sphere list used, NSphG=   26.
                        Lebedev-Laikov grids with approx.  5.0 points / Ang**2.
                        Smoothing algorithm: York/Karplus (Gamma=1.0000).
                        Polarization charges: spherical gaussians, with
                                              point-specific exponents (IZeta= 3).
                        Self-potential: point-specific (ISelfS= 7).
                        Self-field    : sphere-specific E.n sum rule (ISelfD= 2).
 1st derivatives      : Analytical E(r).r(x)/FMM algorithm (CHGder, D1EAlg=3).
                        Cavity 1st derivative terms included.
 Solvent              : Water, Eps=  78.355300 Eps(inf)=   1.777849
 ------------------------------------------------------------------------------
 GePol: Number of generator spheres                  =      26
 GePol: Total number of spheres                      =      26
 GePol: Number of exposed spheres                    =      26 (100.00%)
 GePol: Number of points                             =    2104
 GePol: Average weight of points                     =       0.13
 GePol: Minimum weight of points                     =   0.40D-09
 GePol: Maximum weight of points                     =    0.22001
 GePol: Number of points with low weight             =     138
 GePol: Fraction of low-weight points (<1% of avg)   =       6.56%
 GePol: Cavity surface area                          =    273.904 Ang**2
 GePol: Cavity volume                                =    253.746 Ang**3
 PCM non-electrostatic energy =         0.0029639416 Hartrees.
 Nuclear repulsion after PCM non-electrostatic terms =     1185.2873704723 Hartrees.
 Leave Link  301 at Wed Sep 23 05:18:37 2020, MaxMem=  2147483648 cpu:               0.3 elap:               0.1
 (Enter /prod/apps/gaussian/g16b1/l302.exe)
 NPDir=0 NMtPBC=     1 NCelOv=     1 NCel=       1 NClECP=     1 NCelD=      1
         NCelK=      1 NCelE2=     1 NClLst=     1 CellRange=     0.0.
 One-electron integrals computed using PRISM.
 NBasis=   264 RedAO= T EigKep=  4.67D-04  NBF=   264
 NBsUse=   264 1.00D-06 EigRej= -1.00D+00 NBFU=   264
 Precomputing XC quadrature grid using
 IXCGrd= 4 IRadAn=           5 IRanWt=          -1 IRanGd=           0 AccXCQ= 0.00D+00.
 Generated NRdTot=       0 NPtTot=           0 NUsed=           0 NTot=          32
 NSgBfM=   262   262   262   262   262 MxSgAt=    26 MxSgA2=    26.
 Leave Link  302 at Wed Sep 23 05:18:37 2020, MaxMem=  2147483648 cpu:               1.1 elap:               0.3
 (Enter /prod/apps/gaussian/g16b1/l303.exe)
 DipDrv:  MaxL=1.
 Leave Link  303 at Wed Sep 23 05:18:37 2020, MaxMem=  2147483648 cpu:               0.1 elap:               0.0
 (Enter /prod/apps/gaussian/g16b1/l401.exe)
 ExpMin= 1.17D-01 ExpMax= 2.19D+04 ExpMxC= 3.30D+03 IAcc=3 IRadAn=         5 AccDes= 0.00D+00
 Harris functional with IExCor=  402 and IRadAn=       5 diagonalized for initial guess.
 HarFok:  IExCor=  402 AccDes= 0.00D+00 IRadAn=         5 IDoV= 1 UseB2=F ITyADJ=14
 ICtDFT=  3500011 ScaDFX=  1.000000  1.000000  1.000000  1.000000
 FoFCou: FMM=F IPFlag=           0 FMFlag=      100000 FMFlg1=           0
         NFxFlg=           0 DoJE=T BraDBF=F KetDBF=T FulRan=T
         wScrn=  0.000000 ICntrl=       500 IOpCl=  0 I1Cent=   200000004 NGrid=           0
         NMat0=    1 NMatS0=      1 NMatT0=    0 NMatD0=    1 NMtDS0=    0 NMtDT0=    0
 Symmetry not used in FoFCou.
 Harris En= -1116.51872197866    
 JPrj=0 DoOrth=F DoCkMO=F.
 Leave Link  401 at Wed Sep 23 05:18:39 2020, MaxMem=  2147483648 cpu:               5.4 elap:               1.4
 (Enter /prod/apps/gaussian/g16b1/l502.exe)
 Keep R1 ints in memory in canonical form, NReq=621123487.
 FoFCou: FMM=F IPFlag=           0 FMFlag=           0 FMFlg1=           0
         NFxFlg=           0 DoJE=F BraDBF=F KetDBF=F FulRan=T
         wScrn=  0.000000 ICntrl=       600 IOpCl=  0 I1Cent=           0 NGrid=           0
         NMat0=    1 NMatS0=  34980 NMatT0=    0 NMatD0=    1 NMtDS0=    0 NMtDT0=    0
 Symmetry not used in FoFCou.
 Two-electron integral symmetry not used.
 Closed shell SCF:
 Using DIIS extrapolation, IDIIS=  1040.
 NGot=  2147483648 LenX=  1535522690 LenY=  1535452553
 Requested convergence on RMS density matrix=1.00D-08 within2000 cycles.
 Requested convergence on MAX density matrix=1.00D-06.
 Requested convergence on             energy=1.00D-06.
 No special actions if energy rises.

 Cycle   1  Pass 1  IDiag  1:
 Inv3:  Mode=1 IEnd=    13280448.
 Iteration    1 A*A^-1 deviation from unit magnitude is 3.33D-15 for    604.
 Iteration    1 A*A^-1 deviation from orthogonality  is 2.87D-15 for   1740    240.
 Iteration    1 A^-1*A deviation from unit magnitude is 3.22D-15 for    928.
 Iteration    1 A^-1*A deviation from orthogonality  is 1.65D-12 for   1303   1225.
 E= -1116.05548915165    
 DIIS: error= 3.09D-02 at cycle   1 NSaved=   1.
 NSaved= 1 IEnMin= 1 EnMin= -1116.05548915165     IErMin= 1 ErrMin= 3.09D-02
 ErrMax= 3.09D-02  0.00D+00 EMaxC= 1.00D-01 BMatC= 5.67D-01 BMatP= 5.67D-01
 IDIUse=3 WtCom= 6.91D-01 WtEn= 3.09D-01
 Coeff-Com:  0.100D+01
 Coeff-En:   0.100D+01
 Coeff:      0.100D+01
 Gap=     0.300 Goal=   None    Shift=    0.000
 GapD=    0.300 DampG=1.000 DampE=0.500 DampFc=0.5000 IDamp=-1.
 Damping current iteration by 5.00D-01
 RMSDP=6.74D-03 MaxDP=5.48D-01              OVMax= 2.28D-01

 Cycle   2  Pass 1  IDiag  1:
 E= -1116.19110655827     Delta-E=       -0.135617406625 Rises=F Damp=T
 DIIS: error= 1.42D-02 at cycle   2 NSaved=   2.
 NSaved= 2 IEnMin= 2 EnMin= -1116.19110655827     IErMin= 2 ErrMin= 1.42D-02
 ErrMax= 1.42D-02  0.00D+00 EMaxC= 1.00D-01 BMatC= 7.61D-02 BMatP= 5.67D-01
 IDIUse=3 WtCom= 8.58D-01 WtEn= 1.42D-01
 Coeff-Com:  0.211D+00 0.789D+00
 Coeff-En:   0.341D+00 0.659D+00
 Coeff:      0.230D+00 0.770D+00
 Gap=     0.218 Goal=   None    Shift=    0.000
 RMSDP=1.81D-03 MaxDP=1.13D-01 DE=-1.36D-01 OVMax= 1.66D-01

 Cycle   3  Pass 1  IDiag  1:
 E= -1116.50835273864     Delta-E=       -0.317246180368 Rises=F Damp=F
 DIIS: error= 8.29D-03 at cycle   3 NSaved=   3.
 NSaved= 3 IEnMin= 3 EnMin= -1116.50835273864     IErMin= 3 ErrMin= 8.29D-03
 ErrMax= 8.29D-03  0.00D+00 EMaxC= 1.00D-01 BMatC= 3.36D-02 BMatP= 7.61D-02
 IDIUse=3 WtCom= 9.17D-01 WtEn= 8.29D-02
 Coeff-Com:  0.616D-01 0.401D+00 0.537D+00
 Coeff-En:   0.000D+00 0.000D+00 0.100D+01
 Coeff:      0.565D-01 0.368D+00 0.576D+00
 Gap=     0.200 Goal=   None    Shift=    0.000
 RMSDP=8.71D-04 MaxDP=2.82D-02 DE=-3.17D-01 OVMax= 4.58D-02

 Cycle   4  Pass 1  IDiag  1:
 E= -1116.53417114965     Delta-E=       -0.025818411012 Rises=F Damp=F
 DIIS: error= 3.16D-03 at cycle   4 NSaved=   4.
 NSaved= 4 IEnMin= 4 EnMin= -1116.53417114965     IErMin= 4 ErrMin= 3.16D-03
 ErrMax= 3.16D-03  0.00D+00 EMaxC= 1.00D-01 BMatC= 4.93D-03 BMatP= 3.36D-02
 IDIUse=3 WtCom= 9.68D-01 WtEn= 3.16D-02
 Coeff-Com:  0.241D-02 0.743D-01 0.296D+00 0.627D+00
 Coeff-En:   0.000D+00 0.000D+00 0.103D+00 0.897D+00
 Coeff:      0.233D-02 0.719D-01 0.290D+00 0.636D+00
 Gap=     0.198 Goal=   None    Shift=    0.000
 RMSDP=2.78D-04 MaxDP=1.10D-02 DE=-2.58D-02 OVMax= 1.34D-02

 Cycle   5  Pass 1  IDiag  1:
 E= -1116.53811860336     Delta-E=       -0.003947453709 Rises=F Damp=F
 DIIS: error= 6.51D-04 at cycle   5 NSaved=   5.
 NSaved= 5 IEnMin= 5 EnMin= -1116.53811860336     IErMin= 5 ErrMin= 6.51D-04
 ErrMax= 6.51D-04  0.00D+00 EMaxC= 1.00D-01 BMatC= 3.75D-04 BMatP= 4.93D-03
 IDIUse=3 WtCom= 9.93D-01 WtEn= 6.51D-03
 Coeff-Com: -0.234D-02 0.161D-01 0.116D+00 0.330D+00 0.540D+00
 Coeff-En:   0.000D+00 0.000D+00 0.000D+00 0.000D+00 0.100D+01
 Coeff:     -0.232D-02 0.160D-01 0.115D+00 0.328D+00 0.543D+00
 Gap=     0.199 Goal=   None    Shift=    0.000
 RMSDP=8.59D-05 MaxDP=5.02D-03 DE=-3.95D-03 OVMax= 5.42D-03

 Cycle   6  Pass 1  IDiag  1:
 E= -1116.53841604096     Delta-E=       -0.000297437597 Rises=F Damp=F
 DIIS: error= 2.28D-04 at cycle   6 NSaved=   6.
 NSaved= 6 IEnMin= 6 EnMin= -1116.53841604096     IErMin= 6 ErrMin= 2.28D-04
 ErrMax= 2.28D-04  0.00D+00 EMaxC= 1.00D-01 BMatC= 3.53D-05 BMatP= 3.75D-04
 IDIUse=3 WtCom= 9.98D-01 WtEn= 2.28D-03
 Coeff-Com: -0.157D-02 0.273D-02 0.391D-01 0.128D+00 0.301D+00 0.531D+00
 Coeff-En:   0.000D+00 0.000D+00 0.000D+00 0.000D+00 0.000D+00 0.100D+01
 Coeff:     -0.157D-02 0.273D-02 0.391D-01 0.128D+00 0.301D+00 0.532D+00
 Gap=     0.199 Goal=   None    Shift=    0.000
 RMSDP=2.38D-05 MaxDP=1.25D-03 DE=-2.97D-04 OVMax= 1.47D-03

 Cycle   7  Pass 1  IDiag  1:
 E= -1116.53844443400     Delta-E=       -0.000028393038 Rises=F Damp=F
 DIIS: error= 7.32D-05 at cycle   7 NSaved=   7.
 NSaved= 7 IEnMin= 7 EnMin= -1116.53844443400     IErMin= 7 ErrMin= 7.32D-05
 ErrMax= 7.32D-05  0.00D+00 EMaxC= 1.00D-01 BMatC= 2.43D-06 BMatP= 3.53D-05
 IDIUse=1 WtCom= 1.00D+00 WtEn= 0.00D+00
 Coeff-Com: -0.627D-03 0.316D-03 0.113D-01 0.399D-01 0.114D+00 0.281D+00
 Coeff-Com:  0.554D+00
 Coeff:     -0.627D-03 0.316D-03 0.113D-01 0.399D-01 0.114D+00 0.281D+00
 Coeff:      0.554D+00
 Gap=     0.199 Goal=   None    Shift=    0.000
 RMSDP=7.07D-06 MaxDP=3.67D-04 DE=-2.84D-05 OVMax= 4.70D-04

 Cycle   8  Pass 1  IDiag  1:
 E= -1116.53844634115     Delta-E=       -0.000001907152 Rises=F Damp=F
 DIIS: error= 2.64D-05 at cycle   8 NSaved=   8.
 NSaved= 8 IEnMin= 8 EnMin= -1116.53844634115     IErMin= 8 ErrMin= 2.64D-05
 ErrMax= 2.64D-05  0.00D+00 EMaxC= 1.00D-01 BMatC= 3.52D-07 BMatP= 2.43D-06
 IDIUse=1 WtCom= 1.00D+00 WtEn= 0.00D+00
 Coeff-Com: -0.227D-03-0.190D-03 0.266D-02 0.107D-01 0.373D-01 0.112D+00
 Coeff-Com:  0.328D+00 0.510D+00
 Coeff:     -0.227D-03-0.190D-03 0.266D-02 0.107D-01 0.373D-01 0.112D+00
 Coeff:      0.328D+00 0.510D+00
 Gap=     0.199 Goal=   None    Shift=    0.000
 RMSDP=2.64D-06 MaxDP=1.31D-04 DE=-1.91D-06 OVMax= 1.70D-04

 Cycle   9  Pass 1  IDiag  1:
 E= -1116.53844662920     Delta-E=       -0.000000288047 Rises=F Damp=F
 DIIS: error= 6.51D-06 at cycle   9 NSaved=   9.
 NSaved= 9 IEnMin= 9 EnMin= -1116.53844662920     IErMin= 9 ErrMin= 6.51D-06
 ErrMax= 6.51D-06  0.00D+00 EMaxC= 1.00D-01 BMatC= 3.06D-08 BMatP= 3.52D-07
 IDIUse=1 WtCom= 1.00D+00 WtEn= 0.00D+00
 Coeff-Com: -0.147D-04-0.128D-03-0.405D-03-0.860D-03 0.127D-02 0.136D-01
 Coeff-Com:  0.862D-01 0.268D+00 0.632D+00
 Coeff:     -0.147D-04-0.128D-03-0.405D-03-0.860D-03 0.127D-02 0.136D-01
 Coeff:      0.862D-01 0.268D+00 0.632D+00
 Gap=     0.199 Goal=   None    Shift=    0.000
 RMSDP=7.64D-07 MaxDP=3.10D-05 DE=-2.88D-07 OVMax= 4.25D-05

 Cycle  10  Pass 1  IDiag  1:
 E= -1116.53844665696     Delta-E=       -0.000000027762 Rises=F Damp=F
 DIIS: error= 1.69D-06 at cycle  10 NSaved=  10.
 NSaved=10 IEnMin=10 EnMin= -1116.53844665696     IErMin=10 ErrMin= 1.69D-06
 ErrMax= 1.69D-06  0.00D+00 EMaxC= 1.00D-01 BMatC= 1.51D-09 BMatP= 3.06D-08
 IDIUse=1 WtCom= 1.00D+00 WtEn= 0.00D+00
 Coeff-Com:  0.100D-05-0.458D-04-0.272D-03-0.767D-03-0.874D-03 0.144D-02
 Coeff-Com:  0.274D-01 0.986D-01 0.289D+00 0.585D+00
 Coeff:      0.100D-05-0.458D-04-0.272D-03-0.767D-03-0.874D-03 0.144D-02
 Coeff:      0.274D-01 0.986D-01 0.289D+00 0.585D+00
 Gap=     0.199 Goal=   None    Shift=    0.000
 RMSDP=1.96D-07 MaxDP=9.67D-06 DE=-2.78D-08 OVMax= 1.25D-05

 Cycle  11  Pass 1  IDiag  1:
 E= -1116.53844665812     Delta-E=       -0.000000001166 Rises=F Damp=F
 DIIS: error= 8.75D-07 at cycle  11 NSaved=  11.
 NSaved=11 IEnMin=11 EnMin= -1116.53844665812     IErMin=11 ErrMin= 8.75D-07
 ErrMax= 8.75D-07  0.00D+00 EMaxC= 1.00D-01 BMatC= 3.17D-10 BMatP= 1.51D-09
 IDIUse=1 WtCom= 1.00D+00 WtEn= 0.00D+00
 Coeff-Com:  0.286D-05-0.578D-05-0.104D-03-0.332D-03-0.751D-03-0.140D-02
 Coeff-Com:  0.332D-02 0.153D-01 0.700D-01 0.339D+00 0.575D+00
 Coeff:      0.286D-05-0.578D-05-0.104D-03-0.332D-03-0.751D-03-0.140D-02
 Coeff:      0.332D-02 0.153D-01 0.700D-01 0.339D+00 0.575D+00
 Gap=     0.199 Goal=   None    Shift=    0.000
 RMSDP=7.06D-08 MaxDP=5.27D-06 DE=-1.17D-09 OVMax= 5.28D-06

 Cycle  12  Pass 1  IDiag  1:
 E= -1116.53844665840     Delta-E=       -0.000000000272 Rises=F Damp=F
 DIIS: error= 2.96D-07 at cycle  12 NSaved=  12.
 NSaved=12 IEnMin=12 EnMin= -1116.53844665840     IErMin=12 ErrMin= 2.96D-07
 ErrMax= 2.96D-07  0.00D+00 EMaxC= 1.00D-01 BMatC= 3.67D-11 BMatP= 3.17D-10
 IDIUse=1 WtCom= 1.00D+00 WtEn= 0.00D+00
 Coeff-Com:  0.173D-05 0.635D-06-0.412D-04-0.139D-03-0.415D-03-0.115D-02
 Coeff-Com: -0.908D-03-0.147D-02 0.120D-01 0.151D+00 0.344D+00 0.498D+00
 Coeff:      0.173D-05 0.635D-06-0.412D-04-0.139D-03-0.415D-03-0.115D-02
 Coeff:     -0.908D-03-0.147D-02 0.120D-01 0.151D+00 0.344D+00 0.498D+00
 Gap=     0.199 Goal=   None    Shift=    0.000
 RMSDP=2.27D-08 MaxDP=1.35D-06 DE=-2.72D-10 OVMax= 1.37D-06

 Cycle  13  Pass 1  IDiag  1:
 E= -1116.53844665841     Delta-E=       -0.000000000015 Rises=F Damp=F
 DIIS: error= 5.32D-08 at cycle  13 NSaved=  13.
 NSaved=13 IEnMin=13 EnMin= -1116.53844665841     IErMin=13 ErrMin= 5.32D-08
 ErrMax= 5.32D-08  0.00D+00 EMaxC= 1.00D-01 BMatC= 1.59D-12 BMatP= 3.67D-11
 IDIUse=1 WtCom= 1.00D+00 WtEn= 0.00D+00
 Coeff-Com:  0.360D-06 0.788D-06-0.550D-05-0.184D-04-0.818D-04-0.307D-03
 Coeff-Com: -0.607D-03-0.226D-02-0.299D-02 0.256D-01 0.761D-01 0.204D+00
 Coeff-Com:  0.701D+00
 Coeff:      0.360D-06 0.788D-06-0.550D-05-0.184D-04-0.818D-04-0.307D-03
 Coeff:     -0.607D-03-0.226D-02-0.299D-02 0.256D-01 0.761D-01 0.204D+00
 Coeff:      0.701D+00
 Gap=     0.199 Goal=   None    Shift=    0.000
 RMSDP=6.65D-09 MaxDP=2.75D-07 DE=-1.55D-11 OVMax= 5.51D-07

 Error on total polarization charges =  0.01965
 SCF Done:  E(RB3LYP) =  -1116.53844666     A.U. after   13 cycles
            NFock= 13  Conv=0.66D-08     -V/T= 2.0074
 KE= 1.108373376559D+03 PE=-4.987390655659D+03 EE= 1.577191461970D+03
 Leave Link  502 at Wed Sep 23 05:19:19 2020, MaxMem=  2147483648 cpu:             129.6 elap:              40.2
 (Enter /prod/apps/gaussian/g16b1/l601.exe)
 Copying SCF densities to generalized density rwf, IOpCl= 0 IROHF=0.

 **********************************************************************

            Population analysis using the SCF Density.

 **********************************************************************

 Alpha  occ. eigenvalues --  -89.12485 -19.15588 -19.15554 -14.44709 -14.40468
 Alpha  occ. eigenvalues --  -14.38428 -14.37168 -10.26457 -10.25135 -10.24516
 Alpha  occ. eigenvalues --  -10.22395 -10.20684 -10.20415 -10.20189 -10.20145
 Alpha  occ. eigenvalues --  -10.19904  -8.15068  -6.11567  -6.11494  -6.11338
 Alpha  occ. eigenvalues --   -1.12395  -1.11378  -1.01319  -0.95801  -0.93061
 Alpha  occ. eigenvalues --   -0.86150  -0.81261  -0.77494  -0.76382  -0.75837
 Alpha  occ. eigenvalues --   -0.66862  -0.66427  -0.63076  -0.60898  -0.58731
 Alpha  occ. eigenvalues --   -0.56479  -0.53873  -0.52568  -0.49833  -0.49774
 Alpha  occ. eigenvalues --   -0.48733  -0.48265  -0.46984  -0.45431  -0.44535
 Alpha  occ. eigenvalues --   -0.43747  -0.43359  -0.43332  -0.38916  -0.37304
 Alpha  occ. eigenvalues --   -0.36464  -0.35995  -0.34908  -0.34099  -0.33065
 Alpha  occ. eigenvalues --   -0.32044  -0.31870  -0.31402  -0.29021  -0.26695
 Alpha  occ. eigenvalues --   -0.26419  -0.24359
 Alpha virt. eigenvalues --   -0.04500  -0.01490   0.01135   0.02099   0.06910
 Alpha virt. eigenvalues --    0.07382   0.09002   0.09896   0.10342   0.10982
 Alpha virt. eigenvalues --    0.12382   0.13750   0.15027   0.15200   0.15606
 Alpha virt. eigenvalues --    0.16101   0.16523   0.18423   0.19154   0.19874
 Alpha virt. eigenvalues --    0.21471   0.23326   0.24603   0.29400   0.30262
 Alpha virt. eigenvalues --    0.31151   0.32729   0.33554   0.35528   0.36441
 Alpha virt. eigenvalues --    0.39117   0.42523   0.42925   0.43400   0.48449
 Alpha virt. eigenvalues --    0.48676   0.50203   0.51834   0.52033   0.52793
 Alpha virt. eigenvalues --    0.54220   0.54789   0.55719   0.57300   0.57735
 Alpha virt. eigenvalues --    0.58198   0.58708   0.60014   0.60717   0.60830
 Alpha virt. eigenvalues --    0.61216   0.62723   0.63374   0.64200   0.66414
 Alpha virt. eigenvalues --    0.67760   0.68788   0.70253   0.70409   0.72910
 Alpha virt. eigenvalues --    0.74193   0.77508   0.77573   0.78683   0.79290
 Alpha virt. eigenvalues --    0.80888   0.83132   0.83643   0.83954   0.84510
 Alpha virt. eigenvalues --    0.84755   0.85424   0.86760   0.86998   0.87961
 Alpha virt. eigenvalues --    0.89357   0.90221   0.91628   0.93342   0.93844
 Alpha virt. eigenvalues --    0.95562   0.96630   0.97480   0.99262   1.00724
 Alpha virt. eigenvalues --    1.01202   1.02596   1.03961   1.05960   1.06649
 Alpha virt. eigenvalues --    1.07939   1.10581   1.12715   1.15437   1.15509
 Alpha virt. eigenvalues --    1.16570   1.17859   1.19210   1.19543   1.24262
 Alpha virt. eigenvalues --    1.24460   1.25685   1.30760   1.32035   1.35496
 Alpha virt. eigenvalues --    1.37023   1.39996   1.41804   1.42548   1.44154
 Alpha virt. eigenvalues --    1.45767   1.46886   1.47895   1.49790   1.51522
 Alpha virt. eigenvalues --    1.52230   1.56235   1.57923   1.61045   1.64430
 Alpha virt. eigenvalues --    1.68678   1.71963   1.74577   1.77586   1.78609
 Alpha virt. eigenvalues --    1.79069   1.79665   1.80712   1.81314   1.83910
 Alpha virt. eigenvalues --    1.85285   1.86431   1.87959   1.90076   1.90979
 Alpha virt. eigenvalues --    1.94296   1.96113   1.96762   2.00436   2.03319
 Alpha virt. eigenvalues --    2.05325   2.05866   2.07623   2.08961   2.10769
 Alpha virt. eigenvalues --    2.10976   2.13079   2.13779   2.14679   2.16928
 Alpha virt. eigenvalues --    2.19656   2.19913   2.21634   2.22786   2.24528
 Alpha virt. eigenvalues --    2.26110   2.27942   2.29143   2.30523   2.31837
 Alpha virt. eigenvalues --    2.34051   2.37115   2.38303   2.48501   2.50981
 Alpha virt. eigenvalues --    2.53130   2.56756   2.58062   2.59195   2.63150
 Alpha virt. eigenvalues --    2.64186   2.66976   2.69664   2.71659   2.72989
 Alpha virt. eigenvalues --    2.73944   2.75781   2.76753   2.81821   2.86391
 Alpha virt. eigenvalues --    2.88747   3.00256   3.06005   3.13165   3.25457
 Alpha virt. eigenvalues --    3.42238   3.60494   3.75823   3.87999   3.93993
 Alpha virt. eigenvalues --    3.96891   4.06397   4.07923   4.10098   4.10739
 Alpha virt. eigenvalues --    4.15336   4.19239   4.23581   4.31695   4.39090
 Alpha virt. eigenvalues --    4.48667   4.70997
          Condensed to atoms (all electrons):
               1          2          3          4          5          6
     1  O    8.267289   0.449317  -0.051402   0.001566  -0.000018  -0.000000
     2  S    0.449317  13.626717   0.136508  -0.018366   0.002446   0.000132
     3  N   -0.051402   0.136508   7.369803   0.257336  -0.058545   0.005657
     4  C    0.001566  -0.018366   0.257336   4.651445   0.369807  -0.083535
     5  N   -0.000018   0.002446  -0.058545   0.369807   6.890394   0.302595
     6  N   -0.000000   0.000132   0.005657  -0.083535   0.302595   6.774372
     7  C   -0.000036  -0.004679  -0.070643   0.520967  -0.070525  -0.099659
     8  N    0.000000   0.000292   0.003278  -0.035197  -0.095768   0.229916
     9  C   -0.000000  -0.000012  -0.000124   0.004167   0.006539  -0.043591
    10  C    0.000000   0.000000   0.000001  -0.000409   0.000361  -0.000273
    11  C   -0.000000  -0.000000  -0.000000   0.000006  -0.000004   0.000290
    12  C   -0.000000  -0.000000  -0.000000   0.000000  -0.000000   0.000017
    13  C    0.000000   0.000000   0.000000  -0.000009   0.000002  -0.000067
    14  C   -0.000000   0.000000   0.000004   0.000961  -0.000332   0.002943
    15  C   -0.058357   0.235545  -0.060939  -0.001472  -0.000047   0.000005
    16  O   -0.043922   0.442868  -0.051871  -0.001003   0.001054   0.000046
    17  H    0.001009  -0.004577   0.299228  -0.026133   0.001852  -0.000072
    18  H   -0.000000  -0.000031  -0.000606  -0.025630   0.004054   0.003484
    19  H   -0.000000  -0.000000  -0.000000   0.000042  -0.000324   0.016033
    20  H    0.000000   0.000000   0.000000  -0.000000   0.000000  -0.000008
    21  H   -0.000000  -0.000000  -0.000000  -0.000000   0.000000   0.000000
    22  H    0.000000   0.000000   0.000000   0.000000  -0.000000   0.000001
    23  H   -0.000000  -0.000000   0.000000   0.000054  -0.000007  -0.000085
    24  H    0.000041  -0.008527   0.000094   0.000242  -0.000004  -0.000001
    25  H    0.001777  -0.008258  -0.002330   0.002480  -0.000006  -0.000046
    26  H   -0.000430  -0.012922   0.002229   0.000018  -0.000002  -0.000000
               7          8          9         10         11         12
     1  O   -0.000036   0.000000  -0.000000   0.000000  -0.000000  -0.000000
     2  S   -0.004679   0.000292  -0.000012   0.000000  -0.000000  -0.000000
     3  N   -0.070643   0.003278  -0.000124   0.000001  -0.000000  -0.000000
     4  C    0.520967  -0.035197   0.004167  -0.000409   0.000006   0.000000
     5  N   -0.070525  -0.095768   0.006539   0.000361  -0.000004  -0.000000
     6  N   -0.099659   0.229916  -0.043591  -0.000273   0.000290   0.000017
     7  C    4.996417   0.332617  -0.031238   0.007220  -0.000086   0.000019
     8  N    0.332617   6.876510   0.198488  -0.059013   0.004557   0.000330
     9  C   -0.031238   0.198488   4.626402   0.512882  -0.010704  -0.038300
    10  C    0.007220  -0.059013   0.512882   4.997924   0.519226  -0.039318
    11  C   -0.000086   0.004557  -0.010704   0.519226   4.880182   0.538998
    12  C    0.000019   0.000330  -0.038300  -0.039318   0.538998   4.872230
    13  C    0.000004   0.004678  -0.009680  -0.041413  -0.024791   0.543324
    14  C   -0.006900  -0.050395   0.528968  -0.071449  -0.042253  -0.040892
    15  C    0.000081  -0.000023  -0.000001  -0.000000   0.000000   0.000000
    16  O   -0.000121   0.000003   0.000000  -0.000000   0.000000   0.000000
    17  H   -0.001597   0.000001   0.000002   0.000000  -0.000000  -0.000000
    18  H    0.362806  -0.034213  -0.001754  -0.000102  -0.000004  -0.000001
    19  H    0.000222  -0.013543  -0.039703   0.356999  -0.038018   0.004510
    20  H    0.000001  -0.000103   0.003541  -0.037878   0.364099  -0.040095
    21  H   -0.000000   0.000003   0.000476   0.004661  -0.041450   0.365922
    22  H   -0.000004  -0.000109   0.003440   0.000726   0.004446  -0.039667
    23  H    0.005747  -0.009191  -0.039304   0.005255   0.000207   0.004299
    24  H    0.000205  -0.000000   0.000000  -0.000000  -0.000000  -0.000000
    25  H    0.002837  -0.000102   0.000003  -0.000000  -0.000000  -0.000000
    26  H   -0.000021   0.000001  -0.000000  -0.000000   0.000000   0.000000
              13         14         15         16         17         18
     1  O    0.000000  -0.000000  -0.058357  -0.043922   0.001009  -0.000000
     2  S    0.000000   0.000000   0.235545   0.442868  -0.004577  -0.000031
     3  N    0.000000   0.000004  -0.060939  -0.051871   0.299228  -0.000606
     4  C   -0.000009   0.000961  -0.001472  -0.001003  -0.026133  -0.025630
     5  N    0.000002  -0.000332  -0.000047   0.001054   0.001852   0.004054
     6  N   -0.000067   0.002943   0.000005   0.000046  -0.000072   0.003484
     7  C    0.000004  -0.006900   0.000081  -0.000121  -0.001597   0.362806
     8  N    0.004678  -0.050395  -0.000023   0.000003   0.000001  -0.034213
     9  C   -0.009680   0.528968  -0.000001   0.000000   0.000002  -0.001754
    10  C   -0.041413  -0.071449  -0.000000  -0.000000   0.000000  -0.000102
    11  C   -0.024791  -0.042253   0.000000   0.000000  -0.000000  -0.000004
    12  C    0.543324  -0.040892   0.000000   0.000000  -0.000000  -0.000001
    13  C    4.864586   0.526932   0.000000  -0.000000   0.000000   0.000164
    14  C    0.526932   4.992556  -0.000000  -0.000000  -0.000000   0.002107
    15  C    0.000000  -0.000000   5.529885  -0.058800   0.000063   0.000071
    16  O   -0.000000  -0.000000  -0.058800   8.275788   0.001287   0.000000
    17  H    0.000000  -0.000000   0.000063   0.001287   0.303271   0.000741
    18  H    0.000164   0.002107   0.000071   0.000000   0.000741   0.458445
    19  H    0.000089   0.005491   0.000000   0.000000   0.000000  -0.000010
    20  H    0.004465   0.000707  -0.000000  -0.000000   0.000000   0.000000
    21  H   -0.041335   0.004881   0.000000   0.000000   0.000000  -0.000000
    22  H    0.363830  -0.037766   0.000000  -0.000000   0.000000  -0.000001
    23  H   -0.035013   0.354190  -0.000000  -0.000000   0.000000   0.001530
    24  H    0.000000   0.000000   0.343872   0.001859  -0.000001   0.000027
    25  H   -0.000000  -0.000000   0.342147  -0.000225   0.000141   0.000087
    26  H    0.000000  -0.000000   0.355192  -0.000082  -0.000008   0.000000
              19         20         21         22         23         24
     1  O   -0.000000   0.000000  -0.000000   0.000000  -0.000000   0.000041
     2  S   -0.000000   0.000000  -0.000000   0.000000  -0.000000  -0.008527
     3  N   -0.000000   0.000000  -0.000000   0.000000   0.000000   0.000094
     4  C    0.000042  -0.000000  -0.000000   0.000000   0.000054   0.000242
     5  N   -0.000324   0.000000   0.000000  -0.000000  -0.000007  -0.000004
     6  N    0.016033  -0.000008   0.000000   0.000001  -0.000085  -0.000001
     7  C    0.000222   0.000001  -0.000000  -0.000004   0.005747   0.000205
     8  N   -0.013543  -0.000103   0.000003  -0.000109  -0.009191  -0.000000
     9  C   -0.039703   0.003541   0.000476   0.003440  -0.039304   0.000000
    10  C    0.356999  -0.037878   0.004661   0.000726   0.005255  -0.000000
    11  C   -0.038018   0.364099  -0.041450   0.004446   0.000207  -0.000000
    12  C    0.004510  -0.040095   0.365922  -0.039667   0.004299  -0.000000
    13  C    0.000089   0.004465  -0.041335   0.363830  -0.035013   0.000000
    14  C    0.005491   0.000707   0.004881  -0.037766   0.354190   0.000000
    15  C    0.000000  -0.000000   0.000000   0.000000  -0.000000   0.343872
    16  O    0.000000  -0.000000   0.000000  -0.000000  -0.000000   0.001859
    17  H    0.000000   0.000000   0.000000   0.000000   0.000000  -0.000001
    18  H   -0.000010   0.000000  -0.000000  -0.000001   0.001530   0.000027
    19  H    0.538827  -0.005129  -0.000134   0.000013  -0.000129  -0.000000
    20  H   -0.005129   0.551704  -0.005084  -0.000164   0.000013   0.000000
    21  H   -0.000134  -0.005084   0.557222  -0.005093  -0.000144  -0.000000
    22  H    0.000013  -0.000164  -0.005093   0.550931  -0.005111   0.000000
    23  H   -0.000129   0.000013  -0.000144  -0.005111   0.541877  -0.000000
    24  H   -0.000000   0.000000  -0.000000   0.000000  -0.000000   0.471540
    25  H   -0.000000  -0.000000  -0.000000   0.000000  -0.000000  -0.020532
    26  H    0.000000  -0.000000   0.000000   0.000000   0.000000  -0.018077
              25         26
     1  O    0.001777  -0.000430
     2  S   -0.008258  -0.012922
     3  N   -0.002330   0.002229
     4  C    0.002480   0.000018
     5  N   -0.000006  -0.000002
     6  N   -0.000046  -0.000000
     7  C    0.002837  -0.000021
     8  N   -0.000102   0.000001
     9  C    0.000003  -0.000000
    10  C   -0.000000  -0.000000
    11  C   -0.000000   0.000000
    12  C   -0.000000   0.000000
    13  C   -0.000000   0.000000
    14  C   -0.000000  -0.000000
    15  C    0.342147   0.355192
    16  O   -0.000225  -0.000082
    17  H    0.000141  -0.000008
    18  H    0.000087   0.000000
    19  H   -0.000000   0.000000
    20  H   -0.000000  -0.000000
    21  H   -0.000000   0.000000
    22  H    0.000000   0.000000
    23  H   -0.000000   0.000000
    24  H   -0.020532  -0.018077
    25  H    0.472259  -0.019558
    26  H   -0.019558   0.456763
 Mulliken charges:
               1
     1  O   -0.566834
     2  S    1.163546
     3  N   -0.777678
     4  C    0.382663
     5  N   -0.353520
     6  N   -0.108154
     7  C    0.056366
     8  N   -0.353016
     9  C    0.329504
    10  C   -0.155401
    11  C   -0.154700
    12  C   -0.131377
    13  C   -0.155767
    14  C   -0.169752
    15  C   -0.627220
    16  O   -0.566883
    17  H    0.424792
    18  H    0.228836
    19  H    0.174767
    20  H    0.163930
    21  H    0.160074
    22  H    0.164528
    23  H    0.175813
    24  H    0.229261
    25  H    0.229324
    26  H    0.236897
 Sum of Mulliken charges =  -0.00000
 Mulliken charges with hydrogens summed into heavy atoms:
               1
     1  O   -0.566834
     2  S    1.163546
     3  N   -0.352885
     4  C    0.382663
     5  N   -0.353520
     6  N   -0.108154
     7  C    0.285203
     8  N   -0.353016
     9  C    0.329504
    10  C    0.019366
    11  C    0.009230
    12  C    0.028698
    13  C    0.008761
    14  C    0.006060
    15  C    0.068262
    16  O   -0.566883
 Electronic spatial extent (au):  <R**2>=           5483.2148
 Charge=             -0.0000 electrons
 Dipole moment (field-independent basis, Debye):
    X=             -7.9913    Y=            -10.0085    Z=              2.2211  Tot=             12.9986
 Quadrupole moment (field-independent basis, Debye-Ang):
   XX=           -109.9087   YY=            -97.7509   ZZ=            -95.6057
   XY=            -11.4339   XZ=              4.8110   YZ=              3.7792
 Traceless Quadrupole moment (field-independent basis, Debye-Ang):
   XX=             -8.8203   YY=              3.3375   ZZ=              5.4827
   XY=            -11.4339   XZ=              4.8110   YZ=              3.7792
 Octapole moment (field-independent basis, Debye-Ang**2):
  XXX=           -220.8550  YYY=            -36.8669  ZZZ=              6.8428  XYY=             -7.7087
  XXY=            -42.6979  XXZ=             48.4313  XZZ=             30.6596  YZZ=             -9.9208
  YYZ=              1.2598  XYZ=            -21.7724
 Hexadecapole moment (field-independent basis, Debye-Ang**3):
 XXXX=          -6308.1432 YYYY=           -632.2183 ZZZZ=           -364.0245 XXXY=             -3.3108
 XXXZ=             40.9836 YYYX=            -27.7218 YYYZ=             28.0914 ZZZX=             33.7086
 ZZZY=              4.2713 XXYY=          -1078.8092 XXZZ=          -1073.2820 YYZZ=           -163.9042
 XXYZ=              5.6415 YYXZ=             -2.4956 ZZXY=            -37.8545
 N-N= 1.185287370472D+03 E-N=-4.987390655703D+03  KE= 1.108373376559D+03
 No NMR shielding tensors so no spin-rotation constants.
 Leave Link  601 at Wed Sep 23 05:19:19 2020, MaxMem=  2147483648 cpu:               0.4 elap:               0.1
 (Enter /prod/apps/gaussian/g16b1/l701.exe)
 ... and contract with generalized density number  0.
 Compute integral first derivatives.
 D1PCM: PCM CHGder 1st derivatives, ID1Alg=3 FixD1E=F DoIter=F DoCFld=F I1PDM=0.
 GePol: Maximum number of non-zero 1st derivatives   =     178
 Leave Link  701 at Wed Sep 23 05:19:21 2020, MaxMem=  2147483648 cpu:               6.4 elap:               1.6
 (Enter /prod/apps/gaussian/g16b1/l702.exe)
 L702 exits ... SP integral derivatives will be done elsewhere.
 Leave Link  702 at Wed Sep 23 05:19:21 2020, MaxMem=  2147483648 cpu:               0.1 elap:               0.0
 (Enter /prod/apps/gaussian/g16b1/l703.exe)
 Integral derivatives from FoFJK, PRISM(SPDF).
 Compute integral first derivatives, UseDBF=F ICtDFT=           0.
 Calling FoFJK, ICntrl=      2127 FMM=F ISym2X=0 I1Cent= 0 IOpClX= 0 NMat=1 NMatS=1 NMatT=0.
 FoFJK:  IHMeth= 1 ICntrl=    2127 DoSepK=F KAlg= 0 I1Cent=           0 FoldK=F
 IRaf=         0 NMat=       1 IRICut=       1 DoRegI=T DoRafI=F ISym2E= 0 IDoP0=0 IntGTp=1.
 FoFCou: FMM=F IPFlag=           0 FMFlag=      100000 FMFlg1=         800
         NFxFlg=           0 DoJE=F BraDBF=F KetDBF=F FulRan=T
         wScrn=  0.000000 ICntrl=      2127 IOpCl=  0 I1Cent=           0 NGrid=           0
         NMat0=    1 NMatS0=      1 NMatT0=    0 NMatD0=    1 NMtDS0=    0 NMtDT0=    0
 Symmetry not used in FoFCou.
 Leave Link  703 at Wed Sep 23 05:19:30 2020, MaxMem=  2147483648 cpu:              34.6 elap:               8.7
 (Enter /prod/apps/gaussian/g16b1/l716.exe)
 Dipole        =-3.14401851D+00-3.93763472D+00 8.73862077D-01
 -------------------------------------------------------------------
 Center     Atomic                   Forces (Hartrees/Bohr)
 Number     Number              X              Y              Z
 -------------------------------------------------------------------
      1        8           0.000703847   -0.000320979   -0.000565954
      2       16           0.000097837    0.000567854    0.000628439
      3        7          -0.000918697   -0.000712975   -0.000586411
      4        6           0.001755836   -0.000020374   -0.000782028
      5        7          -0.001168328    0.000364363    0.000301594
      6        7           0.000236899    0.000050147   -0.000270538
      7        6          -0.000278774   -0.001835325    0.000402573
      8        7          -0.000196032    0.001338863   -0.000020762
      9        6           0.000333222   -0.000451297   -0.000161947
     10        6          -0.000336637    0.000221642    0.000372779
     11        6          -0.000205709    0.000089300   -0.000014196
     12        6          -0.000521326   -0.000216774    0.000039598
     13        6           0.000632577    0.000427626    0.000092891
     14        6          -0.000019752   -0.000375840   -0.000297915
     15        6           0.000045404    0.000617669    0.001025220
     16        8          -0.000197953    0.000240470   -0.000104498
     17        1           0.000122767    0.000770673    0.000473879
     18        1           0.000198157    0.000385162    0.000101660
     19        1           0.000099018    0.000123629   -0.000073572
     20        1           0.000130913    0.000022763   -0.000013018
     21        1           0.000420762    0.000155527   -0.000023593
     22        1          -0.000167954   -0.000500645   -0.000175138
     23        1          -0.000587236    0.000391063    0.000180150
     24        1          -0.000146434   -0.000778414   -0.000155608
     25        1           0.000313022   -0.000420311   -0.000032524
     26        1          -0.000345428   -0.000133817   -0.000341080
 -------------------------------------------------------------------
 Cartesian Forces:  Max     0.001835325 RMS     0.000517353
 Leave Link  716 at Wed Sep 23 05:19:30 2020, MaxMem=  2147483648 cpu:               0.1 elap:               0.0
 (Enter /prod/apps/gaussian/g16b1/l103.exe)

 GradGradGradGradGradGradGradGradGradGradGradGradGradGradGradGradGradGrad
 Berny optimization.
 FormGI is forming the generalized inverse of G from B-inverse, IUseBI=4.
 GSVD:  received Info=                   1 from GESDD.
 Internal  Forces:  Max     0.001213815 RMS     0.000305665
 Search for a local minimum.
 Step number   1 out of a maximum of  141
 All quantities printed in internal units (Hartrees-Bohrs-Radians)
 RMS Force = .30566D-03 SwitMx=.10000D-02 MixMth= 2
 Mixed Optimization -- En-DIIS/RFO-DIIS
 Second derivative matrix not updated -- first step.
 ITU=  0
     Eigenvalues ---    0.00436   0.01353   0.01364   0.01565   0.01849
     Eigenvalues ---    0.01908   0.02025   0.02138   0.02140   0.02146
     Eigenvalues ---    0.02149   0.02151   0.02156   0.02158   0.02161
     Eigenvalues ---    0.02163   0.02308   0.02342   0.02575   0.05978
     Eigenvalues ---    0.06194   0.08151   0.08349   0.13299   0.13519
     Eigenvalues ---    0.15999   0.15999   0.15999   0.15999   0.16000
     Eigenvalues ---    0.16000   0.16000   0.16000   0.16000   0.18721
     Eigenvalues ---    0.22000   0.22000   0.22852   0.23494   0.23787
     Eigenvalues ---    0.24973   0.24996   0.25000   0.25000   0.25000
     Eigenvalues ---    0.26512   0.34641   0.34796   0.34997   0.35390
     Eigenvalues ---    0.35466   0.35498   0.35596   0.35795   0.36365
     Eigenvalues ---    0.36409   0.41753   0.42108   0.42229   0.44074
     Eigenvalues ---    0.44210   0.45653   0.46231   0.46283   0.46426
     Eigenvalues ---    0.46701   0.47878   0.52726   0.53375   0.62751
     Eigenvalues ---    0.88842   0.88890
 RFO step:  Lambda=-7.19909650D-05 EMin= 4.36091862D-03
 Linear search not attempted -- first point.
 Iteration  1 RMS(Cart)=  0.01461203 RMS(Int)=  0.00008545
 Iteration  2 RMS(Cart)=  0.00013500 RMS(Int)=  0.00000144
 Iteration  3 RMS(Cart)=  0.00000001 RMS(Int)=  0.00000144
 ITry= 1 IFail=0 DXMaxC= 6.72D-02 DCOld= 1.00D+10 DXMaxT= 3.00D-01 DXLimC= 3.00D+00 Rises=F
 Variable       Old X    -DE/DX   Delta X   Delta X   Delta X     New X
                                 (Linear)    (Quad)   (Total)
    R1        2.77171   0.00094   0.00000   0.00106   0.00106   2.77277
    R2        3.20446   0.00062   0.00000   0.00172   0.00172   3.20618
    R3        3.39211   0.00083   0.00000   0.00313   0.00313   3.39524
    R4        2.77149   0.00020   0.00000   0.00023   0.00023   2.77171
    R5        2.66366  -0.00032   0.00000  -0.00073  -0.00073   2.66292
    R6        1.92904  -0.00089   0.00000  -0.00202  -0.00202   1.92702
    R7        2.57149   0.00072   0.00000   0.00136   0.00136   2.57284
    R8        2.60528   0.00093   0.00000   0.00210   0.00210   2.60738
    R9        2.46981  -0.00055   0.00000  -0.00100  -0.00100   2.46881
   R10        2.56229  -0.00024   0.00000  -0.00057  -0.00057   2.56173
   R11        2.55836   0.00121   0.00000   0.00235   0.00235   2.56072
   R12        2.03515  -0.00040   0.00000  -0.00110  -0.00110   2.03405
   R13        2.69239   0.00023   0.00000   0.00054   0.00054   2.69293
   R14        2.63861   0.00049   0.00000   0.00108   0.00108   2.63969
   R15        2.63787   0.00016   0.00000   0.00034   0.00034   2.63822
   R16        2.63313   0.00002   0.00000   0.00008   0.00008   2.63321
   R17        2.04403   0.00013   0.00000   0.00036   0.00036   2.04440
   R18        2.63939   0.00010   0.00000   0.00021   0.00021   2.63960
   R19        2.04926  -0.00006   0.00000  -0.00018  -0.00018   2.04908
   R20        2.63758   0.00015   0.00000   0.00028   0.00028   2.63786
   R21        2.05047  -0.00044   0.00000  -0.00124  -0.00124   2.04923
   R22        2.63389  -0.00031   0.00000  -0.00070  -0.00070   2.63319
   R23        2.04718   0.00055   0.00000   0.00155   0.00155   2.04873
   R24        2.04874  -0.00068   0.00000  -0.00192  -0.00192   2.04682
   R25        2.05679   0.00079   0.00000   0.00224   0.00224   2.05903
   R26        2.06008  -0.00041   0.00000  -0.00117  -0.00117   2.05891
   R27        2.06262  -0.00050   0.00000  -0.00144  -0.00144   2.06118
    A1        1.82994  -0.00018   0.00000  -0.00187  -0.00187   1.82807
    A2        1.89954  -0.00014   0.00000  -0.00064  -0.00064   1.89890
    A3        2.09187   0.00007   0.00000   0.00065   0.00064   2.09251
    A4        1.86942   0.00025   0.00000   0.00076   0.00076   1.87019
    A5        1.87132  -0.00030   0.00000  -0.00149  -0.00149   1.86984
    A6        1.89000   0.00030   0.00000   0.00246   0.00246   1.89246
    A7        2.09131   0.00048   0.00000   0.00258   0.00257   2.09388
    A8        1.92340  -0.00049   0.00000  -0.00218  -0.00219   1.92121
    A9        1.99069   0.00017   0.00000   0.00278   0.00278   1.99347
   A10        2.12391   0.00013   0.00000   0.00030   0.00030   2.12421
   A11        2.25815   0.00035   0.00000   0.00117   0.00117   2.25932
   A12        1.90020  -0.00047   0.00000  -0.00139  -0.00139   1.89881
   A13        1.89736   0.00060   0.00000   0.00197   0.00196   1.89932
   A14        1.87967   0.00001   0.00000  -0.00076  -0.00076   1.87891
   A15        1.81807  -0.00038   0.00000  -0.00086  -0.00087   1.81721
   A16        2.30976   0.00006   0.00000  -0.00034  -0.00034   2.30942
   A17        2.15531   0.00031   0.00000   0.00120   0.00120   2.15651
   A18        1.92933   0.00024   0.00000   0.00106   0.00106   1.93039
   A19        2.10695  -0.00029   0.00000  -0.00123  -0.00123   2.10572
   A20        2.24690   0.00005   0.00000   0.00017   0.00017   2.24707
   A21        2.08166  -0.00027   0.00000  -0.00108  -0.00108   2.08057
   A22        2.08744   0.00045   0.00000   0.00176   0.00176   2.08920
   A23        2.11408  -0.00018   0.00000  -0.00067  -0.00067   2.11341
   A24        2.07803   0.00003   0.00000   0.00027   0.00027   2.07830
   A25        2.08832  -0.00009   0.00000  -0.00058  -0.00058   2.08774
   A26        2.11682   0.00006   0.00000   0.00032   0.00032   2.11714
   A27        2.10246  -0.00004   0.00000  -0.00010  -0.00010   2.10236
   A28        2.08353  -0.00010   0.00000  -0.00070  -0.00070   2.08283
   A29        2.09715   0.00014   0.00000   0.00079   0.00079   2.09795
   A30        2.09103  -0.00002   0.00000  -0.00016  -0.00016   2.09086
   A31        2.09720  -0.00009   0.00000  -0.00053  -0.00053   2.09667
   A32        2.09495   0.00011   0.00000   0.00070   0.00070   2.09565
   A33        2.10097   0.00011   0.00000   0.00032   0.00032   2.10129
   A34        2.09924   0.00002   0.00000   0.00028   0.00028   2.09951
   A35        2.08294  -0.00012   0.00000  -0.00061  -0.00061   2.08233
   A36        2.07973   0.00009   0.00000   0.00033   0.00033   2.08006
   A37        2.10029   0.00018   0.00000   0.00127   0.00127   2.10156
   A38        2.10309  -0.00028   0.00000  -0.00161  -0.00161   2.10148
   A39        1.89633   0.00011   0.00000   0.00040   0.00039   1.89672
   A40        1.89934   0.00041   0.00000   0.00265   0.00265   1.90199
   A41        1.86767   0.00002   0.00000   0.00030   0.00030   1.86796
   A42        1.94076  -0.00030   0.00000  -0.00228  -0.00228   1.93848
   A43        1.93169  -0.00009   0.00000  -0.00075  -0.00075   1.93094
   A44        1.92606  -0.00012   0.00000  -0.00012  -0.00013   1.92593
    D1       -3.13836   0.00033   0.00000   0.01701   0.01700  -3.12135
    D2        0.78220   0.00011   0.00000   0.01231   0.01231   0.79451
    D3        1.12834   0.00046   0.00000   0.01827   0.01827   1.14661
    D4       -1.23429   0.00024   0.00000   0.01358   0.01358  -1.22071
    D5       -0.89711   0.00014   0.00000   0.01578   0.01578  -0.88133
    D6        3.02344  -0.00008   0.00000   0.01109   0.01109   3.03453
    D7       -0.88725   0.00011   0.00000   0.00088   0.00088  -0.88637
    D8       -3.00285   0.00017   0.00000   0.00182   0.00182  -3.00103
    D9        1.19907   0.00008   0.00000   0.00037   0.00037   1.19944
   D10        1.08234  -0.00004   0.00000  -0.00121  -0.00121   1.08113
   D11       -1.03327   0.00002   0.00000  -0.00027  -0.00027  -1.03354
   D12       -3.11453  -0.00007   0.00000  -0.00172  -0.00172  -3.11626
   D13        3.09536  -0.00010   0.00000  -0.00132  -0.00132   3.09403
   D14        0.97975  -0.00005   0.00000  -0.00038  -0.00038   0.97937
   D15       -1.10151  -0.00014   0.00000  -0.00184  -0.00184  -1.10335
   D16        1.33896   0.00019   0.00000   0.00919   0.00918   1.34814
   D17       -1.85423   0.00022   0.00000   0.01136   0.01136  -1.84287
   D18       -2.60938   0.00015   0.00000   0.01201   0.01202  -2.59736
   D19        0.48062   0.00018   0.00000   0.01419   0.01420   0.49481
   D20        3.10575  -0.00006   0.00000  -0.00261  -0.00261   3.10314
   D21        0.00629  -0.00010   0.00000  -0.00444  -0.00445   0.00185
   D22       -3.09128   0.00005   0.00000   0.00186   0.00185  -3.08943
   D23        0.06065   0.00006   0.00000   0.00256   0.00255   0.06321
   D24        0.00392   0.00009   0.00000   0.00385   0.00384   0.00776
   D25       -3.12733   0.00010   0.00000   0.00454   0.00454  -3.12279
   D26       -0.01393   0.00007   0.00000   0.00312   0.00312  -0.01081
   D27        0.01693  -0.00002   0.00000  -0.00067  -0.00067   0.01626
   D28       -3.12405  -0.00005   0.00000  -0.00242  -0.00242  -3.12647
   D29       -0.01257  -0.00004   0.00000  -0.00199  -0.00199  -0.01456
   D30        3.12835  -0.00001   0.00000  -0.00006  -0.00006   3.12829
   D31        3.11986  -0.00006   0.00000  -0.00262  -0.00262   3.11724
   D32       -0.02241  -0.00002   0.00000  -0.00069  -0.00069  -0.02310
   D33       -0.42464  -0.00011   0.00000  -0.00845  -0.00845  -0.43309
   D34        2.71830  -0.00013   0.00000  -0.00984  -0.00984   2.70846
   D35        2.71769  -0.00015   0.00000  -0.01055  -0.01055   2.70714
   D36       -0.42256  -0.00017   0.00000  -0.01194  -0.01194  -0.43450
   D37        3.13839   0.00000   0.00000   0.00019   0.00019   3.13858
   D38       -0.00880   0.00004   0.00000   0.00173   0.00173  -0.00707
   D39       -0.00457   0.00003   0.00000   0.00161   0.00161  -0.00296
   D40        3.13142   0.00007   0.00000   0.00315   0.00315   3.13457
   D41        3.13505  -0.00003   0.00000  -0.00153  -0.00153   3.13352
   D42       -0.01949  -0.00005   0.00000  -0.00236  -0.00236  -0.02185
   D43       -0.00517  -0.00006   0.00000  -0.00295  -0.00295  -0.00812
   D44        3.12348  -0.00008   0.00000  -0.00378  -0.00378   3.11970
   D45        0.00975   0.00002   0.00000   0.00084   0.00084   0.01059
   D46       -3.14128  -0.00000   0.00000  -0.00017  -0.00017  -3.14144
   D47       -3.12615  -0.00002   0.00000  -0.00072  -0.00072  -3.12687
   D48        0.00601  -0.00004   0.00000  -0.00173  -0.00173   0.00428
   D49       -0.00518  -0.00004   0.00000  -0.00191  -0.00191  -0.00708
   D50        3.13635  -0.00002   0.00000  -0.00104  -0.00104   3.13531
   D51       -3.13726  -0.00002   0.00000  -0.00088  -0.00088  -3.13814
   D52        0.00427   0.00000   0.00000  -0.00002  -0.00002   0.00425
   D53       -0.00476   0.00001   0.00000   0.00054   0.00054  -0.00422
   D54       -3.13688   0.00004   0.00000   0.00181   0.00181  -3.13507
   D55        3.13690  -0.00001   0.00000  -0.00032  -0.00032   3.13658
   D56        0.00478   0.00002   0.00000   0.00095   0.00095   0.00573
   D57        0.00983   0.00004   0.00000   0.00186   0.00186   0.01169
   D58       -3.11879   0.00006   0.00000   0.00267   0.00267  -3.11612
   D59       -3.14114   0.00001   0.00000   0.00060   0.00060  -3.14054
   D60        0.01342   0.00003   0.00000   0.00141   0.00141   0.01483
         Item               Value     Threshold  Converged?
 Maximum Force            0.001214     0.000450     NO 
 RMS     Force            0.000306     0.000300     NO 
 Maximum Displacement     0.067244     0.001800     NO 
 RMS     Displacement     0.014641     0.001200     NO 
 Predicted change in Energy=-3.609007D-05
 Lowest energy point so far.  Saving SCF results.
 GradGradGradGradGradGradGradGradGradGradGradGradGradGradGradGradGradGrad

 Leave Link  103 at Wed Sep 23 05:19:30 2020, MaxMem=  2147483648 cpu:               0.1 elap:               0.0
 (Enter /prod/apps/gaussian/g16b1/l202.exe)
                          Input orientation:                          
 ---------------------------------------------------------------------
 Center     Atomic      Atomic             Coordinates (Angstroms)
 Number     Number       Type             X           Y           Z
 ---------------------------------------------------------------------
      1          8           0        4.707290   -0.570605   -0.435395
      2         16           0        3.476868   -0.087846    0.201739
      3          7           0        2.280025   -0.254325   -0.989238
      4          6           0        0.956490    0.146195   -0.718006
      5          7           0        0.589677    1.457315   -0.726273
      6          7           0       -0.692867    1.537697   -0.490900
      7          6           0       -0.158996   -0.625886   -0.466342
      8          7           0       -1.163603    0.275088   -0.342924
      9          6           0       -2.546674    0.040104   -0.092656
     10          6           0       -3.311422    1.044450    0.505409
     11          6           0       -4.664369    0.813122    0.745574
     12          6           0       -5.244824   -0.410790    0.404676
     13          6           0       -4.466606   -1.406345   -0.188424
     14          6           0       -3.115451   -1.184641   -0.446981
     15          6           0        3.045782   -1.200069    1.545317
     16          8           0        3.403183    1.290146    0.698730
     17          1           0        2.357308   -1.166713   -1.438055
     18          1           0       -0.296773   -1.688465   -0.363761
     19          1           0       -2.844769    1.982155    0.776221
     20          1           0       -5.262000    1.589898    1.209493
[...]
 Alpha virt. eigenvalues --    0.10926   0.11481   0.12053   0.12491   0.12876
 Alpha virt. eigenvalues --    0.12913   0.13246   0.14003   0.14191   0.14274
 Alpha virt. eigenvalues --    0.14585   0.14759   0.15115   0.15714   0.16002
 Alpha virt. eigenvalues --    0.16316   0.16629   0.16869   0.17256   0.17362
 Alpha virt. eigenvalues --    0.17980   0.18141   0.19101   0.19233   0.19454
 Alpha virt. eigenvalues --    0.19855   0.20171   0.20889   0.21145   0.22575
 Alpha virt. eigenvalues --    0.22863   0.23861   0.24313   0.24785   0.25081
 Alpha virt. eigenvalues --    0.25919   0.26319   0.26729   0.26841   0.27443
 Alpha virt. eigenvalues --    0.27869   0.28768   0.29466   0.29814   0.29951
 Alpha virt. eigenvalues --    0.30138   0.30752   0.31128   0.31317   0.31860
 Alpha virt. eigenvalues --    0.32159   0.32666   0.32857   0.33559   0.33949
 Alpha virt. eigenvalues --    0.34503   0.34927   0.35067   0.35579   0.35886
 Alpha virt. eigenvalues --    0.36190   0.36375   0.36897   0.37499   0.37678
 Alpha virt. eigenvalues --    0.38409   0.38493   0.38960   0.39236   0.39882
 Alpha virt. eigenvalues --    0.40133   0.40454   0.41324   0.41534   0.42062
 Alpha virt. eigenvalues --    0.42368   0.42900   0.43288   0.43538   0.44279
 Alpha virt. eigenvalues --    0.44629   0.44840   0.45786   0.46024   0.46363
 Alpha virt. eigenvalues --    0.46953   0.47796   0.48612   0.49369   0.49886
 Alpha virt. eigenvalues --    0.50015   0.50867   0.52127   0.52275   0.52871
 Alpha virt. eigenvalues --    0.53966   0.54485   0.54953   0.55464   0.55887
 Alpha virt. eigenvalues --    0.56796   0.57184   0.57996   0.58675   0.59093
 Alpha virt. eigenvalues --    0.59416   0.59787   0.60171   0.60283   0.61067
 Alpha virt. eigenvalues --    0.61702   0.62901   0.63247   0.64105   0.64387
 Alpha virt. eigenvalues --    0.64916   0.65040   0.65868   0.66153   0.66786
 Alpha virt. eigenvalues --    0.67210   0.67426   0.68214   0.68698   0.69309
 Alpha virt. eigenvalues --    0.69672   0.70397   0.71237   0.72287   0.72670
 Alpha virt. eigenvalues --    0.72796   0.73984   0.74690   0.75260   0.75545
 Alpha virt. eigenvalues --    0.75977   0.76066   0.76841   0.77177   0.77720
 Alpha virt. eigenvalues --    0.78806   0.79400   0.80534   0.81184   0.82592
 Alpha virt. eigenvalues --    0.83690   0.83925   0.84619   0.84726   0.85931
 Alpha virt. eigenvalues --    0.86417   0.87497   0.88044   0.88538   0.88863
 Alpha virt. eigenvalues --    0.89437   0.90393   0.90841   0.91453   0.91702
 Alpha virt. eigenvalues --    0.92630   0.93063   0.93389   0.93609   0.94230
 Alpha virt. eigenvalues --    0.95327   0.96128   0.96918   0.97973   0.99269
 Alpha virt. eigenvalues --    0.99331   0.99652   1.00470   1.01150   1.01550
 Alpha virt. eigenvalues --    1.02243   1.02908   1.04536   1.05063   1.05469
 Alpha virt. eigenvalues --    1.06250   1.06389   1.07858   1.08473   1.10264
 Alpha virt. eigenvalues --    1.10374   1.11978   1.12936   1.13441   1.13737
 Alpha virt. eigenvalues --    1.14459   1.15039   1.16138   1.16455   1.17274
 Alpha virt. eigenvalues --    1.19071   1.19200   1.20683   1.21803   1.23033
 Alpha virt. eigenvalues --    1.23376   1.23957   1.27444   1.27616   1.28582
 Alpha virt. eigenvalues --    1.29943   1.30700   1.30988   1.32913   1.34726
 Alpha virt. eigenvalues --    1.36741   1.37548   1.38941   1.39729   1.41369
 Alpha virt. eigenvalues --    1.41855   1.42247   1.43299   1.44581   1.45950
 Alpha virt. eigenvalues --    1.47078   1.47447   1.47922   1.50059   1.50385
 Alpha virt. eigenvalues --    1.51638   1.51921   1.53162   1.54803   1.55523
 Alpha virt. eigenvalues --    1.56586   1.57074   1.57939   1.58050   1.60544
 Alpha virt. eigenvalues --    1.60957   1.61947   1.62745   1.63389   1.64247
 Alpha virt. eigenvalues --    1.66035   1.67118   1.67275   1.68002   1.69468
 Alpha virt. eigenvalues --    1.70338   1.70940   1.71067   1.71561   1.73255
 Alpha virt. eigenvalues --    1.74339   1.75200   1.77130   1.78067   1.79196
 Alpha virt. eigenvalues --    1.80071   1.81438   1.81837   1.82678   1.84081
 Alpha virt. eigenvalues --    1.84942   1.86043   1.87822   1.89105   1.89612
 Alpha virt. eigenvalues --    1.90622   1.92646   1.92978   1.93752   1.93852
 Alpha virt. eigenvalues --    1.95398   1.95871   1.96825   1.97721   1.98810
 Alpha virt. eigenvalues --    1.99047   2.01006   2.02298   2.03176   2.04804
 Alpha virt. eigenvalues --    2.06657   2.07881   2.09195   2.10854   2.11217
 Alpha virt. eigenvalues --    2.11811   2.14443   2.15918   2.16140   2.17837
 Alpha virt. eigenvalues --    2.18317   2.19508   2.19897   2.20537   2.22440
 Alpha virt. eigenvalues --    2.22631   2.23614   2.24201   2.26137   2.27407
 Alpha virt. eigenvalues --    2.29836   2.30671   2.32078   2.32757   2.33794
 Alpha virt. eigenvalues --    2.34411   2.35195   2.36464   2.36894   2.37474
 Alpha virt. eigenvalues --    2.38038   2.40774   2.41605   2.42106   2.42864
 Alpha virt. eigenvalues --    2.44084   2.47568   2.48633   2.50724   2.51448
 Alpha virt. eigenvalues --    2.53497   2.55891   2.57593   2.58431   2.60278
 Alpha virt. eigenvalues --    2.61625   2.63582   2.65467   2.66676   2.69687
 Alpha virt. eigenvalues --    2.71683   2.72457   2.74966   2.76816   2.79822
 Alpha virt. eigenvalues --    2.80460   2.82169   2.84409   2.85564   2.87281
 Alpha virt. eigenvalues --    2.87583   2.89010   2.89403   2.93260   2.95019
 Alpha virt. eigenvalues --    2.96943   2.97765   2.99877   3.01657   3.02938
 Alpha virt. eigenvalues --    3.03797   3.06522   3.11378   3.12280   3.13118
 Alpha virt. eigenvalues --    3.14249   3.16560   3.20888   3.23359   3.29456
 Alpha virt. eigenvalues --    3.31928   3.35186   3.37541   3.39918   3.43611
 Alpha virt. eigenvalues --    3.54194   3.57022   3.60973   3.64935   3.71022
 Alpha virt. eigenvalues --    3.72350   3.73278   3.74961   3.76678   3.79267
 Alpha virt. eigenvalues --    3.80316   3.80922   3.82913   3.85598   3.88990
 Alpha virt. eigenvalues --    3.93260   4.01238   4.25661   4.35791   4.87229
          Condensed to atoms (all electrons):
               1          2          3          4          5          6
     1  O    9.140407  -0.090936  -0.086464   0.194861  -0.029100  -0.001717
     2  S   -0.090936  13.460884   0.524238  -1.407297   0.206329  -0.009549
     3  N   -0.086464   0.524238   8.143168  -1.660013   0.152143  -0.161310
     4  C    0.194861  -1.407297  -1.660013  13.714049  -1.249234   0.798790
     5  N   -0.029100   0.206329   0.152143  -1.249234   8.662145  -0.807678
     6  N   -0.001717  -0.009549  -0.161310   0.798790  -0.807678   8.943277
     7  C   -0.052167   0.521925   0.799079  -5.855910   0.935739  -0.932744
     8  N    0.001479   0.032472  -0.014301  -0.153091  -0.068455  -0.374690
     9  C    0.003936  -0.035412   0.004636   0.589442  -0.010851  -0.301385
    10  C    0.000290  -0.002477  -0.001922  -0.102603  -0.106181   0.457188
    11  C    0.000043  -0.002369  -0.001735   0.020595  -0.015831  -0.004185
    12  C   -0.000002   0.000254  -0.000772  -0.012193  -0.010960   0.009077
    13  C   -0.000051   0.000414  -0.002537   0.110581   0.014514   0.007052
    14  C   -0.001098   0.015437  -0.002426  -0.173519   0.069145  -0.098557
    15  C   -0.029875   0.418059  -0.000156   0.064493  -0.026281  -0.009310
    16  O    0.024601  -0.070045  -0.086786   0.287208  -0.068051  -0.017785
    17  H    0.024642  -0.096776   0.396217  -0.005961   0.008175   0.016258
    18  H   -0.002797   0.006413  -0.127097   0.282838  -0.069684  -0.068695
    19  H    0.000047  -0.000595  -0.001300   0.012245  -0.008608   0.005630
    20  H    0.000001  -0.000064  -0.000058   0.001167   0.000568  -0.001590
    21  H    0.000000  -0.000004  -0.000024  -0.000623  -0.000088   0.001044
    22  H    0.000001  -0.000014   0.000047   0.002117  -0.000365   0.001831
    23  H    0.000022  -0.000993  -0.001391  -0.003858   0.000791  -0.027804
    24  H    0.021357   0.054054  -0.051175  -0.093772   0.006017   0.000245
    25  H    0.014004  -0.107411   0.000178   0.000365  -0.004927   0.001945
    26  H   -0.000733  -0.004034   0.016590  -0.023337   0.006181   0.001503
               7          8          9         10         11         12
     1  O   -0.052167   0.001479   0.003936   0.000290   0.000043  -0.000002
     2  S    0.521925   0.032472  -0.035412  -0.002477  -0.002369   0.000254
     3  N    0.799079  -0.014301   0.004636  -0.001922  -0.001735  -0.000772
     4  C   -5.855910  -0.153091   0.589442  -0.102603   0.020595  -0.012193
     5  N    0.935739  -0.068455  -0.010851  -0.106181  -0.015831  -0.010960
     6  N   -0.932744  -0.374690  -0.301385   0.457188  -0.004185   0.009077
     7  C   11.505813   0.056651  -1.752428   0.036344   0.044519   0.056659
     8  N    0.056651   8.994927  -0.833145   0.014974  -0.227346   0.345010
     9  C   -1.752428  -0.833145  14.182841  -4.779529   2.572455  -3.475318
    10  C    0.036344   0.014974  -4.779529  11.934807  -3.271421   2.788241
    11  C    0.044519  -0.227346   2.572455  -3.271421   9.605943  -2.834341
    12  C    0.056659   0.345010  -3.475318   2.788241  -2.834341   8.872074
    13  C   -0.383680  -0.361933   2.897166  -3.131641   2.877424  -2.993627
    14  C    0.617490   0.495250  -5.549937   2.316743  -3.257264   3.090800
    15  C   -0.031355   0.007655   0.002212  -0.000762  -0.000566   0.000624
    16  O   -0.074817   0.002177   0.005514   0.000048   0.000209  -0.000073
    17  H   -0.097754   0.009326   0.009529   0.000070   0.000103  -0.000264
    18  H   -0.592227   0.118022   0.160507  -0.133444  -0.006184  -0.003301
    19  H   -0.019747  -0.198755   0.662839  -0.901307   0.323901  -0.171873
    20  H   -0.003147  -0.007819  -0.105533   0.585201  -0.702311   0.280419
    21  H    0.000380  -0.002417   0.113624  -0.113893   0.395075  -0.631431
    22  H    0.005493   0.002732  -0.122380   0.102546  -0.221599   0.289150
    23  H    0.089620  -0.195890   0.861184  -0.124383   0.125975  -0.182893
    24  H    0.028070   0.005922   0.003419   0.000193  -0.000322   0.000192
    25  H   -0.012247   0.001787   0.021845  -0.002848   0.002658  -0.001830
    26  H    0.020190  -0.002942  -0.003741   0.000411  -0.000115   0.000112
              13         14         15         16         17         18
     1  O   -0.000051  -0.001098  -0.029875   0.024601   0.024642  -0.002797
     2  S    0.000414   0.015437   0.418059  -0.070045  -0.096776   0.006413
     3  N   -0.002537  -0.002426  -0.000156  -0.086786   0.396217  -0.127097
     4  C    0.110581  -0.173519   0.064493   0.287208  -0.005961   0.282838
     5  N    0.014514   0.069145  -0.026281  -0.068051   0.008175  -0.069684
     6  N    0.007052  -0.098557  -0.009310  -0.017785   0.016258  -0.068695
     7  C   -0.383680   0.617490  -0.031355  -0.074817  -0.097754  -0.592227
     8  N   -0.361933   0.495250   0.007655   0.002177   0.009326   0.118022
     9  C    2.897166  -5.549937   0.002212   0.005514   0.009529   0.160507
    10  C   -3.131641   2.316743  -0.000762   0.000048   0.000070  -0.133444
    11  C    2.877424  -3.257264  -0.000566   0.000209   0.000103  -0.006184
    12  C   -2.993627   3.090800   0.000624  -0.000073  -0.000264  -0.003301
    13  C   10.133789  -3.688011  -0.002225  -0.000028  -0.000265   0.080619
    14  C   -3.688011  12.629521   0.001977  -0.002232  -0.004045   0.014953
    15  C   -0.002225   0.001977   4.626674  -0.024375  -0.025056  -0.001955
    16  O   -0.000028  -0.002232  -0.024375   9.095583   0.003908  -0.001280
    17  H   -0.000265  -0.004045  -0.025056   0.003908   0.803168   0.008815
    18  H    0.080619   0.014953  -0.001955  -0.001280   0.008815   1.916852
    19  H    0.119643  -0.108359   0.000530   0.000002  -0.000132  -0.001307
    20  H   -0.212256   0.119615  -0.000036   0.000003  -0.000000  -0.000069
    21  H    0.361297  -0.170771   0.000020  -0.000002  -0.000005   0.000124
    22  H   -0.767739   0.648351  -0.000083   0.000002  -0.000017   0.002559
    23  H    0.167745  -1.019574   0.000444   0.000071   0.001365  -0.083148
    24  H   -0.000039   0.000571   0.292111   0.005024   0.014809   0.001306
    25  H    0.002367  -0.009597   0.325557   0.046343  -0.002019  -0.006522
    26  H   -0.000335   0.001129   0.334828   0.002159  -0.001579   0.002737
              19         20         21         22         23         24
     1  O    0.000047   0.000001   0.000000   0.000001   0.000022   0.021357
     2  S   -0.000595  -0.000064  -0.000004  -0.000014  -0.000993   0.054054
     3  N   -0.001300  -0.000058  -0.000024   0.000047  -0.001391  -0.051175
     4  C    0.012245   0.001167  -0.000623   0.002117  -0.003858  -0.093772
     5  N   -0.008608   0.000568  -0.000088  -0.000365   0.000791   0.006017
     6  N    0.005630  -0.001590   0.001044   0.001831  -0.027804   0.000245
     7  C   -0.019747  -0.003147   0.000380   0.005493   0.089620   0.028070
     8  N   -0.198755  -0.007819  -0.002417   0.002732  -0.195890   0.005922
     9  C    0.662839  -0.105533   0.113624  -0.122380   0.861184   0.003419
    10  C   -0.901307   0.585201  -0.113893   0.102546  -0.124383   0.000193
    11  C    0.323901  -0.702311   0.395075  -0.221599   0.125975  -0.000322
    12  C   -0.171873   0.280419  -0.631431   0.289150  -0.182893   0.000192
    13  C    0.119643  -0.212256   0.361297  -0.767739   0.167745  -0.000039
    14  C   -0.108359   0.119615  -0.170771   0.648351  -1.019574   0.000571
    15  C    0.000530  -0.000036   0.000020  -0.000083   0.000444   0.292111
    16  O    0.000002   0.000003  -0.000002   0.000002   0.000071   0.005024
    17  H   -0.000132  -0.000000  -0.000005  -0.000017   0.001365   0.014809
    18  H   -0.001307  -0.000069   0.000124   0.002559  -0.083148   0.001306
    19  H    1.917650  -0.081728  -0.011185   0.009068  -0.017905   0.000185
    20  H   -0.081728   1.620267  -0.059085  -0.017455   0.010172  -0.000014
    21  H   -0.011185  -0.059085   1.631731  -0.055297  -0.015095   0.000002
    22  H    0.009068  -0.017455  -0.055297   1.641330  -0.083076  -0.000022
    23  H   -0.017905   0.010172  -0.015095  -0.083076   2.153660   0.000239
    24  H    0.000185  -0.000014   0.000002  -0.000022   0.000239   0.864322
    25  H   -0.000672   0.000093  -0.000019   0.000119  -0.000212  -0.068345
    26  H   -0.000027  -0.000005   0.000004  -0.000017   0.000049  -0.107630
              25         26
     1  O    0.014004  -0.000733
     2  S   -0.107411  -0.004034
     3  N    0.000178   0.016590
     4  C    0.000365  -0.023337
     5  N   -0.004927   0.006181
     6  N    0.001945   0.001503
     7  C   -0.012247   0.020190
     8  N    0.001787  -0.002942
     9  C    0.021845  -0.003741
    10  C   -0.002848   0.000411
    11  C    0.002658  -0.000115
    12  C   -0.001830   0.000112
    13  C    0.002367  -0.000335
    14  C   -0.009597   0.001129
    15  C    0.325557   0.334828
    16  O    0.046343   0.002159
    17  H   -0.002019  -0.001579
    18  H   -0.006522   0.002737
    19  H   -0.000672  -0.000027
    20  H    0.000093  -0.000005
    21  H   -0.000019   0.000004
    22  H    0.000119  -0.000017
    23  H   -0.000212   0.000049
    24  H   -0.068345  -0.107630
    25  H    0.868495  -0.100440
    26  H   -0.100440   0.838167
 Mulliken charges:
               1
     1  O   -1.130751
     2  S    2.587495
     3  N   -0.836830
     4  C    0.662661
     5  N   -0.585452
     6  N   -0.426839
     7  C    1.090251
     8  N   -0.647600
     9  C    0.878508
    10  C    0.435357
    11  C    0.576691
    12  C    0.586266
    13  C    0.771757
    14  C    0.064406
    15  C    0.076852
    16  O   -1.127379
    17  H   -0.062512
    18  H   -0.498034
    19  H   -0.528241
    20  H   -0.426336
    21  H   -0.443362
    22  H   -0.437282
    23  H   -0.655115
    24  H    0.023281
    25  H    0.031332
    26  H    0.020876
 Sum of Mulliken charges =  -0.00000
 Mulliken charges with hydrogens summed into heavy atoms:
               1
     1  O   -1.130751
     2  S    2.587495
     3  N   -0.899342
     4  C    0.662661
     5  N   -0.585452
     6  N   -0.426839
     7  C    0.592217
     8  N   -0.647600
     9  C    0.878508
    10  C   -0.092884
    11  C    0.150354
    12  C    0.142904
    13  C    0.334475
    14  C   -0.590709
    15  C    0.152340
    16  O   -1.127379
 Electronic spatial extent (au):  <R**2>=           5473.8466
 Charge=             -0.0000 electrons
 Dipole moment (field-independent basis, Debye):
    X=             -6.7154    Y=             -7.4750    Z=              1.6773  Tot=             10.1875
 Quadrupole moment (field-independent basis, Debye-Ang):
   XX=           -112.4189   YY=            -99.9477   ZZ=           -100.0099
   XY=            -10.8695   XZ=              3.3467   YZ=              2.9280
 Traceless Quadrupole moment (field-independent basis, Debye-Ang):
   XX=             -8.2934   YY=              4.1778   ZZ=              4.1156
   XY=            -10.8695   XZ=              3.3467   YZ=              2.9280
 Octapole moment (field-independent basis, Debye-Ang**2):
  XXX=           -188.1493  YYY=            -26.2381  ZZZ=              5.2282  XYY=             -1.7081
  XXY=            -32.7333  XXZ=             48.1734  XZZ=             32.9977  YZZ=             -7.8661
  YYZ=              0.6567  XYZ=            -26.5024
 Hexadecapole moment (field-independent basis, Debye-Ang**3):
 XXXX=          -6504.5742 YYYY=           -662.5977 ZZZZ=           -398.4340 XXXY=             -2.2085
 XXXZ=             30.4258 YYYX=            -28.0775 YYYZ=             29.3768 ZZZX=             31.0407
 ZZZY=              3.0524 XXYY=          -1110.7007 XXZZ=          -1120.2063 YYZZ=           -174.4354
 XXYZ=             10.0529 YYXZ=             -1.0958 ZZXY=            -42.2603
 N-N= 1.185340977191D+03 E-N=-4.985782693778D+03  KE= 1.110249697361D+03
 Leave Link  601 at Wed Sep 23 05:46:58 2020, MaxMem=   262144000 cpu:               0.6 elap:               0.2
 (Enter /prod/apps/gaussian/g16b1/l9999.exe)
 1\1\GINC-PIRINEUS14\SP\RMP2-FC\Aug-CC-pVDZ\C9H10N4O2S1\UBAFAR01\23-Sep
 -2020\0\\#p mp2/aug-cc-pVDZ scf=(MaxCycle=2000,NoVarAcc,NoIncFock) max
 disk=120GB geom=allcheck\\SM44_m0.n.10.pdb.xyz\\0,1\O,0,4.715519155,-0
 .5037318269,-0.3936984065\S,0,3.458176106,-0.073729079,0.2290878264\N,
 0,2.2873189816,-0.2431532751,-0.9876501417\C,0,0.9589836347,0.15316104
 42,-0.7379945185\N,0,0.5814545708,1.4604645723,-0.7996052339\N,0,-0.70
 07066482,1.5399617005,-0.5661908492\C,0,-0.1509926911,-0.6165915506,-0
 .4560864656\N,0,-1.1619045579,0.2807824876,-0.3662583433\C,0,-2.542018
 6921,0.0444170614,-0.1022367049\C,0,-3.3043694088,1.0518679719,0.49370
 45978\C,0,-4.6544599221,0.8187653946,0.7477311134\C,0,-5.2340181841,-0
 .4100998036,0.423087928\C,0,-4.4579063318,-1.4087053738,-0.1675160418\
 C,0,-3.1097137713,-1.1852009499,-0.4401942536\C,0,3.0329878404,-1.2352
 485233,1.5323140755\O,0,3.3327276533,1.2877834996,0.760175668\H,0,2.37
 69187373,-1.1532710443,-1.4389716085\H,0,-0.2815979866,-1.6752844901,-
 0.3108829059\H,0,-2.8377762827,1.9932074806,0.7521784553\H,0,-5.250325
 1711,1.5978904688,1.2100271204\H,0,-6.2837800292,-0.5878898913,0.62903
 48067\H,0,-4.9008138286,-2.3632543806,-0.4281866288\H,0,-2.5122547706,
 -1.9513464578,-0.9194330519\H,0,3.0689510124,-2.24442069,1.1229931873\
 H,0,2.0363071115,-0.9977776986,1.9033979663\H,0,3.7732934734,-1.114596
 6465,2.3241724088\\Version=ES64L-G16RevB.01\State=1-A\HF=-1111.6317732
 \MP2=-1114.1087368\RMSD=4.897e-09\PG=C01 [X(C9H10N4O2S1)]\\@


 At the touch of love, everyone becomes a poet.
                                -- Plato
 Job cpu time:       0 days  0 hours 54 minutes 10.6 seconds.
 Elapsed time:       0 days  0 hours 14 minutes 25.3 seconds.
 File lengths (MBytes):  RWF=  35466 Int=      0 D2E=      0 Chk=     19 Scr=      1
 Normal termination of Gaussian 16 at Wed Sep 23 05:47:00 2020.
