 Entering Gaussian System, Link 0=g16
 Initial command:
 /prod/apps/gaussian/g16b1/l1.exe "/tmp/ubafar01/1461355/Gau-33505.inp" -scrdir="/tmp/ubafar01/1461355/"
 Entering Link 1 = /prod/apps/gaussian/g16b1/l1.exe PID=     33506.
  
 Copyright (c) 1988-2017, Gaussian, Inc.  All Rights Reserved.
  
 This is part of the Gaussian(R) 16 program.  It is based on
 the Gaussian(R) 09 system (copyright 2009, Gaussian, Inc.),
 the Gaussian(R) 03 system (copyright 2003, Gaussian, Inc.),
 the Gaussian(R) 98 system (copyright 1998, Gaussian, Inc.),
 the Gaussian(R) 94 system (copyright 1995, Gaussian, Inc.),
 the Gaussian 92(TM) system (copyright 1992, Gaussian, Inc.),
 the Gaussian 90(TM) system (copyright 1990, Gaussian, Inc.),
 the Gaussian 88(TM) system (copyright 1988, Gaussian, Inc.),
 the Gaussian 86(TM) system (copyright 1986, Carnegie Mellon
 University), and the Gaussian 82(TM) system (copyright 1983,
 Carnegie Mellon University). Gaussian is a federally registered
 trademark of Gaussian, Inc.
  
 This software contains proprietary and confidential information,
 including trade secrets, belonging to Gaussian, Inc.
  
 This software is provided under written license and may be
 used, copied, transmitted, or stored only in accord with that
 written license.
  
 The following legend is applicable only to US Government
 contracts under FAR:
  
                    RESTRICTED RIGHTS LEGEND
  
 Use, reproduction and disclosure by the US Government is
 subject to restrictions as set forth in subparagraphs (a)
 and (c) of the Commercial Computer Software - Restricted
 Rights clause in FAR 52.227-19.
  
 Gaussian, Inc.
 340 Quinnipiac St., Bldg. 40, Wallingford CT 06492
  
  
 ---------------------------------------------------------------
 Warning -- This program may not be used in any manner that
 competes with the business of Gaussian, Inc. or will provide
 assistance to any competitor of Gaussian, Inc.  The licensee
 of this program is prohibited from giving any competitor of
 Gaussian, Inc. access to this program.  By using this program,
 the user acknowledges that Gaussian, Inc. is engaged in the
 business of creating and licensing software in the field of
 computational chemistry and represents and warrants to the
 licensee that it is not a competitor of Gaussian, Inc. and that
 it will not use this program in any manner prohibited above.
 ---------------------------------------------------------------
  

 Cite this work as:
 Gaussian 16, Revision B.01,
 M. J. Frisch, G. W. Trucks, H. B. Schlegel, G. E. Scuseria, 
 M. A. Robb, J. R. Cheeseman, G. Scalmani, V. Barone, 
 G. A. Petersson, H. Nakatsuji, X. Li, M. Caricato, A. V. Marenich, 
 J. Bloino, B. G. Janesko, R. Gomperts, B. Mennucci, H. P. Hratchian, 
 J. V. Ortiz, A. F. Izmaylov, J. L. Sonnenberg, D. Williams-Young, 
 F. Ding, F. Lipparini, F. Egidi, J. Goings, B. Peng, A. Petrone, 
 T. Henderson, D. Ranasinghe, V. G. Zakrzewski, J. Gao, N. Rega, 
 G. Zheng, W. Liang, M. Hada, M. Ehara, K. Toyota, R. Fukuda, 
 J. Hasegawa, M. Ishida, T. Nakajima, Y. Honda, O. Kitao, H. Nakai, 
 T. Vreven, K. Throssell, J. A. Montgomery, Jr., J. E. Peralta, 
 F. Ogliaro, M. J. Bearpark, J. J. Heyd, E. N. Brothers, K. N. Kudin, 
 V. N. Staroverov, T. A. Keith, R. Kobayashi, J. Normand, 
 K. Raghavachari, A. P. Rendell, J. C. Burant, S. S. Iyengar, 
 J. Tomasi, M. Cossi, J. M. Millam, M. Klene, C. Adamo, R. Cammi, 
 J. W. Ochterski, R. L. Martin, K. Morokuma, O. Farkas, 
 J. B. Foresman, and D. J. Fox, Gaussian, Inc., Wallingford CT, 2016.
 
 ******************************************
 Gaussian 16:  ES64L-G16RevB.01 20-Dec-2017
                24-Sep-2020 
 ******************************************
 %nproc=4
 Will use up to    4 processors via shared memory.
 %Chk=SM44_m2.b.4.pdb.xyz.mst.b.w.chk
 %mem=16GB
 ----------------------------------------------------------------------
 #p b3lyp/6-31G(d) opt freq NoSymm scf=(MaxCycle=2000,NoVarAcc,NoIncFoc
 k) scrf=(iefpcm,read,solvent=water)
 ----------------------------------------------------------------------
 1/18=20,19=15,26=3,38=1,40=2/1,3;
 2/9=110,12=2,15=1,17=6,18=5,40=1/2;
 3/5=1,6=6,7=1,11=2,25=1,30=1,70=2203,71=1,72=1,74=-5/1,2,3;
 4//1;
 5/5=100002,7=2000,38=1,53=1/2;
 6/7=2,8=2,9=2,10=2,28=1/1;
 7/30=1/1,2,3,16;
 1/18=20,19=15,26=3/3(2);
 2/9=110,15=1/2;
 99//99;
 2/9=110,15=1/2;
 3/5=1,6=6,7=1,11=2,25=1,30=1,70=2205,71=1,72=1,74=-5/1,2,3;
 4/5=5,16=3,69=1/1;
 5/5=100002,7=2000,38=1,53=1/2;
 7/30=1/1,2,3,16;
 1/18=20,19=15,26=3/3(-5);
 2/9=110,15=1/2;
 6/7=2,8=2,9=2,10=2,19=2,28=1/1;
 99/9=1/99;
 Leave Link    1 at Thu Sep 24 14:39:06 2020, MaxMem=  2147483648 cpu:               0.1 elap:               0.0
 (Enter /prod/apps/gaussian/g16b1/l101.exe)
 -------------------
 SM44_m2.b.4.pdb.xyz
 -------------------
 Symbolic Z-matrix:
 Charge =  1 Multiplicity = 1
 O                     4.735    -0.44     -0.545 
 S                     3.517    -0.048     0.164 
 N                     2.241    -0.442    -0.92 
 C                     0.945    -0.017    -0.684 
 N                     0.564     1.291    -0.72 
 N                    -0.723     1.463    -0.518 
 C                    -0.223    -0.712    -0.442 
 N                    -1.196     0.237    -0.363 
 C                    -2.598     0.037    -0.12 
 C                    -3.225    -1.081    -0.672 
 C                    -4.584    -1.275    -0.42 
 C                    -5.294    -0.359     0.359 
 C                    -4.647     0.758     0.896 
 C                    -3.288     0.963     0.664 
 C                     3.295    -1.111     1.595 
 O                     3.291     1.347     0.554 
 H                     2.308    -1.409    -1.25 
 H                    -0.406    -1.764    -0.308 
 H                    -2.675    -1.773    -1.3 
 H                    -5.085    -2.138    -0.845 
 H                    -6.351    -0.515     0.549 
 H                    -5.196     1.468     1.506 
 H                    -2.769     1.814     1.089 
 H                     3.361    -2.149     1.266 
 H                     2.325    -0.898     2.046 
 H                     4.103    -0.875     2.291 
 H                     1.154     2.112    -0.879 
 
 ITRead=  0  0  0  0  0  0  0  0  0  0  0  0  0  0  0  0  0  0  0  0
 ITRead=  0  0  0  0  0  0  0
 MicOpt= -1 -1 -1 -1 -1 -1 -1 -1 -1 -1 -1 -1 -1 -1 -1 -1 -1 -1 -1 -1
 MicOpt= -1 -1 -1 -1 -1 -1 -1
 NAtoms=     27 NQM=       27 NQMF=       0 NMMI=      0 NMMIF=      0
                NMic=       0 NMicF=      0.
                    Isotopes and Nuclear Properties:
 (Nuclear quadrupole moments (NQMom) in fm**2, nuclear magnetic moments (NMagM)
  in nuclear magnetons)

  Atom         1           2           3           4           5           6           7           8           9          10
 IAtWgt=          16          32          14          12          14          14          12          14          12          12
 AtmWgt=  15.9949146  31.9720718  14.0030740  12.0000000  14.0030740  14.0030740  12.0000000  14.0030740  12.0000000  12.0000000
 NucSpn=           0           0           2           0           2           2           0           2           0           0
 AtZEff=  -0.0000000  -0.0000000  -0.0000000  -0.0000000  -0.0000000  -0.0000000  -0.0000000  -0.0000000  -0.0000000  -0.0000000
 NQMom=    0.0000000   0.0000000   2.0440000   0.0000000   2.0440000   2.0440000   0.0000000   2.0440000   0.0000000   0.0000000
 NMagM=    0.0000000   0.0000000   0.4037610   0.0000000   0.4037610   0.4037610   0.0000000   0.4037610   0.0000000   0.0000000
 AtZNuc=   8.0000000  16.0000000   7.0000000   6.0000000   7.0000000   7.0000000   6.0000000   7.0000000   6.0000000   6.0000000

  Atom        11          12          13          14          15          16          17          18          19          20
 IAtWgt=          12          12          12          12          12          16           1           1           1           1
 AtmWgt=  12.0000000  12.0000000  12.0000000  12.0000000  12.0000000  15.9949146   1.0078250   1.0078250   1.0078250   1.0078250
 NucSpn=           0           0           0           0           0           0           1           1           1           1
 AtZEff=  -0.0000000  -0.0000000  -0.0000000  -0.0000000  -0.0000000  -0.0000000  -0.0000000  -0.0000000  -0.0000000  -0.0000000
 NQMom=    0.0000000   0.0000000   0.0000000   0.0000000   0.0000000   0.0000000   0.0000000   0.0000000   0.0000000   0.0000000
 NMagM=    0.0000000   0.0000000   0.0000000   0.0000000   0.0000000   0.0000000   2.7928460   2.7928460   2.7928460   2.7928460
 AtZNuc=   6.0000000   6.0000000   6.0000000   6.0000000   6.0000000   8.0000000   1.0000000   1.0000000   1.0000000   1.0000000

  Atom        21          22          23          24          25          26          27
 IAtWgt=           1           1           1           1           1           1           1
 AtmWgt=   1.0078250   1.0078250   1.0078250   1.0078250   1.0078250   1.0078250   1.0078250
 NucSpn=           1           1           1           1           1           1           1
 AtZEff=  -0.0000000  -0.0000000  -0.0000000  -0.0000000  -0.0000000  -0.0000000  -0.0000000
 NQMom=    0.0000000   0.0000000   0.0000000   0.0000000   0.0000000   0.0000000   0.0000000
 NMagM=    2.7928460   2.7928460   2.7928460   2.7928460   2.7928460   2.7928460   2.7928460
 AtZNuc=   1.0000000   1.0000000   1.0000000   1.0000000   1.0000000   1.0000000   1.0000000
 Leave Link  101 at Thu Sep 24 14:39:06 2020, MaxMem=  2147483648 cpu:               1.2 elap:               0.3
 (Enter /prod/apps/gaussian/g16b1/l103.exe)

 GradGradGradGradGradGradGradGradGradGradGradGradGradGradGradGradGradGrad
 Berny optimization.
 Initialization pass.
                           ----------------------------
                           !    Initial Parameters    !
                           ! (Angstroms and Degrees)  !
 --------------------------                            --------------------------
 ! Name  Definition              Value          Derivative Info.                !
 --------------------------------------------------------------------------------
 ! R1    R(1,2)                  1.4628         estimate D2E/DX2                !
 ! R2    R(2,3)                  1.72           estimate D2E/DX2                !
 ! R3    R(2,15)                 1.7964         estimate D2E/DX2                !
 ! R4    R(2,16)                 1.466          estimate D2E/DX2                !
 ! R5    R(3,4)                  1.3842         estimate D2E/DX2                !
 ! R6    R(3,17)                 1.024          estimate D2E/DX2                !
 ! R7    R(4,5)                  1.3628         estimate D2E/DX2                !
 ! R8    R(4,7)                  1.3805         estimate D2E/DX2                !
 ! R9    R(5,6)                  1.3141         estimate D2E/DX2                !
 ! R10   R(5,27)                 1.0234         estimate D2E/DX2                !
 ! R11   R(6,8)                  1.3232         estimate D2E/DX2                !
 ! R12   R(7,8)                  1.3615         estimate D2E/DX2                !
 ! R13   R(7,18)                 1.0762         estimate D2E/DX2                !
 ! R14   R(8,9)                  1.4369         estimate D2E/DX2                !
 ! R15   R(9,10)                 1.3956         estimate D2E/DX2                !
 ! R16   R(9,14)                 1.3958         estimate D2E/DX2                !
 ! R17   R(10,11)                1.3957         estimate D2E/DX2                !
 ! R18   R(10,19)                1.0843         estimate D2E/DX2                !
 ! R19   R(11,12)                1.3964         estimate D2E/DX2                !
 ! R20   R(11,20)                1.0846         estimate D2E/DX2                !
 ! R21   R(12,13)                1.3981         estimate D2E/DX2                !
 ! R22   R(12,21)                1.0852         estimate D2E/DX2                !
 ! R23   R(13,14)                1.3938         estimate D2E/DX2                !
 ! R24   R(13,22)                1.0852         estimate D2E/DX2                !
 ! R25   R(14,23)                1.0836         estimate D2E/DX2                !
 ! R26   R(15,24)                1.0909         estimate D2E/DX2                !
 ! R27   R(15,25)                1.0907         estimate D2E/DX2                !
 ! R28   R(15,26)                1.0922         estimate D2E/DX2                !
 ! A1    A(1,2,3)              104.5279         estimate D2E/DX2                !
 ! A2    A(1,2,15)             109.2942         estimate D2E/DX2                !
 ! A3    A(1,2,16)             120.8164         estimate D2E/DX2                !
 ! A4    A(3,2,15)             105.9506         estimate D2E/DX2                !
 ! A5    A(3,2,16)             105.7395         estimate D2E/DX2                !
 ! A6    A(15,2,16)            109.3969         estimate D2E/DX2                !
 ! A7    A(2,3,4)              121.1184         estimate D2E/DX2                !
 ! A8    A(2,3,17)             111.7708         estimate D2E/DX2                !
 ! A9    A(4,3,17)             113.965          estimate D2E/DX2                !
 ! A10   A(3,4,5)              123.5002         estimate D2E/DX2                !
 ! A11   A(3,4,7)              131.8728         estimate D2E/DX2                !
 ! A12   A(5,4,7)              104.5534         estimate D2E/DX2                !
 ! A13   A(4,5,6)              113.2892         estimate D2E/DX2                !
 ! A14   A(4,5,27)             127.7966         estimate D2E/DX2                !
 ! A15   A(6,5,27)             118.9141         estimate D2E/DX2                !
 ! A16   A(5,6,8)              104.2904         estimate D2E/DX2                !
 ! A17   A(4,7,8)              105.3024         estimate D2E/DX2                !
 ! A18   A(4,7,18)             131.1343         estimate D2E/DX2                !
 ! A19   A(8,7,18)             123.548          estimate D2E/DX2                !
 ! A20   A(6,8,7)              112.5554         estimate D2E/DX2                !
 ! A21   A(6,8,9)              119.8391         estimate D2E/DX2                !
 ! A22   A(7,8,9)              127.5976         estimate D2E/DX2                !
 ! A23   A(8,9,10)             118.8793         estimate D2E/DX2                !
 ! A24   A(8,9,14)             119.0117         estimate D2E/DX2                !
 ! A25   A(10,9,14)            122.1085         estimate D2E/DX2                !
 ! A26   A(9,10,11)            118.5143         estimate D2E/DX2                !
 ! A27   A(9,10,19)            120.8259         estimate D2E/DX2                !
 ! A28   A(11,10,19)           120.6473         estimate D2E/DX2                !
 ! A29   A(10,11,12)           120.3056         estimate D2E/DX2                !
 ! A30   A(10,11,20)           119.315          estimate D2E/DX2                !
 ! A31   A(12,11,20)           120.3755         estimate D2E/DX2                !
 ! A32   A(11,12,13)           120.2022         estimate D2E/DX2                !
 ! A33   A(11,12,21)           119.9073         estimate D2E/DX2                !
 ! A34   A(13,12,21)           119.8905         estimate D2E/DX2                !
 ! A35   A(12,13,14)           120.3172         estimate D2E/DX2                !
 ! A36   A(12,13,22)           120.2992         estimate D2E/DX2                !
 ! A37   A(14,13,22)           119.3805         estimate D2E/DX2                !
 ! A38   A(9,14,13)            118.5491         estimate D2E/DX2                !
 ! A39   A(9,14,23)            120.3013         estimate D2E/DX2                !
 ! A40   A(13,14,23)           121.1459         estimate D2E/DX2                !
 ! A41   A(2,15,24)            108.3808         estimate D2E/DX2                !
 ! A42   A(2,15,25)            108.8886         estimate D2E/DX2                !
 ! A43   A(2,15,26)            106.7582         estimate D2E/DX2                !
 ! A44   A(24,15,25)           111.366          estimate D2E/DX2                !
 ! A45   A(24,15,26)           110.672          estimate D2E/DX2                !
 ! A46   A(25,15,26)           110.6226         estimate D2E/DX2                !
 ! D1    D(1,2,3,4)           -169.5065         estimate D2E/DX2                !
 ! D2    D(1,2,3,17)            51.7307         estimate D2E/DX2                !
 ! D3    D(15,2,3,4)            75.0852         estimate D2E/DX2                !
 ! D4    D(15,2,3,17)          -63.6776         estimate D2E/DX2                !
 ! D5    D(16,2,3,4)           -40.9814         estimate D2E/DX2                !
 ! D6    D(16,2,3,17)         -179.7442         estimate D2E/DX2                !
 ! D7    D(1,2,15,24)          -51.6513         estimate D2E/DX2                !
 ! D8    D(1,2,15,25)         -172.9469         estimate D2E/DX2                !
 ! D9    D(1,2,15,26)           67.5943         estimate D2E/DX2                !
 ! D10   D(3,2,15,24)           60.4644         estimate D2E/DX2                !
 ! D11   D(3,2,15,25)          -60.8312         estimate D2E/DX2                !
 ! D12   D(3,2,15,26)          179.71           estimate D2E/DX2                !
 ! D13   D(16,2,15,24)         174.0261         estimate D2E/DX2                !
 ! D14   D(16,2,15,25)          52.7305         estimate D2E/DX2                !
 ! D15   D(16,2,15,26)         -66.7283         estimate D2E/DX2                !
 ! D16   D(2,3,4,5)             66.8154         estimate D2E/DX2                !
 ! D17   D(2,3,4,7)           -116.8115         estimate D2E/DX2                !
 ! D18   D(17,3,4,5)          -155.2449         estimate D2E/DX2                !
 ! D19   D(17,3,4,7)            21.1282         estimate D2E/DX2                !
 ! D20   D(3,4,5,6)            177.4713         estimate D2E/DX2                !
 ! D21   D(3,4,5,27)            -2.6805         estimate D2E/DX2                !
 ! D22   D(7,4,5,6)              0.2607         estimate D2E/DX2                !
 ! D23   D(7,4,5,27)          -179.8911         estimate D2E/DX2                !
 ! D24   D(3,4,7,8)           -176.5254         estimate D2E/DX2                !
 ! D25   D(3,4,7,18)             4.8953         estimate D2E/DX2                !
 ! D26   D(5,4,7,8)              0.3506         estimate D2E/DX2                !
 ! D27   D(5,4,7,18)          -178.2288         estimate D2E/DX2                !
 ! D28   D(4,5,6,8)             -0.7686         estimate D2E/DX2                !
 ! D29   D(27,5,6,8)           179.3685         estimate D2E/DX2                !
 ! D30   D(5,6,8,7)              1.0058         estimate D2E/DX2                !
 ! D31   D(5,6,8,9)           -179.9404         estimate D2E/DX2                !
 ! D32   D(4,7,8,6)             -0.8673         estimate D2E/DX2                !
 ! D33   D(4,7,8,9)           -179.8313         estimate D2E/DX2                !
 ! D34   D(18,7,8,6)           177.8489         estimate D2E/DX2                !
 ! D35   D(18,7,8,9)            -1.1151         estimate D2E/DX2                !
 ! D36   D(6,8,9,10)           144.2194         estimate D2E/DX2                !
 ! D37   D(6,8,9,14)           -36.0266         estimate D2E/DX2                !
 ! D38   D(7,8,9,10)           -36.8836         estimate D2E/DX2                !
 ! D39   D(7,8,9,14)           142.8704         estimate D2E/DX2                !
 ! D40   D(8,9,10,11)          179.3654         estimate D2E/DX2                !
 ! D41   D(8,9,10,19)           -1.9096         estimate D2E/DX2                !
 ! D42   D(14,9,10,11)          -0.3805         estimate D2E/DX2                !
 ! D43   D(14,9,10,19)         178.3445         estimate D2E/DX2                !
 ! D44   D(8,9,14,13)         -179.8592         estimate D2E/DX2                !
 ! D45   D(8,9,14,23)           -0.554          estimate D2E/DX2                !
 ! D46   D(10,9,14,13)          -0.1135         estimate D2E/DX2                !
 ! D47   D(10,9,14,23)         179.1917         estimate D2E/DX2                !
 ! D48   D(9,10,11,12)           0.531          estimate D2E/DX2                !
 ! D49   D(9,10,11,20)         179.8201         estimate D2E/DX2                !
 ! D50   D(19,10,11,12)       -178.1964         estimate D2E/DX2                !
 ! D51   D(19,10,11,20)          1.0928         estimate D2E/DX2                !
 ! D52   D(10,11,12,13)         -0.1945         estimate D2E/DX2                !
 ! D53   D(10,11,12,21)        179.8625         estimate D2E/DX2                !
 ! D54   D(20,11,12,13)       -179.4761         estimate D2E/DX2                !
 ! D55   D(20,11,12,21)          0.5809         estimate D2E/DX2                !
 ! D56   D(11,12,13,14)         -0.3125         estimate D2E/DX2                !
 ! D57   D(11,12,13,22)       -179.6709         estimate D2E/DX2                !
 ! D58   D(21,12,13,14)        179.6305         estimate D2E/DX2                !
 ! D59   D(21,12,13,22)          0.272          estimate D2E/DX2                !
 ! D60   D(12,13,14,9)           0.4607         estimate D2E/DX2                !
 ! D61   D(12,13,14,23)       -178.8384         estimate D2E/DX2                !
 ! D62   D(22,13,14,9)         179.8251         estimate D2E/DX2                !
 ! D63   D(22,13,14,23)          0.526          estimate D2E/DX2                !
 --------------------------------------------------------------------------------
 Trust Radius=3.00D-01 FncErr=1.00D-07 GrdErr=1.00D-06 EigMax=2.50D+02 EigMin=1.00D-04
 Number of steps in this run=    147 maximum allowed number of steps=    162.
 GradGradGradGradGradGradGradGradGradGradGradGradGradGradGradGradGradGrad

 Leave Link  103 at Thu Sep 24 14:39:06 2020, MaxMem=  2147483648 cpu:               0.1 elap:               0.0
 (Enter /prod/apps/gaussian/g16b1/l202.exe)
                          Input orientation:                          
 ---------------------------------------------------------------------
 Center     Atomic      Atomic             Coordinates (Angstroms)
 Number     Number       Type             X           Y           Z
 ---------------------------------------------------------------------
      1          8           0        4.735000   -0.440000   -0.545000
      2         16           0        3.517000   -0.048000    0.164000
      3          7           0        2.241000   -0.442000   -0.920000
      4          6           0        0.945000   -0.017000   -0.684000
      5          7           0        0.564000    1.291000   -0.720000
      6          7           0       -0.723000    1.463000   -0.518000
      7          6           0       -0.223000   -0.712000   -0.442000
      8          7           0       -1.196000    0.237000   -0.363000
      9          6           0       -2.598000    0.037000   -0.120000
     10          6           0       -3.225000   -1.081000   -0.672000
     11          6           0       -4.584000   -1.275000   -0.420000
     12          6           0       -5.294000   -0.359000    0.359000
     13          6           0       -4.647000    0.758000    0.896000
     14          6           0       -3.288000    0.963000    0.664000
     15          6           0        3.295000   -1.111000    1.595000
     16          8           0        3.291000    1.347000    0.554000
     17          1           0        2.308000   -1.409000   -1.250000
     18          1           0       -0.406000   -1.764000   -0.308000
     19          1           0       -2.675000   -1.773000   -1.300000
     20          1           0       -5.085000   -2.138000   -0.845000
     21          1           0       -6.351000   -0.515000    0.549000
     22          1           0       -5.196000    1.468000    1.506000
     23          1           0       -2.769000    1.814000    1.089000
     24          1           0        3.361000   -2.149000    1.266000
     25          1           0        2.325000   -0.898000    2.046000
     26          1           0        4.103000   -0.875000    2.291000
     27          1           0        1.154000    2.112000   -0.879000
 ---------------------------------------------------------------------
                    Distance matrix (angstroms):
                    1          2          3          4          5
     1  O    0.000000
     2  S    1.462829   0.000000
     3  N    2.522036   1.720020   0.000000
     4  C    3.816065   2.708366   1.384174   0.000000
     5  N    4.519317   3.360742   2.419838   1.362836   0.000000
     6  N    5.780303   4.552565   3.546255   2.236108   1.314061
     7  C    4.966524   3.846522   2.524417   1.380512   2.169945
     8  N    5.972287   4.750929   3.547430   2.179779   2.082298
     9  C    7.360777   6.122181   4.928018   3.588016   3.454093
    10  C    7.986777   6.871721   5.508809   4.303619   4.470482
    11  C    9.357169   8.214182   6.893803   5.676451   5.759884
    12  C   10.069986   8.818643   7.643229   6.334819   6.180850
    13  C    9.567320   8.236283   7.223739   5.862379   5.481794
    14  C    8.233992   6.897836   5.920551   4.549263   4.106208
    15  C    2.665228   1.796389   2.807793   3.451547   4.311286
    16  O    2.546823   1.466015   2.544739   2.982760   3.010439
    17  H    2.706717   2.305081   1.023952   2.028741   3.257673
    18  H    5.314040   4.307826   3.021397   2.240220   3.231667
    19  H    7.566704   6.592404   5.107154   4.070306   4.496178
    20  H    9.970236   8.909578   7.520127   6.394174   6.609453
    21  H   11.140101   9.886543   8.716981   7.416192   7.258734
    22  H   10.318519   8.945143   8.052487   6.686793   6.177702
    23  H    8.003780   6.620911   5.850275   4.504430   3.828172
    24  H    2.843990   2.377591   2.991128   3.766295   4.858087
    25  H    3.568073   2.384384   3.002024   3.183310   3.942537
    26  H    2.937949   2.356152   3.736985   4.422641   5.126617
    27  H    4.409968   3.367079   2.775998   2.148103   1.023436
                    6          7          8          9         10
     6  N    0.000000
     7  C    2.233025   0.000000
     8  N    1.323189   1.361459   0.000000
     9  C    2.389039   2.511038   1.436890   0.000000
    10  C    3.571506   3.033326   2.439149   1.395621   0.000000
    11  C    4.734297   4.397246   3.710517   2.399071   1.395715
    12  C    4.998285   5.145994   4.203582   2.766708   2.421777
    13  C    4.230153   4.850043   3.710246   2.398020   2.804038
    14  C    2.868161   3.663753   2.440957   1.395791   2.442704
    15  C    5.218675   4.084715   5.081333   6.243923   6.902941
    16  O    4.156301   4.192814   4.712341   6.070477   7.060915
    17  H    4.239242   2.746750   3.971662   5.238001   5.572769
    18  H    3.249326   1.076173   2.152005   2.843204   2.923311
    19  H    3.859213   2.806099   2.665616   2.162043   1.084319
    20  H    5.665790   5.082807   4.582278   3.382517   2.146341
    21  H    6.060145   6.210739   5.288787   3.851918   3.403391
    22  H    4.909616   5.768694   4.583505   3.382490   3.889206
    23  H    2.625217   3.899584   2.658865   2.156073   3.419076
    24  H    5.736572   4.222237   5.395636   6.496866   6.947796
    25  H    4.630197   3.566096   4.414629   5.459094   6.182517
    26  H    6.053677   5.119583   6.029897   7.179698   7.907047
    27  H    2.018576   3.172077   3.050308   4.354217   5.423443
                   11         12         13         14         15
    11  C    0.000000
    12  C    1.396423   0.000000
    13  C    2.422584   1.398094   0.000000
    14  C    2.804160   2.421724   1.393818   0.000000
    15  C    8.134234   8.710001   8.188842   6.964490   0.000000
    16  O    8.356984   8.755038   7.967166   6.591115   2.669356
    17  H    6.943092   7.841032   7.594289   6.372205   3.026053
    18  H    4.208010   5.129470   5.078994   4.085001   4.212507
    19  H    2.160251   3.407468   3.888079   3.423268   6.667846
    20  H    1.084617   2.158272   3.407307   3.888765   8.788215
    21  H    2.153799   1.085212   2.155123   3.402893   9.720836
    22  H    3.407062   2.159431   1.085173   2.145799   8.874471
    23  H    3.887573   3.410345   2.163162   1.083599   6.751574
    24  H    8.168812   8.884581   8.527345   7.365877   1.090890
    25  H    7.345581   7.822126   7.257659   6.072809   1.090720
    26  H    9.108979   9.607418   9.009729   7.787956   1.092234
    27  H    6.678854   7.015354   6.215750   4.840704   4.592634
                   16         17         18         19         20
    16  O    0.000000
    17  H    3.437476   0.000000
    18  H    4.908072   2.894682   0.000000
    19  H    6.983185   4.996527   2.476390   0.000000
    20  H    9.179314   7.439887   4.724541   2.479587   0.000000
    21  H    9.820144   8.888977   6.134939   4.302829   2.485985
    22  H    8.541084   8.496039   6.056445   4.973244   4.306130
    23  H    6.101468   6.452486   4.509708   4.310769   4.972174
    24  H    3.568453   2.826069   4.100730   6.569553   8.705823
    25  H    2.863432   3.335420   3.708050   6.079584   8.050067
    26  H    2.934927   4.005729   5.279792   7.722886   9.790251
    27  H    2.684303   3.723815   4.216991   5.470988   7.549091
                   21         22         23         24         25
    21  H    0.000000
    22  H    2.486396   0.000000
    23  H    4.306572   2.486752   0.000000
    24  H    9.874563   9.293145   7.301616   0.000000
    25  H    8.812529   7.902847   5.849755   1.801859   0.000000
    26  H   10.604258   9.621709   7.476624   1.795624   1.794948
    27  H    8.078697   6.813623   4.399063   5.256234   4.357404
                   26         27
    26  H    0.000000
    27  H    5.260007   0.000000
 Symmetry turned off by external request.
 Stoichiometry    C9H11N4O2S(1+)
 Framework group  C1[X(C9H11N4O2S)]
 Deg. of freedom    75
 Full point group                 C1      NOp   1
 Rotational constants (GHZ):           1.6347817           0.1929582           0.1873830
 Leave Link  202 at Thu Sep 24 14:39:06 2020, MaxMem=  2147483648 cpu:               0.1 elap:               0.0
 (Enter /prod/apps/gaussian/g16b1/l301.exe)
 Standard basis: 6-31G(d) (6D, 7F)
 Ernie: Thresh=  0.10000D-02 Tol=  0.10000D-05 Strict=F.
   266 basis functions,   516 primitive gaussians,   266 cartesian basis functions
    62 alpha electrons       62 beta electrons
       nuclear repulsion energy      1202.9105664297 Hartrees.
 IExCor=  402 DFT=T Ex+Corr=B3LYP ExCW=0 ScaHFX=  0.200000
 ScaDFX=  0.800000  0.720000  1.000000  0.810000 ScalE2=  1.000000  1.000000
 IRadAn=      5 IRanWt=     -1 IRanGd=            0 ICorTp=0 IEmpDi=  4
 NAtoms=   27 NActive=   27 NUniq=   27 SFac= 1.00D+00 NAtFMM=   60 NAOKFM=F Big=F
 Integral buffers will be    131072 words long.
 Raffenetti 2 integral format.
 Two-electron integral symmetry is turned off.
 Using the following non-standard input for PCM:
 MSTModel=DFT cav MSTcharged
 --- end of non-standard input.
 MST model for solvation energy: B3LYP parametrization.
 MST cavity parameters:
 ISph   IAn     Re0     Alpha   Atom Type   QCorr
 ------------------------------------------------
   1      8     1.40     1.25      O          F
   2     16     1.75     1.25      S          F
   3      7     1.50     1.25      NH         F
   4      6     1.50     1.25      C          F
   5      7     1.50     1.15      NH         T
   6      7     1.40     1.25      N          F
   7      6     1.50     1.25      CH         F
   8      7     1.40     1.25      N          F
   9      6     1.50     1.25      C          F
  10      6     1.50     1.25      CH         F
  11      6     1.50     1.25      CH         F
  12      6     1.50     1.25      CH         F
  13      6     1.50     1.25      CH         F
  14      6     1.50     1.25      CH         F
  15      6     1.50     1.25      CH3        F
  16      8     1.40     1.25      O          F
  17      1     0.90     1.25      NH         F
  18      1     1.20     1.25      CH         F
  19      1     1.20     1.25      CH         F
  20      1     1.20     1.25      CH         F
  21      1     1.20     1.25      CH         F
  22      1     1.20     1.25      CH         F
  23      1     1.20     1.25      CH         F
  24      1     1.20     1.25      CH3        F
  25      1     1.20     1.25      CH3        F
  26      1     1.20     1.25      CH3        F
  27      1     0.90     1.15      NH         T
 ------------------------------------------------------------------------------
 Polarizable Continuum Model (PCM)
 =================================
 Model                : PCM.
 Atomic radii         : MST.
 Polarization charges : Total charges.
 Charge compensation  : None.
 Solution method      : On-the-fly selection.
 Cavity type          : Scaled VdW (van der Waals Surface) (Alpha=1.250).
 Cavity algorithm     : GePol (No added spheres)
                        Default sphere list used, NSphG=   27.
                        Lebedev-Laikov grids with approx.  5.0 points / Ang**2.
                        Smoothing algorithm: York/Karplus (Gamma=1.0000).
                        Polarization charges: spherical gaussians, with
                                              point-specific exponents (IZeta= 3).
                        Self-potential: point-specific (ISelfS= 7).
                        Self-field    : sphere-specific E.n sum rule (ISelfD= 2).
 1st derivatives      : Analytical E(r).r(x)/FMM algorithm (CHGder, D1EAlg=3).
                        Cavity 1st derivative terms included.
 Solvent              : Water, Eps=  78.355300 Eps(inf)=   1.777849
 ------------------------------------------------------------------------------
 GePol: Number of generator spheres                  =      27
 GePol: Total number of spheres                      =      27
 GePol: Number of exposed spheres                    =      27 (100.00%)
 GePol: Number of points                             =    2131
 GePol: Average weight of points                     =       0.13
 GePol: Minimum weight of points                     =   0.99D-11
 GePol: Maximum weight of points                     =    0.22001
 GePol: Number of points with low weight             =     126
 GePol: Fraction of low-weight points (<1% of avg)   =       5.91%
 GePol: Cavity surface area                          =    277.206 Ang**2
 GePol: Cavity volume                                =    254.425 Ang**3
 PCM non-electrostatic energy =         0.0019958334 Hartrees.
 Nuclear repulsion after PCM non-electrostatic terms =     1202.9125622631 Hartrees.
 Leave Link  301 at Thu Sep 24 14:39:06 2020, MaxMem=  2147483648 cpu:               0.3 elap:               0.1
 (Enter /prod/apps/gaussian/g16b1/l302.exe)
 NPDir=0 NMtPBC=     1 NCelOv=     1 NCel=       1 NClECP=     1 NCelD=      1
         NCelK=      1 NCelE2=     1 NClLst=     1 CellRange=     0.0.
 One-electron integrals computed using PRISM.
 NBasis=   266 RedAO= T EigKep=  4.77D-04  NBF=   266
 NBsUse=   266 1.00D-06 EigRej= -1.00D+00 NBFU=   266
 Precomputing XC quadrature grid using
 IXCGrd= 4 IRadAn=           5 IRanWt=          -1 IRanGd=           0 AccXCQ= 0.00D+00.
 Generated NRdTot=       0 NPtTot=           0 NUsed=           0 NTot=          32
 NSgBfM=   264   264   264   264   264 MxSgAt=    27 MxSgA2=    27.
 Leave Link  302 at Thu Sep 24 14:39:07 2020, MaxMem=  2147483648 cpu:               1.1 elap:               0.3
 (Enter /prod/apps/gaussian/g16b1/l303.exe)
 DipDrv:  MaxL=1.
 Leave Link  303 at Thu Sep 24 14:39:07 2020, MaxMem=  2147483648 cpu:               0.1 elap:               0.1
 (Enter /prod/apps/gaussian/g16b1/l401.exe)
 ExpMin= 1.17D-01 ExpMax= 2.19D+04 ExpMxC= 3.30D+03 IAcc=3 IRadAn=         5 AccDes= 0.00D+00
 Harris functional with IExCor=  402 and IRadAn=       5 diagonalized for initial guess.
 HarFok:  IExCor=  402 AccDes= 0.00D+00 IRadAn=         5 IDoV= 1 UseB2=F ITyADJ=14
 ICtDFT=  3500011 ScaDFX=  1.000000  1.000000  1.000000  1.000000
 FoFCou: FMM=F IPFlag=           0 FMFlag=      100000 FMFlg1=           0
         NFxFlg=           0 DoJE=T BraDBF=F KetDBF=T FulRan=T
         wScrn=  0.000000 ICntrl=       500 IOpCl=  0 I1Cent=   200000004 NGrid=           0
         NMat0=    1 NMatS0=      1 NMatT0=    0 NMatD0=    1 NMtDS0=    0 NMtDT0=    0
 Symmetry not used in FoFCou.
 Harris En= -1116.92365697763    
 JPrj=0 DoOrth=F DoCkMO=F.
 Leave Link  401 at Thu Sep 24 14:39:08 2020, MaxMem=  2147483648 cpu:               6.4 elap:               1.6
 (Enter /prod/apps/gaussian/g16b1/l502.exe)
 Keep R1 ints in memory in canonical form, NReq=640051412.
 FoFCou: FMM=F IPFlag=           0 FMFlag=           0 FMFlg1=           0
         NFxFlg=           0 DoJE=F BraDBF=F KetDBF=F FulRan=T
         wScrn=  0.000000 ICntrl=       600 IOpCl=  0 I1Cent=           0 NGrid=           0
         NMat0=    1 NMatS0=  35511 NMatT0=    0 NMatD0=    1 NMtDS0=    0 NMtDT0=    0
 Symmetry not used in FoFCou.
 Two-electron integral symmetry not used.
 Closed shell SCF:
 Using DIIS extrapolation, IDIIS=  1040.
 NGot=  2147483648 LenX=  1516804891 LenY=  1516733694
 Requested convergence on RMS density matrix=1.00D-08 within2000 cycles.
 Requested convergence on MAX density matrix=1.00D-06.
 Requested convergence on             energy=1.00D-06.
 No special actions if energy rises.

 Cycle   1  Pass 1  IDiag  1:
 Inv3:  Mode=1 IEnd=    13623483.
 Iteration    1 A*A^-1 deviation from unit magnitude is 3.33D-15 for    635.
 Iteration    1 A*A^-1 deviation from orthogonality  is 4.44D-15 for   1842    333.
 Iteration    1 A^-1*A deviation from unit magnitude is 3.55D-15 for    635.
 Iteration    1 A^-1*A deviation from orthogonality  is 2.76D-15 for    766      8.
 E= -1116.50903369118    
 DIIS: error= 3.09D-02 at cycle   1 NSaved=   1.
 NSaved= 1 IEnMin= 1 EnMin= -1116.50903369118     IErMin= 1 ErrMin= 3.09D-02
 ErrMax= 3.09D-02  0.00D+00 EMaxC= 1.00D-01 BMatC= 5.56D-01 BMatP= 5.56D-01
 IDIUse=3 WtCom= 6.91D-01 WtEn= 3.09D-01
 Coeff-Com:  0.100D+01
 Coeff-En:   0.100D+01
 Coeff:      0.100D+01
 Gap=     0.364 Goal=   None    Shift=    0.000
 GapD=    0.364 DampG=1.000 DampE=0.500 DampFc=0.5000 IDamp=-1.
 Damping current iteration by 5.00D-01
 RMSDP=6.78D-03 MaxDP=5.59D-01              OVMax= 2.60D-01

 Cycle   2  Pass 1  IDiag  1:
 E= -1116.63355662896     Delta-E=       -0.124522937780 Rises=F Damp=T
 DIIS: error= 1.43D-02 at cycle   2 NSaved=   2.
 NSaved= 2 IEnMin= 2 EnMin= -1116.63355662896     IErMin= 2 ErrMin= 1.43D-02
 ErrMax= 1.43D-02  0.00D+00 EMaxC= 1.00D-01 BMatC= 7.74D-02 BMatP= 5.56D-01
 IDIUse=3 WtCom= 8.57D-01 WtEn= 1.43D-01
 Coeff-Com:  0.220D+00 0.780D+00
 Coeff-En:   0.358D+00 0.642D+00
 Coeff:      0.240D+00 0.760D+00
 Gap=     0.184 Goal=   None    Shift=    0.000
 RMSDP=1.79D-03 MaxDP=1.11D-01 DE=-1.25D-01 OVMax= 1.86D-01

 Cycle   3  Pass 1  IDiag  1:
 E= -1116.95816746126     Delta-E=       -0.324610832303 Rises=F Damp=F
 DIIS: error= 8.83D-03 at cycle   3 NSaved=   3.
 NSaved= 3 IEnMin= 3 EnMin= -1116.95816746126     IErMin= 3 ErrMin= 8.83D-03
 ErrMax= 8.83D-03  0.00D+00 EMaxC= 1.00D-01 BMatC= 3.06D-02 BMatP= 7.74D-02
 IDIUse=3 WtCom= 9.12D-01 WtEn= 8.83D-02
 Coeff-Com:  0.679D-01 0.390D+00 0.542D+00
 Coeff-En:   0.000D+00 0.000D+00 0.100D+01
 Coeff:      0.619D-01 0.356D+00 0.582D+00
 Gap=     0.193 Goal=   None    Shift=    0.000
 RMSDP=8.36D-04 MaxDP=2.85D-02 DE=-3.25D-01 OVMax= 4.84D-02

 Cycle   4  Pass 1  IDiag  1:
 E= -1116.98065549106     Delta-E=       -0.022488029806 Rises=F Damp=F
 DIIS: error= 3.70D-03 at cycle   4 NSaved=   4.
 NSaved= 4 IEnMin= 4 EnMin= -1116.98065549106     IErMin= 4 ErrMin= 3.70D-03
 ErrMax= 3.70D-03  0.00D+00 EMaxC= 1.00D-01 BMatC= 5.45D-03 BMatP= 3.06D-02
 IDIUse=3 WtCom= 9.63D-01 WtEn= 3.70D-02
 Coeff-Com:  0.138D-02 0.705D-01 0.312D+00 0.616D+00
 Coeff-En:   0.000D+00 0.000D+00 0.137D+00 0.863D+00
 Coeff:      0.133D-02 0.679D-01 0.305D+00 0.625D+00
 Gap=     0.189 Goal=   None    Shift=    0.000
 RMSDP=2.79D-04 MaxDP=1.22D-02 DE=-2.25D-02 OVMax= 1.58D-02

 Cycle   5  Pass 1  IDiag  1:
 E= -1116.98495760953     Delta-E=       -0.004302118465 Rises=F Damp=F
 DIIS: error= 5.30D-04 at cycle   5 NSaved=   5.
 NSaved= 5 IEnMin= 5 EnMin= -1116.98495760953     IErMin= 5 ErrMin= 5.30D-04
 ErrMax= 5.30D-04  0.00D+00 EMaxC= 1.00D-01 BMatC= 3.86D-04 BMatP= 5.45D-03
 IDIUse=3 WtCom= 9.95D-01 WtEn= 5.30D-03
 Coeff-Com: -0.352D-02 0.149D-01 0.127D+00 0.331D+00 0.531D+00
 Coeff-En:   0.000D+00 0.000D+00 0.000D+00 0.000D+00 0.100D+01
 Coeff:     -0.351D-02 0.148D-01 0.127D+00 0.329D+00 0.533D+00
 Gap=     0.190 Goal=   None    Shift=    0.000
 RMSDP=8.34D-05 MaxDP=3.49D-03 DE=-4.30D-03 OVMax= 5.39D-03

 Cycle   6  Pass 1  IDiag  1:
 E= -1116.98526633814     Delta-E=       -0.000308728614 Rises=F Damp=F
 DIIS: error= 2.04D-04 at cycle   6 NSaved=   6.
 NSaved= 6 IEnMin= 6 EnMin= -1116.98526633814     IErMin= 6 ErrMin= 2.04D-04
 ErrMax= 2.04D-04  0.00D+00 EMaxC= 1.00D-01 BMatC= 3.27D-05 BMatP= 3.86D-04
 IDIUse=3 WtCom= 9.98D-01 WtEn= 2.04D-03
 Coeff-Com: -0.197D-02 0.280D-02 0.411D-01 0.120D+00 0.289D+00 0.549D+00
 Coeff-En:   0.000D+00 0.000D+00 0.000D+00 0.000D+00 0.753D-02 0.992D+00
 Coeff:     -0.197D-02 0.279D-02 0.410D-01 0.120D+00 0.288D+00 0.550D+00
 Gap=     0.190 Goal=   None    Shift=    0.000
 RMSDP=2.49D-05 MaxDP=1.16D-03 DE=-3.09D-04 OVMax= 1.79D-03

 Cycle   7  Pass 1  IDiag  1:
 E= -1116.98529556643     Delta-E=       -0.000029228289 Rises=F Damp=F
 DIIS: error= 5.23D-05 at cycle   7 NSaved=   7.
 NSaved= 7 IEnMin= 7 EnMin= -1116.98529556643     IErMin= 7 ErrMin= 5.23D-05
 ErrMax= 5.23D-05  0.00D+00 EMaxC= 1.00D-01 BMatC= 2.30D-06 BMatP= 3.27D-05
 IDIUse=1 WtCom= 1.00D+00 WtEn= 0.00D+00
 Coeff-Com: -0.834D-03 0.316D-03 0.122D-01 0.386D-01 0.113D+00 0.287D+00
 Coeff-Com:  0.550D+00
 Coeff:     -0.834D-03 0.316D-03 0.122D-01 0.386D-01 0.113D+00 0.287D+00
 Coeff:      0.550D+00
 Gap=     0.190 Goal=   None    Shift=    0.000
 RMSDP=6.87D-06 MaxDP=3.17D-04 DE=-2.92D-05 OVMax= 4.62D-04

 Cycle   8  Pass 1  IDiag  1:
 E= -1116.98529743766     Delta-E=       -0.000001871227 Rises=F Damp=F
 DIIS: error= 3.40D-05 at cycle   8 NSaved=   8.
 NSaved= 8 IEnMin= 8 EnMin= -1116.98529743766     IErMin= 8 ErrMin= 3.40D-05
 ErrMax= 3.40D-05  0.00D+00 EMaxC= 1.00D-01 BMatC= 3.92D-07 BMatP= 2.30D-06
 IDIUse=1 WtCom= 1.00D+00 WtEn= 0.00D+00
 Coeff-Com: -0.261D-03-0.141D-03 0.220D-02 0.810D-02 0.322D-01 0.106D+00
 Coeff-Com:  0.332D+00 0.520D+00
 Coeff:     -0.261D-03-0.141D-03 0.220D-02 0.810D-02 0.322D-01 0.106D+00
 Coeff:      0.332D+00 0.520D+00
 Gap=     0.190 Goal=   None    Shift=    0.000
 RMSDP=2.36D-06 MaxDP=1.51D-04 DE=-1.87D-06 OVMax= 1.66D-04

 Cycle   9  Pass 1  IDiag  1:
 E= -1116.98529774684     Delta-E=       -0.000000309180 Rises=F Damp=F
 DIIS: error= 8.39D-06 at cycle   9 NSaved=   9.
 NSaved= 9 IEnMin= 9 EnMin= -1116.98529774684     IErMin= 9 ErrMin= 8.39D-06
 ErrMax= 8.39D-06  0.00D+00 EMaxC= 1.00D-01 BMatC= 2.77D-08 BMatP= 3.92D-07
 IDIUse=1 WtCom= 1.00D+00 WtEn= 0.00D+00
 Coeff-Com: -0.184D-04-0.116D-03-0.629D-03-0.137D-02 0.966D-04 0.125D-01
 Coeff-Com:  0.888D-01 0.261D+00 0.640D+00
 Coeff:     -0.184D-04-0.116D-03-0.629D-03-0.137D-02 0.966D-04 0.125D-01
 Coeff:      0.888D-01 0.261D+00 0.640D+00
 Gap=     0.190 Goal=   None    Shift=    0.000
 RMSDP=6.31D-07 MaxDP=3.26D-05 DE=-3.09D-07 OVMax= 3.21D-05

 Cycle  10  Pass 1  IDiag  1:
 E= -1116.98529777002     Delta-E=       -0.000000023184 Rises=F Damp=F
 DIIS: error= 1.33D-06 at cycle  10 NSaved=  10.
 NSaved=10 IEnMin=10 EnMin= -1116.98529777002     IErMin=10 ErrMin= 1.33D-06
 ErrMax= 1.33D-06  0.00D+00 EMaxC= 1.00D-01 BMatC= 1.08D-09 BMatP= 2.77D-08
 IDIUse=1 WtCom= 1.00D+00 WtEn= 0.00D+00
 Coeff-Com:  0.118D-05-0.309D-04-0.319D-03-0.802D-03-0.123D-02 0.980D-03
 Coeff-Com:  0.231D-01 0.848D-01 0.256D+00 0.637D+00
 Coeff:      0.118D-05-0.309D-04-0.319D-03-0.802D-03-0.123D-02 0.980D-03
 Coeff:      0.231D-01 0.848D-01 0.256D+00 0.637D+00
 Gap=     0.190 Goal=   None    Shift=    0.000
 RMSDP=1.75D-07 MaxDP=9.18D-06 DE=-2.32D-08 OVMax= 1.62D-05

 Cycle  11  Pass 1  IDiag  1:
 E= -1116.98529777083     Delta-E=       -0.000000000811 Rises=F Damp=F
 DIIS: error= 6.22D-07 at cycle  11 NSaved=  11.
 NSaved=11 IEnMin=11 EnMin= -1116.98529777083     IErMin=11 ErrMin= 6.22D-07
 ErrMax= 6.22D-07  0.00D+00 EMaxC= 1.00D-01 BMatC= 3.02D-10 BMatP= 1.08D-09
 IDIUse=1 WtCom= 1.00D+00 WtEn= 0.00D+00
 Coeff-Com:  0.325D-05-0.183D-05-0.114D-03-0.307D-03-0.829D-03-0.134D-02
 Coeff-Com:  0.108D-02 0.126D-01 0.554D-01 0.370D+00 0.563D+00
 Coeff:      0.325D-05-0.183D-05-0.114D-03-0.307D-03-0.829D-03-0.134D-02
 Coeff:      0.108D-02 0.126D-01 0.554D-01 0.370D+00 0.563D+00
 Gap=     0.190 Goal=   None    Shift=    0.000
 RMSDP=6.81D-08 MaxDP=2.17D-06 DE=-8.11D-10 OVMax= 5.08D-06

 Cycle  12  Pass 1  IDiag  1:
 E= -1116.98529777109     Delta-E=       -0.000000000254 Rises=F Damp=F
 DIIS: error= 2.50D-07 at cycle  12 NSaved=  12.
 NSaved=12 IEnMin=12 EnMin= -1116.98529777109     IErMin=12 ErrMin= 2.50D-07
 ErrMax= 2.50D-07  0.00D+00 EMaxC= 1.00D-01 BMatC= 2.71D-11 BMatP= 3.02D-10
 IDIUse=1 WtCom= 1.00D+00 WtEn= 0.00D+00
 Coeff-Com:  0.183D-05 0.146D-05-0.416D-04-0.113D-03-0.405D-03-0.983D-03
 Coeff-Com: -0.178D-02-0.112D-02 0.743D-02 0.165D+00 0.318D+00 0.514D+00
 Coeff:      0.183D-05 0.146D-05-0.416D-04-0.113D-03-0.405D-03-0.983D-03
 Coeff:     -0.178D-02-0.112D-02 0.743D-02 0.165D+00 0.318D+00 0.514D+00
 Gap=     0.190 Goal=   None    Shift=    0.000
 RMSDP=2.19D-08 MaxDP=7.32D-07 DE=-2.54D-10 OVMax= 1.13D-06

 Cycle  13  Pass 1  IDiag  1:
 E= -1116.98529777111     Delta-E=       -0.000000000019 Rises=F Damp=F
 DIIS: error= 6.97D-08 at cycle  13 NSaved=  13.
 NSaved=13 IEnMin=13 EnMin= -1116.98529777111     IErMin=13 ErrMin= 6.97D-08
 ErrMax= 6.97D-08  0.00D+00 EMaxC= 1.00D-01 BMatC= 2.82D-12 BMatP= 2.71D-11
 IDIUse=1 WtCom= 1.00D+00 WtEn= 0.00D+00
 Coeff-Com:  0.408D-06 0.889D-06-0.653D-05-0.162D-04-0.875D-04-0.282D-03
 Coeff-Com: -0.816D-03-0.185D-02-0.298D-02 0.351D-01 0.766D-01 0.270D+00
 Coeff-Com:  0.624D+00
 Coeff:      0.408D-06 0.889D-06-0.653D-05-0.162D-04-0.875D-04-0.282D-03
 Coeff:     -0.816D-03-0.185D-02-0.298D-02 0.351D-01 0.766D-01 0.270D+00
 Coeff:      0.624D+00
 Gap=     0.190 Goal=   None    Shift=    0.000
 RMSDP=7.27D-09 MaxDP=3.19D-07 DE=-1.86D-11 OVMax= 4.36D-07

 Error on total polarization charges =  0.01852
 SCF Done:  E(RB3LYP) =  -1116.98529777     A.U. after   13 cycles
            NFock= 13  Conv=0.73D-08     -V/T= 2.0076
 KE= 1.108569340955D+03 PE=-5.003027162122D+03 EE= 1.574559961134D+03
 Leave Link  502 at Thu Sep 24 14:39:55 2020, MaxMem=  2147483648 cpu:             151.9 elap:              46.3
 (Enter /prod/apps/gaussian/g16b1/l601.exe)
 Copying SCF densities to generalized density rwf, IOpCl= 0 IROHF=0.

 **********************************************************************

            Population analysis using the SCF Density.

 **********************************************************************

 Alpha  occ. eigenvalues --  -89.14040 -19.17131 -19.17009 -14.49633 -14.47605
 Alpha  occ. eigenvalues --  -14.46062 -14.40703 -10.32360 -10.27942 -10.26556
 Alpha  occ. eigenvalues --  -10.23384 -10.21895 -10.21718 -10.21003 -10.20972
 Alpha  occ. eigenvalues --  -10.20864  -8.16608  -6.13151  -6.13016  -6.12851
 Alpha  occ. eigenvalues --   -1.18192  -1.13763  -1.02879  -1.00723  -0.96714
 Alpha  occ. eigenvalues --   -0.87854  -0.86279  -0.79563  -0.78674  -0.77004
 Alpha  occ. eigenvalues --   -0.71397  -0.70534  -0.66510  -0.62987  -0.61627
 Alpha  occ. eigenvalues --   -0.59556  -0.56197  -0.55703  -0.55164  -0.53632
 Alpha  occ. eigenvalues --   -0.50662  -0.50589  -0.49968  -0.48328  -0.47043
 Alpha  occ. eigenvalues --   -0.45516  -0.44673  -0.44327  -0.44268  -0.41190
 Alpha  occ. eigenvalues --   -0.39186  -0.38003  -0.37803  -0.37140  -0.36216
 Alpha  occ. eigenvalues --   -0.35269  -0.34477  -0.33218  -0.32830  -0.28838
 Alpha  occ. eigenvalues --   -0.27308  -0.26891
 Alpha virt. eigenvalues --   -0.07902  -0.03113  -0.02256  -0.00565   0.05158
 Alpha virt. eigenvalues --    0.05454   0.07601   0.08475   0.08912   0.09419
 Alpha virt. eigenvalues --    0.10648   0.11865   0.12419   0.13816   0.14298
 Alpha virt. eigenvalues --    0.14917   0.15209   0.15502   0.16737   0.17529
 Alpha virt. eigenvalues --    0.18618   0.18972   0.20272   0.22019   0.27615
 Alpha virt. eigenvalues --    0.28460   0.29078   0.31175   0.32496   0.32990
 Alpha virt. eigenvalues --    0.34852   0.36681   0.40005   0.41484   0.43118
 Alpha virt. eigenvalues --    0.45803   0.47226   0.48514   0.49914   0.50140
 Alpha virt. eigenvalues --    0.51023   0.52948   0.53422   0.54076   0.55503
 Alpha virt. eigenvalues --    0.55836   0.57332   0.57534   0.57771   0.58507
 Alpha virt. eigenvalues --    0.59361   0.59804   0.60216   0.60583   0.62420
 Alpha virt. eigenvalues --    0.64195   0.64832   0.67057   0.67808   0.69783
 Alpha virt. eigenvalues --    0.71910   0.73580   0.74668   0.76003   0.76971
 Alpha virt. eigenvalues --    0.77877   0.78562   0.80586   0.80789   0.80953
 Alpha virt. eigenvalues --    0.82757   0.83287   0.84607   0.85064   0.85313
 Alpha virt. eigenvalues --    0.86115   0.86908   0.89190   0.89866   0.91497
 Alpha virt. eigenvalues --    0.92245   0.93864   0.94701   0.95443   0.96894
 Alpha virt. eigenvalues --    0.97403   0.99808   1.00433   1.01045   1.03465
 Alpha virt. eigenvalues --    1.04654   1.06244   1.06692   1.11280   1.12110
 Alpha virt. eigenvalues --    1.12973   1.14406   1.16420   1.16905   1.17683
 Alpha virt. eigenvalues --    1.20459   1.22956   1.24641   1.25286   1.27715
 Alpha virt. eigenvalues --    1.30882   1.33392   1.37171   1.38227   1.40803
 Alpha virt. eigenvalues --    1.41896   1.42828   1.43335   1.44490   1.46445
 Alpha virt. eigenvalues --    1.47143   1.48835   1.50892   1.54388   1.58087
 Alpha virt. eigenvalues --    1.61861   1.65597   1.69523   1.71462   1.74076
 Alpha virt. eigenvalues --    1.75213   1.75971   1.77732   1.78372   1.78702
 Alpha virt. eigenvalues --    1.78923   1.82645   1.83059   1.84832   1.86512
 Alpha virt. eigenvalues --    1.87008   1.90088   1.93207   1.94808   1.98125
 Alpha virt. eigenvalues --    1.99354   2.00423   2.03435   2.05399   2.05546
 Alpha virt. eigenvalues --    2.06003   2.08195   2.09150   2.11294   2.12493
 Alpha virt. eigenvalues --    2.13061   2.14589   2.16891   2.18577   2.19568
 Alpha virt. eigenvalues --    2.21918   2.22152   2.23746   2.25425   2.27495
 Alpha virt. eigenvalues --    2.28413   2.29588   2.31107   2.33594   2.35597
 Alpha virt. eigenvalues --    2.42388   2.49312   2.52030   2.54613   2.56605
 Alpha virt. eigenvalues --    2.56886   2.61412   2.63146   2.64524   2.68520
 Alpha virt. eigenvalues --    2.70112   2.71687   2.72066   2.72650   2.77392
 Alpha virt. eigenvalues --    2.79836   2.82260   2.86414   2.97094   3.02954
 Alpha virt. eigenvalues --    3.10944   3.21376   3.40397   3.56596   3.74766
 Alpha virt. eigenvalues --    3.85967   3.90252   3.95561   4.02078   4.07079
 Alpha virt. eigenvalues --    4.09293   4.09654   4.12753   4.17099   4.21772
 Alpha virt. eigenvalues --    4.30824   4.37521   4.45548   4.69101
          Condensed to atoms (all electrons):
               1          2          3          4          5          6
     1  O    8.231257   0.455333  -0.049426   0.001190  -0.000006  -0.000000
     2  S    0.455333  13.618821   0.108101  -0.011662  -0.000869   0.000193
     3  N   -0.049426   0.108101   7.377473   0.293488  -0.061239   0.004446
     4  C    0.001190  -0.011662   0.293488   4.509422   0.292113  -0.059665
     5  N   -0.000006  -0.000869  -0.061239   0.292113   6.710019   0.256778
     6  N   -0.000000   0.000193   0.004446  -0.059665   0.256778   6.678197
     7  C   -0.000038  -0.004642  -0.067201   0.510441  -0.054706  -0.093157
     8  N    0.000000   0.000179   0.003463  -0.010084  -0.085552   0.272550
     9  C   -0.000000  -0.000007  -0.000105   0.001868   0.006310  -0.051870
    10  C   -0.000000   0.000000   0.000005   0.001083  -0.000297   0.003042
    11  C   -0.000000  -0.000000   0.000000  -0.000007   0.000003  -0.000071
    12  C    0.000000  -0.000000  -0.000000  -0.000000  -0.000000   0.000014
    13  C   -0.000000  -0.000000  -0.000000   0.000005  -0.000003   0.000192
    14  C    0.000000   0.000000   0.000000  -0.000570   0.000408  -0.000204
    15  C   -0.058250   0.249169  -0.056817  -0.002217   0.000042  -0.000003
    16  O   -0.041973   0.431768  -0.052292   0.001223   0.000315   0.000066
    17  H    0.000355  -0.002525   0.297560  -0.024582   0.002028  -0.000018
    18  H   -0.000000   0.000015  -0.001170  -0.023905   0.003169   0.003144
    19  H    0.000000  -0.000000   0.000000  -0.000045  -0.000011  -0.000053
    20  H    0.000000   0.000000   0.000000   0.000000  -0.000000   0.000001
    21  H   -0.000000   0.000000  -0.000000   0.000000  -0.000000   0.000000
    22  H    0.000000   0.000000   0.000000  -0.000000   0.000000  -0.000006
    23  H   -0.000000  -0.000000  -0.000000   0.000012  -0.000289   0.009112
    24  H   -0.000045  -0.008353   0.000146   0.000133  -0.000008  -0.000000
    25  H    0.001657  -0.008117  -0.001470   0.001202   0.000008  -0.000016
    26  H   -0.000225  -0.014954   0.002132   0.000022  -0.000003   0.000000
    27  H   -0.000033   0.000717   0.000526  -0.022423   0.304098  -0.025081
               7          8          9         10         11         12
     1  O   -0.000038   0.000000  -0.000000  -0.000000  -0.000000   0.000000
     2  S   -0.004642   0.000179  -0.000007   0.000000  -0.000000  -0.000000
     3  N   -0.067201   0.003463  -0.000105   0.000005   0.000000  -0.000000
     4  C    0.510441  -0.010084   0.001868   0.001083  -0.000007  -0.000000
     5  N   -0.054706  -0.085552   0.006310  -0.000297   0.000003  -0.000000
     6  N   -0.093157   0.272550  -0.051870   0.003042  -0.000071   0.000014
     7  C    4.969876   0.312959  -0.030452  -0.004404  -0.000017   0.000015
     8  N    0.312959   6.762620   0.206752  -0.049202   0.004378   0.000358
     9  C   -0.030452   0.206752   4.644371   0.531274  -0.012340  -0.036729
    10  C   -0.004404  -0.049202   0.531274   4.954370   0.528989  -0.041040
    11  C   -0.000017   0.004378  -0.012340   0.528989   4.856994   0.542240
    12  C    0.000015   0.000358  -0.036729  -0.041040   0.542240   4.858496
    13  C   -0.000081   0.004318  -0.011940  -0.041170  -0.023992   0.538297
    14  C    0.005924  -0.055025   0.521277  -0.064613  -0.040586  -0.040202
    15  C    0.000354  -0.000007  -0.000000   0.000000   0.000000   0.000000
    16  O    0.000140  -0.000004   0.000000  -0.000000  -0.000000   0.000000
    17  H   -0.002361  -0.000004   0.000003  -0.000000  -0.000000  -0.000000
    18  H    0.366762  -0.031749  -0.001508   0.002130   0.000078   0.000000
    19  H    0.004853  -0.008042  -0.040010   0.356955  -0.031856   0.004144
    20  H   -0.000004  -0.000112   0.003438  -0.036859   0.364464  -0.038376
    21  H   -0.000000   0.000003   0.000481   0.004839  -0.040589   0.366420
    22  H    0.000001  -0.000107   0.003495   0.000710   0.004270  -0.038606
    23  H    0.000127  -0.010696  -0.040435   0.004858   0.000117   0.004303
    24  H    0.000070   0.000001   0.000000   0.000000  -0.000000  -0.000000
    25  H    0.001204  -0.000032   0.000001  -0.000000  -0.000000   0.000000
    26  H   -0.000018   0.000000  -0.000000   0.000000   0.000000   0.000000
    27  H    0.005024   0.003798  -0.000056   0.000002  -0.000000  -0.000000
              13         14         15         16         17         18
     1  O   -0.000000   0.000000  -0.058250  -0.041973   0.000355  -0.000000
     2  S   -0.000000   0.000000   0.249169   0.431768  -0.002525   0.000015
     3  N   -0.000000   0.000000  -0.056817  -0.052292   0.297560  -0.001170
     4  C    0.000005  -0.000570  -0.002217   0.001223  -0.024582  -0.023905
     5  N   -0.000003   0.000408   0.000042   0.000315   0.002028   0.003169
     6  N    0.000192  -0.000204  -0.000003   0.000066  -0.000018   0.003144
     7  C   -0.000081   0.005924   0.000354   0.000140  -0.002361   0.366762
     8  N    0.004318  -0.055025  -0.000007  -0.000004  -0.000004  -0.031749
     9  C   -0.011940   0.521277  -0.000000   0.000000   0.000003  -0.001508
    10  C   -0.041170  -0.064613   0.000000  -0.000000  -0.000000   0.002130
    11  C   -0.023992  -0.040586   0.000000  -0.000000  -0.000000   0.000078
    12  C    0.538297  -0.040202   0.000000   0.000000  -0.000000   0.000000
    13  C    4.865989   0.525731   0.000000   0.000000  -0.000000  -0.000006
    14  C    0.525731   4.952479  -0.000000  -0.000000   0.000000  -0.000013
    15  C    0.000000  -0.000000   5.500030  -0.055217   0.000093  -0.000001
    16  O    0.000000  -0.000000  -0.055217   8.264643   0.001142   0.000001
    17  H   -0.000000   0.000000   0.000093   0.001142   0.280373   0.000718
    18  H   -0.000006  -0.000013  -0.000001   0.000001   0.000718   0.416201
    19  H    0.000185   0.004637  -0.000000  -0.000000   0.000000   0.001026
    20  H    0.004242   0.000746  -0.000000   0.000000   0.000000  -0.000000
    21  H   -0.040534   0.004691   0.000000   0.000000   0.000000  -0.000000
    22  H    0.364684  -0.036979  -0.000000  -0.000000   0.000000   0.000000
    23  H   -0.034273   0.359718  -0.000000   0.000000   0.000000  -0.000008
    24  H   -0.000000  -0.000000   0.344504   0.001676   0.000018  -0.000008
    25  H   -0.000000  -0.000000   0.343768  -0.000101   0.000103   0.000052
    26  H    0.000000   0.000000   0.356528  -0.000171  -0.000001   0.000000
    27  H   -0.000000  -0.000002   0.000060   0.005452  -0.000034  -0.000049
              19         20         21         22         23         24
     1  O    0.000000   0.000000  -0.000000   0.000000  -0.000000  -0.000045
     2  S   -0.000000   0.000000   0.000000   0.000000  -0.000000  -0.008353
     3  N    0.000000   0.000000  -0.000000   0.000000  -0.000000   0.000146
     4  C   -0.000045   0.000000   0.000000  -0.000000   0.000012   0.000133
     5  N   -0.000011  -0.000000  -0.000000   0.000000  -0.000289  -0.000008
     6  N   -0.000053   0.000001   0.000000  -0.000006   0.009112  -0.000000
     7  C    0.004853  -0.000004  -0.000000   0.000001   0.000127   0.000070
     8  N   -0.008042  -0.000112   0.000003  -0.000107  -0.010696   0.000001
     9  C   -0.040010   0.003438   0.000481   0.003495  -0.040435   0.000000
    10  C    0.356955  -0.036859   0.004839   0.000710   0.004858   0.000000
    11  C   -0.031856   0.364464  -0.040589   0.004270   0.000117  -0.000000
    12  C    0.004144  -0.038376   0.366420  -0.038606   0.004303  -0.000000
    13  C    0.000185   0.004242  -0.040534   0.364684  -0.034273  -0.000000
    14  C    0.004637   0.000746   0.004691  -0.036979   0.359718  -0.000000
    15  C   -0.000000  -0.000000   0.000000  -0.000000  -0.000000   0.344504
    16  O   -0.000000   0.000000   0.000000  -0.000000   0.000000   0.001676
    17  H    0.000000   0.000000   0.000000   0.000000   0.000000   0.000018
    18  H    0.001026  -0.000000  -0.000000   0.000000  -0.000008  -0.000008
    19  H    0.523881  -0.004856  -0.000136   0.000013  -0.000119   0.000000
    20  H   -0.004856   0.538630  -0.004947  -0.000153   0.000012   0.000000
    21  H   -0.000136  -0.004947   0.545130  -0.004931  -0.000131  -0.000000
    22  H    0.000013  -0.000153  -0.004931   0.538989  -0.004895   0.000000
    23  H   -0.000119   0.000012  -0.000131  -0.004895   0.524894  -0.000000
    24  H    0.000000   0.000000  -0.000000   0.000000  -0.000000   0.459329
    25  H   -0.000000   0.000000  -0.000000  -0.000000  -0.000000  -0.019623
    26  H    0.000000   0.000000   0.000000  -0.000000   0.000000  -0.017029
    27  H   -0.000000   0.000000  -0.000000   0.000000  -0.000002  -0.000002
              25         26         27
     1  O    0.001657  -0.000225  -0.000033
     2  S   -0.008117  -0.014954   0.000717
     3  N   -0.001470   0.002132   0.000526
     4  C    0.001202   0.000022  -0.022423
     5  N    0.000008  -0.000003   0.304098
     6  N   -0.000016   0.000000  -0.025081
     7  C    0.001204  -0.000018   0.005024
     8  N   -0.000032   0.000000   0.003798
     9  C    0.000001  -0.000000  -0.000056
    10  C   -0.000000   0.000000   0.000002
    11  C   -0.000000   0.000000  -0.000000
    12  C    0.000000   0.000000  -0.000000
    13  C   -0.000000   0.000000  -0.000000
    14  C   -0.000000   0.000000  -0.000002
    15  C    0.343768   0.356528   0.000060
    16  O   -0.000101  -0.000171   0.005452
    17  H    0.000103  -0.000001  -0.000034
    18  H    0.000052   0.000000  -0.000049
    19  H   -0.000000   0.000000  -0.000000
    20  H    0.000000   0.000000   0.000000
    21  H   -0.000000   0.000000  -0.000000
    22  H   -0.000000  -0.000000   0.000000
    23  H   -0.000000   0.000000  -0.000002
    24  H   -0.019623  -0.017029  -0.000002
    25  H    0.460983  -0.018218   0.000011
    26  H   -0.018218   0.445190  -0.000000
    27  H    0.000011  -0.000000   0.256269
 Mulliken charges:
               1
     1  O   -0.539796
     2  S    1.186833
     3  N   -0.797620
     4  C    0.542958
     5  N   -0.372309
     6  N    0.002409
     7  C    0.079330
     8  N   -0.320760
     9  C    0.306184
    10  C   -0.150674
    11  C   -0.152075
    12  C   -0.119334
    13  C   -0.151645
    14  C   -0.137417
    15  C   -0.622035
    16  O   -0.556667
    17  H    0.447132
    18  H    0.265120
    19  H    0.189432
    20  H    0.173772
    21  H    0.169703
    22  H    0.173514
    23  H    0.187694
    24  H    0.239190
    25  H    0.238588
    26  H    0.246747
    27  H    0.471726
 Sum of Mulliken charges =   1.00000
 Mulliken charges with hydrogens summed into heavy atoms:
               1
     1  O   -0.539796
     2  S    1.186833
     3  N   -0.350488
     4  C    0.542958
     5  N    0.099418
     6  N    0.002409
     7  C    0.344450
     8  N   -0.320760
     9  C    0.306184
    10  C    0.038759
    11  C    0.021697
    12  C    0.050369
    13  C    0.021869
    14  C    0.050276
    15  C    0.102490
    16  O   -0.556667
 Electronic spatial extent (au):  <R**2>=           5564.2523
 Charge=              1.0000 electrons
 Dipole moment (field-independent basis, Debye):
    X=             -4.5385    Y=             -4.5298    Z=              0.2236  Tot=              6.4161
 Quadrupole moment (field-independent basis, Debye-Ang):
   XX=            -84.0861   YY=            -81.2220   ZZ=            -90.0685
   XY=             -6.5537   XZ=              5.5296   YZ=              0.0645
 Traceless Quadrupole moment (field-independent basis, Debye-Ang):
   XX=              1.0394   YY=              3.9035   ZZ=             -4.9429
   XY=             -6.5537   XZ=              5.5296   YZ=              0.0645
 Octapole moment (field-independent basis, Debye-Ang**2):
  XXX=           -207.0436  YYY=             -8.9024  ZZZ=             14.5263  XYY=             13.6587
  XXY=            -47.1605  XXZ=             62.6594  XZZ=             29.6420  YZZ=             -4.1161
  YYZ=             -9.2935  XYZ=            -32.4532
 Hexadecapole moment (field-independent basis, Debye-Ang**3):
 XXXX=          -5970.0752 YYYY=           -506.2230 ZZZZ=           -386.8673 XXXY=             -9.2362
 XXXZ=             89.7609 YYYX=            -12.1378 YYYZ=            -11.0561 ZZZX=             20.7453
 ZZZY=            -15.4170 XXYY=          -1054.6932 XXZZ=          -1052.3603 YYZZ=           -140.3065
 XXYZ=             18.7411 YYXZ=            -16.4564 ZZXY=            -29.8355
 N-N= 1.202912562263D+03 E-N=-5.003027169563D+03  KE= 1.108569340955D+03
 No NMR shielding tensors so no spin-rotation constants.
 Leave Link  601 at Thu Sep 24 14:39:55 2020, MaxMem=  2147483648 cpu:               0.4 elap:               0.1
 (Enter /prod/apps/gaussian/g16b1/l701.exe)
 ... and contract with generalized density number  0.
 Compute integral first derivatives.
 D1PCM: PCM CHGder 1st derivatives, ID1Alg=3 FixD1E=F DoIter=F DoCFld=F I1PDM=0.
 GePol: Maximum number of non-zero 1st derivatives   =     180
 Leave Link  701 at Thu Sep 24 14:39:56 2020, MaxMem=  2147483648 cpu:               6.6 elap:               1.7
 (Enter /prod/apps/gaussian/g16b1/l702.exe)
 L702 exits ... SP integral derivatives will be done elsewhere.
 Leave Link  702 at Thu Sep 24 14:39:56 2020, MaxMem=  2147483648 cpu:               0.1 elap:               0.0
 (Enter /prod/apps/gaussian/g16b1/l703.exe)
 Integral derivatives from FoFJK, PRISM(SPDF).
 Compute integral first derivatives, UseDBF=F ICtDFT=           0.
 Calling FoFJK, ICntrl=      2127 FMM=F ISym2X=0 I1Cent= 0 IOpClX= 0 NMat=1 NMatS=1 NMatT=0.
 FoFJK:  IHMeth= 1 ICntrl=    2127 DoSepK=F KAlg= 0 I1Cent=           0 FoldK=F
 IRaf=         0 NMat=       1 IRICut=       1 DoRegI=T DoRafI=F ISym2E= 0 IDoP0=0 IntGTp=1.
 FoFCou: FMM=F IPFlag=           0 FMFlag=      100000 FMFlg1=         800
         NFxFlg=           0 DoJE=F BraDBF=F KetDBF=F FulRan=T
         wScrn=  0.000000 ICntrl=      2127 IOpCl=  0 I1Cent=           0 NGrid=           0
         NMat0=    1 NMatS0=      1 NMatT0=    0 NMatD0=    1 NMtDS0=    0 NMtDT0=    0
 Symmetry not used in FoFCou.
 Leave Link  703 at Thu Sep 24 14:40:06 2020, MaxMem=  2147483648 cpu:              39.8 elap:              10.0
 (Enter /prod/apps/gaussian/g16b1/l716.exe)
 Dipole        =-1.78556614D+00-1.78216580D+00 8.79545468D-02
 -------------------------------------------------------------------
 Center     Atomic                   Forces (Hartrees/Bohr)
 Number     Number              X              Y              Z
 -------------------------------------------------------------------
      1        8          -0.000910894    0.000331913    0.000505414
      2       16          -0.000422118   -0.000031873    0.000642537
      3        7           0.000397896   -0.002052806   -0.000615524
      4        6          -0.000714833    0.000941229    0.000253427
      5        7           0.000426692   -0.001314144    0.000141676
      6        7          -0.000346810   -0.000902276    0.000277952
      7        6          -0.000203282    0.000964615   -0.000116244
      8        7           0.000785937    0.000356920   -0.000118851
      9        6          -0.000030613   -0.000239211   -0.000078799
     10        6          -0.000675799    0.000099214    0.000277746
     11        6           0.001086488    0.000109913   -0.000423178
     12        6           0.000016626    0.000379582    0.000378530
     13        6          -0.000041322   -0.000128030   -0.000203529
     14        6           0.000003934    0.000070875    0.000057109
     15        6           0.000057589   -0.000240201   -0.000078874
     16        8           0.000148340   -0.001125282   -0.000463973
     17        1          -0.000238153    0.002344147    0.000858463
     18        1          -0.000042517    0.000252487   -0.000094298
     19        1          -0.000263487    0.000515087    0.000565132
     20        1           0.000241485    0.000497673    0.000294118
     21        1           0.000671797    0.000120679   -0.000142761
     22        1           0.000515391   -0.000661314   -0.000587452
     23        1          -0.000183220   -0.000692067   -0.000510446
     24        1          -0.000000840    0.001020435    0.000209655
     25        1           0.000797221   -0.000051133   -0.000433196
     26        1          -0.000658628   -0.000080524   -0.000700565
     27        1          -0.000416880   -0.000485907    0.000105929
 -------------------------------------------------------------------
 Cartesian Forces:  Max     0.002344147 RMS     0.000604217
 Leave Link  716 at Thu Sep 24 14:40:06 2020, MaxMem=  2147483648 cpu:               0.1 elap:               0.0
 (Enter /prod/apps/gaussian/g16b1/l103.exe)

 GradGradGradGradGradGradGradGradGradGradGradGradGradGradGradGradGradGrad
 Berny optimization.
 FormGI is forming the generalized inverse of G from B-inverse, IUseBI=4.
 Internal  Forces:  Max     0.002507501 RMS     0.000533486
 Search for a local minimum.
 Step number   1 out of a maximum of  147
 All quantities printed in internal units (Hartrees-Bohrs-Radians)
 RMS Force = .53349D-03 SwitMx=.10000D-02 MixMth= 2
 Mixed Optimization -- En-DIIS/RFO-DIIS
 Second derivative matrix not updated -- first step.
 ITU=  0
     Eigenvalues ---    0.00418   0.01031   0.01204   0.01828   0.01868
     Eigenvalues ---    0.01901   0.02124   0.02131   0.02139   0.02140
     Eigenvalues ---    0.02142   0.02145   0.02147   0.02152   0.02159
     Eigenvalues ---    0.02238   0.02265   0.02284   0.02303   0.02316
     Eigenvalues ---    0.05984   0.06220   0.08027   0.08369   0.13198
     Eigenvalues ---    0.13908   0.15992   0.15996   0.15999   0.15999
     Eigenvalues ---    0.15999   0.16000   0.16000   0.16000   0.16000
     Eigenvalues ---    0.16000   0.18428   0.22000   0.22000   0.22713
     Eigenvalues ---    0.23359   0.23501   0.24062   0.24940   0.24996
     Eigenvalues ---    0.25000   0.25000   0.26403   0.33585   0.34556
     Eigenvalues ---    0.34710   0.34730   0.35372   0.35376   0.35442
     Eigenvalues ---    0.35477   0.35563   0.36461   0.40015   0.42011
     Eigenvalues ---    0.42160   0.43713   0.43794   0.45910   0.46083
     Eigenvalues ---    0.46167   0.46265   0.46340   0.46547   0.48347
     Eigenvalues ---    0.52266   0.58640   0.61054   0.89130   0.90432
 RFO step:  Lambda=-1.14651995D-04 EMin= 4.18066035D-03
 Linear search not attempted -- first point.
 Iteration  1 RMS(Cart)=  0.01399037 RMS(Int)=  0.00005082
 Iteration  2 RMS(Cart)=  0.00007987 RMS(Int)=  0.00000067
 Iteration  3 RMS(Cart)=  0.00000000 RMS(Int)=  0.00000067
 ITry= 1 IFail=0 DXMaxC= 4.90D-02 DCOld= 1.00D+10 DXMaxT= 3.00D-01 DXLimC= 3.00D+00 Rises=F
 Variable       Old X    -DE/DX   Delta X   Delta X   Delta X     New X
                                 (Linear)    (Quad)   (Total)
    R1        2.76435  -0.00109   0.00000  -0.00120  -0.00120   2.76314
    R2        3.25037  -0.00100   0.00000  -0.00298  -0.00298   3.24739
    R3        3.39468  -0.00125   0.00000  -0.00474  -0.00474   3.38994
    R4        2.77037  -0.00121   0.00000  -0.00136  -0.00136   2.76900
    R5        2.61571  -0.00078   0.00000  -0.00162  -0.00162   2.61409
    R6        1.93499  -0.00251   0.00000  -0.00573  -0.00573   1.92925
    R7        2.57539  -0.00167   0.00000  -0.00317  -0.00317   2.57222
    R8        2.60879  -0.00112   0.00000  -0.00229  -0.00229   2.60650
    R9        2.48322  -0.00052   0.00000  -0.00080  -0.00080   2.48242
   R10        1.93401  -0.00065   0.00000  -0.00148  -0.00148   1.93254
   R11        2.50047  -0.00140   0.00000  -0.00230  -0.00230   2.49817
   R12        2.57278  -0.00140   0.00000  -0.00268  -0.00268   2.57010
   R13        2.03367  -0.00025   0.00000  -0.00069  -0.00069   2.03298
   R14        2.71533  -0.00136   0.00000  -0.00340  -0.00340   2.71193
   R15        2.63734  -0.00118   0.00000  -0.00259  -0.00259   2.63475
   R16        2.63766  -0.00121   0.00000  -0.00264  -0.00264   2.63502
   R17        2.63752  -0.00158   0.00000  -0.00343  -0.00343   2.63409
   R18        2.04907  -0.00079   0.00000  -0.00223  -0.00223   2.04683
   R19        2.63886  -0.00043   0.00000  -0.00091  -0.00091   2.63795
   R20        2.04963  -0.00062   0.00000  -0.00176  -0.00176   2.04787
   R21        2.64201  -0.00106   0.00000  -0.00226  -0.00226   2.63975
   R22        2.05075  -0.00069   0.00000  -0.00196  -0.00196   2.04879
   R23        2.63394  -0.00100   0.00000  -0.00212  -0.00212   2.63182
   R24        2.05068  -0.00102   0.00000  -0.00289  -0.00289   2.04779
   R25        2.04771  -0.00083   0.00000  -0.00234  -0.00234   2.04537
   R26        2.06148  -0.00104   0.00000  -0.00298  -0.00298   2.05850
   R27        2.06116  -0.00091   0.00000  -0.00261  -0.00261   2.05855
   R28        2.06402  -0.00095   0.00000  -0.00276  -0.00276   2.06127
    A1        1.82436  -0.00006   0.00000  -0.00038  -0.00038   1.82397
    A2        1.90754  -0.00006   0.00000  -0.00008  -0.00008   1.90747
    A3        2.10864  -0.00003   0.00000  -0.00043  -0.00043   2.10821
    A4        1.84919   0.00022   0.00000   0.00102   0.00102   1.85020
    A5        1.84550  -0.00021   0.00000  -0.00113  -0.00113   1.84437
    A6        1.90934   0.00015   0.00000   0.00108   0.00108   1.91042
    A7        2.11392  -0.00079   0.00000  -0.00370  -0.00370   2.11022
    A8        1.95077   0.00035   0.00000   0.00130   0.00130   1.95206
    A9        1.98906   0.00027   0.00000   0.00064   0.00064   1.98970
   A10        2.15549  -0.00022   0.00000  -0.00090  -0.00090   2.15459
   A11        2.30161   0.00016   0.00000   0.00063   0.00063   2.30225
   A12        1.82480   0.00006   0.00000   0.00030   0.00030   1.82510
   A13        1.97727   0.00013   0.00000   0.00068   0.00068   1.97795
   A14        2.23047  -0.00001   0.00000   0.00003   0.00003   2.23050
   A15        2.07544  -0.00013   0.00000  -0.00071  -0.00071   2.07473
   A16        1.82021  -0.00045   0.00000  -0.00179  -0.00179   1.81843
   A17        1.83787  -0.00018   0.00000  -0.00087  -0.00087   1.83701
   A18        2.28872   0.00017   0.00000   0.00092   0.00092   2.28965
   A19        2.15632   0.00002   0.00000  -0.00002  -0.00002   2.15630
   A20        1.96446   0.00043   0.00000   0.00167   0.00167   1.96613
   A21        2.09159  -0.00025   0.00000  -0.00096  -0.00096   2.09062
   A22        2.22700  -0.00019   0.00000  -0.00073  -0.00073   2.22627
   A23        2.07484   0.00012   0.00000   0.00053   0.00053   2.07536
   A24        2.07715  -0.00042   0.00000  -0.00160  -0.00160   2.07554
   A25        2.13120   0.00030   0.00000   0.00108   0.00108   2.13227
   A26        2.06847  -0.00003   0.00000  -0.00026  -0.00026   2.06821
   A27        2.10881  -0.00012   0.00000  -0.00068  -0.00068   2.10813
   A28        2.10569   0.00015   0.00000   0.00099   0.00099   2.10668
   A29        2.09973  -0.00004   0.00000  -0.00011  -0.00011   2.09961
   A30        2.08244   0.00008   0.00000   0.00048   0.00048   2.08292
   A31        2.10095  -0.00005   0.00000  -0.00034  -0.00034   2.10060
   A32        2.09792  -0.00006   0.00000  -0.00007  -0.00007   2.09785
   A33        2.09278   0.00004   0.00000   0.00009   0.00009   2.09286
   A34        2.09248   0.00002   0.00000  -0.00002  -0.00002   2.09247
   A35        2.09993  -0.00002   0.00000   0.00006   0.00006   2.09999
   A36        2.09962   0.00001   0.00000  -0.00003  -0.00003   2.09959
   A37        2.08358   0.00001   0.00000  -0.00004  -0.00004   2.08355
   A38        2.06907  -0.00015   0.00000  -0.00070  -0.00070   2.06837
   A39        2.09965  -0.00020   0.00000  -0.00137  -0.00137   2.09828
   A40        2.11439   0.00036   0.00000   0.00210   0.00210   2.11650
   A41        1.89160  -0.00012   0.00000  -0.00062  -0.00062   1.89099
   A42        1.90047  -0.00013   0.00000  -0.00078  -0.00078   1.89969
   A43        1.86328  -0.00023   0.00000  -0.00160  -0.00160   1.86168
   A44        1.94370   0.00017   0.00000   0.00140   0.00140   1.94511
   A45        1.93159   0.00014   0.00000   0.00077   0.00077   1.93236
   A46        1.93073   0.00014   0.00000   0.00063   0.00063   1.93136
    D1       -2.95845   0.00006   0.00000   0.00304   0.00304  -2.95541
    D2        0.90287   0.00013   0.00000   0.00493   0.00493   0.90780
    D3        1.31048   0.00006   0.00000   0.00286   0.00286   1.31335
    D4       -1.11138   0.00013   0.00000   0.00476   0.00476  -1.10663
    D5       -0.71526  -0.00012   0.00000   0.00169   0.00169  -0.71357
    D6       -3.13713  -0.00004   0.00000   0.00358   0.00358  -3.13355
    D7       -0.90149   0.00003   0.00000   0.00120   0.00120  -0.90029
    D8       -3.01849  -0.00002   0.00000   0.00033   0.00033  -3.01817
    D9        1.17974   0.00001   0.00000   0.00090   0.00090   1.18064
   D10        1.05530   0.00005   0.00000   0.00122   0.00122   1.05653
   D11       -1.06170  -0.00000   0.00000   0.00035   0.00035  -1.06135
   D12        3.13653   0.00003   0.00000   0.00093   0.00093   3.13746
   D13        3.03733  -0.00000   0.00000   0.00094   0.00094   3.03827
   D14        0.92032  -0.00006   0.00000   0.00007   0.00007   0.92039
   D15       -1.16463  -0.00002   0.00000   0.00064   0.00064  -1.16399
   D16        1.16615  -0.00001   0.00000  -0.00091  -0.00091   1.16524
   D17       -2.03875   0.00001   0.00000   0.00004   0.00004  -2.03871
   D18       -2.70954  -0.00006   0.00000  -0.00265  -0.00265  -2.71218
   D19        0.36876  -0.00004   0.00000  -0.00170  -0.00170   0.36706
   D20        3.09746  -0.00001   0.00000  -0.00065  -0.00066   3.09680
   D21       -0.04678   0.00002   0.00000   0.00054   0.00054  -0.04624
   D22        0.00455  -0.00003   0.00000  -0.00141  -0.00141   0.00314
   D23       -3.13969  -0.00001   0.00000  -0.00021  -0.00021  -3.13990
   D24       -3.08095   0.00001   0.00000   0.00028   0.00028  -3.08067
   D25        0.08544  -0.00002   0.00000  -0.00132  -0.00132   0.08412
   D26        0.00612   0.00002   0.00000   0.00106   0.00106   0.00718
   D27       -3.11068  -0.00002   0.00000  -0.00054  -0.00054  -3.11122
   D28       -0.01341   0.00003   0.00000   0.00114   0.00113  -0.01228
   D29        3.13057   0.00001   0.00000   0.00006   0.00005   3.13063
   D30        0.01756  -0.00001   0.00000  -0.00038  -0.00038   0.01718
   D31       -3.14055  -0.00004   0.00000  -0.00177  -0.00177   3.14086
   D32       -0.01514  -0.00001   0.00000  -0.00047  -0.00047  -0.01560
   D33       -3.13865   0.00002   0.00000   0.00105   0.00105  -3.13760
   D34        3.10405   0.00003   0.00000   0.00100   0.00100   3.10504
   D35       -0.01946   0.00006   0.00000   0.00252   0.00252  -0.01695
   D36        2.51710   0.00024   0.00000   0.02002   0.02002   2.53712
   D37       -0.62878   0.00026   0.00000   0.02077   0.02077  -0.60801
   D38       -0.64374   0.00022   0.00000   0.01843   0.01843  -0.62531
   D39        2.49356   0.00023   0.00000   0.01918   0.01918   2.51274
   D40        3.13052   0.00001   0.00000   0.00079   0.00079   3.13130
   D41       -0.03333   0.00007   0.00000   0.00334   0.00334  -0.02999
   D42       -0.00664   0.00000   0.00000   0.00002   0.00002  -0.00662
   D43        3.11270   0.00006   0.00000   0.00257   0.00257   3.11527
   D44       -3.13914  -0.00003   0.00000  -0.00145  -0.00145  -3.14058
   D45       -0.00967   0.00003   0.00000   0.00124   0.00123  -0.00844
   D46       -0.00198  -0.00002   0.00000  -0.00067  -0.00067  -0.00266
   D47        3.12748   0.00004   0.00000   0.00201   0.00201   3.12949
   D48        0.00927  -0.00001   0.00000  -0.00030  -0.00029   0.00897
   D49        3.13845   0.00003   0.00000   0.00165   0.00165   3.14010
   D50       -3.11011  -0.00006   0.00000  -0.00282  -0.00282  -3.11293
   D51        0.01907  -0.00002   0.00000  -0.00087  -0.00088   0.01820
   D52       -0.00340   0.00003   0.00000   0.00123   0.00123  -0.00216
   D53        3.13919   0.00000   0.00000   0.00008   0.00008   3.13927
   D54       -3.13245  -0.00002   0.00000  -0.00074  -0.00074  -3.13319
   D55        0.01014  -0.00004   0.00000  -0.00189  -0.00189   0.00825
   D56       -0.00545  -0.00004   0.00000  -0.00191  -0.00191  -0.00736
   D57       -3.13585  -0.00002   0.00000  -0.00113  -0.00113  -3.13698
   D58        3.13514  -0.00002   0.00000  -0.00076  -0.00076   3.13439
   D59        0.00475   0.00000   0.00000   0.00002   0.00002   0.00477
   D60        0.00804   0.00003   0.00000   0.00161   0.00161   0.00965
   D61       -3.12132  -0.00002   0.00000  -0.00107  -0.00108  -3.12239
   D62        3.13854   0.00002   0.00000   0.00084   0.00084   3.13938
   D63        0.00918  -0.00004   0.00000  -0.00184  -0.00185   0.00733
         Item               Value     Threshold  Converged?
 Maximum Force            0.002508     0.000450     NO 
[...]
 Alpha virt. eigenvalues --    0.24129   0.24202   0.24865   0.25072   0.25204
 Alpha virt. eigenvalues --    0.25647   0.26442   0.26608   0.27095   0.27598
 Alpha virt. eigenvalues --    0.27913   0.27964   0.28433   0.29212   0.29240
 Alpha virt. eigenvalues --    0.29551   0.30338   0.30675   0.30863   0.31220
 Alpha virt. eigenvalues --    0.31904   0.32869   0.32959   0.33436   0.33473
 Alpha virt. eigenvalues --    0.33606   0.34329   0.34832   0.35250   0.36046
 Alpha virt. eigenvalues --    0.36309   0.37260   0.37423   0.38886   0.39237
 Alpha virt. eigenvalues --    0.39740   0.40379   0.41393   0.41495   0.42067
 Alpha virt. eigenvalues --    0.42852   0.43446   0.44333   0.44508   0.45120
 Alpha virt. eigenvalues --    0.45763   0.45877   0.46465   0.47353   0.47954
 Alpha virt. eigenvalues --    0.48647   0.48953   0.49742   0.49835   0.50248
 Alpha virt. eigenvalues --    0.50654   0.51793   0.52215   0.52398   0.53109
 Alpha virt. eigenvalues --    0.53449   0.54144   0.54385   0.55007   0.55262
 Alpha virt. eigenvalues --    0.55559   0.56227   0.56772   0.56856   0.57741
 Alpha virt. eigenvalues --    0.58264   0.58343   0.58580   0.59295   0.59711
 Alpha virt. eigenvalues --    0.59804   0.60950   0.61892   0.62993   0.63836
 Alpha virt. eigenvalues --    0.63968   0.64318   0.65421   0.65763   0.66684
 Alpha virt. eigenvalues --    0.67113   0.67384   0.67802   0.68514   0.68947
 Alpha virt. eigenvalues --    0.70978   0.71212   0.71593   0.72286   0.73217
 Alpha virt. eigenvalues --    0.73611   0.74321   0.74912   0.74987   0.75747
 Alpha virt. eigenvalues --    0.76590   0.77477   0.77976   0.78441   0.78769
 Alpha virt. eigenvalues --    0.80120   0.80229   0.80760   0.81338   0.82048
 Alpha virt. eigenvalues --    0.82616   0.82815   0.83465   0.84239   0.84432
 Alpha virt. eigenvalues --    0.85065   0.86271   0.87088   0.87638   0.88607
 Alpha virt. eigenvalues --    0.88797   0.89659   0.90520   0.90953   0.91932
 Alpha virt. eigenvalues --    0.92310   0.93235   0.93923   0.95514   0.95635
 Alpha virt. eigenvalues --    0.97537   0.98426   0.98882   0.99677   1.00700
 Alpha virt. eigenvalues --    1.01516   1.01654   1.03023   1.04283   1.04765
 Alpha virt. eigenvalues --    1.06106   1.06996   1.07505   1.08654   1.09184
 Alpha virt. eigenvalues --    1.09395   1.10605   1.11354   1.14275   1.14623
 Alpha virt. eigenvalues --    1.15506   1.15884   1.17210   1.19026   1.20521
 Alpha virt. eigenvalues --    1.21835   1.23147   1.24771   1.25491   1.26849
 Alpha virt. eigenvalues --    1.27203   1.29396   1.29892   1.30269   1.32178
 Alpha virt. eigenvalues --    1.33142   1.33399   1.35363   1.36699   1.38022
 Alpha virt. eigenvalues --    1.38774   1.39421   1.40587   1.41563   1.42640
 Alpha virt. eigenvalues --    1.43375   1.44205   1.45455   1.46693   1.48132
 Alpha virt. eigenvalues --    1.48644   1.49683   1.50080   1.50959   1.51293
 Alpha virt. eigenvalues --    1.52644   1.52847   1.53703   1.54444   1.54967
 Alpha virt. eigenvalues --    1.56311   1.57425   1.58546   1.58924   1.59466
 Alpha virt. eigenvalues --    1.60211   1.61148   1.62017   1.62750   1.64928
 Alpha virt. eigenvalues --    1.66375   1.67277   1.68311   1.68644   1.70516
 Alpha virt. eigenvalues --    1.70892   1.71965   1.73327   1.74067   1.74775
 Alpha virt. eigenvalues --    1.77036   1.78712   1.79260   1.80900   1.81669
 Alpha virt. eigenvalues --    1.82242   1.82844   1.84014   1.84862   1.86360
 Alpha virt. eigenvalues --    1.86584   1.87042   1.88715   1.89610   1.91971
 Alpha virt. eigenvalues --    1.93875   1.94099   1.95556   1.97884   1.98832
 Alpha virt. eigenvalues --    1.99407   2.00040   2.01907   2.03349   2.03506
 Alpha virt. eigenvalues --    2.03673   2.05122   2.06068   2.06817   2.07990
 Alpha virt. eigenvalues --    2.09024   2.09326   2.10769   2.11404   2.12585
 Alpha virt. eigenvalues --    2.13140   2.15606   2.16001   2.16855   2.19743
 Alpha virt. eigenvalues --    2.19851   2.20904   2.21114   2.22353   2.23004
 Alpha virt. eigenvalues --    2.24094   2.24655   2.25701   2.26208   2.27811
 Alpha virt. eigenvalues --    2.28381   2.31383   2.31511   2.33529   2.35283
 Alpha virt. eigenvalues --    2.35969   2.36521   2.37892   2.39374   2.40689
 Alpha virt. eigenvalues --    2.43676   2.46519   2.48416   2.50281   2.51440
 Alpha virt. eigenvalues --    2.53102   2.53499   2.54231   2.55785   2.58525
 Alpha virt. eigenvalues --    2.60846   2.62603   2.64650   2.66355   2.69248
 Alpha virt. eigenvalues --    2.69740   2.71257   2.72201   2.73324   2.74280
 Alpha virt. eigenvalues --    2.76868   2.79203   2.80851   2.84043   2.84680
 Alpha virt. eigenvalues --    2.85672   2.86688   2.87298   2.89477   2.90833
 Alpha virt. eigenvalues --    2.93302   2.95953   2.99661   3.01386   3.02071
 Alpha virt. eigenvalues --    3.03221   3.05771   3.08042   3.18338   3.21429
 Alpha virt. eigenvalues --    3.23543   3.25106   3.29153   3.34957   3.37158
 Alpha virt. eigenvalues --    3.43024   3.50733   3.52738   3.58783   3.60204
 Alpha virt. eigenvalues --    3.62225   3.62979   3.64958   3.66351   3.67721
 Alpha virt. eigenvalues --    3.68644   3.70683   3.73622   3.77026   3.82794
 Alpha virt. eigenvalues --    3.88316   4.16335   4.28850   4.75716
          Condensed to atoms (all electrons):
               1          2          3          4          5          6
     1  O    9.019131  -0.055488  -0.041730   0.104959  -0.007078  -0.001579
     2  S   -0.055488  13.513587   0.414641  -1.061155   0.055258  -0.001406
     3  N   -0.041730   0.414641   8.272967  -1.370342  -0.093316  -0.167234
     4  C    0.104959  -1.061155  -1.370342  11.860205  -0.267024   0.376156
     5  N   -0.007078   0.055258  -0.093316  -0.267024   7.930595  -0.497967
     6  N   -0.001579  -0.001406  -0.167234   0.376156  -0.497967   8.606673
     7  C   -0.021406   0.342901   0.657889  -4.744568   0.480664  -0.694855
     8  N   -0.001474   0.055721  -0.000709  -0.006120  -0.382258  -0.116983
     9  C    0.002638  -0.017972   0.033876   0.326017  -0.206826  -0.469113
    10  C   -0.000733   0.007728  -0.006946  -0.150261   0.103590  -0.008402
    11  C   -0.000020  -0.000936  -0.007199   0.170189   0.009284  -0.014303
    12  C   -0.000002   0.000121   0.000167  -0.026460  -0.000128   0.034300
    13  C    0.000024  -0.001251  -0.003846   0.050202  -0.040027   0.020787
    14  C    0.000134  -0.000908  -0.002303  -0.109065  -0.040409   0.537607
    15  C   -0.024319   0.435162  -0.018846   0.030274  -0.023239  -0.004293
    16  O    0.039463  -0.107480  -0.094801   0.287992  -0.038850  -0.028953
    17  H    0.018235  -0.097017   0.386738  -0.055586   0.031653   0.010653
    18  H   -0.000440  -0.007990  -0.151411   0.302528  -0.089223  -0.059648
    19  H    0.000015   0.000695   0.005954  -0.022332  -0.002287  -0.024685
    20  H    0.000001  -0.000063  -0.000363   0.004159  -0.001101   0.000975
    21  H    0.000000   0.000000   0.000007  -0.000536  -0.000019   0.001441
    22  H    0.000001  -0.000101  -0.000242   0.001995  -0.000142  -0.000949
    23  H    0.000021  -0.000399  -0.000110   0.009623  -0.002215   0.000811
    24  H    0.024108   0.032846  -0.067807  -0.065528   0.004469   0.001104
    25  H    0.014034  -0.128861  -0.005576   0.019812   0.008076  -0.002927
    26  H   -0.001743   0.001366   0.014116  -0.007604   0.002276   0.002104
    27  H   -0.001585   0.035740   0.028020  -0.097400   0.432718  -0.209020
               7          8          9         10         11         12
     1  O   -0.021406  -0.001474   0.002638  -0.000733  -0.000020  -0.000002
     2  S    0.342901   0.055721  -0.017972   0.007728  -0.000936   0.000121
     3  N    0.657889  -0.000709   0.033876  -0.006946  -0.007199   0.000167
     4  C   -4.744568  -0.006120   0.326017  -0.150261   0.170189  -0.026460
     5  N    0.480664  -0.382258  -0.206826   0.103590   0.009284  -0.000128
     6  N   -0.694855  -0.116983  -0.469113  -0.008402  -0.014303   0.034300
     7  C   10.421779  -0.045879  -1.280796   0.515415  -0.394956   0.055332
     8  N   -0.045879   8.927369  -0.769608   0.446633  -0.328286   0.328263
     9  C   -1.280796  -0.769608  14.135418  -5.428457   2.762872  -3.442307
    10  C    0.515415   0.446633  -5.428457  12.504455  -3.357239   2.999132
    11  C   -0.394956  -0.328286   2.762872  -3.357239   9.720605  -2.863686
    12  C    0.055332   0.328263  -3.442307   2.999132  -2.863686   8.698349
    13  C   -0.014900  -0.247336   2.510238  -3.177917   2.824669  -2.781102
    14  C    0.012339  -0.066452  -4.864027   2.047448  -3.056949   2.791065
    15  C   -0.017778   0.010022   0.004570   0.000972  -0.000994   0.000231
    16  O   -0.068152  -0.001759   0.003324  -0.000534   0.000206  -0.000096
    17  H   -0.077153   0.001590   0.006140  -0.004403  -0.000179  -0.000240
    18  H   -0.591339   0.127735   0.168612   0.032786   0.082466  -0.001444
    19  H    0.088876  -0.217481   0.971198  -1.045859   0.130859  -0.192592
    20  H   -0.000525   0.002624  -0.133236   0.600573  -0.700686   0.294658
    21  H   -0.001011  -0.003405   0.117797  -0.176260   0.345463  -0.572906
    22  H   -0.003230  -0.007805  -0.107675   0.113826  -0.203774   0.267101
    23  H   -0.029127  -0.211125   0.700503  -0.113760   0.117990  -0.168463
    24  H    0.020168   0.005010   0.002505   0.000866   0.000048   0.000096
    25  H   -0.019477  -0.001713   0.010470  -0.004336   0.001956  -0.001111
    26  H    0.010074  -0.001034  -0.001693   0.000324  -0.000240   0.000059
    27  H   -0.053661   0.086130   0.009511  -0.002443   0.000128  -0.000337
              13         14         15         16         17         18
     1  O    0.000024   0.000134  -0.024319   0.039463   0.018235  -0.000440
     2  S   -0.001251  -0.000908   0.435162  -0.107480  -0.097017  -0.007990
     3  N   -0.003846  -0.002303  -0.018846  -0.094801   0.386738  -0.151411
     4  C    0.050202  -0.109065   0.030274   0.287992  -0.055586   0.302528
     5  N   -0.040027  -0.040409  -0.023239  -0.038850   0.031653  -0.089223
     6  N    0.020787   0.537607  -0.004293  -0.028953   0.010653  -0.059648
     7  C   -0.014900   0.012339  -0.017778  -0.068152  -0.077153  -0.591339
     8  N   -0.247336  -0.066452   0.010022  -0.001759   0.001590   0.127735
     9  C    2.510238  -4.864027   0.004570   0.003324   0.006140   0.168612
    10  C   -3.177917   2.047448   0.000972  -0.000534  -0.004403   0.032786
    11  C    2.824669  -3.056949  -0.000994   0.000206  -0.000179   0.082466
    12  C   -2.781102   2.791065   0.000231  -0.000096  -0.000240  -0.001444
    13  C    9.395747  -3.061429  -0.000162  -0.000084  -0.000042  -0.006336
    14  C   -3.061429  12.053352  -0.001382  -0.002312  -0.000100  -0.147953
    15  C   -0.000162  -0.001382   4.565150  -0.013595  -0.020572   0.000133
    16  O   -0.000084  -0.002312  -0.013595   9.105968   0.002758   0.001544
    17  H   -0.000042  -0.000100  -0.020572   0.002758   0.804928   0.011650
    18  H   -0.006336  -0.147953   0.000133   0.001544   0.011650   1.848468
    19  H    0.127472  -0.125347   0.000507  -0.000181   0.001028  -0.056624
    20  H   -0.228462   0.113301  -0.000050   0.000011   0.000010   0.002646
    21  H    0.383541  -0.120605   0.000010  -0.000004  -0.000008  -0.000095
    22  H   -0.632305   0.542812  -0.000019   0.000020  -0.000006   0.000151
    23  H    0.290713  -0.875516   0.000256  -0.000590  -0.000223  -0.003751
    24  H   -0.000198  -0.000193   0.312220   0.005057   0.013933   0.000703
    25  H    0.001370  -0.003416   0.340304   0.045603  -0.001253   0.004687
    26  H   -0.000012   0.000557   0.337575  -0.006467  -0.001766   0.000356
    27  H    0.001717  -0.001358  -0.001800  -0.000403   0.001654   0.000517
              19         20         21         22         23         24
     1  O    0.000015   0.000001   0.000000   0.000001   0.000021   0.024108
     2  S    0.000695  -0.000063   0.000000  -0.000101  -0.000399   0.032846
     3  N    0.005954  -0.000363   0.000007  -0.000242  -0.000110  -0.067807
     4  C   -0.022332   0.004159  -0.000536   0.001995   0.009623  -0.065528
     5  N   -0.002287  -0.001101  -0.000019  -0.000142  -0.002215   0.004469
     6  N   -0.024685   0.000975   0.001441  -0.000949   0.000811   0.001104
     7  C    0.088876  -0.000525  -0.001011  -0.003230  -0.029127   0.020168
     8  N   -0.217481   0.002624  -0.003405  -0.007805  -0.211125   0.005010
     9  C    0.971198  -0.133236   0.117797  -0.107675   0.700503   0.002505
    10  C   -1.045859   0.600573  -0.176260   0.113826  -0.113760   0.000866
    11  C    0.130859  -0.700686   0.345463  -0.203774   0.117990   0.000048
    12  C   -0.192592   0.294658  -0.572906   0.267101  -0.168463   0.000096
    13  C    0.127472  -0.228462   0.383541  -0.632305   0.290713  -0.000198
    14  C   -0.125347   0.113301  -0.120605   0.542812  -0.875516  -0.000193
    15  C    0.000507  -0.000050   0.000010  -0.000019   0.000256   0.312220
    16  O   -0.000181   0.000011  -0.000004   0.000020  -0.000590   0.005057
    17  H    0.001028   0.000010  -0.000008  -0.000006  -0.000223   0.013933
    18  H   -0.056624   0.002646  -0.000095   0.000151  -0.003751   0.000703
    19  H    2.106179  -0.081558  -0.014410   0.009642  -0.017097   0.000119
    20  H   -0.081558   1.606710  -0.059531  -0.017207   0.009243  -0.000014
    21  H   -0.014410  -0.059531   1.591375  -0.062649  -0.011372   0.000002
    22  H    0.009642  -0.017207  -0.062649   1.584041  -0.077717  -0.000013
    23  H   -0.017097   0.009243  -0.011372  -0.077717   1.905595   0.000204
    24  H    0.000119  -0.000014   0.000002  -0.000013   0.000204   0.826780
    25  H   -0.000619   0.000099  -0.000021   0.000090  -0.000661  -0.059386
    26  H    0.000166  -0.000012   0.000002  -0.000006   0.000007  -0.099018
    27  H   -0.000109  -0.000004  -0.000014   0.000022  -0.001859  -0.000168
              25         26         27
     1  O    0.014034  -0.001743  -0.001585
     2  S   -0.128861   0.001366   0.035740
     3  N   -0.005576   0.014116   0.028020
     4  C    0.019812  -0.007604  -0.097400
     5  N    0.008076   0.002276   0.432718
     6  N   -0.002927   0.002104  -0.209020
     7  C   -0.019477   0.010074  -0.053661
     8  N   -0.001713  -0.001034   0.086130
     9  C    0.010470  -0.001693   0.009511
    10  C   -0.004336   0.000324  -0.002443
    11  C    0.001956  -0.000240   0.000128
    12  C   -0.001111   0.000059  -0.000337
    13  C    0.001370  -0.000012   0.001717
    14  C   -0.003416   0.000557  -0.001358
    15  C    0.340304   0.337575  -0.001800
    16  O    0.045603  -0.006467  -0.000403
    17  H   -0.001253  -0.001766   0.001654
    18  H    0.004687   0.000356   0.000517
    19  H   -0.000619   0.000166  -0.000109
    20  H    0.000099  -0.000012  -0.000004
    21  H   -0.000021   0.000002  -0.000014
    22  H    0.000090  -0.000006   0.000022
    23  H   -0.000661   0.000007  -0.001859
    24  H   -0.059386  -0.099018  -0.000168
    25  H    0.831740  -0.083062  -0.001524
    26  H   -0.083062   0.776464   0.000210
    27  H   -0.001524   0.000210   0.741445
 Mulliken charges:
               1
     1  O   -1.065166
     2  S    2.585259
     3  N   -0.781593
     4  C    0.439868
     5  N   -0.366474
     6  N   -0.290291
     7  C    1.453378
     8  N   -0.581672
     9  C    0.956021
    10  C    0.103801
    11  C    0.762712
    12  C    0.582002
    13  C    0.588927
    14  C    0.381111
    15  C    0.089664
    16  O   -1.127685
    17  H   -0.032424
    18  H   -0.468729
    19  H   -0.641530
    20  H   -0.412198
    21  H   -0.416794
    22  H   -0.405863
    23  H   -0.520981
    24  H    0.042085
    25  H    0.035702
    26  H    0.057000
    27  H    0.033870
 Sum of Mulliken charges =   1.00000
 Mulliken charges with hydrogens summed into heavy atoms:
               1
     1  O   -1.065166
     2  S    2.585259
     3  N   -0.814017
     4  C    0.439868
     5  N   -0.332604
     6  N   -0.290291
     7  C    0.984648
     8  N   -0.581672
     9  C    0.956021
    10  C   -0.537728
    11  C    0.350514
    12  C    0.165208
    13  C    0.183065
    14  C   -0.139870
    15  C    0.224452
    16  O   -1.127685
 Electronic spatial extent (au):  <R**2>=           5546.8837
 Charge=              1.0000 electrons
 Dipole moment (field-independent basis, Debye):
    X=             -4.9930    Y=             -3.6850    Z=              1.4831  Tot=              6.3803
 Quadrupole moment (field-independent basis, Debye-Ang):
   XX=            -68.4548   YY=            -82.9039   ZZ=            -93.3639
   XY=             -6.0455   XZ=              6.8057   YZ=             -1.1427
 Traceless Quadrupole moment (field-independent basis, Debye-Ang):
   XX=             13.1194   YY=             -1.3297   ZZ=            -11.7897
   XY=             -6.0455   XZ=              6.8057   YZ=             -1.1427
 Octapole moment (field-independent basis, Debye-Ang**2):
  XXX=           -220.6601  YYY=             -7.7667  ZZZ=              9.0855  XYY=              0.8955
  XXY=            -35.1011  XXZ=             78.8670  XZZ=             44.9284  YZZ=              0.6335
  YYZ=             -9.2630  XYZ=            -30.9167
 Hexadecapole moment (field-independent basis, Debye-Ang**3):
 XXXX=          -5549.7169 YYYY=           -529.5764 ZZZZ=           -370.3024 XXXY=             16.6464
 XXXZ=             84.9910 YYYX=            -10.8065 YYYZ=              4.5987 ZZZX=             53.8965
 ZZZY=            -10.1189 XXYY=          -1045.2910 XXZZ=          -1072.7776 YYZZ=           -150.1683
 XXYZ=             16.4849 YYXZ=            -15.3637 ZZXY=            -25.7208
 N-N= 1.204945868832D+03 E-N=-5.006791505800D+03  KE= 1.110638772653D+03
 Leave Link  601 at Thu Sep 24 15:17:17 2020, MaxMem=   262144000 cpu:               0.7 elap:               0.2
 (Enter /prod/apps/gaussian/g16b1/l9999.exe)
 1\1\GINC-PIRINEUS24\SP\RMP2-FC\Aug-CC-pVDZ\C9H11N4O2S1(1+)\UBAFAR01\24
 -Sep-2020\0\\#p mp2/aug-cc-pVDZ scf=(MaxCycle=2000,NoVarAcc,NoIncFock)
  maxdisk=120GB geom=allcheck\\SM44_m2.b.4.pdb.xyz\\1,1\O,0,4.725358739
 7,-0.3935596751,-0.5751986849\S,0,3.5073761879,-0.046920325,0.15497555
 43\N,0,2.2270211568,-0.4424621127,-0.918341518\C,0,0.9365873908,-0.013
 573958,-0.667199207\N,0,0.5712516844,1.2968345827,-0.6349980071\N,0,-0
 .7156708814,1.4716978492,-0.4289573991\C,0,-0.2390971554,-0.7075641218
 ,-0.4691342593\N,0,-1.2009695666,0.2458880804,-0.3429891131\C,0,-2.602
 6119751,0.0452240658,-0.1131329268\C,0,-3.2085043416,-1.1065102051,-0.
 6138779839\C,0,-4.5676325069,-1.3020038023,-0.3754332167\C,0,-5.300281
 3837,-0.3541791538,0.3416344223\C,0,-4.6739820153,0.795921587,0.828401
 0622\C,0,-3.3141437538,1.0029609625,0.6090568414\C,0,3.3317007738,-1.1
 424257008,1.564164451\O,0,3.2494230435,1.33319174,0.5735675696\H,0,2.2
 889292954,-1.403819833,-1.2565231475\H,0,-0.4356840283,-1.7626813462,-
 0.3986234752\H,0,-2.6392309618,-1.8254310025,-1.1898537558\H,0,-5.0519
 395134,-2.1920187,-0.7596804029\H,0,-6.3577467368,-0.5114750532,0.5217
 596841\H,0,-5.2396782797,1.5303626133,1.3898500037\H,0,-2.8088467933,1
 .8790303884,0.9943277334\H,0,3.4202273175,-2.1697867791,1.213060892\H,
 0,2.364560807,-0.9632258248,2.0327212811\H,0,4.143079639,-0.899005443,
 2.2515620808\H,0,1.1695038574,2.1195311671,-0.7381384785\\Version=ES64
 L-G16RevB.01\State=1-A\HF=-1112.0029454\MP2=-1114.4728268\RMSD=6.333e-
 09\PG=C01 [X(C9H11N4O2S1)]\\@


 IF AT FIRST YOU DON'T SUCCEED, TRY, TRY AGAIN.
 THEN GIVE UP;
 THERE'S NO USE BEING A DAMN FOOL ABOUT IT.

                                 -- W. C. FIELDS
 Job cpu time:       0 days  1 hours  2 minutes  4.8 seconds.
 Elapsed time:       0 days  0 hours 16 minutes 30.0 seconds.
 File lengths (MBytes):  RWF=  37491 Int=      0 D2E=      0 Chk=     18 Scr=      1
 Normal termination of Gaussian 16 at Thu Sep 24 15:17:18 2020.
