 Entering Gaussian System, Link 0=g16
 Initial command:
 /prod/apps/gaussian/g16b1/l1.exe "/tmp/ubafar01/1461360/Gau-212335.inp" -scrdir="/tmp/ubafar01/1461360/"
 Entering Link 1 = /prod/apps/gaussian/g16b1/l1.exe PID=    212336.
  
 Copyright (c) 1988-2017, Gaussian, Inc.  All Rights Reserved.
  
 This is part of the Gaussian(R) 16 program.  It is based on
 the Gaussian(R) 09 system (copyright 2009, Gaussian, Inc.),
 the Gaussian(R) 03 system (copyright 2003, Gaussian, Inc.),
 the Gaussian(R) 98 system (copyright 1998, Gaussian, Inc.),
 the Gaussian(R) 94 system (copyright 1995, Gaussian, Inc.),
 the Gaussian 92(TM) system (copyright 1992, Gaussian, Inc.),
 the Gaussian 90(TM) system (copyright 1990, Gaussian, Inc.),
 the Gaussian 88(TM) system (copyright 1988, Gaussian, Inc.),
 the Gaussian 86(TM) system (copyright 1986, Carnegie Mellon
 University), and the Gaussian 82(TM) system (copyright 1983,
 Carnegie Mellon University). Gaussian is a federally registered
 trademark of Gaussian, Inc.
  
 This software contains proprietary and confidential information,
 including trade secrets, belonging to Gaussian, Inc.
  
 This software is provided under written license and may be
 used, copied, transmitted, or stored only in accord with that
 written license.
  
 The following legend is applicable only to US Government
 contracts under FAR:
  
                    RESTRICTED RIGHTS LEGEND
  
 Use, reproduction and disclosure by the US Government is
 subject to restrictions as set forth in subparagraphs (a)
 and (c) of the Commercial Computer Software - Restricted
 Rights clause in FAR 52.227-19.
  
 Gaussian, Inc.
 340 Quinnipiac St., Bldg. 40, Wallingford CT 06492
  
  
 ---------------------------------------------------------------
 Warning -- This program may not be used in any manner that
 competes with the business of Gaussian, Inc. or will provide
 assistance to any competitor of Gaussian, Inc.  The licensee
 of this program is prohibited from giving any competitor of
 Gaussian, Inc. access to this program.  By using this program,
 the user acknowledges that Gaussian, Inc. is engaged in the
 business of creating and licensing software in the field of
 computational chemistry and represents and warrants to the
 licensee that it is not a competitor of Gaussian, Inc. and that
 it will not use this program in any manner prohibited above.
 ---------------------------------------------------------------
  

 Cite this work as:
 Gaussian 16, Revision B.01,
 M. J. Frisch, G. W. Trucks, H. B. Schlegel, G. E. Scuseria, 
 M. A. Robb, J. R. Cheeseman, G. Scalmani, V. Barone, 
 G. A. Petersson, H. Nakatsuji, X. Li, M. Caricato, A. V. Marenich, 
 J. Bloino, B. G. Janesko, R. Gomperts, B. Mennucci, H. P. Hratchian, 
 J. V. Ortiz, A. F. Izmaylov, J. L. Sonnenberg, D. Williams-Young, 
 F. Ding, F. Lipparini, F. Egidi, J. Goings, B. Peng, A. Petrone, 
 T. Henderson, D. Ranasinghe, V. G. Zakrzewski, J. Gao, N. Rega, 
 G. Zheng, W. Liang, M. Hada, M. Ehara, K. Toyota, R. Fukuda, 
 J. Hasegawa, M. Ishida, T. Nakajima, Y. Honda, O. Kitao, H. Nakai, 
 T. Vreven, K. Throssell, J. A. Montgomery, Jr., J. E. Peralta, 
 F. Ogliaro, M. J. Bearpark, J. J. Heyd, E. N. Brothers, K. N. Kudin, 
 V. N. Staroverov, T. A. Keith, R. Kobayashi, J. Normand, 
 K. Raghavachari, A. P. Rendell, J. C. Burant, S. S. Iyengar, 
 J. Tomasi, M. Cossi, J. M. Millam, M. Klene, C. Adamo, R. Cammi, 
 J. W. Ochterski, R. L. Martin, K. Morokuma, O. Farkas, 
 J. B. Foresman, and D. J. Fox, Gaussian, Inc., Wallingford CT, 2016.
 
 ******************************************
 Gaussian 16:  ES64L-G16RevB.01 20-Dec-2017
                24-Sep-2020 
 ******************************************
 %nproc=4
 Will use up to    4 processors via shared memory.
 %Chk=SM44_m2.b.9.pdb.xyz.mst.b.w.chk
 %mem=16GB
 ----------------------------------------------------------------------
 #p b3lyp/6-31G(d) opt freq NoSymm scf=(MaxCycle=2000,NoVarAcc,NoIncFoc
 k) scrf=(iefpcm,read,solvent=water)
 ----------------------------------------------------------------------
 1/18=20,19=15,26=3,38=1,40=2/1,3;
 2/9=110,12=2,15=1,17=6,18=5,40=1/2;
 3/5=1,6=6,7=1,11=2,25=1,30=1,70=2203,71=1,72=1,74=-5/1,2,3;
 4//1;
 5/5=100002,7=2000,38=1,53=1/2;
 6/7=2,8=2,9=2,10=2,28=1/1;
 7/30=1/1,2,3,16;
 1/18=20,19=15,26=3/3(2);
 2/9=110,15=1/2;
 99//99;
 2/9=110,15=1/2;
 3/5=1,6=6,7=1,11=2,25=1,30=1,70=2205,71=1,72=1,74=-5/1,2,3;
 4/5=5,16=3,69=1/1;
 5/5=100002,7=2000,38=1,53=1/2;
 7/30=1/1,2,3,16;
 1/18=20,19=15,26=3/3(-5);
 2/9=110,15=1/2;
 6/7=2,8=2,9=2,10=2,19=2,28=1/1;
 99/9=1/99;
 Leave Link    1 at Thu Sep 24 14:39:06 2020, MaxMem=  2147483648 cpu:               0.1 elap:               0.0
 (Enter /prod/apps/gaussian/g16b1/l101.exe)
 -------------------
 SM44_m2.b.9.pdb.xyz
 -------------------
 Symbolic Z-matrix:
 Charge =  1 Multiplicity = 1
 O                    -4.695     0.003    -0.887 
 S                    -3.552     0.041     0.024 
 N                    -2.181    -0.021    -1.003 
 C                    -0.907    -0.242    -0.513 
 N                    -0.562    -1.295     0.278 
 N                     0.723    -1.328     0.567 
 C                     0.283     0.417    -0.754 
 N                     1.229    -0.296    -0.084 
 C                     2.643    -0.041    -0.027 
 C                     3.523    -1.124     0.004 
 C                     4.892    -0.869     0.06 
 C                     5.365     0.446     0.074 
 C                     4.466     1.515     0.038 
 C                     3.092     1.279    -0.007 
 C                    -3.494     1.64      0.842 
 O                    -3.346    -1.02      1.016 
 H                    -2.227     0.659    -1.766 
 H                     0.504     1.282    -1.357 
 H                     3.143    -2.139    -0.027 
 H                     5.588    -1.702     0.082 
 H                     6.433     0.637     0.112 
 H                     4.83      2.537     0.057 
 H                     2.391     2.106    -0.006 
 H                    -3.529     2.421     0.081 
 H                    -2.579     1.699     1.432 
 H                    -4.372     1.692     1.489 
 H                    -1.173    -2.014     0.673 
 
 ITRead=  0  0  0  0  0  0  0  0  0  0  0  0  0  0  0  0  0  0  0  0
 ITRead=  0  0  0  0  0  0  0
 MicOpt= -1 -1 -1 -1 -1 -1 -1 -1 -1 -1 -1 -1 -1 -1 -1 -1 -1 -1 -1 -1
 MicOpt= -1 -1 -1 -1 -1 -1 -1
 NAtoms=     27 NQM=       27 NQMF=       0 NMMI=      0 NMMIF=      0
                NMic=       0 NMicF=      0.
                    Isotopes and Nuclear Properties:
 (Nuclear quadrupole moments (NQMom) in fm**2, nuclear magnetic moments (NMagM)
  in nuclear magnetons)

  Atom         1           2           3           4           5           6           7           8           9          10
 IAtWgt=          16          32          14          12          14          14          12          14          12          12
 AtmWgt=  15.9949146  31.9720718  14.0030740  12.0000000  14.0030740  14.0030740  12.0000000  14.0030740  12.0000000  12.0000000
 NucSpn=           0           0           2           0           2           2           0           2           0           0
 AtZEff=  -0.0000000  -0.0000000  -0.0000000  -0.0000000  -0.0000000  -0.0000000  -0.0000000  -0.0000000  -0.0000000  -0.0000000
 NQMom=    0.0000000   0.0000000   2.0440000   0.0000000   2.0440000   2.0440000   0.0000000   2.0440000   0.0000000   0.0000000
 NMagM=    0.0000000   0.0000000   0.4037610   0.0000000   0.4037610   0.4037610   0.0000000   0.4037610   0.0000000   0.0000000
 AtZNuc=   8.0000000  16.0000000   7.0000000   6.0000000   7.0000000   7.0000000   6.0000000   7.0000000   6.0000000   6.0000000

  Atom        11          12          13          14          15          16          17          18          19          20
 IAtWgt=          12          12          12          12          12          16           1           1           1           1
 AtmWgt=  12.0000000  12.0000000  12.0000000  12.0000000  12.0000000  15.9949146   1.0078250   1.0078250   1.0078250   1.0078250
 NucSpn=           0           0           0           0           0           0           1           1           1           1
 AtZEff=  -0.0000000  -0.0000000  -0.0000000  -0.0000000  -0.0000000  -0.0000000  -0.0000000  -0.0000000  -0.0000000  -0.0000000
 NQMom=    0.0000000   0.0000000   0.0000000   0.0000000   0.0000000   0.0000000   0.0000000   0.0000000   0.0000000   0.0000000
 NMagM=    0.0000000   0.0000000   0.0000000   0.0000000   0.0000000   0.0000000   2.7928460   2.7928460   2.7928460   2.7928460
 AtZNuc=   6.0000000   6.0000000   6.0000000   6.0000000   6.0000000   8.0000000   1.0000000   1.0000000   1.0000000   1.0000000

  Atom        21          22          23          24          25          26          27
 IAtWgt=           1           1           1           1           1           1           1
 AtmWgt=   1.0078250   1.0078250   1.0078250   1.0078250   1.0078250   1.0078250   1.0078250
 NucSpn=           1           1           1           1           1           1           1
 AtZEff=  -0.0000000  -0.0000000  -0.0000000  -0.0000000  -0.0000000  -0.0000000  -0.0000000
 NQMom=    0.0000000   0.0000000   0.0000000   0.0000000   0.0000000   0.0000000   0.0000000
 NMagM=    2.7928460   2.7928460   2.7928460   2.7928460   2.7928460   2.7928460   2.7928460
 AtZNuc=   1.0000000   1.0000000   1.0000000   1.0000000   1.0000000   1.0000000   1.0000000
 Leave Link  101 at Thu Sep 24 14:39:06 2020, MaxMem=  2147483648 cpu:               1.2 elap:               0.3
 (Enter /prod/apps/gaussian/g16b1/l103.exe)

 GradGradGradGradGradGradGradGradGradGradGradGradGradGradGradGradGradGrad
 Berny optimization.
 Initialization pass.
                           ----------------------------
                           !    Initial Parameters    !
                           ! (Angstroms and Degrees)  !
 --------------------------                            --------------------------
 ! Name  Definition              Value          Derivative Info.                !
 --------------------------------------------------------------------------------
 ! R1    R(1,2)                  1.4621         estimate D2E/DX2                !
 ! R2    R(2,3)                  1.7141         estimate D2E/DX2                !
 ! R3    R(2,15)                 1.797          estimate D2E/DX2                !
 ! R4    R(2,16)                 1.467          estimate D2E/DX2                !
 ! R5    R(3,4)                  1.3828         estimate D2E/DX2                !
 ! R6    R(3,17)                 1.0231         estimate D2E/DX2                !
 ! R7    R(4,5)                  1.3614         estimate D2E/DX2                !
 ! R8    R(4,7)                  1.3815         estimate D2E/DX2                !
 ! R9    R(5,6)                  1.3175         estimate D2E/DX2                !
 ! R10   R(5,27)                 1.0229         estimate D2E/DX2                !
 ! R11   R(6,8)                  1.3209         estimate D2E/DX2                !
 ! R12   R(7,8)                  1.361          estimate D2E/DX2                !
 ! R13   R(7,18)                 1.0773         estimate D2E/DX2                !
 ! R14   R(8,9)                  1.4379         estimate D2E/DX2                !
 ! R15   R(9,10)                 1.3958         estimate D2E/DX2                !
 ! R16   R(9,14)                 1.3944         estimate D2E/DX2                !
 ! R17   R(10,11)                1.3937         estimate D2E/DX2                !
 ! R18   R(10,19)                1.0842         estimate D2E/DX2                !
 ! R19   R(11,12)                1.3976         estimate D2E/DX2                !
 ! R20   R(11,20)                1.0857         estimate D2E/DX2                !
 ! R21   R(12,13)                1.3972         estimate D2E/DX2                !
 ! R22   R(12,21)                1.0856         estimate D2E/DX2                !
 ! R23   R(13,14)                1.3948         estimate D2E/DX2                !
 ! R24   R(13,22)                1.0851         estimate D2E/DX2                !
 ! R25   R(14,23)                1.0841         estimate D2E/DX2                !
 ! R26   R(15,24)                1.091          estimate D2E/DX2                !
 ! R27   R(15,25)                1.0903         estimate D2E/DX2                !
 ! R28   R(15,26)                1.0919         estimate D2E/DX2                !
 ! A1    A(1,2,3)              104.5374         estimate D2E/DX2                !
 ! A2    A(1,2,15)             109.3887         estimate D2E/DX2                !
 ! A3    A(1,2,16)             120.8161         estimate D2E/DX2                !
 ! A4    A(3,2,15)             106.2063         estimate D2E/DX2                !
 ! A5    A(3,2,16)             105.4658         estimate D2E/DX2                !
 ! A6    A(15,2,16)            109.3414         estimate D2E/DX2                !
 ! A7    A(2,3,4)              122.0315         estimate D2E/DX2                !
 ! A8    A(2,3,17)             112.7574         estimate D2E/DX2                !
 ! A9    A(4,3,17)             114.3266         estimate D2E/DX2                !
 ! A10   A(3,4,5)              124.2622         estimate D2E/DX2                !
 ! A11   A(3,4,7)              130.9643         estimate D2E/DX2                !
 ! A12   A(5,4,7)              104.5975         estimate D2E/DX2                !
 ! A13   A(4,5,6)              113.2019         estimate D2E/DX2                !
 ! A14   A(4,5,27)             128.0723         estimate D2E/DX2                !
 ! A15   A(6,5,27)             118.7034         estimate D2E/DX2                !
 ! A16   A(5,6,8)              104.2372         estimate D2E/DX2                !
 ! A17   A(4,7,8)              105.246          estimate D2E/DX2                !
 ! A18   A(4,7,18)             131.098          estimate D2E/DX2                !
 ! A19   A(8,7,18)             123.614          estimate D2E/DX2                !
 ! A20   A(6,8,7)              112.6847         estimate D2E/DX2                !
 ! A21   A(6,8,9)              119.7157         estimate D2E/DX2                !
 ! A22   A(7,8,9)              127.5995         estimate D2E/DX2                !
 ! A23   A(8,9,10)             118.898          estimate D2E/DX2                !
 ! A24   A(8,9,14)             119.0176         estimate D2E/DX2                !
 ! A25   A(10,9,14)            122.0842         estimate D2E/DX2                !
 ! A26   A(9,10,11)            118.5698         estimate D2E/DX2                !
 ! A27   A(9,10,19)            120.3149         estimate D2E/DX2                !
 ! A28   A(11,10,19)           121.1114         estimate D2E/DX2                !
 ! A29   A(10,11,12)           120.3328         estimate D2E/DX2                !
 ! A30   A(10,11,20)           119.3494         estimate D2E/DX2                !
 ! A31   A(12,11,20)           120.3146         estimate D2E/DX2                !
 ! A32   A(11,12,13)           120.1238         estimate D2E/DX2                !
 ! A33   A(11,12,21)           119.9243         estimate D2E/DX2                !
 ! A34   A(13,12,21)           119.9519         estimate D2E/DX2                !
 ! A35   A(12,13,14)           120.3434         estimate D2E/DX2                !
 ! A36   A(12,13,22)           120.2868         estimate D2E/DX2                !
 ! A37   A(14,13,22)           119.3656         estimate D2E/DX2                !
 ! A38   A(9,14,13)            118.5427         estimate D2E/DX2                !
 ! A39   A(9,14,23)            120.9255         estimate D2E/DX2                !
 ! A40   A(13,14,23)           120.5203         estimate D2E/DX2                !
 ! A41   A(2,15,24)            108.5676         estimate D2E/DX2                !
 ! A42   A(2,15,25)            108.7569         estimate D2E/DX2                !
 ! A43   A(2,15,26)            106.6278         estimate D2E/DX2                !
 ! A44   A(24,15,25)           111.4463         estimate D2E/DX2                !
 ! A45   A(24,15,26)           110.6973         estimate D2E/DX2                !
 ! A46   A(25,15,26)           110.5848         estimate D2E/DX2                !
 ! D1    D(1,2,3,4)           -168.3667         estimate D2E/DX2                !
 ! D2    D(1,2,3,17)            49.5056         estimate D2E/DX2                !
 ! D3    D(15,2,3,4)            76.006          estimate D2E/DX2                !
 ! D4    D(15,2,3,17)          -66.1217         estimate D2E/DX2                !
 ! D5    D(16,2,3,4)           -39.9879         estimate D2E/DX2                !
 ! D6    D(16,2,3,17)          177.8844         estimate D2E/DX2                !
 ! D7    D(1,2,15,24)          -52.3032         estimate D2E/DX2                !
 ! D8    D(1,2,15,25)         -173.73           estimate D2E/DX2                !
 ! D9    D(1,2,15,26)           66.9995         estimate D2E/DX2                !
 ! D10   D(3,2,15,24)           59.9934         estimate D2E/DX2                !
 ! D11   D(3,2,15,25)          -61.4334         estimate D2E/DX2                !
 ! D12   D(3,2,15,26)          179.2962         estimate D2E/DX2                !
 ! D13   D(16,2,15,24)         173.3421         estimate D2E/DX2                !
 ! D14   D(16,2,15,25)          51.9154         estimate D2E/DX2                !
 ! D15   D(16,2,15,26)         -67.3551         estimate D2E/DX2                !
 ! D16   D(2,3,4,5)             53.5731         estimate D2E/DX2                !
 ! D17   D(2,3,4,7)           -132.0211         estimate D2E/DX2                !
 ! D18   D(17,3,4,5)          -164.836          estimate D2E/DX2                !
 ! D19   D(17,3,4,7)             9.5697         estimate D2E/DX2                !
 ! D20   D(3,4,5,6)            176.9453         estimate D2E/DX2                !
 ! D21   D(3,4,5,27)            -4.8175         estimate D2E/DX2                !
 ! D22   D(7,4,5,6)              1.3078         estimate D2E/DX2                !
 ! D23   D(7,4,5,27)           179.545          estimate D2E/DX2                !
 ! D24   D(3,4,7,8)           -175.426          estimate D2E/DX2                !
 ! D25   D(3,4,7,18)             2.2282         estimate D2E/DX2                !
 ! D26   D(5,4,7,8)             -0.2017         estimate D2E/DX2                !
 ! D27   D(5,4,7,18)           177.4526         estimate D2E/DX2                !
 ! D28   D(4,5,6,8)             -1.8507         estimate D2E/DX2                !
 ! D29   D(27,5,6,8)           179.7314         estimate D2E/DX2                !
 ! D30   D(5,6,8,7)              1.7002         estimate D2E/DX2                !
 ! D31   D(5,6,8,9)           -178.2537         estimate D2E/DX2                !
 ! D32   D(4,7,8,6)             -0.9478         estimate D2E/DX2                !
 ! D33   D(4,7,8,9)            179.0017         estimate D2E/DX2                !
 ! D34   D(18,7,8,6)          -178.8252         estimate D2E/DX2                !
 ! D35   D(18,7,8,9)             1.1242         estimate D2E/DX2                !
 ! D36   D(6,8,9,10)            35.9958         estimate D2E/DX2                !
 ! D37   D(6,8,9,14)          -144.1246         estimate D2E/DX2                !
 ! D38   D(7,8,9,10)          -143.9505         estimate D2E/DX2                !
 ! D39   D(7,8,9,14)            35.9291         estimate D2E/DX2                !
 ! D40   D(8,9,10,11)         -179.9633         estimate D2E/DX2                !
 ! D41   D(8,9,10,19)            0.7506         estimate D2E/DX2                !
 ! D42   D(14,9,10,11)           0.1609         estimate D2E/DX2                !
 ! D43   D(14,9,10,19)        -179.1251         estimate D2E/DX2                !
 ! D44   D(8,9,14,13)         -179.5155         estimate D2E/DX2                !
 ! D45   D(8,9,14,23)            1.7113         estimate D2E/DX2                !
 ! D46   D(10,9,14,13)           0.3601         estimate D2E/DX2                !
 ! D47   D(10,9,14,23)        -178.4131         estimate D2E/DX2                !
 ! D48   D(9,10,11,12)          -0.4872         estimate D2E/DX2                !
 ! D49   D(9,10,11,20)        -179.842          estimate D2E/DX2                !
 ! D50   D(19,10,11,12)        178.793          estimate D2E/DX2                !
 ! D51   D(19,10,11,20)         -0.5618         estimate D2E/DX2                !
 ! D52   D(10,11,12,13)          0.292          estimate D2E/DX2                !
 ! D53   D(10,11,12,21)       -179.6519         estimate D2E/DX2                !
 ! D54   D(20,11,12,13)        179.6405         estimate D2E/DX2                !
 ! D55   D(20,11,12,21)         -0.3034         estimate D2E/DX2                !
 ! D56   D(11,12,13,14)          0.2426         estimate D2E/DX2                !
 ! D57   D(11,12,13,22)        179.4957         estimate D2E/DX2                !
 ! D58   D(21,12,13,14)       -179.8136         estimate D2E/DX2                !
 ! D59   D(21,12,13,22)         -0.5605         estimate D2E/DX2                !
 ! D60   D(12,13,14,9)          -0.5589         estimate D2E/DX2                !
 ! D61   D(12,13,14,23)        178.2194         estimate D2E/DX2                !
 ! D62   D(22,13,14,9)        -179.8189         estimate D2E/DX2                !
 ! D63   D(22,13,14,23)         -1.0406         estimate D2E/DX2                !
 --------------------------------------------------------------------------------
 Trust Radius=3.00D-01 FncErr=1.00D-07 GrdErr=1.00D-06 EigMax=2.50D+02 EigMin=1.00D-04
 Number of steps in this run=    147 maximum allowed number of steps=    162.
 GradGradGradGradGradGradGradGradGradGradGradGradGradGradGradGradGradGrad

 Leave Link  103 at Thu Sep 24 14:39:06 2020, MaxMem=  2147483648 cpu:               0.1 elap:               0.0
 (Enter /prod/apps/gaussian/g16b1/l202.exe)
                          Input orientation:                          
 ---------------------------------------------------------------------
 Center     Atomic      Atomic             Coordinates (Angstroms)
 Number     Number       Type             X           Y           Z
 ---------------------------------------------------------------------
      1          8           0       -4.695000    0.003000   -0.887000
      2         16           0       -3.552000    0.041000    0.024000
      3          7           0       -2.181000   -0.021000   -1.003000
      4          6           0       -0.907000   -0.242000   -0.513000
      5          7           0       -0.562000   -1.295000    0.278000
      6          7           0        0.723000   -1.328000    0.567000
      7          6           0        0.283000    0.417000   -0.754000
      8          7           0        1.229000   -0.296000   -0.084000
      9          6           0        2.643000   -0.041000   -0.027000
     10          6           0        3.523000   -1.124000    0.004000
     11          6           0        4.892000   -0.869000    0.060000
     12          6           0        5.365000    0.446000    0.074000
     13          6           0        4.466000    1.515000    0.038000
     14          6           0        3.092000    1.279000   -0.007000
     15          6           0       -3.494000    1.640000    0.842000
     16          8           0       -3.346000   -1.020000    1.016000
     17          1           0       -2.227000    0.659000   -1.766000
     18          1           0        0.504000    1.282000   -1.357000
     19          1           0        3.143000   -2.139000   -0.027000
     20          1           0        5.588000   -1.702000    0.082000
     21          1           0        6.433000    0.637000    0.112000
     22          1           0        4.830000    2.537000    0.057000
     23          1           0        2.391000    2.106000   -0.006000
     24          1           0       -3.529000    2.421000    0.081000
     25          1           0       -2.579000    1.699000    1.432000
     26          1           0       -4.372000    1.692000    1.489000
     27          1           0       -1.173000   -2.014000    0.673000
 ---------------------------------------------------------------------
                    Distance matrix (angstroms):
                    1          2          3          4          5
     1  O    0.000000
     2  S    1.462127   0.000000
     3  N    2.516789   1.714122   0.000000
     4  C    3.814295   2.713758   1.382757   0.000000
     5  N    4.485947   3.284739   2.425943   1.361439   0.000000
     6  N    5.765449   4.521574   3.550544   2.236671   1.317511
     7  C    4.996956   3.931143   2.514983   1.381471   2.170252
     8  N    5.985648   4.794079   3.542356   2.179324   2.082481
     9  C    7.388354   6.195753   4.921783   3.588746   3.455078
    10  C    8.342634   7.170303   5.896293   4.546440   4.097748
    11  C    9.673043   8.492970   7.202527   5.860875   5.474954
    12  C   10.115501   8.926333   7.636762   6.336868   6.180779
    13  C    9.330900   8.152374   6.901129   5.679769   5.764936
    14  C    7.939770   6.758427   5.521462   4.308303   4.478662
    15  C    2.666760   1.797022   2.808365   3.474265   4.186758
    16  O    2.547104   1.467045   2.536057   2.981920   2.893255
    17  H    2.700741   2.311201   1.023076   2.030815   3.281505
    18  H    5.374602   4.460760   3.005387   2.241837   3.232725
    19  H    8.170802   7.041167   5.812355   4.498589   3.812137
    20  H   10.468337   9.304892   8.022490   6.683611   6.166568
    21  H   11.190726  10.003159   8.710751   7.418818   7.258802
    22  H    9.901410   8.745801   7.537976   6.400071   6.618665
    23  H    7.443801   6.291611   5.140168   4.080068   4.513055
    24  H    2.853647   2.380794   2.992578   3.784084   4.759260
    25  H    3.568141   2.382888   3.007662   3.216534   3.789992
    26  H    2.932989   2.354660   3.734289   4.444613   4.990470
    27  H    4.348146   3.209964   2.792327   2.148799   1.022891
                    6          7          8          9         10
     6  N    0.000000
     7  C    2.232413   0.000000
     8  N    1.320932   1.360950   0.000000
     9  C    2.386547   2.511552   1.437939   0.000000
    10  C    2.863317   3.666994   2.440443   1.395797   0.000000
    11  C    4.224724   4.853790   3.710341   2.398156   1.393672
    12  C    4.993825   5.149092   4.205000   2.767066   2.421315
    13  C    4.729962   4.396630   3.711169   2.397643   2.802628
    14  C    3.569046   3.031754   2.440763   1.394418   2.441371
    15  C    5.164082   4.278864   5.187707   6.422125   7.588164
    16  O    4.105268   4.285733   4.760756   6.157468   6.943927
    17  H    4.253652   2.717132   3.960440   5.218335   6.274909
    18  H    3.249898   1.077346   2.153193   2.845092   4.093350
    19  H    2.620488   3.904006   2.657686   2.156758   1.084244
    20  H    4.903399   5.773394   4.583151   3.382873   2.145785
    21  H    6.055770   6.214568   5.290607   3.852675   3.403070
    22  H    5.662665   5.082060   4.583991   3.381732   3.887670
    23  H    3.860429   2.802836   2.669444   2.161840   3.422634
    24  H    5.689526   4.386865   5.481594   6.645803   7.893267
    25  H    4.562254   3.822717   4.558415   5.694345   6.873348
    26  H    5.994123   5.322189   6.147981   7.383209   8.512703
    27  H    2.019071   3.172700   3.048635   4.352538   4.826187
                   11         12         13         14         15
    11  C    0.000000
    12  C    1.397551   0.000000
    13  C    2.421862   1.397232   0.000000
    14  C    2.803283   2.422185   1.394847   0.000000
    15  C    8.788151   8.972031   8.001477   6.650302   0.000000
    16  O    8.294660   8.883583   8.271037   6.912292   2.669790
    17  H    7.506612   7.814693   6.984512   5.636510   3.060934
    18  H    5.088146   5.135755   4.206870   2.918947   4.576873
    19  H    2.163208   3.410236   3.886679   3.418439   7.686727
    20  H    1.085720   2.159559   3.407332   3.888997   9.707177
    21  H    2.155324   1.085610   2.155330   3.404204  10.004211
    22  H    3.406566   2.158424   1.085053   2.146463   8.408913
    23  H    3.887156   3.406857   2.157972   1.084127   5.964016
    24  H    9.040895   9.110648   8.046285   6.719341   1.091012
    25  H    8.018282   8.156060   7.183949   5.865779   1.090324
    26  H    9.717122   9.917858   8.958068   7.623640   1.091878
    27  H    6.202501   7.011123   6.682469   5.431066   4.332126
                   16         17         18         19         20
    16  O    0.000000
    17  H    3.436674   0.000000
    18  H    5.074725   2.830860   0.000000
    19  H    6.666868   6.299986   4.520671   0.000000
    20  H    9.008542   8.370403   6.068116   2.486137   0.000000
    21  H    9.959503   8.861319   6.142233   4.306924   2.487136
    22  H    8.967659   7.526717   4.721091   4.971720   4.306310
    23  H    6.612831   5.149498   2.462711   4.311145   4.972868
    24  H    3.570461   2.865529   4.430604   8.082131  10.005939
    25  H    2.855575   3.381229   4.178193   7.042742   8.949256
    26  H    2.937916   4.032758   5.660671   8.570300  10.616048
    27  H    2.414045   3.768895   4.218631   4.374183   6.793949
                   21         22         23         24         25
    21  H    0.000000
    22  H    2.486490   0.000000
    23  H    4.302284   2.477590   0.000000
    24  H   10.120527   8.359839   5.929013   0.000000
    25  H    9.169863   7.581962   5.189836   1.802494   0.000000
    26  H   10.943362   9.351013   6.938630   1.795704   1.793919
    27  H    8.074265   7.558245   5.489767   5.056721   4.042188
                   26         27
    26  H    0.000000
    27  H    4.963254   0.000000
 Symmetry turned off by external request.
 Stoichiometry    C9H11N4O2S(1+)
 Framework group  C1[X(C9H11N4O2S)]
 Deg. of freedom    75
 Full point group                 C1      NOp   1
 Rotational constants (GHZ):           1.7542237           0.1911272           0.1816748
 Leave Link  202 at Thu Sep 24 14:39:06 2020, MaxMem=  2147483648 cpu:               0.0 elap:               0.0
 (Enter /prod/apps/gaussian/g16b1/l301.exe)
 Standard basis: 6-31G(d) (6D, 7F)
 Ernie: Thresh=  0.10000D-02 Tol=  0.10000D-05 Strict=F.
   266 basis functions,   516 primitive gaussians,   266 cartesian basis functions
    62 alpha electrons       62 beta electrons
       nuclear repulsion energy      1201.8878699009 Hartrees.
 IExCor=  402 DFT=T Ex+Corr=B3LYP ExCW=0 ScaHFX=  0.200000
 ScaDFX=  0.800000  0.720000  1.000000  0.810000 ScalE2=  1.000000  1.000000
 IRadAn=      5 IRanWt=     -1 IRanGd=            0 ICorTp=0 IEmpDi=  4
 NAtoms=   27 NActive=   27 NUniq=   27 SFac= 1.00D+00 NAtFMM=   60 NAOKFM=F Big=F
 Integral buffers will be    131072 words long.
 Raffenetti 2 integral format.
 Two-electron integral symmetry is turned off.
 Using the following non-standard input for PCM:
 MSTModel=DFT cav MSTcharged
 --- end of non-standard input.
 MST model for solvation energy: B3LYP parametrization.
 MST cavity parameters:
 ISph   IAn     Re0     Alpha   Atom Type   QCorr
 ------------------------------------------------
   1      8     1.40     1.25      O          F
   2     16     1.75     1.25      S          F
   3      7     1.50     1.25      NH         F
   4      6     1.50     1.25      C          F
   5      7     1.50     1.15      NH         T
   6      7     1.40     1.25      N          F
   7      6     1.50     1.25      CH         F
   8      7     1.40     1.25      N          F
   9      6     1.50     1.25      C          F
  10      6     1.50     1.25      CH         F
  11      6     1.50     1.25      CH         F
  12      6     1.50     1.25      CH         F
  13      6     1.50     1.25      CH         F
  14      6     1.50     1.25      CH         F
  15      6     1.50     1.25      CH3        F
  16      8     1.40     1.25      O          F
  17      1     0.90     1.25      NH         F
  18      1     1.20     1.25      CH         F
  19      1     1.20     1.25      CH         F
  20      1     1.20     1.25      CH         F
  21      1     1.20     1.25      CH         F
  22      1     1.20     1.25      CH         F
  23      1     1.20     1.25      CH         F
  24      1     1.20     1.25      CH3        F
  25      1     1.20     1.25      CH3        F
  26      1     1.20     1.25      CH3        F
  27      1     0.90     1.15      NH         T
 ------------------------------------------------------------------------------
 Polarizable Continuum Model (PCM)
 =================================
 Model                : PCM.
 Atomic radii         : MST.
 Polarization charges : Total charges.
 Charge compensation  : None.
 Solution method      : On-the-fly selection.
 Cavity type          : Scaled VdW (van der Waals Surface) (Alpha=1.250).
 Cavity algorithm     : GePol (No added spheres)
                        Default sphere list used, NSphG=   27.
                        Lebedev-Laikov grids with approx.  5.0 points / Ang**2.
                        Smoothing algorithm: York/Karplus (Gamma=1.0000).
                        Polarization charges: spherical gaussians, with
                                              point-specific exponents (IZeta= 3).
                        Self-potential: point-specific (ISelfS= 7).
                        Self-field    : sphere-specific E.n sum rule (ISelfD= 2).
 1st derivatives      : Analytical E(r).r(x)/FMM algorithm (CHGder, D1EAlg=3).
                        Cavity 1st derivative terms included.
 Solvent              : Water, Eps=  78.355300 Eps(inf)=   1.777849
 ------------------------------------------------------------------------------
 GePol: Number of generator spheres                  =      27
 GePol: Total number of spheres                      =      27
 GePol: Number of exposed spheres                    =      27 (100.00%)
 GePol: Number of points                             =    2148
 GePol: Average weight of points                     =       0.13
 GePol: Minimum weight of points                     =   0.44D-10
 GePol: Maximum weight of points                     =    0.22001
 GePol: Number of points with low weight             =     144
 GePol: Fraction of low-weight points (<1% of avg)   =       6.70%
 GePol: Cavity surface area                          =    276.371 Ang**2
 GePol: Cavity volume                                =    254.355 Ang**3
 PCM non-electrostatic energy =         0.0019979094 Hartrees.
 Nuclear repulsion after PCM non-electrostatic terms =     1201.8898678102 Hartrees.
 Leave Link  301 at Thu Sep 24 14:39:06 2020, MaxMem=  2147483648 cpu:               0.3 elap:               0.1
 (Enter /prod/apps/gaussian/g16b1/l302.exe)
 NPDir=0 NMtPBC=     1 NCelOv=     1 NCel=       1 NClECP=     1 NCelD=      1
         NCelK=      1 NCelE2=     1 NClLst=     1 CellRange=     0.0.
 One-electron integrals computed using PRISM.
 NBasis=   266 RedAO= T EigKep=  4.76D-04  NBF=   266
 NBsUse=   266 1.00D-06 EigRej= -1.00D+00 NBFU=   266
 Precomputing XC quadrature grid using
 IXCGrd= 4 IRadAn=           5 IRanWt=          -1 IRanGd=           0 AccXCQ= 0.00D+00.
 Generated NRdTot=       0 NPtTot=           0 NUsed=           0 NTot=          32
 NSgBfM=   263   263   263   263   263 MxSgAt=    27 MxSgA2=    27.
 Leave Link  302 at Thu Sep 24 14:39:06 2020, MaxMem=  2147483648 cpu:               1.0 elap:               0.3
 (Enter /prod/apps/gaussian/g16b1/l303.exe)
 DipDrv:  MaxL=1.
 Leave Link  303 at Thu Sep 24 14:39:07 2020, MaxMem=  2147483648 cpu:               0.1 elap:               0.0
 (Enter /prod/apps/gaussian/g16b1/l401.exe)
 ExpMin= 1.17D-01 ExpMax= 2.19D+04 ExpMxC= 3.30D+03 IAcc=3 IRadAn=         5 AccDes= 0.00D+00
 Harris functional with IExCor=  402 and IRadAn=       5 diagonalized for initial guess.
 HarFok:  IExCor=  402 AccDes= 0.00D+00 IRadAn=         5 IDoV= 1 UseB2=F ITyADJ=14
 ICtDFT=  3500011 ScaDFX=  1.000000  1.000000  1.000000  1.000000
 FoFCou: FMM=F IPFlag=           0 FMFlag=      100000 FMFlg1=           0
         NFxFlg=           0 DoJE=T BraDBF=F KetDBF=T FulRan=T
         wScrn=  0.000000 ICntrl=       500 IOpCl=  0 I1Cent=   200000004 NGrid=           0
         NMat0=    1 NMatS0=      1 NMatT0=    0 NMatD0=    1 NMtDS0=    0 NMtDT0=    0
 Symmetry not used in FoFCou.
 Harris En= -1116.92381267314    
 JPrj=0 DoOrth=F DoCkMO=F.
 Leave Link  401 at Thu Sep 24 14:39:08 2020, MaxMem=  2147483648 cpu:               5.3 elap:               1.3
 (Enter /prod/apps/gaussian/g16b1/l502.exe)
 Keep R1 ints in memory in canonical form, NReq=640051412.
 FoFCou: FMM=F IPFlag=           0 FMFlag=           0 FMFlg1=           0
         NFxFlg=           0 DoJE=F BraDBF=F KetDBF=F FulRan=T
         wScrn=  0.000000 ICntrl=       600 IOpCl=  0 I1Cent=           0 NGrid=           0
         NMat0=    1 NMatS0=  35511 NMatT0=    0 NMatD0=    1 NMtDS0=    0 NMtDT0=    0
 Symmetry not used in FoFCou.
 Two-electron integral symmetry not used.
 Closed shell SCF:
 Using DIIS extrapolation, IDIIS=  1040.
 NGot=  2147483648 LenX=  1516804891 LenY=  1516733694
 Requested convergence on RMS density matrix=1.00D-08 within2000 cycles.
 Requested convergence on MAX density matrix=1.00D-06.
 Requested convergence on             energy=1.00D-06.
 No special actions if energy rises.

 Cycle   1  Pass 1  IDiag  1:
 Inv3:  Mode=1 IEnd=    13841712.
 Iteration    1 A*A^-1 deviation from unit magnitude is 2.89D-15 for    761.
 Iteration    1 A*A^-1 deviation from orthogonality  is 3.12D-15 for   1332   1149.
 Iteration    1 A^-1*A deviation from unit magnitude is 3.00D-15 for   2022.
 Iteration    1 A^-1*A deviation from orthogonality  is 4.59D-14 for   2054   2022.
 E= -1116.50936770007    
 DIIS: error= 2.71D-02 at cycle   1 NSaved=   1.
 NSaved= 1 IEnMin= 1 EnMin= -1116.50936770007     IErMin= 1 ErrMin= 2.71D-02
 ErrMax= 2.71D-02  0.00D+00 EMaxC= 1.00D-01 BMatC= 5.56D-01 BMatP= 5.56D-01
 IDIUse=3 WtCom= 7.29D-01 WtEn= 2.71D-01
 Coeff-Com:  0.100D+01
 Coeff-En:   0.100D+01
 Coeff:      0.100D+01
 Gap=     0.346 Goal=   None    Shift=    0.000
 GapD=    0.346 DampG=1.000 DampE=0.500 DampFc=0.5000 IDamp=-1.
 Damping current iteration by 5.00D-01
 RMSDP=6.81D-03 MaxDP=5.60D-01              OVMax= 2.54D-01

 Cycle   2  Pass 1  IDiag  1:
 E= -1116.63324085515     Delta-E=       -0.123873155080 Rises=F Damp=T
 DIIS: error= 1.30D-02 at cycle   2 NSaved=   2.
 NSaved= 2 IEnMin= 2 EnMin= -1116.63324085515     IErMin= 2 ErrMin= 1.30D-02
 ErrMax= 1.30D-02  0.00D+00 EMaxC= 1.00D-01 BMatC= 7.79D-02 BMatP= 5.56D-01
 IDIUse=3 WtCom= 8.70D-01 WtEn= 1.30D-01
 Coeff-Com:  0.221D+00 0.779D+00
 Coeff-En:   0.359D+00 0.641D+00
 Coeff:      0.239D+00 0.761D+00
 Gap=     0.185 Goal=   None    Shift=    0.000
 RMSDP=1.81D-03 MaxDP=1.12D-01 DE=-1.24D-01 OVMax= 1.85D-01

 Cycle   3  Pass 1  IDiag  1:
 E= -1116.95744797331     Delta-E=       -0.324207118161 Rises=F Damp=F
 DIIS: error= 8.83D-03 at cycle   3 NSaved=   3.
 NSaved= 3 IEnMin= 3 EnMin= -1116.95744797331     IErMin= 3 ErrMin= 8.83D-03
 ErrMax= 8.83D-03  0.00D+00 EMaxC= 1.00D-01 BMatC= 3.16D-02 BMatP= 7.79D-02
 IDIUse=3 WtCom= 9.12D-01 WtEn= 8.83D-02
 Coeff-Com:  0.670D-01 0.394D+00 0.539D+00
 Coeff-En:   0.000D+00 0.000D+00 0.100D+01
 Coeff:      0.611D-01 0.359D+00 0.580D+00
 Gap=     0.194 Goal=   None    Shift=    0.000
 RMSDP=8.42D-04 MaxDP=2.83D-02 DE=-3.24D-01 OVMax= 4.99D-02

 Cycle   4  Pass 1  IDiag  1:
 E= -1116.98067928767     Delta-E=       -0.023231314365 Rises=F Damp=F
 DIIS: error= 3.50D-03 at cycle   4 NSaved=   4.
 NSaved= 4 IEnMin= 4 EnMin= -1116.98067928767     IErMin= 4 ErrMin= 3.50D-03
 ErrMax= 3.50D-03  0.00D+00 EMaxC= 1.00D-01 BMatC= 5.49D-03 BMatP= 3.16D-02
 IDIUse=3 WtCom= 9.65D-01 WtEn= 3.50D-02
 Coeff-Com:  0.799D-03 0.723D-01 0.310D+00 0.617D+00
 Coeff-En:   0.000D+00 0.000D+00 0.134D+00 0.866D+00
 Coeff:      0.771D-03 0.697D-01 0.304D+00 0.625D+00
 Gap=     0.190 Goal=   None    Shift=    0.000
 RMSDP=2.80D-04 MaxDP=1.20D-02 DE=-2.32D-02 OVMax= 1.59D-02

 Cycle   5  Pass 1  IDiag  1:
 E= -1116.98499536727     Delta-E=       -0.004316079599 Rises=F Damp=F
 DIIS: error= 6.85D-04 at cycle   5 NSaved=   5.
 NSaved= 5 IEnMin= 5 EnMin= -1116.98499536727     IErMin= 5 ErrMin= 6.85D-04
 ErrMax= 6.85D-04  0.00D+00 EMaxC= 1.00D-01 BMatC= 4.04D-04 BMatP= 5.49D-03
 IDIUse=3 WtCom= 9.93D-01 WtEn= 6.85D-03
 Coeff-Com: -0.383D-02 0.157D-01 0.128D+00 0.334D+00 0.527D+00
 Coeff-En:   0.000D+00 0.000D+00 0.000D+00 0.000D+00 0.100D+01
 Coeff:     -0.380D-02 0.156D-01 0.127D+00 0.331D+00 0.530D+00
 Gap=     0.191 Goal=   None    Shift=    0.000
 RMSDP=8.52D-05 MaxDP=3.49D-03 DE=-4.32D-03 OVMax= 5.72D-03

 Cycle   6  Pass 1  IDiag  1:
 E= -1116.98531935617     Delta-E=       -0.000323988898 Rises=F Damp=F
 DIIS: error= 2.29D-04 at cycle   6 NSaved=   6.
 NSaved= 6 IEnMin= 6 EnMin= -1116.98531935617     IErMin= 6 ErrMin= 2.29D-04
 ErrMax= 2.29D-04  0.00D+00 EMaxC= 1.00D-01 BMatC= 3.43D-05 BMatP= 4.04D-04
 IDIUse=3 WtCom= 9.98D-01 WtEn= 2.29D-03
 Coeff-Com: -0.210D-02 0.303D-02 0.412D-01 0.121D+00 0.288D+00 0.549D+00
 Coeff-En:   0.000D+00 0.000D+00 0.000D+00 0.000D+00 0.980D-02 0.990D+00
 Coeff:     -0.210D-02 0.303D-02 0.411D-01 0.121D+00 0.288D+00 0.550D+00
 Gap=     0.191 Goal=   None    Shift=    0.000
 RMSDP=2.55D-05 MaxDP=9.96D-04 DE=-3.24D-04 OVMax= 1.82D-03

 Cycle   7  Pass 1  IDiag  1:
 E= -1116.98534986611     Delta-E=       -0.000030509944 Rises=F Damp=F
 DIIS: error= 7.04D-05 at cycle   7 NSaved=   7.
 NSaved= 7 IEnMin= 7 EnMin= -1116.98534986611     IErMin= 7 ErrMin= 7.04D-05
 ErrMax= 7.04D-05  0.00D+00 EMaxC= 1.00D-01 BMatC= 2.45D-06 BMatP= 3.43D-05
 IDIUse=1 WtCom= 1.00D+00 WtEn= 0.00D+00
 Coeff-Com: -0.889D-03 0.399D-03 0.124D-01 0.393D-01 0.114D+00 0.289D+00
 Coeff-Com:  0.546D+00
 Coeff:     -0.889D-03 0.399D-03 0.124D-01 0.393D-01 0.114D+00 0.289D+00
 Coeff:      0.546D+00
 Gap=     0.191 Goal=   None    Shift=    0.000
 RMSDP=7.00D-06 MaxDP=2.53D-04 DE=-3.05D-05 OVMax= 4.57D-04

 Cycle   8  Pass 1  IDiag  1:
 E= -1116.98535183332     Delta-E=       -0.000001967202 Rises=F Damp=F
 DIIS: error= 3.40D-05 at cycle   8 NSaved=   8.
 NSaved= 8 IEnMin= 8 EnMin= -1116.98535183332     IErMin= 8 ErrMin= 3.40D-05
 ErrMax= 3.40D-05  0.00D+00 EMaxC= 1.00D-01 BMatC= 4.07D-07 BMatP= 2.45D-06
 IDIUse=1 WtCom= 1.00D+00 WtEn= 0.00D+00
 Coeff-Com: -0.275D-03-0.122D-03 0.219D-02 0.816D-02 0.322D-01 0.106D+00
 Coeff-Com:  0.329D+00 0.522D+00
 Coeff:     -0.275D-03-0.122D-03 0.219D-02 0.816D-02 0.322D-01 0.106D+00
 Coeff:      0.329D+00 0.522D+00
 Gap=     0.191 Goal=   None    Shift=    0.000
 RMSDP=2.40D-06 MaxDP=1.26D-04 DE=-1.97D-06 OVMax= 1.61D-04

 Cycle   9  Pass 1  IDiag  1:
 E= -1116.98535215147     Delta-E=       -0.000000318154 Rises=F Damp=F
 DIIS: error= 8.65D-06 at cycle   9 NSaved=   9.
 NSaved= 9 IEnMin= 9 EnMin= -1116.98535215147     IErMin= 9 ErrMin= 8.65D-06
 ErrMax= 8.65D-06  0.00D+00 EMaxC= 1.00D-01 BMatC= 2.77D-08 BMatP= 4.07D-07
 IDIUse=1 WtCom= 1.00D+00 WtEn= 0.00D+00
 Coeff-Com: -0.196D-04-0.116D-03-0.632D-03-0.136D-02 0.154D-03 0.127D-01
 Coeff-Com:  0.877D-01 0.259D+00 0.643D+00
 Coeff:     -0.196D-04-0.116D-03-0.632D-03-0.136D-02 0.154D-03 0.127D-01
 Coeff:      0.877D-01 0.259D+00 0.643D+00
 Gap=     0.191 Goal=   None    Shift=    0.000
 RMSDP=6.49D-07 MaxDP=2.71D-05 DE=-3.18D-07 OVMax= 3.10D-05

 Cycle  10  Pass 1  IDiag  1:
 E= -1116.98535217454     Delta-E=       -0.000000023075 Rises=F Damp=F
 DIIS: error= 1.53D-06 at cycle  10 NSaved=  10.
 NSaved=10 IEnMin=10 EnMin= -1116.98535217454     IErMin=10 ErrMin= 1.53D-06
 ErrMax= 1.53D-06  0.00D+00 EMaxC= 1.00D-01 BMatC= 1.20D-09 BMatP= 2.77D-08
 IDIUse=1 WtCom= 1.00D+00 WtEn= 0.00D+00
 Coeff-Com:  0.106D-05-0.331D-04-0.329D-03-0.820D-03-0.121D-02 0.119D-02
 Coeff-Com:  0.238D-01 0.870D-01 0.266D+00 0.624D+00
 Coeff:      0.106D-05-0.331D-04-0.329D-03-0.820D-03-0.121D-02 0.119D-02
 Coeff:      0.238D-01 0.870D-01 0.266D+00 0.624D+00
 Gap=     0.191 Goal=   None    Shift=    0.000
 RMSDP=1.88D-07 MaxDP=8.00D-06 DE=-2.31D-08 OVMax= 1.65D-05

 Cycle  11  Pass 1  IDiag  1:
 E= -1116.98535217543     Delta-E=       -0.000000000888 Rises=F Damp=F
 DIIS: error= 7.93D-07 at cycle  11 NSaved=  11.
 NSaved=11 IEnMin=11 EnMin= -1116.98535217543     IErMin=11 ErrMin= 7.93D-07
 ErrMax= 7.93D-07  0.00D+00 EMaxC= 1.00D-01 BMatC= 3.49D-10 BMatP= 1.20D-09
 IDIUse=1 WtCom= 1.00D+00 WtEn= 0.00D+00
 Coeff-Com:  0.340D-05-0.300D-05-0.121D-03-0.325D-03-0.841D-03-0.123D-02
 Coeff-Com:  0.186D-02 0.151D-01 0.635D-01 0.373D+00 0.549D+00
 Coeff:      0.340D-05-0.300D-05-0.121D-03-0.325D-03-0.841D-03-0.123D-02
 Coeff:      0.186D-02 0.151D-01 0.635D-01 0.373D+00 0.549D+00
 Gap=     0.191 Goal=   None    Shift=    0.000
 RMSDP=7.52D-08 MaxDP=2.15D-06 DE=-8.88D-10 OVMax= 6.01D-06

 Cycle  12  Pass 1  IDiag  1:
 E= -1116.98535217573     Delta-E=       -0.000000000302 Rises=F Damp=F
 DIIS: error= 2.41D-07 at cycle  12 NSaved=  12.
 NSaved=12 IEnMin=12 EnMin= -1116.98535217573     IErMin=12 ErrMin= 2.41D-07
 ErrMax= 2.41D-07  0.00D+00 EMaxC= 1.00D-01 BMatC= 3.47D-11 BMatP= 3.49D-10
 IDIUse=1 WtCom= 1.00D+00 WtEn= 0.00D+00
 Coeff-Com:  0.202D-05 0.121D-05-0.439D-04-0.119D-03-0.421D-03-0.997D-03
 Coeff-Com: -0.175D-02-0.794D-03 0.877D-02 0.167D+00 0.322D+00 0.507D+00
 Coeff:      0.202D-05 0.121D-05-0.439D-04-0.119D-03-0.421D-03-0.997D-03
 Coeff:     -0.175D-02-0.794D-03 0.877D-02 0.167D+00 0.322D+00 0.507D+00
 Gap=     0.191 Goal=   None    Shift=    0.000
 RMSDP=2.30D-08 MaxDP=9.38D-07 DE=-3.02D-10 OVMax= 1.27D-06

 Cycle  13  Pass 1  IDiag  1:
 E= -1116.98535217577     Delta-E=       -0.000000000039 Rises=F Damp=F
 DIIS: error= 6.68D-08 at cycle  13 NSaved=  13.
 NSaved=13 IEnMin=13 EnMin= -1116.98535217577     IErMin=13 ErrMin= 6.68D-08
 ErrMax= 6.68D-08  0.00D+00 EMaxC= 1.00D-01 BMatC= 2.43D-12 BMatP= 3.47D-11
 IDIUse=1 WtCom= 1.00D+00 WtEn= 0.00D+00
 Coeff-Com:  0.466D-06 0.853D-06-0.714D-05-0.178D-04-0.933D-04-0.288D-03
 Coeff-Com: -0.818D-03-0.175D-02-0.272D-02 0.351D-01 0.806D-01 0.243D+00
 Coeff-Com:  0.647D+00
 Coeff:      0.466D-06 0.853D-06-0.714D-05-0.178D-04-0.933D-04-0.288D-03
 Coeff:     -0.818D-03-0.175D-02-0.272D-02 0.351D-01 0.806D-01 0.243D+00
 Coeff:      0.647D+00
 Gap=     0.191 Goal=   None    Shift=    0.000
 RMSDP=6.97D-09 MaxDP=3.05D-07 DE=-3.91D-11 OVMax= 4.75D-07

 Error on total polarization charges =  0.01876
 SCF Done:  E(RB3LYP) =  -1116.98535218     A.U. after   13 cycles
            NFock= 13  Conv=0.70D-08     -V/T= 2.0076
 KE= 1.108571030891D+03 PE=-5.000948070073D+03 EE= 1.573501819196D+03
 Leave Link  502 at Thu Sep 24 14:39:51 2020, MaxMem=  2147483648 cpu:             137.8 elap:              42.9
 (Enter /prod/apps/gaussian/g16b1/l601.exe)
 Copying SCF densities to generalized density rwf, IOpCl= 0 IROHF=0.

 **********************************************************************

            Population analysis using the SCF Density.

 **********************************************************************

 Alpha  occ. eigenvalues --  -89.14318 -19.17320 -19.17164 -14.49554 -14.47413
 Alpha  occ. eigenvalues --  -14.45825 -14.40997 -10.32557 -10.27722 -10.26528
 Alpha  occ. eigenvalues --  -10.23470 -10.21858 -10.21708 -10.20990 -10.20957
 Alpha  occ. eigenvalues --  -10.20866  -8.16866  -6.13418  -6.13275  -6.13105
 Alpha  occ. eigenvalues --   -1.18052  -1.13992  -1.03092  -1.00702  -0.96828
 Alpha  occ. eigenvalues --   -0.87849  -0.86286  -0.79529  -0.78800  -0.76996
 Alpha  occ. eigenvalues --   -0.71452  -0.70485  -0.66873  -0.62930  -0.61593
 Alpha  occ. eigenvalues --   -0.59524  -0.56199  -0.55820  -0.55038  -0.53865
 Alpha  occ. eigenvalues --   -0.50701  -0.50558  -0.49826  -0.48494  -0.46997
 Alpha  occ. eigenvalues --   -0.45503  -0.44722  -0.44390  -0.44261  -0.41557
 Alpha  occ. eigenvalues --   -0.38974  -0.38146  -0.37900  -0.37116  -0.36594
 Alpha  occ. eigenvalues --   -0.35399  -0.34700  -0.33361  -0.33013  -0.28282
 Alpha  occ. eigenvalues --   -0.27304  -0.26891
 Alpha virt. eigenvalues --   -0.07800  -0.02812  -0.02241  -0.00212   0.04899
 Alpha virt. eigenvalues --    0.05232   0.07502   0.08294   0.08974   0.09422
 Alpha virt. eigenvalues --    0.10633   0.11789   0.12485   0.13904   0.14314
 Alpha virt. eigenvalues --    0.14959   0.15229   0.15388   0.16739   0.17498
 Alpha virt. eigenvalues --    0.18610   0.19038   0.20158   0.22323   0.27740
 Alpha virt. eigenvalues --    0.28477   0.29101   0.31321   0.32303   0.32988
 Alpha virt. eigenvalues --    0.34771   0.37218   0.40203   0.41190   0.43146
 Alpha virt. eigenvalues --    0.46031   0.47266   0.49303   0.49454   0.50120
 Alpha virt. eigenvalues --    0.51136   0.52390   0.53333   0.54864   0.55240
 Alpha virt. eigenvalues --    0.55869   0.56935   0.57228   0.57591   0.58065
 Alpha virt. eigenvalues --    0.59651   0.59744   0.60233   0.60897   0.62370
 Alpha virt. eigenvalues --    0.64143   0.65206   0.67029   0.68287   0.68723
 Alpha virt. eigenvalues --    0.72512   0.74267   0.74708   0.75753   0.76772
 Alpha virt. eigenvalues --    0.77714   0.78912   0.79123   0.80713   0.82132
 Alpha virt. eigenvalues --    0.82961   0.83311   0.84304   0.85112   0.86057
 Alpha virt. eigenvalues --    0.86601   0.87067   0.89269   0.90120   0.91871
 Alpha virt. eigenvalues --    0.92576   0.94119   0.94720   0.95225   0.96790
 Alpha virt. eigenvalues --    0.97617   0.98592   0.99020   1.01740   1.02380
 Alpha virt. eigenvalues --    1.05850   1.06714   1.07983   1.11232   1.12477
 Alpha virt. eigenvalues --    1.12678   1.15631   1.16434   1.17000   1.17671
 Alpha virt. eigenvalues --    1.22396   1.23555   1.24261   1.25369   1.28976
 Alpha virt. eigenvalues --    1.30598   1.32771   1.36307   1.37596   1.41004
 Alpha virt. eigenvalues --    1.41654   1.42460   1.44266   1.44846   1.46180
 Alpha virt. eigenvalues --    1.47132   1.48843   1.50566   1.54931   1.57807
 Alpha virt. eigenvalues --    1.61930   1.65502   1.69232   1.71226   1.74495
 Alpha virt. eigenvalues --    1.75143   1.76855   1.77504   1.77926   1.78386
 Alpha virt. eigenvalues --    1.79268   1.82255   1.82898   1.84207   1.86418
 Alpha virt. eigenvalues --    1.86799   1.89583   1.93221   1.94801   1.98274
 Alpha virt. eigenvalues --    1.98876   2.00110   2.03548   2.05360   2.05607
 Alpha virt. eigenvalues --    2.06787   2.08066   2.09490   2.11614   2.12985
 Alpha virt. eigenvalues --    2.13365   2.14135   2.17147   2.18400   2.19692
 Alpha virt. eigenvalues --    2.21723   2.22430   2.23467   2.25041   2.27860
 Alpha virt. eigenvalues --    2.28467   2.29417   2.31025   2.34272   2.36045
 Alpha virt. eigenvalues --    2.42703   2.48961   2.50798   2.54288   2.56283
 Alpha virt. eigenvalues --    2.57394   2.61906   2.63228   2.64488   2.68690
 Alpha virt. eigenvalues --    2.70139   2.72156   2.72710   2.72959   2.77080
 Alpha virt. eigenvalues --    2.80078   2.82295   2.86826   2.97808   3.02874
 Alpha virt. eigenvalues --    3.10744   3.21785   3.40520   3.57219   3.74687
 Alpha virt. eigenvalues --    3.85907   3.90778   3.95462   4.02572   4.07098
 Alpha virt. eigenvalues --    4.08594   4.09659   4.12723   4.16595   4.21322
 Alpha virt. eigenvalues --    4.30801   4.37301   4.44600   4.69149
          Condensed to atoms (all electrons):
               1          2          3          4          5          6
     1  O    8.225958   0.457371  -0.049928   0.001220  -0.000013  -0.000000
     2  S    0.457371  13.617522   0.107479  -0.007948  -0.002089   0.000260
     3  N   -0.049928   0.107479   7.380487   0.288503  -0.061255   0.004549
     4  C    0.001220  -0.007948   0.288503   4.490767   0.291728  -0.060552
     5  N   -0.000013  -0.002089  -0.061255   0.291728   6.735270   0.249349
     6  N   -0.000000   0.000260   0.004549  -0.060552   0.249349   6.688000
     7  C   -0.000037  -0.002812  -0.064695   0.509633  -0.051930  -0.092556
     8  N    0.000000   0.000114   0.003249  -0.009830  -0.084402   0.273182
     9  C   -0.000000  -0.000002  -0.000077   0.002140   0.006584  -0.051316
    10  C    0.000000  -0.000000  -0.000000  -0.000600   0.000379  -0.000313
    11  C   -0.000000  -0.000000  -0.000000   0.000005  -0.000004   0.000177
    12  C    0.000000   0.000000  -0.000000  -0.000000  -0.000000   0.000014
    13  C   -0.000000   0.000000  -0.000000  -0.000007   0.000003  -0.000071
    14  C    0.000000   0.000000   0.000001   0.001061  -0.000314   0.002892
    15  C   -0.058321   0.250302  -0.056800  -0.001865  -0.000094  -0.000009
    16  O   -0.041706   0.424422  -0.052788   0.000346  -0.001317   0.000192
    17  H    0.000332  -0.002211   0.297189  -0.023433   0.002179  -0.000013
    18  H   -0.000000   0.000037  -0.001218  -0.023995   0.003233   0.003182
    19  H   -0.000000  -0.000000  -0.000000   0.000008  -0.000305   0.009091
    20  H    0.000000  -0.000000   0.000000  -0.000000   0.000000  -0.000006
    21  H   -0.000000  -0.000000  -0.000000  -0.000000  -0.000000   0.000000
    22  H    0.000000   0.000000   0.000000   0.000000  -0.000000   0.000001
    23  H    0.000000  -0.000000  -0.000002  -0.000036  -0.000012  -0.000056
    24  H   -0.000034  -0.008098   0.000117   0.000141  -0.000006  -0.000000
    25  H    0.001645  -0.008055  -0.001242   0.001117   0.000105  -0.000014
    26  H   -0.000205  -0.015193   0.002119   0.000030  -0.000007   0.000000
    27  H   -0.000022   0.000569  -0.000318  -0.022837   0.301249  -0.023912
               7          8          9         10         11         12
     1  O   -0.000037   0.000000  -0.000000   0.000000  -0.000000   0.000000
     2  S   -0.002812   0.000114  -0.000002  -0.000000  -0.000000   0.000000
     3  N   -0.064695   0.003249  -0.000077  -0.000000  -0.000000  -0.000000
     4  C    0.509633  -0.009830   0.002140  -0.000600   0.000005  -0.000000
     5  N   -0.051930  -0.084402   0.006584   0.000379  -0.000004  -0.000000
     6  N   -0.092556   0.273182  -0.051316  -0.000313   0.000177   0.000014
     7  C    4.975295   0.315793  -0.032734   0.006166  -0.000076   0.000016
     8  N    0.315793   6.752852   0.210988  -0.055230   0.004337   0.000353
     9  C   -0.032734   0.210988   4.639421   0.520790  -0.011872  -0.036809
    10  C    0.006166  -0.055230   0.520790   4.954820   0.525200  -0.040185
    11  C   -0.000076   0.004337  -0.011872   0.525200   4.866497   0.538429
    12  C    0.000016   0.000353  -0.036809  -0.040185   0.538429   4.859206
    13  C   -0.000034   0.004418  -0.012210  -0.040671  -0.024049   0.541843
    14  C   -0.004138  -0.049963   0.532565  -0.065741  -0.041037  -0.041046
    15  C    0.000060  -0.000002  -0.000000   0.000000  -0.000000   0.000000
    16  O    0.000377  -0.000014   0.000000  -0.000000  -0.000000  -0.000000
    17  H   -0.002358  -0.000009  -0.000001   0.000000   0.000000  -0.000000
    18  H    0.365921  -0.031440  -0.001552  -0.000012  -0.000006  -0.000000
    19  H    0.000162  -0.010728  -0.040344   0.359732  -0.034270   0.004309
    20  H    0.000001  -0.000107   0.003493  -0.036825   0.364508  -0.038696
    21  H   -0.000000   0.000004   0.000483   0.004680  -0.040527   0.366303
    22  H   -0.000003  -0.000113   0.003448   0.000749   0.004246  -0.038477
    23  H    0.004896  -0.008231  -0.039719   0.004637   0.000184   0.004163
    24  H    0.000039   0.000000   0.000000  -0.000000   0.000000  -0.000000
    25  H    0.000628  -0.000025  -0.000000   0.000000   0.000000  -0.000000
    26  H   -0.000008   0.000000   0.000000  -0.000000  -0.000000   0.000000
    27  H    0.004842   0.003619  -0.000071  -0.000001  -0.000000  -0.000000
              13         14         15         16         17         18
     1  O   -0.000000   0.000000  -0.058321  -0.041706   0.000332  -0.000000
     2  S    0.000000   0.000000   0.250302   0.424422  -0.002211   0.000037
     3  N   -0.000000   0.000001  -0.056800  -0.052788   0.297189  -0.001218
     4  C   -0.000007   0.001061  -0.001865   0.000346  -0.023433  -0.023995
     5  N    0.000003  -0.000314  -0.000094  -0.001317   0.002179   0.003233
     6  N   -0.000071   0.002892  -0.000009   0.000192  -0.000013   0.003182
     7  C   -0.000034  -0.004138   0.000060   0.000377  -0.002358   0.365921
     8  N    0.004418  -0.049963  -0.000002  -0.000014  -0.000009  -0.031440
     9  C   -0.012210   0.532565  -0.000000   0.000000  -0.000001  -0.001552
    10  C   -0.040671  -0.065741   0.000000  -0.000000   0.000000  -0.000012
    11  C   -0.024049  -0.041037  -0.000000  -0.000000   0.000000  -0.000006
    12  C    0.541843  -0.041046   0.000000  -0.000000  -0.000000  -0.000000
    13  C    4.858047   0.529220  -0.000000   0.000000  -0.000000   0.000079
    14  C    0.529220   4.953237  -0.000000   0.000000   0.000000   0.002133
    15  C   -0.000000  -0.000000   5.496800  -0.055462   0.000128  -0.000013
    16  O    0.000000   0.000000  -0.055462   8.271066   0.001121   0.000001
    17  H   -0.000000   0.000000   0.000128   0.001121   0.276943   0.000887
    18  H    0.000079   0.002133  -0.000013   0.000001   0.000887   0.417740
    19  H    0.000118   0.004846   0.000000  -0.000000   0.000000  -0.000008
    20  H    0.004271   0.000711   0.000000   0.000000  -0.000000   0.000000
    21  H   -0.040432   0.004816   0.000000   0.000000   0.000000  -0.000000
    22  H    0.364333  -0.036716  -0.000000  -0.000000   0.000000  -0.000000
    23  H   -0.032171   0.356992  -0.000000   0.000000   0.000000   0.001050
    24  H    0.000000  -0.000000   0.344719   0.001646  -0.000011  -0.000006
    25  H    0.000000   0.000000   0.343973  -0.000086   0.000088   0.000010
    26  H   -0.000000  -0.000000   0.356610  -0.000159  -0.000005   0.000000
    27  H   -0.000000   0.000003   0.000109   0.011289  -0.000040  -0.000050
              19         20         21         22         23         24
     1  O   -0.000000   0.000000  -0.000000   0.000000   0.000000  -0.000034
     2  S   -0.000000  -0.000000  -0.000000   0.000000  -0.000000  -0.008098
     3  N   -0.000000   0.000000  -0.000000   0.000000  -0.000002   0.000117
     4  C    0.000008  -0.000000  -0.000000   0.000000  -0.000036   0.000141
     5  N   -0.000305   0.000000  -0.000000  -0.000000  -0.000012  -0.000006
     6  N    0.009091  -0.000006   0.000000   0.000001  -0.000056  -0.000000
     7  C    0.000162   0.000001  -0.000000  -0.000003   0.004896   0.000039
     8  N   -0.010728  -0.000107   0.000004  -0.000113  -0.008231   0.000000
     9  C   -0.040344   0.003493   0.000483   0.003448  -0.039719   0.000000
    10  C    0.359732  -0.036825   0.004680   0.000749   0.004637  -0.000000
    11  C   -0.034270   0.364508  -0.040527   0.004246   0.000184   0.000000
    12  C    0.004309  -0.038696   0.366303  -0.038477   0.004163  -0.000000
    13  C    0.000118   0.004271  -0.040432   0.364333  -0.032171   0.000000
    14  C    0.004846   0.000711   0.004816  -0.036716   0.356992  -0.000000
    15  C    0.000000   0.000000   0.000000  -0.000000  -0.000000   0.344719
    16  O   -0.000000   0.000000   0.000000  -0.000000   0.000000   0.001646
    17  H    0.000000  -0.000000   0.000000   0.000000   0.000000  -0.000011
    18  H   -0.000008   0.000000  -0.000000  -0.000000   0.001050  -0.000006
    19  H    0.524876  -0.004912  -0.000131   0.000012  -0.000119   0.000000
    20  H   -0.004912   0.539279  -0.004920  -0.000154   0.000013   0.000000
    21  H   -0.000131  -0.004920   0.545009  -0.004926  -0.000136   0.000000
    22  H    0.000012  -0.000154  -0.004926   0.538940  -0.004903   0.000000
    23  H   -0.000119   0.000013  -0.000136  -0.004903   0.524087   0.000000
    24  H    0.000000   0.000000   0.000000   0.000000   0.000000   0.457600
    25  H    0.000000  -0.000000   0.000000  -0.000000   0.000000  -0.019401
    26  H   -0.000000   0.000000  -0.000000   0.000000  -0.000000  -0.016941
    27  H   -0.000000   0.000000  -0.000000   0.000000   0.000000  -0.000004
              25         26         27
     1  O    0.001645  -0.000205  -0.000022
     2  S   -0.008055  -0.015193   0.000569
     3  N   -0.001242   0.002119  -0.000318
     4  C    0.001117   0.000030  -0.022837
     5  N    0.000105  -0.000007   0.301249
     6  N   -0.000014   0.000000  -0.023912
     7  C    0.000628  -0.000008   0.004842
     8  N   -0.000025   0.000000   0.003619
     9  C   -0.000000   0.000000  -0.000071
    10  C    0.000000  -0.000000  -0.000001
    11  C    0.000000  -0.000000  -0.000000
    12  C   -0.000000   0.000000  -0.000000
    13  C    0.000000  -0.000000  -0.000000
    14  C    0.000000  -0.000000   0.000003
    15  C    0.343973   0.356610   0.000109
    16  O   -0.000086  -0.000159   0.011289
    17  H    0.000088  -0.000005  -0.000040
    18  H    0.000010   0.000000  -0.000050
    19  H    0.000000  -0.000000  -0.000000
    20  H   -0.000000   0.000000   0.000000
    21  H    0.000000  -0.000000  -0.000000
    22  H   -0.000000   0.000000   0.000000
    23  H    0.000000  -0.000000   0.000000
    24  H   -0.019401  -0.016941  -0.000004
    25  H    0.459783  -0.018160   0.000015
    26  H   -0.018160   0.444228  -0.000000
    27  H    0.000015  -0.000000   0.256279
 Mulliken charges:
               1
     1  O   -0.536260
     2  S    1.188332
     3  N   -0.795374
     4  C    0.564406
     5  N   -0.388329
     6  N   -0.002071
     7  C    0.067552
     8  N   -0.318817
     9  C    0.306793
    10  C   -0.137575
    11  C   -0.151743
    12  C   -0.119424
    13  C   -0.152687
    14  C   -0.149521
    15  C   -0.620137
    16  O   -0.558928
    17  H    0.449213
    18  H    0.264028
    19  H    0.187665
    20  H    0.173343
    21  H    0.169778
    22  H    0.173562
    23  H    0.189363
    24  H    0.240239
    25  H    0.239619
    26  H    0.247691
    27  H    0.469280
 Sum of Mulliken charges =   1.00000
 Mulliken charges with hydrogens summed into heavy atoms:
               1
     1  O   -0.536260
     2  S    1.188332
     3  N   -0.346161
     4  C    0.564406
     5  N    0.080951
     6  N   -0.002071
     7  C    0.331579
     8  N   -0.318817
     9  C    0.306793
    10  C    0.050091
    11  C    0.021601
    12  C    0.050354
    13  C    0.020875
    14  C    0.039842
    15  C    0.107413
    16  O   -0.558928
 Electronic spatial extent (au):  <R**2>=           5650.8963
 Charge=              1.0000 electrons
 Dipole moment (field-independent basis, Debye):
    X=              4.1270    Y=              4.5666    Z=             -1.2997  Tot=              6.2909
 Quadrupole moment (field-independent basis, Debye-Ang):
   XX=            -79.3395   YY=            -78.5022   ZZ=            -95.4659
   XY=            -12.1454   XZ=             -5.4352   YZ=             -1.2937
 Traceless Quadrupole moment (field-independent basis, Debye-Ang):
   XX=              5.0964   YY=              5.9337   ZZ=            -11.0301
   XY=            -12.1454   XZ=             -5.4352   YZ=             -1.2937
 Octapole moment (field-independent basis, Debye-Ang**2):
  XXX=            193.4564  YYY=              7.5912  ZZZ=             -5.0260  XYY=            -10.7938
  XXY=             63.8631  XXZ=             35.3622  XZZ=            -31.3758  YZZ=             11.9233
  YYZ=              1.6402  XYZ=             -5.0336
 Hexadecapole moment (field-independent basis, Debye-Ang**3):
 XXXX=          -5948.1174 YYYY=           -557.9468 ZZZZ=           -264.1017 XXXY=           -192.9863
 XXXZ=           -168.9256 YYYX=             -8.9828 YYYZ=              4.1033 ZZZX=             -1.4803
 ZZZY=              5.8298 XXYY=          -1001.6612 XXZZ=          -1183.9126 YYZZ=           -148.3073
 XXYZ=             43.5801 YYXZ=            -10.6557 ZZXY=            -30.7936
 N-N= 1.201889867810D+03 E-N=-5.000948078473D+03  KE= 1.108571030891D+03
 No NMR shielding tensors so no spin-rotation constants.
 Leave Link  601 at Thu Sep 24 14:39:51 2020, MaxMem=  2147483648 cpu:               0.4 elap:               0.1
 (Enter /prod/apps/gaussian/g16b1/l701.exe)
 ... and contract with generalized density number  0.
 Compute integral first derivatives.
 D1PCM: PCM CHGder 1st derivatives, ID1Alg=3 FixD1E=F DoIter=F DoCFld=F I1PDM=0.
 GePol: Maximum number of non-zero 1st derivatives   =     187
 Leave Link  701 at Thu Sep 24 14:39:53 2020, MaxMem=  2147483648 cpu:               6.8 elap:               1.7
 (Enter /prod/apps/gaussian/g16b1/l702.exe)
 L702 exits ... SP integral derivatives will be done elsewhere.
 Leave Link  702 at Thu Sep 24 14:39:53 2020, MaxMem=  2147483648 cpu:               0.1 elap:               0.0
 (Enter /prod/apps/gaussian/g16b1/l703.exe)
 Integral derivatives from FoFJK, PRISM(SPDF).
 Compute integral first derivatives, UseDBF=F ICtDFT=           0.
 Calling FoFJK, ICntrl=      2127 FMM=F ISym2X=0 I1Cent= 0 IOpClX= 0 NMat=1 NMatS=1 NMatT=0.
 FoFJK:  IHMeth= 1 ICntrl=    2127 DoSepK=F KAlg= 0 I1Cent=           0 FoldK=F
 IRaf=         0 NMat=       1 IRICut=       1 DoRegI=T DoRafI=F ISym2E= 0 IDoP0=0 IntGTp=1.
 FoFCou: FMM=F IPFlag=           0 FMFlag=      100000 FMFlg1=         800
         NFxFlg=           0 DoJE=F BraDBF=F KetDBF=F FulRan=T
         wScrn=  0.000000 ICntrl=      2127 IOpCl=  0 I1Cent=           0 NGrid=           0
         NMat0=    1 NMatS0=      1 NMatT0=    0 NMatD0=    1 NMtDS0=    0 NMtDT0=    0
 Symmetry not used in FoFCou.
 Leave Link  703 at Thu Sep 24 14:40:03 2020, MaxMem=  2147483648 cpu:              39.9 elap:              10.0
 (Enter /prod/apps/gaussian/g16b1/l716.exe)
 Dipole        = 1.62366900D+00 1.79665439D+00-5.11322855D-01
 -------------------------------------------------------------------
 Center     Atomic                   Forces (Hartrees/Bohr)
 Number     Number              X              Y              Z
 -------------------------------------------------------------------
      1        8           0.000223100   -0.000022558    0.000294901
      2       16           0.000567754    0.000159835    0.000915165
      3        7           0.000410894   -0.000214315    0.000617150
      4        6          -0.000407224    0.000000078    0.000003551
      5        7          -0.000671433   -0.000363904    0.000382258
      6        7           0.000097450    0.000648565   -0.000571484
      7        6          -0.000013477    0.001361230   -0.000887564
      8        7           0.000862017   -0.000552428    0.000200134
      9        6          -0.000662007   -0.000540368    0.000163845
     10        6          -0.000211785   -0.000412998   -0.000054644
     11        6           0.000273361   -0.000342300    0.000025052
     12        6          -0.000272684    0.000327074   -0.000137832
     13        6           0.000197438   -0.000323977    0.000152440
     14        6           0.000824690    0.000717001   -0.000076135
     15        6           0.000147418   -0.000084146   -0.000211232
     16        8           0.000290609    0.001042269   -0.001162321
     17        1          -0.000047173   -0.000029421    0.000059227
     18        1          -0.000148253   -0.001402461    0.001188345
     19        1           0.000188039    0.001165568    0.000117526
     20        1          -0.000845506    0.000983035   -0.000031567
     21        1          -0.000986246   -0.000075376   -0.000007675
     22        1          -0.000391797   -0.000880238   -0.000069768
     23        1           0.000205748   -0.000704251   -0.000159137
     24        1           0.000021654   -0.000856572    0.000656694
     25        1          -0.000762625   -0.000143128   -0.000536912
     26        1           0.000567841   -0.000154093   -0.000493660
     27        1           0.000542197    0.000697880   -0.000376357
 -------------------------------------------------------------------
 Cartesian Forces:  Max     0.001402461 RMS     0.000557456
 Leave Link  716 at Thu Sep 24 14:40:03 2020, MaxMem=  2147483648 cpu:               0.1 elap:               0.0
 (Enter /prod/apps/gaussian/g16b1/l103.exe)

 GradGradGradGradGradGradGradGradGradGradGradGradGradGradGradGradGradGrad
 Berny optimization.
 FormGI is forming the generalized inverse of G from B-inverse, IUseBI=4.
 Internal  Forces:  Max     0.001819028 RMS     0.000511854
 Search for a local minimum.
 Step number   1 out of a maximum of  147
 All quantities printed in internal units (Hartrees-Bohrs-Radians)
 RMS Force = .51185D-03 SwitMx=.10000D-02 MixMth= 2
 Mixed Optimization -- En-DIIS/RFO-DIIS
 Second derivative matrix not updated -- first step.
 ITU=  0
     Eigenvalues ---    0.00410   0.01109   0.01190   0.01829   0.01869
     Eigenvalues ---    0.01920   0.02123   0.02132   0.02141   0.02146
     Eigenvalues ---    0.02153   0.02153   0.02155   0.02160   0.02162
     Eigenvalues ---    0.02183   0.02246   0.02267   0.02280   0.02316
     Eigenvalues ---    0.05974   0.06228   0.08014   0.08333   0.13298
     Eigenvalues ---    0.14223   0.15979   0.15994   0.15996   0.15999
     Eigenvalues ---    0.15999   0.15999   0.16000   0.16000   0.16000
     Eigenvalues ---    0.16000   0.18486   0.22000   0.22000   0.22592
     Eigenvalues ---    0.23351   0.23501   0.24063   0.24858   0.25000
     Eigenvalues ---    0.25000   0.25000   0.26353   0.34243   0.34597
     Eigenvalues ---    0.34696   0.34775   0.35312   0.35325   0.35391
     Eigenvalues ---    0.35486   0.35500   0.36317   0.39869   0.42047
     Eigenvalues ---    0.42207   0.43851   0.43880   0.45867   0.46142
     Eigenvalues ---    0.46194   0.46230   0.46478   0.46608   0.48602
     Eigenvalues ---    0.52437   0.58915   0.60504   0.88714   0.90722
 RFO step:  Lambda=-1.31647542D-04 EMin= 4.09691294D-03
 Linear search not attempted -- first point.
 Iteration  1 RMS(Cart)=  0.01876957 RMS(Int)=  0.00008925
 Iteration  2 RMS(Cart)=  0.00015245 RMS(Int)=  0.00000146
 Iteration  3 RMS(Cart)=  0.00000001 RMS(Int)=  0.00000146
 ITry= 1 IFail=0 DXMaxC= 7.37D-02 DCOld= 1.00D+10 DXMaxT= 3.00D-01 DXLimC= 3.00D+00 Rises=F
 Variable       Old X    -DE/DX   Delta X   Delta X   Delta X     New X
                                 (Linear)    (Quad)   (Total)
    R1        2.76302  -0.00035   0.00000  -0.00039  -0.00039   2.76263
    R2        3.23922  -0.00118   0.00000  -0.00346  -0.00346   3.23577
    R3        3.39588  -0.00136   0.00000  -0.00516  -0.00516   3.39072
    R4        2.77231  -0.00151   0.00000  -0.00170  -0.00170   2.77061
    R5        2.61303  -0.00139   0.00000  -0.00286  -0.00286   2.61017
    R6        1.93333  -0.00005   0.00000  -0.00012  -0.00012   1.93321
    R7        2.57275  -0.00052   0.00000  -0.00098  -0.00098   2.57177
    R8        2.61060  -0.00050   0.00000  -0.00096  -0.00096   2.60964
    R9        2.48973  -0.00041   0.00000  -0.00069  -0.00069   2.48905
   R10        1.93298  -0.00096   0.00000  -0.00219  -0.00219   1.93079
   R11        2.49620  -0.00086   0.00000  -0.00143  -0.00143   2.49477
   R12        2.57182  -0.00031   0.00000  -0.00057  -0.00057   2.57125
   R13        2.03589  -0.00182   0.00000  -0.00501  -0.00501   2.03088
   R14        2.71731  -0.00168   0.00000  -0.00421  -0.00421   2.71310
   R15        2.63767  -0.00119   0.00000  -0.00252  -0.00252   2.63515
   R16        2.63507  -0.00039   0.00000  -0.00082  -0.00082   2.63425
   R17        2.63366  -0.00087   0.00000  -0.00185  -0.00185   2.63181
   R18        2.04893  -0.00116   0.00000  -0.00326  -0.00326   2.04567
   R19        2.64099  -0.00067   0.00000  -0.00147  -0.00147   2.63952
   R20        2.05171  -0.00129   0.00000  -0.00366  -0.00366   2.04805
   R21        2.64039  -0.00124   0.00000  -0.00273  -0.00273   2.63765
   R22        2.05151  -0.00098   0.00000  -0.00279  -0.00279   2.04872
   R23        2.63588  -0.00118   0.00000  -0.00255  -0.00255   2.63333
   R24        2.05045  -0.00097   0.00000  -0.00273  -0.00273   2.04773
   R25        2.04870  -0.00067   0.00000  -0.00190  -0.00190   2.04681
   R26        2.06171  -0.00107   0.00000  -0.00308  -0.00308   2.05863
   R27        2.06041  -0.00094   0.00000  -0.00270  -0.00270   2.05772
   R28        2.06335  -0.00076   0.00000  -0.00219  -0.00219   2.06116
    A1        1.82452   0.00017   0.00000   0.00178   0.00178   1.82630
    A2        1.90919  -0.00009   0.00000   0.00087   0.00087   1.91006
    A3        2.10864   0.00013   0.00000   0.00113   0.00113   2.10977
    A4        1.85365   0.00028   0.00000   0.00068   0.00068   1.85433
    A5        1.84073  -0.00061   0.00000  -0.00490  -0.00490   1.83582
    A6        1.90837   0.00014   0.00000   0.00022   0.00022   1.90858
    A7        2.12985  -0.00144   0.00000  -0.00612  -0.00612   2.12373
    A8        1.96799   0.00060   0.00000   0.00309   0.00309   1.97108
    A9        1.99538   0.00065   0.00000   0.00346   0.00346   1.99883
   A10        2.16878  -0.00069   0.00000  -0.00276  -0.00276   2.16602
   A11        2.28576   0.00053   0.00000   0.00214   0.00214   2.28790
   A12        1.82557   0.00017   0.00000   0.00090   0.00090   1.82647
   A13        1.97575  -0.00009   0.00000  -0.00044  -0.00044   1.97531
   A14        2.23528   0.00000   0.00000  -0.00006  -0.00006   2.23523
   A15        2.07176   0.00009   0.00000   0.00048   0.00048   2.07224
   A16        1.81928  -0.00002   0.00000  -0.00026  -0.00026   1.81902
   A17        1.83689  -0.00030   0.00000  -0.00119  -0.00119   1.83570
   A18        2.28809   0.00041   0.00000   0.00225   0.00225   2.29034
   A19        2.15747  -0.00011   0.00000  -0.00101  -0.00101   2.15646
   A20        1.96672   0.00025   0.00000   0.00095   0.00095   1.96767
   A21        2.08943  -0.00013   0.00000  -0.00050  -0.00050   2.08894
   A22        2.22703  -0.00012   0.00000  -0.00045  -0.00045   2.22658
   A23        2.07516  -0.00031   0.00000  -0.00130  -0.00130   2.07386
   A24        2.07725   0.00011   0.00000   0.00038   0.00038   2.07763
   A25        2.13077   0.00020   0.00000   0.00092   0.00091   2.13169
   A26        2.06943  -0.00021   0.00000  -0.00080  -0.00080   2.06863
   A27        2.09989  -0.00013   0.00000  -0.00107  -0.00107   2.09882
   A28        2.11379   0.00034   0.00000   0.00189   0.00189   2.11568
   A29        2.10020  -0.00003   0.00000  -0.00014  -0.00014   2.10007
   A30        2.08304  -0.00001   0.00000  -0.00009  -0.00009   2.08295
   A31        2.09989   0.00004   0.00000   0.00023   0.00023   2.10012
   A32        2.09656   0.00018   0.00000   0.00074   0.00074   2.09730
   A33        2.09307   0.00000   0.00000   0.00022   0.00022   2.09329
   A34        2.09356  -0.00019   0.00000  -0.00095  -0.00095   2.09260
   A35        2.10039  -0.00004   0.00000  -0.00024  -0.00024   2.10015
   A36        2.09940   0.00009   0.00000   0.00059   0.00059   2.09999
   A37        2.08332  -0.00005   0.00000  -0.00032  -0.00032   2.08300
   A38        2.06896  -0.00011   0.00000  -0.00047  -0.00047   2.06849
   A39        2.11055  -0.00025   0.00000  -0.00168  -0.00168   2.10887
   A40        2.10348   0.00036   0.00000   0.00219   0.00219   2.10566
   A41        1.89486  -0.00014   0.00000  -0.00088  -0.00088   1.89398
   A42        1.89817  -0.00009   0.00000  -0.00054  -0.00054   1.89763
   A43        1.86101  -0.00016   0.00000  -0.00100  -0.00100   1.86000
   A44        1.94510   0.00012   0.00000   0.00080   0.00080   1.94590
   A45        1.93203   0.00012   0.00000   0.00069   0.00069   1.93272
   A46        1.93007   0.00012   0.00000   0.00080   0.00079   1.93086
    D1       -2.93855   0.00012   0.00000   0.00615   0.00615  -2.93240
    D2        0.86404   0.00010   0.00000   0.00388   0.00388   0.86792
    D3        1.32656   0.00003   0.00000   0.00408   0.00408   1.33064
    D4       -1.15404   0.00001   0.00000   0.00181   0.00181  -1.15223
    D5       -0.69792   0.00003   0.00000   0.00577   0.00577  -0.69215
    D6        3.10467   0.00000   0.00000   0.00350   0.00350   3.10817
    D7       -0.91286  -0.00002   0.00000  -0.00038  -0.00038  -0.91324
    D8       -3.03216  -0.00003   0.00000  -0.00049  -0.00049  -3.03265
    D9        1.16936  -0.00004   0.00000  -0.00059  -0.00059   1.16877
   D10        1.04708   0.00027   0.00000   0.00242   0.00242   1.04950
   D11       -1.07221   0.00026   0.00000   0.00230   0.00230  -1.06991
   D12        3.12931   0.00026   0.00000   0.00221   0.00221   3.13152
   D13        3.02539  -0.00023   0.00000  -0.00281  -0.00281   3.02258
   D14        0.90609  -0.00024   0.00000  -0.00293  -0.00293   0.90317
   D15       -1.17557  -0.00024   0.00000  -0.00302  -0.00302  -1.17859
   D16        0.93503  -0.00018   0.00000  -0.01016  -0.01016   0.92487
   D17       -2.30420  -0.00008   0.00000  -0.00563  -0.00563  -2.30984
   D18       -2.87693  -0.00019   0.00000  -0.00805  -0.00805  -2.88499
   D19        0.16702  -0.00009   0.00000  -0.00353  -0.00353   0.16349
   D20        3.08828   0.00008   0.00000   0.00221   0.00221   3.09048
   D21       -0.08408   0.00006   0.00000   0.00167   0.00166  -0.08242
   D22        0.02283  -0.00003   0.00000  -0.00144  -0.00144   0.02139
   D23        3.13365  -0.00005   0.00000  -0.00198  -0.00198   3.13167
   D24       -3.06176   0.00001   0.00000  -0.00113  -0.00114  -3.06290
   D25        0.03889   0.00002   0.00000   0.00003   0.00003   0.03892
   D26       -0.00352   0.00005   0.00000   0.00255   0.00255  -0.00097
   D27        3.09713   0.00006   0.00000   0.00371   0.00372   3.10085
   D28       -0.03230  -0.00000   0.00000  -0.00035  -0.00035  -0.03265
   D29        3.13691   0.00002   0.00000   0.00015   0.00015   3.13705
   D30        0.02967   0.00004   0.00000   0.00215   0.00215   0.03182
   D31       -3.11111   0.00001   0.00000   0.00022   0.00022  -3.11089
   D32       -0.01654  -0.00006   0.00000  -0.00304  -0.00304  -0.01958
   D33        3.12417  -0.00003   0.00000  -0.00092  -0.00092   3.12324
   D34       -3.12109  -0.00009   0.00000  -0.00419  -0.00419  -3.12528
   D35        0.01962  -0.00005   0.00000  -0.00207  -0.00207   0.01755
   D36        0.62824  -0.00020   0.00000  -0.01815  -0.01815   0.61010
   D37       -2.51545  -0.00024   0.00000  -0.02023  -0.02023  -2.53567
   D38       -2.51241  -0.00024   0.00000  -0.02039  -0.02039  -2.53280
   D39        0.62708  -0.00028   0.00000  -0.02247  -0.02247   0.60461
   D40       -3.14095  -0.00001   0.00000  -0.00071  -0.00071   3.14152
   D41        0.01310  -0.00006   0.00000  -0.00309  -0.00308   0.01002
   D42        0.00281   0.00003   0.00000   0.00144   0.00144   0.00425
   D43       -3.12632  -0.00002   0.00000  -0.00094  -0.00094  -3.12726
   D44       -3.13314   0.00000   0.00000   0.00035   0.00035  -3.13278
   D45        0.02987  -0.00005   0.00000  -0.00201  -0.00201   0.02786
   D46        0.00629  -0.00004   0.00000  -0.00180  -0.00180   0.00448
   D47       -3.11390  -0.00009   0.00000  -0.00416  -0.00416  -3.11806
   D48       -0.00850  -0.00001   0.00000  -0.00073  -0.00073  -0.00923
   D49       -3.13883  -0.00002   0.00000  -0.00087  -0.00087  -3.13971
   D50        3.12053   0.00004   0.00000   0.00164   0.00165   3.12217
   D51       -0.00981   0.00003   0.00000   0.00150   0.00150  -0.00830
   D52        0.00510   0.00001   0.00000   0.00045   0.00045   0.00554
   D53       -3.13552  -0.00001   0.00000  -0.00042  -0.00042  -3.13594
   D54        3.13532   0.00001   0.00000   0.00059   0.00059   3.13591
   D55       -0.00529  -0.00001   0.00000  -0.00028  -0.00028  -0.00558
   D56        0.00423  -0.00002   0.00000  -0.00082  -0.00082   0.00341
   D57        3.13279   0.00003   0.00000   0.00146   0.00146   3.13425
   D58       -3.13834   0.00000   0.00000   0.00005   0.00005  -3.13829
   D59       -0.00978   0.00005   0.00000   0.00233   0.00233  -0.00745
   D60       -0.00975   0.00003   0.00000   0.00147   0.00147  -0.00829
   D61        3.11052   0.00008   0.00000   0.00377   0.00377   3.11429
   D62       -3.13843  -0.00002   0.00000  -0.00079  -0.00079  -3.13922
   D63       -0.01816   0.00003   0.00000   0.00151   0.00151  -0.01665
         Item               Value     Threshold  Converged?
 Maximum Force            0.001819     0.000450     NO 
[...]
 Alpha virt. eigenvalues --    0.21812   0.22375   0.22867   0.23461   0.23597
 Alpha virt. eigenvalues --    0.23871   0.24381   0.24431   0.25021   0.25234
 Alpha virt. eigenvalues --    0.25578   0.25817   0.26625   0.27128   0.27239
 Alpha virt. eigenvalues --    0.27718   0.27986   0.28829   0.28941   0.29530
 Alpha virt. eigenvalues --    0.29748   0.30292   0.30503   0.30943   0.31687
 Alpha virt. eigenvalues --    0.31912   0.32110   0.32748   0.33507   0.33879
 Alpha virt. eigenvalues --    0.34261   0.34649   0.34948   0.35114   0.35655
 Alpha virt. eigenvalues --    0.36749   0.37318   0.37801   0.38888   0.39425
 Alpha virt. eigenvalues --    0.40211   0.40412   0.40938   0.41420   0.41747
 Alpha virt. eigenvalues --    0.42655   0.43841   0.44120   0.44894   0.45202
 Alpha virt. eigenvalues --    0.45375   0.45949   0.46441   0.46812   0.47837
 Alpha virt. eigenvalues --    0.48527   0.48908   0.49731   0.50141   0.50429
 Alpha virt. eigenvalues --    0.51533   0.51888   0.52382   0.52714   0.52965
 Alpha virt. eigenvalues --    0.53623   0.53922   0.54166   0.54787   0.55632
 Alpha virt. eigenvalues --    0.55928   0.56263   0.56766   0.56944   0.57368
 Alpha virt. eigenvalues --    0.57642   0.58299   0.58664   0.59183   0.59282
 Alpha virt. eigenvalues --    0.60746   0.60853   0.61251   0.62526   0.63550
 Alpha virt. eigenvalues --    0.64509   0.64743   0.65642   0.65759   0.66234
 Alpha virt. eigenvalues --    0.66764   0.67370   0.67721   0.67845   0.69420
 Alpha virt. eigenvalues --    0.69962   0.71144   0.72276   0.72826   0.73183
 Alpha virt. eigenvalues --    0.73765   0.74072   0.74692   0.74958   0.76086
 Alpha virt. eigenvalues --    0.76885   0.77258   0.77594   0.78441   0.79580
 Alpha virt. eigenvalues --    0.79871   0.80649   0.81111   0.81686   0.81819
 Alpha virt. eigenvalues --    0.82014   0.82847   0.82947   0.84156   0.85024
 Alpha virt. eigenvalues --    0.85877   0.86176   0.86875   0.87311   0.88631
 Alpha virt. eigenvalues --    0.88977   0.89720   0.90430   0.91059   0.91863
 Alpha virt. eigenvalues --    0.92344   0.93752   0.93902   0.95259   0.96104
 Alpha virt. eigenvalues --    0.96902   0.97177   0.97437   0.99512   1.00661
 Alpha virt. eigenvalues --    1.01526   1.02113   1.02557   1.04564   1.04788
 Alpha virt. eigenvalues --    1.06000   1.07384   1.07733   1.08191   1.09486
 Alpha virt. eigenvalues --    1.09843   1.10552   1.11898   1.12753   1.13959
 Alpha virt. eigenvalues --    1.15665   1.16145   1.17236   1.19643   1.20210
 Alpha virt. eigenvalues --    1.22202   1.23099   1.23422   1.25253   1.26036
 Alpha virt. eigenvalues --    1.27261   1.29659   1.30064   1.31273   1.32270
 Alpha virt. eigenvalues --    1.33236   1.33693   1.35705   1.37513   1.38752
 Alpha virt. eigenvalues --    1.39450   1.39588   1.40335   1.41354   1.42511
 Alpha virt. eigenvalues --    1.43626   1.44875   1.45746   1.46480   1.47168
 Alpha virt. eigenvalues --    1.48609   1.49017   1.49956   1.51197   1.51593
 Alpha virt. eigenvalues --    1.51964   1.52167   1.53411   1.54061   1.55039
 Alpha virt. eigenvalues --    1.56103   1.57351   1.57950   1.58519   1.59170
 Alpha virt. eigenvalues --    1.60009   1.60692   1.62752   1.63937   1.64698
 Alpha virt. eigenvalues --    1.66251   1.66493   1.67363   1.68911   1.70604
 Alpha virt. eigenvalues --    1.70986   1.71728   1.73706   1.74214   1.75974
 Alpha virt. eigenvalues --    1.76150   1.78249   1.78894   1.79794   1.81533
 Alpha virt. eigenvalues --    1.82131   1.82678   1.84295   1.85228   1.86617
 Alpha virt. eigenvalues --    1.87475   1.87566   1.88381   1.90419   1.91455
 Alpha virt. eigenvalues --    1.93445   1.94616   1.95101   1.97245   1.98399
 Alpha virt. eigenvalues --    1.99196   2.00049   2.01617   2.03037   2.03851
 Alpha virt. eigenvalues --    2.04270   2.05109   2.05617   2.06739   2.07020
 Alpha virt. eigenvalues --    2.08996   2.09324   2.10502   2.11200   2.12375
 Alpha virt. eigenvalues --    2.13672   2.16028   2.16780   2.17232   2.19017
 Alpha virt. eigenvalues --    2.19921   2.21160   2.21361   2.22871   2.23088
 Alpha virt. eigenvalues --    2.24094   2.24584   2.25692   2.26193   2.28430
 Alpha virt. eigenvalues --    2.28555   2.30413   2.31746   2.32119   2.34638
 Alpha virt. eigenvalues --    2.37178   2.37849   2.38131   2.40803   2.41842
 Alpha virt. eigenvalues --    2.42970   2.43707   2.47791   2.50696   2.51182
 Alpha virt. eigenvalues --    2.51814   2.54106   2.54829   2.55990   2.59071
 Alpha virt. eigenvalues --    2.61882   2.62442   2.64142   2.65732   2.69326
 Alpha virt. eigenvalues --    2.70171   2.70673   2.72106   2.73764   2.74618
 Alpha virt. eigenvalues --    2.76901   2.79442   2.80453   2.83349   2.84977
 Alpha virt. eigenvalues --    2.86470   2.86664   2.87968   2.89611   2.92506
 Alpha virt. eigenvalues --    2.93838   2.94709   2.99862   3.01079   3.01793
 Alpha virt. eigenvalues --    3.03809   3.05621   3.08740   3.18353   3.22111
 Alpha virt. eigenvalues --    3.22265   3.25045   3.29915   3.34321   3.36916
 Alpha virt. eigenvalues --    3.42899   3.50567   3.52879   3.59076   3.59912
 Alpha virt. eigenvalues --    3.62055   3.63093   3.64528   3.66293   3.67163
 Alpha virt. eigenvalues --    3.69017   3.71596   3.73822   3.77749   3.83134
 Alpha virt. eigenvalues --    3.88003   4.14849   4.26628   4.76210
          Condensed to atoms (all electrons):
               1          2          3          4          5          6
     1  O    9.011425  -0.031603  -0.019943   0.029732   0.003385  -0.001178
     2  S   -0.031603  13.421044   0.317220  -0.763889   0.056287  -0.002723
     3  N   -0.019943   0.317220   8.195635  -1.517867   0.047356  -0.169101
     4  C    0.029732  -0.763889  -1.517867  13.575653  -1.106477   0.906516
     5  N    0.003385   0.056287   0.047356  -1.106477   7.983287  -0.559882
     6  N   -0.001178  -0.002723  -0.169101   0.906516  -0.559882   8.553140
     7  C    0.008712   0.186190   0.794825  -6.115856   1.061282  -1.120375
     8  N   -0.002453   0.038241  -0.034572   0.121753  -0.293043  -0.041020
     9  C    0.000619   0.004697   0.002637   0.317041  -0.265360  -0.447053
    10  C    0.000107  -0.003752   0.005639  -0.031487  -0.045477   0.376819
    11  C    0.000012  -0.002240  -0.014561   0.176740  -0.009174   0.047958
    12  C   -0.000003   0.000899   0.004288  -0.052068  -0.001818   0.030650
    13  C   -0.000004  -0.000558  -0.003063   0.059220   0.027994  -0.018124
    14  C   -0.000110   0.008069   0.028784  -0.418152   0.125328   0.064048
    15  C   -0.022060   0.422660  -0.020566   0.023967  -0.016775  -0.001544
    16  O    0.040677  -0.119845  -0.067872   0.201752  -0.031160  -0.014133
    17  H    0.016331  -0.100518   0.396876  -0.019174   0.021765   0.002107
    18  H   -0.000054  -0.000119  -0.102795   0.158250  -0.097175  -0.071417
    19  H   -0.000036   0.001229   0.003809  -0.018605   0.034747  -0.020686
    20  H    0.000001  -0.000062  -0.000395   0.002259  -0.000275  -0.003219
    21  H   -0.000000   0.000020   0.000103  -0.000674  -0.000124   0.001366
    22  H    0.000003  -0.000238  -0.000386   0.005548  -0.000935   0.000080
    23  H   -0.000008   0.001020  -0.003253   0.063061  -0.000993  -0.003579
    24  H    0.023473   0.012943  -0.076071   0.001239  -0.000385   0.002795
    25  H    0.014646  -0.123403  -0.023659   0.066827  -0.000015   0.000087
    26  H   -0.002192   0.010381   0.011736  -0.011460   0.003453   0.000328
    27  H   -0.002291   0.039141   0.009659  -0.033146   0.431554  -0.185411
               7          8          9         10         11         12
     1  O    0.008712  -0.002453   0.000619   0.000107   0.000012  -0.000003
     2  S    0.186190   0.038241   0.004697  -0.003752  -0.002240   0.000899
     3  N    0.794825  -0.034572   0.002637   0.005639  -0.014561   0.004288
     4  C   -6.115856   0.121753   0.317041  -0.031487   0.176740  -0.052068
     5  N    1.061282  -0.293043  -0.265360  -0.045477  -0.009174  -0.001818
     6  N   -1.120375  -0.041020  -0.447053   0.376819   0.047958   0.030650
     7  C   11.464042  -0.224144  -1.006143  -0.050715  -0.118521   0.049623
     8  N   -0.224144   8.903292  -0.869813   0.025241  -0.265449   0.322182
     9  C   -1.006143  -0.869813  14.357525  -5.098315   2.738834  -3.533380
    10  C   -0.050715   0.025241  -5.098315  12.495335  -3.422834   3.024206
    11  C   -0.118521  -0.265449   2.738834  -3.422834   9.474556  -2.907498
    12  C    0.049623   0.322182  -3.533380   3.024206  -2.907498   8.801426
    13  C   -0.277608  -0.298665   2.879829  -3.389228   3.073715  -3.034192
    14  C    0.643086   0.445909  -5.876577   2.386190  -3.292934   3.116411
    15  C   -0.033047   0.009742   0.008671   0.001860  -0.000703   0.000354
    16  O   -0.036259   0.001673  -0.001096   0.000391   0.000184  -0.000082
    17  H   -0.091736   0.004276   0.002983  -0.001664  -0.000125  -0.000027
    18  H   -0.501785   0.134586   0.254074  -0.121291  -0.010501  -0.001874
    19  H   -0.019901  -0.242786   0.782255  -0.918997   0.326689  -0.182996
    20  H   -0.002034  -0.008177  -0.117721   0.532352  -0.635387   0.290244
    21  H   -0.000609  -0.003225   0.108315  -0.118698   0.366902  -0.569589
    22  H   -0.001292  -0.001435  -0.104920   0.108170  -0.237768   0.275885
    23  H    0.003722  -0.182280   0.857952  -0.089001   0.116561  -0.179639
    24  H   -0.013378   0.003828   0.000174   0.000318  -0.000118   0.000118
    25  H   -0.047384   0.000991   0.008942  -0.003784   0.001534  -0.001088
    26  H    0.012755  -0.000612   0.000228   0.000030  -0.000157   0.000081
    27  H   -0.107539   0.065683   0.020287  -0.000917   0.002450  -0.000469
              13         14         15         16         17         18
     1  O   -0.000004  -0.000110  -0.022060   0.040677   0.016331  -0.000054
     2  S   -0.000558   0.008069   0.422660  -0.119845  -0.100518  -0.000119
     3  N   -0.003063   0.028784  -0.020566  -0.067872   0.396876  -0.102795
     4  C    0.059220  -0.418152   0.023967   0.201752  -0.019174   0.158250
     5  N    0.027994   0.125328  -0.016775  -0.031160   0.021765  -0.097175
     6  N   -0.018124   0.064048  -0.001544  -0.014133   0.002107  -0.071417
     7  C   -0.277608   0.643086  -0.033047  -0.036259  -0.091736  -0.501785
     8  N   -0.298665   0.445909   0.009742   0.001673   0.004276   0.134586
     9  C    2.879829  -5.876577   0.008671  -0.001096   0.002983   0.254074
    10  C   -3.389228   2.386190   0.001860   0.000391  -0.001664  -0.121291
    11  C    3.073715  -3.292934  -0.000703   0.000184  -0.000125  -0.010501
    12  C   -3.034192   3.116411   0.000354  -0.000082  -0.000027  -0.001874
    13  C   10.083479  -3.608540  -0.000516   0.000063  -0.000097   0.074900
    14  C   -3.608540  12.863122  -0.002724  -0.001812  -0.000119  -0.027890
    15  C   -0.000516  -0.002724   4.583876  -0.008341  -0.019610   0.006052
    16  O    0.000063  -0.001812  -0.008341   9.142255   0.003940   0.001330
    17  H   -0.000097  -0.000119  -0.019610   0.003940   0.786281   0.010875
    18  H    0.074900  -0.027890   0.006052   0.001330   0.010875   1.810217
    19  H    0.131485  -0.169133   0.000315  -0.000308  -0.000196  -0.001854
    20  H   -0.213577   0.128607  -0.000030   0.000007   0.000009   0.000032
    21  H    0.351801  -0.160203   0.000013  -0.000004  -0.000007   0.000007
    22  H   -0.726501   0.632009  -0.000028   0.000024   0.000028   0.002795
    23  H    0.154553  -1.038757  -0.000306  -0.000565   0.000096  -0.055232
    24  H   -0.000017   0.000054   0.310879   0.006695   0.013629   0.002201
    25  H    0.000793  -0.005311   0.352767   0.045040   0.000502   0.003178
    26  H   -0.000035   0.000457   0.331525  -0.010486  -0.002207   0.000757
    27  H   -0.000192  -0.005717  -0.002855  -0.012661   0.001126  -0.001170
              19         20         21         22         23         24
     1  O   -0.000036   0.000001  -0.000000   0.000003  -0.000008   0.023473
     2  S    0.001229  -0.000062   0.000020  -0.000238   0.001020   0.012943
     3  N    0.003809  -0.000395   0.000103  -0.000386  -0.003253  -0.076071
     4  C   -0.018605   0.002259  -0.000674   0.005548   0.063061   0.001239
     5  N    0.034747  -0.000275  -0.000124  -0.000935  -0.000993  -0.000385
     6  N   -0.020686  -0.003219   0.001366   0.000080  -0.003579   0.002795
     7  C   -0.019901  -0.002034  -0.000609  -0.001292   0.003722  -0.013378
     8  N   -0.242786  -0.008177  -0.003225  -0.001435  -0.182280   0.003828
     9  C    0.782255  -0.117721   0.108315  -0.104920   0.857952   0.000174
    10  C   -0.918997   0.532352  -0.118698   0.108170  -0.089001   0.000318
    11  C    0.326689  -0.635387   0.366902  -0.237768   0.116561  -0.000118
    12  C   -0.182996   0.290244  -0.569589   0.275885  -0.179639   0.000118
    13  C    0.131485  -0.213577   0.351801  -0.726501   0.154553  -0.000017
    14  C   -0.169133   0.128607  -0.160203   0.632009  -1.038757   0.000054
    15  C    0.000315  -0.000030   0.000013  -0.000028  -0.000306   0.310879
    16  O   -0.000308   0.000007  -0.000004   0.000024  -0.000565   0.006695
    17  H   -0.000196   0.000009  -0.000007   0.000028   0.000096   0.013629
    18  H   -0.001854   0.000032   0.000007   0.002795  -0.055232   0.002201
    19  H    1.915400  -0.078010  -0.011610   0.010268  -0.019786   0.000017
    20  H   -0.078010   1.582637  -0.062978  -0.018223   0.010174  -0.000006
    21  H   -0.011610  -0.062978   1.588737  -0.059119  -0.015188   0.000004
    22  H    0.010268  -0.018223  -0.059119   1.615185  -0.082035  -0.000028
    23  H   -0.019786   0.010174  -0.015188  -0.082035   2.095100   0.000069
    24  H    0.000017  -0.000006   0.000004  -0.000028   0.000069   0.832407
    25  H   -0.000240   0.000055  -0.000027   0.000186  -0.000928  -0.063314
    26  H    0.000086  -0.000006   0.000002  -0.000017   0.000072  -0.094998
    27  H   -0.001159   0.000024  -0.000010  -0.000040   0.000402   0.000362
              25         26         27
     1  O    0.014646  -0.002192  -0.002291
     2  S   -0.123403   0.010381   0.039141
     3  N   -0.023659   0.011736   0.009659
     4  C    0.066827  -0.011460  -0.033146
     5  N   -0.000015   0.003453   0.431554
     6  N    0.000087   0.000328  -0.185411
     7  C   -0.047384   0.012755  -0.107539
     8  N    0.000991  -0.000612   0.065683
     9  C    0.008942   0.000228   0.020287
    10  C   -0.003784   0.000030  -0.000917
    11  C    0.001534  -0.000157   0.002450
    12  C   -0.001088   0.000081  -0.000469
    13  C    0.000793  -0.000035  -0.000192
    14  C   -0.005311   0.000457  -0.005717
    15  C    0.352767   0.331525  -0.002855
    16  O    0.045040  -0.010486  -0.012661
    17  H    0.000502  -0.002207   0.001126
    18  H    0.003178   0.000757  -0.001170
    19  H   -0.000240   0.000086  -0.001159
    20  H    0.000055  -0.000006   0.000024
    21  H   -0.000027   0.000002  -0.000010
    22  H    0.000186  -0.000017  -0.000040
    23  H   -0.000928   0.000072   0.000402
    24  H   -0.063314  -0.094998   0.000362
    25  H    0.825856  -0.082660  -0.001790
    26  H   -0.082660   0.775937  -0.000022
    27  H   -0.001790  -0.000022   0.737772
 Mulliken charges:
               1
     1  O   -1.067189
     2  S    2.628909
     3  N   -0.764463
     4  C    0.379296
     5  N   -0.367369
     6  N   -0.326448
     7  C    1.544090
     8  N   -0.609724
     9  C    0.975318
    10  C    0.339501
    11  C    0.591834
    12  C    0.548357
    13  C    0.733086
    14  C    0.165905
    15  C    0.076425
    16  O   -1.139406
    17  H   -0.025340
    18  H   -0.466098
    19  H   -0.519994
    20  H   -0.406302
    21  H   -0.415204
    22  H   -0.417216
    23  H   -0.631232
    24  H    0.037111
    25  H    0.032200
    26  H    0.057026
    27  H    0.046928
 Sum of Mulliken charges =   1.00000
 Mulliken charges with hydrogens summed into heavy atoms:
               1
     1  O   -1.067189
     2  S    2.628909
     3  N   -0.789803
     4  C    0.379296
     5  N   -0.320441
     6  N   -0.326448
     7  C    1.077992
     8  N   -0.609724
     9  C    0.975318
    10  C   -0.180494
    11  C    0.185532
    12  C    0.133153
    13  C    0.315870
    14  C   -0.465327
    15  C    0.202763
    16  O   -1.139406
 Electronic spatial extent (au):  <R**2>=           5625.6939
 Charge=              1.0000 electrons
 Dipole moment (field-independent basis, Debye):
    X=              4.7539    Y=              4.0981    Z=             -0.0338  Tot=              6.2766
 Quadrupole moment (field-independent basis, Debye-Ang):
   XX=            -64.7320   YY=            -79.8422   ZZ=            -98.7218
   XY=            -11.4115   XZ=             -7.0019   YZ=              1.2291
 Traceless Quadrupole moment (field-independent basis, Debye-Ang):
   XX=             16.3667   YY=              1.2565   ZZ=            -17.6232
   XY=            -11.4115   XZ=             -7.0019   YZ=              1.2291
 Octapole moment (field-independent basis, Debye-Ang**2):
  XXX=            217.1139  YYY=              1.6805  ZZZ=             -1.3727  XYY=             -5.7696
  XXY=             55.4020  XXZ=             50.2973  XZZ=            -38.5446  YZZ=              9.8759
  YYZ=             -0.2675  XYZ=             -7.3236
 Hexadecapole moment (field-independent basis, Debye-Ang**3):
 XXXX=          -5524.9821 YYYY=           -564.5249 ZZZZ=           -280.8565 XXXY=           -150.0378
 XXXZ=           -179.7264 YYYX=             -5.0374 YYYZ=             -4.1749 ZZZX=            -11.7765
 ZZZY=             -6.6112 XXYY=          -1001.9103 XXZZ=          -1192.5045 YYZZ=           -153.0862
 XXYZ=             72.8197 YYXZ=             -3.4761 ZZXY=            -33.1971
 N-N= 1.203519551771D+03 E-N=-5.003907680586D+03  KE= 1.110632267182D+03
 Leave Link  601 at Thu Sep 24 15:24:15 2020, MaxMem=   262144000 cpu:               2.2 elap:               0.9
 (Enter /prod/apps/gaussian/g16b1/l9999.exe)
 1\1\GINC-PIRINEUS26\SP\RMP2-FC\Aug-CC-pVDZ\C9H11N4O2S1(1+)\UBAFAR01\24
 -Sep-2020\0\\#p mp2/aug-cc-pVDZ scf=(MaxCycle=2000,NoVarAcc,NoIncFock)
  maxdisk=120GB geom=allcheck\\SM44_m2.b.9.pdb.xyz\\1,1\O,0,-4.69361261
 42,0.0218092136,-0.8829317445\S,0,-3.5436222552,0.0408420101,0.0191856
 632\N,0,-2.1797487964,0.0095079842,-1.0154081101\C,0,-0.9066374616,-0.
 2247917838,-0.5329427236\N,0,-0.5664190803,-1.2910258253,0.2414013586\
 N,0,0.7181572416,-1.3329654157,0.5300208136\C,0,0.2852446906,0.4335558
 62,-0.7632485729\N,0,1.228103475,-0.293689631,-0.1035754732\C,0,2.6394
 584228,-0.0409753792,-0.0355346921\C,0,3.5148963659,-1.1236497459,0.04
 91547091\C,0,4.8827751582,-0.870194754,0.1155432186\C,0,5.3590885164,0
 .4426191645,0.0868342438\C,0,4.4651934213,1.5109617834,-0.0023600318\C
 ,0,3.0926712524,1.277491037,-0.0591951089\C,0,-3.485555387,1.614534932
 6,0.8775252167\O,0,-3.3247392661,-1.0444640282,0.980082144\H,0,-2.2285
 731181,0.7104052851,-1.7589144557\H,0,0.5105630593,1.3063707439,-1.348
 7018581\H,0,3.1307613904,-2.1358160959,0.0524419683\H,0,5.5747466633,-
 1.7020682261,0.1789751642\H,0,6.4255322316,0.6325503737,0.1337237351\H
 ,0,4.8313344767,2.5307866442,-0.0178223164\H,0,2.3931639423,2.10341029
 89,-0.1024079319\H,0,-3.5347609695,2.4140550542,0.1392749525\H,0,-2.56
 5118625,1.6636868897,1.4574749551\H,0,-4.3555946342,1.6429470479,1.534
 8239956\H,0,-1.1793081001,-2.0128934399,0.624580881\\Version=ES64L-G16
 RevB.01\State=1-A\HF=-1112.0043807\MP2=-1114.4741631\RMSD=7.182e-09\PG
 =C01 [X(C9H11N4O2S1)]\\@


 Make no judgements where you have no compassion.
                               -- Anne McCaffrey
 Job cpu time:       0 days  1 hours 10 minutes 24.0 seconds.
 Elapsed time:       0 days  0 hours 19 minutes  6.7 seconds.
 File lengths (MBytes):  RWF=  37326 Int=      0 D2E=      0 Chk=     18 Scr=      1
 Normal termination of Gaussian 16 at Thu Sep 24 15:24:18 2020.
