 Entering Gaussian System, Link 0=g16
 Initial command:
 /prod/apps/gaussian/g16b1/l1.exe "/tmp/ubafar01/1461343/Gau-145371.inp" -scrdir="/tmp/ubafar01/1461343/"
 Entering Link 1 = /prod/apps/gaussian/g16b1/l1.exe PID=    145372.
  
 Copyright (c) 1988-2017, Gaussian, Inc.  All Rights Reserved.
  
 This is part of the Gaussian(R) 16 program.  It is based on
 the Gaussian(R) 09 system (copyright 2009, Gaussian, Inc.),
 the Gaussian(R) 03 system (copyright 2003, Gaussian, Inc.),
 the Gaussian(R) 98 system (copyright 1998, Gaussian, Inc.),
 the Gaussian(R) 94 system (copyright 1995, Gaussian, Inc.),
 the Gaussian 92(TM) system (copyright 1992, Gaussian, Inc.),
 the Gaussian 90(TM) system (copyright 1990, Gaussian, Inc.),
 the Gaussian 88(TM) system (copyright 1988, Gaussian, Inc.),
 the Gaussian 86(TM) system (copyright 1986, Carnegie Mellon
 University), and the Gaussian 82(TM) system (copyright 1983,
 Carnegie Mellon University). Gaussian is a federally registered
 trademark of Gaussian, Inc.
  
 This software contains proprietary and confidential information,
 including trade secrets, belonging to Gaussian, Inc.
  
 This software is provided under written license and may be
 used, copied, transmitted, or stored only in accord with that
 written license.
  
 The following legend is applicable only to US Government
 contracts under FAR:
  
                    RESTRICTED RIGHTS LEGEND
  
 Use, reproduction and disclosure by the US Government is
 subject to restrictions as set forth in subparagraphs (a)
 and (c) of the Commercial Computer Software - Restricted
 Rights clause in FAR 52.227-19.
  
 Gaussian, Inc.
 340 Quinnipiac St., Bldg. 40, Wallingford CT 06492
  
  
 ---------------------------------------------------------------
 Warning -- This program may not be used in any manner that
 competes with the business of Gaussian, Inc. or will provide
 assistance to any competitor of Gaussian, Inc.  The licensee
 of this program is prohibited from giving any competitor of
 Gaussian, Inc. access to this program.  By using this program,
 the user acknowledges that Gaussian, Inc. is engaged in the
 business of creating and licensing software in the field of
 computational chemistry and represents and warrants to the
 licensee that it is not a competitor of Gaussian, Inc. and that
 it will not use this program in any manner prohibited above.
 ---------------------------------------------------------------
  

 Cite this work as:
 Gaussian 16, Revision B.01,
 M. J. Frisch, G. W. Trucks, H. B. Schlegel, G. E. Scuseria, 
 M. A. Robb, J. R. Cheeseman, G. Scalmani, V. Barone, 
 G. A. Petersson, H. Nakatsuji, X. Li, M. Caricato, A. V. Marenich, 
 J. Bloino, B. G. Janesko, R. Gomperts, B. Mennucci, H. P. Hratchian, 
 J. V. Ortiz, A. F. Izmaylov, J. L. Sonnenberg, D. Williams-Young, 
 F. Ding, F. Lipparini, F. Egidi, J. Goings, B. Peng, A. Petrone, 
 T. Henderson, D. Ranasinghe, V. G. Zakrzewski, J. Gao, N. Rega, 
 G. Zheng, W. Liang, M. Hada, M. Ehara, K. Toyota, R. Fukuda, 
 J. Hasegawa, M. Ishida, T. Nakajima, Y. Honda, O. Kitao, H. Nakai, 
 T. Vreven, K. Throssell, J. A. Montgomery, Jr., J. E. Peralta, 
 F. Ogliaro, M. J. Bearpark, J. J. Heyd, E. N. Brothers, K. N. Kudin, 
 V. N. Staroverov, T. A. Keith, R. Kobayashi, J. Normand, 
 K. Raghavachari, A. P. Rendell, J. C. Burant, S. S. Iyengar, 
 J. Tomasi, M. Cossi, J. M. Millam, M. Klene, C. Adamo, R. Cammi, 
 J. W. Ochterski, R. L. Martin, K. Morokuma, O. Farkas, 
 J. B. Foresman, and D. J. Fox, Gaussian, Inc., Wallingford CT, 2016.
 
 ******************************************
 Gaussian 16:  ES64L-G16RevB.01 20-Dec-2017
                24-Sep-2020 
 ******************************************
 %nproc=4
 Will use up to    4 processors via shared memory.
 %Chk=SM44_m1.a.2.pdb.xyz.mst.a.w.chk
 %mem=16GB
 ----------------------------------------------------------------------
 #p b3lyp/6-31G(d) opt freq NoSymm scf=(MaxCycle=2000,NoVarAcc,NoIncFoc
 k) scrf=(iefpcm,read,solvent=water)
 ----------------------------------------------------------------------
 1/18=20,19=15,26=3,38=1,40=2/1,3;
 2/9=110,12=2,15=1,17=6,18=5,40=1/2;
 3/5=1,6=6,7=1,11=2,25=1,30=1,70=2203,71=1,72=1,74=-5/1,2,3;
 4//1;
 5/5=100002,7=2000,38=1,53=1/2;
 6/7=2,8=2,9=2,10=2,28=1/1;
 7/30=1/1,2,3,16;
 1/18=20,19=15,26=3/3(2);
 2/9=110,15=1/2;
 99//99;
 2/9=110,15=1/2;
 3/5=1,6=6,7=1,11=2,25=1,30=1,70=2205,71=1,72=1,74=-5/1,2,3;
 4/5=5,16=3,69=1/1;
 5/5=100002,7=2000,38=1,53=1/2;
 7/30=1/1,2,3,16;
 1/18=20,19=15,26=3/3(-5);
 2/9=110,15=1/2;
 6/7=2,8=2,9=2,10=2,19=2,28=1/1;
 99/9=1/99;
 Leave Link    1 at Thu Sep 24 14:39:06 2020, MaxMem=  2147483648 cpu:               0.1 elap:               0.0
 (Enter /prod/apps/gaussian/g16b1/l101.exe)
 -------------------
 SM44_m1.a.2.pdb.xyz
 -------------------
 Symbolic Z-matrix:
 Charge = -1 Multiplicity = 1
 O                     3.541     0.912     1.547 
 S                     3.568    -0.026     0.386 
 N                     2.228    -0.882     0.177 
 C                     1.003    -0.25      0.155 
 N                     0.757     1.105     0.099 
 N                    -0.541     1.319     0.065 
 C                    -0.234    -0.889     0.153 
 N                    -1.152     0.118     0.098 
 C                    -2.572     0.026     0.061 
 C                    -3.182    -1.088    -0.523 
 C                    -4.574    -1.173    -0.547 
 C                    -5.355    -0.148    -0.007 
 C                    -4.735     0.965     0.566 
 C                    -3.344     1.056     0.611 
 C                     3.825     1.015    -1.071 
 O                     4.691    -1.001     0.396 
 H                    -0.506    -1.929     0.219 
 H                    -2.578    -1.872    -0.969 
 H                    -5.047    -2.039    -1.001 
 H                    -6.438    -0.217    -0.032 
 H                    -5.333     1.765     0.992 
 H                    -2.855     1.908     1.069 
 H                     2.982     1.702    -1.163 
 H                     3.894     0.374    -1.953 
 H                     4.756     1.571    -0.935 
 
 ITRead=  0  0  0  0  0  0  0  0  0  0  0  0  0  0  0  0  0  0  0  0
 ITRead=  0  0  0  0  0
 MicOpt= -1 -1 -1 -1 -1 -1 -1 -1 -1 -1 -1 -1 -1 -1 -1 -1 -1 -1 -1 -1
 MicOpt= -1 -1 -1 -1 -1
 NAtoms=     25 NQM=       25 NQMF=       0 NMMI=      0 NMMIF=      0
                NMic=       0 NMicF=      0.
                    Isotopes and Nuclear Properties:
 (Nuclear quadrupole moments (NQMom) in fm**2, nuclear magnetic moments (NMagM)
  in nuclear magnetons)

  Atom         1           2           3           4           5           6           7           8           9          10
 IAtWgt=          16          32          14          12          14          14          12          14          12          12
 AtmWgt=  15.9949146  31.9720718  14.0030740  12.0000000  14.0030740  14.0030740  12.0000000  14.0030740  12.0000000  12.0000000
 NucSpn=           0           0           2           0           2           2           0           2           0           0
 AtZEff=  -0.0000000  -0.0000000  -0.0000000  -0.0000000  -0.0000000  -0.0000000  -0.0000000  -0.0000000  -0.0000000  -0.0000000
 NQMom=    0.0000000   0.0000000   2.0440000   0.0000000   2.0440000   2.0440000   0.0000000   2.0440000   0.0000000   0.0000000
 NMagM=    0.0000000   0.0000000   0.4037610   0.0000000   0.4037610   0.4037610   0.0000000   0.4037610   0.0000000   0.0000000
 AtZNuc=   8.0000000  16.0000000   7.0000000   6.0000000   7.0000000   7.0000000   6.0000000   7.0000000   6.0000000   6.0000000

  Atom        11          12          13          14          15          16          17          18          19          20
 IAtWgt=          12          12          12          12          12          16           1           1           1           1
 AtmWgt=  12.0000000  12.0000000  12.0000000  12.0000000  12.0000000  15.9949146   1.0078250   1.0078250   1.0078250   1.0078250
 NucSpn=           0           0           0           0           0           0           1           1           1           1
 AtZEff=  -0.0000000  -0.0000000  -0.0000000  -0.0000000  -0.0000000  -0.0000000  -0.0000000  -0.0000000  -0.0000000  -0.0000000
 NQMom=    0.0000000   0.0000000   0.0000000   0.0000000   0.0000000   0.0000000   0.0000000   0.0000000   0.0000000   0.0000000
 NMagM=    0.0000000   0.0000000   0.0000000   0.0000000   0.0000000   0.0000000   2.7928460   2.7928460   2.7928460   2.7928460
 AtZNuc=   6.0000000   6.0000000   6.0000000   6.0000000   6.0000000   8.0000000   1.0000000   1.0000000   1.0000000   1.0000000

  Atom        21          22          23          24          25
 IAtWgt=           1           1           1           1           1
 AtmWgt=   1.0078250   1.0078250   1.0078250   1.0078250   1.0078250
 NucSpn=           1           1           1           1           1
 AtZEff=  -0.0000000  -0.0000000  -0.0000000  -0.0000000  -0.0000000
 NQMom=    0.0000000   0.0000000   0.0000000   0.0000000   0.0000000
 NMagM=    2.7928460   2.7928460   2.7928460   2.7928460   2.7928460
 AtZNuc=   1.0000000   1.0000000   1.0000000   1.0000000   1.0000000
 Leave Link  101 at Thu Sep 24 14:39:06 2020, MaxMem=  2147483648 cpu:               1.2 elap:               0.3
 (Enter /prod/apps/gaussian/g16b1/l103.exe)

 GradGradGradGradGradGradGradGradGradGradGradGradGradGradGradGradGradGrad
 Berny optimization.
 Initialization pass.
                           ----------------------------
                           !    Initial Parameters    !
                           ! (Angstroms and Degrees)  !
 --------------------------                            --------------------------
 ! Name  Definition              Value          Derivative Info.                !
 --------------------------------------------------------------------------------
 ! R1    R(1,2)                  1.4928         estimate D2E/DX2                !
 ! R2    R(2,3)                  1.6038         estimate D2E/DX2                !
 ! R3    R(2,15)                 1.809          estimate D2E/DX2                !
 ! R4    R(2,16)                 1.4872         estimate D2E/DX2                !
 ! R5    R(3,4)                  1.3786         estimate D2E/DX2                !
 ! R6    R(4,5)                  1.3783         estimate D2E/DX2                !
 ! R7    R(4,7)                  1.3923         estimate D2E/DX2                !
 ! R8    R(5,6)                  1.316          estimate D2E/DX2                !
 ! R9    R(6,8)                  1.3479         estimate D2E/DX2                !
 ! R10   R(7,8)                  1.3637         estimate D2E/DX2                !
 ! R11   R(7,17)                 1.077          estimate D2E/DX2                !
 ! R12   R(8,9)                  1.4235         estimate D2E/DX2                !
 ! R13   R(9,10)                 1.3979         estimate D2E/DX2                !
 ! R14   R(9,14)                 1.3998         estimate D2E/DX2                !
 ! R15   R(10,11)                1.3948         estimate D2E/DX2                !
 ! R16   R(10,18)                1.0855         estimate D2E/DX2                !
 ! R17   R(11,12)                1.3972         estimate D2E/DX2                !
 ! R18   R(11,19)                1.0862         estimate D2E/DX2                !
 ! R19   R(12,13)                1.397          estimate D2E/DX2                !
 ! R20   R(12,20)                1.0855         estimate D2E/DX2                !
 ! R21   R(13,14)                1.3947         estimate D2E/DX2                !
 ! R22   R(13,21)                1.0859         estimate D2E/DX2                !
 ! R23   R(14,22)                1.0839         estimate D2E/DX2                !
 ! R24   R(15,23)                1.0914         estimate D2E/DX2                !
 ! R25   R(15,24)                1.0925         estimate D2E/DX2                !
 ! R26   R(15,25)                1.0929         estimate D2E/DX2                !
 ! A1    A(1,2,3)              114.9368         estimate D2E/DX2                !
 ! A2    A(1,2,15)             105.5081         estimate D2E/DX2                !
 ! A3    A(1,2,16)             114.8572         estimate D2E/DX2                !
 ! A4    A(3,2,15)             108.7165         estimate D2E/DX2                !
 ! A5    A(3,2,16)             106.3721         estimate D2E/DX2                !
 ! A6    A(15,2,16)            105.9856         estimate D2E/DX2                !
 ! A7    A(2,3,4)              119.9893         estimate D2E/DX2                !
 ! A8    A(3,4,5)              127.5849         estimate D2E/DX2                !
 ! A9    A(3,4,7)              125.3867         estimate D2E/DX2                !
 ! A10   A(5,4,7)              107.0117         estimate D2E/DX2                !
 ! A11   A(4,5,6)              109.6922         estimate D2E/DX2                !
 ! A12   A(5,6,8)              107.5528         estimate D2E/DX2                !
 ! A13   A(4,7,8)              105.0242         estimate D2E/DX2                !
 ! A14   A(4,7,17)             131.8727         estimate D2E/DX2                !
 ! A15   A(8,7,17)             123.0591         estimate D2E/DX2                !
 ! A16   A(6,8,7)              110.7191         estimate D2E/DX2                !
 ! A17   A(6,8,9)              120.6073         estimate D2E/DX2                !
 ! A18   A(7,8,9)              128.6701         estimate D2E/DX2                !
 ! A19   A(8,9,10)             119.8459         estimate D2E/DX2                !
 ! A20   A(8,9,14)             119.4988         estimate D2E/DX2                !
 ! A21   A(10,9,14)            120.6553         estimate D2E/DX2                !
 ! A22   A(9,10,11)            119.4223         estimate D2E/DX2                !
 ! A23   A(9,10,18)            120.2908         estimate D2E/DX2                !
 ! A24   A(11,10,18)           120.2788         estimate D2E/DX2                !
 ! A25   A(10,11,12)           120.4306         estimate D2E/DX2                !
 ! A26   A(10,11,19)           119.3651         estimate D2E/DX2                !
 ! A27   A(12,11,19)           120.2            estimate D2E/DX2                !
 ! A28   A(11,12,13)           119.6651         estimate D2E/DX2                !
 ! A29   A(11,12,20)           120.143          estimate D2E/DX2                !
 ! A30   A(13,12,20)           120.1919         estimate D2E/DX2                !
 ! A31   A(12,13,14)           120.5215         estimate D2E/DX2                !
 ! A32   A(12,13,21)           120.231          estimate D2E/DX2                !
 ! A33   A(14,13,21)           119.2439         estimate D2E/DX2                !
 ! A34   A(9,14,13)            119.2988         estimate D2E/DX2                !
 ! A35   A(9,14,22)            119.7108         estimate D2E/DX2                !
 ! A36   A(13,14,22)           120.9897         estimate D2E/DX2                !
 ! A37   A(2,15,23)            108.6868         estimate D2E/DX2                !
 ! A38   A(2,15,24)            108.7574         estimate D2E/DX2                !
 ! A39   A(2,15,25)            108.2735         estimate D2E/DX2                !
 ! A40   A(23,15,24)           110.4913         estimate D2E/DX2                !
 ! A41   A(23,15,25)           110.3804         estimate D2E/DX2                !
 ! A42   A(24,15,25)           110.1913         estimate D2E/DX2                !
 ! D1    D(1,2,3,4)             50.2255         estimate D2E/DX2                !
 ! D2    D(15,2,3,4)           -67.7348         estimate D2E/DX2                !
 ! D3    D(16,2,3,4)           178.5246         estimate D2E/DX2                !
 ! D4    D(1,2,15,23)          -61.9234         estimate D2E/DX2                !
 ! D5    D(1,2,15,24)          177.7363         estimate D2E/DX2                !
 ! D6    D(1,2,15,25)           57.9999         estimate D2E/DX2                !
 ! D7    D(3,2,15,23)           61.8555         estimate D2E/DX2                !
 ! D8    D(3,2,15,24)          -58.4848         estimate D2E/DX2                !
 ! D9    D(3,2,15,25)         -178.2213         estimate D2E/DX2                !
 ! D10   D(16,2,15,23)         175.8494         estimate D2E/DX2                !
 ! D11   D(16,2,15,24)          55.5092         estimate D2E/DX2                !
 ! D12   D(16,2,15,25)         -64.2273         estimate D2E/DX2                !
 ! D13   D(2,3,4,5)             10.3562         estimate D2E/DX2                !
 ! D14   D(2,3,4,7)           -171.3299         estimate D2E/DX2                !
 ! D15   D(3,4,5,6)            178.6218         estimate D2E/DX2                !
 ! D16   D(7,4,5,6)              0.0592         estimate D2E/DX2                !
 ! D17   D(3,4,7,8)           -178.692          estimate D2E/DX2                !
 ! D18   D(3,4,7,17)             3.7315         estimate D2E/DX2                !
 ! D19   D(5,4,7,8)             -0.0893         estimate D2E/DX2                !
 ! D20   D(5,4,7,17)          -177.6657         estimate D2E/DX2                !
 ! D21   D(4,5,6,8)             -0.0032         estimate D2E/DX2                !
 ! D22   D(5,6,8,7)             -0.0564         estimate D2E/DX2                !
 ! D23   D(5,6,8,9)           -179.4355         estimate D2E/DX2                !
 ! D24   D(4,7,8,6)              0.0908         estimate D2E/DX2                !
 ! D25   D(4,7,8,9)            179.4063         estimate D2E/DX2                !
 ! D26   D(17,7,8,6)           177.9377         estimate D2E/DX2                !
 ! D27   D(17,7,8,9)            -2.7468         estimate D2E/DX2                !
 ! D28   D(6,8,9,10)           149.6547         estimate D2E/DX2                !
 ! D29   D(6,8,9,14)           -30.3071         estimate D2E/DX2                !
 ! D30   D(7,8,9,10)           -29.6014         estimate D2E/DX2                !
 ! D31   D(7,8,9,14)           150.4367         estimate D2E/DX2                !
 ! D32   D(8,9,10,11)          179.6027         estimate D2E/DX2                !
 ! D33   D(8,9,10,18)           -1.4335         estimate D2E/DX2                !
 ! D34   D(14,9,10,11)          -0.4359         estimate D2E/DX2                !
 ! D35   D(14,9,10,18)         178.5279         estimate D2E/DX2                !
 ! D36   D(8,9,14,13)          179.6546         estimate D2E/DX2                !
 ! D37   D(8,9,14,22)           -0.6584         estimate D2E/DX2                !
 ! D38   D(10,9,14,13)          -0.3069         estimate D2E/DX2                !
 ! D39   D(10,9,14,22)         179.3801         estimate D2E/DX2                !
 ! D40   D(9,10,11,12)           0.7494         estimate D2E/DX2                !
 ! D41   D(9,10,11,19)        -179.9996         estimate D2E/DX2                !
 ! D42   D(18,10,11,12)       -178.2144         estimate D2E/DX2                !
 ! D43   D(18,10,11,19)          1.0365         estimate D2E/DX2                !
 ! D44   D(10,11,12,13)         -0.318          estimate D2E/DX2                !
 ! D45   D(10,11,12,20)        179.7371         estimate D2E/DX2                !
 ! D46   D(19,11,12,13)       -179.5627         estimate D2E/DX2                !
 ! D47   D(19,11,12,20)          0.4924         estimate D2E/DX2                !
 ! D48   D(11,12,13,14)         -0.4379         estimate D2E/DX2                !
 ! D49   D(11,12,13,21)       -179.7485         estimate D2E/DX2                !
 ! D50   D(20,12,13,14)        179.5071         estimate D2E/DX2                !
 ! D51   D(20,12,13,21)          0.1965         estimate D2E/DX2                !
 ! D52   D(12,13,14,9)           0.7457         estimate D2E/DX2                !
 ! D53   D(12,13,14,22)       -178.9373         estimate D2E/DX2                !
 ! D54   D(21,13,14,9)        -179.937          estimate D2E/DX2                !
 ! D55   D(21,13,14,22)          0.3801         estimate D2E/DX2                !
 --------------------------------------------------------------------------------
 Trust Radius=3.00D-01 FncErr=1.00D-07 GrdErr=1.00D-06 EigMax=2.50D+02 EigMin=1.00D-04
 Number of steps in this run=    133 maximum allowed number of steps=    150.
 GradGradGradGradGradGradGradGradGradGradGradGradGradGradGradGradGradGrad

 Leave Link  103 at Thu Sep 24 14:39:06 2020, MaxMem=  2147483648 cpu:               0.1 elap:               0.0
 (Enter /prod/apps/gaussian/g16b1/l202.exe)
                          Input orientation:                          
 ---------------------------------------------------------------------
 Center     Atomic      Atomic             Coordinates (Angstroms)
 Number     Number       Type             X           Y           Z
 ---------------------------------------------------------------------
      1          8           0        3.541000    0.912000    1.547000
      2         16           0        3.568000   -0.026000    0.386000
      3          7           0        2.228000   -0.882000    0.177000
      4          6           0        1.003000   -0.250000    0.155000
      5          7           0        0.757000    1.105000    0.099000
      6          7           0       -0.541000    1.319000    0.065000
      7          6           0       -0.234000   -0.889000    0.153000
      8          7           0       -1.152000    0.118000    0.098000
      9          6           0       -2.572000    0.026000    0.061000
     10          6           0       -3.182000   -1.088000   -0.523000
     11          6           0       -4.574000   -1.173000   -0.547000
     12          6           0       -5.355000   -0.148000   -0.007000
     13          6           0       -4.735000    0.965000    0.566000
     14          6           0       -3.344000    1.056000    0.611000
     15          6           0        3.825000    1.015000   -1.071000
     16          8           0        4.691000   -1.001000    0.396000
     17          1           0       -0.506000   -1.929000    0.219000
     18          1           0       -2.578000   -1.872000   -0.969000
     19          1           0       -5.047000   -2.039000   -1.001000
     20          1           0       -6.438000   -0.217000   -0.032000
     21          1           0       -5.333000    1.765000    0.992000
     22          1           0       -2.855000    1.908000    1.069000
     23          1           0        2.982000    1.702000   -1.163000
     24          1           0        3.894000    0.374000   -1.953000
     25          1           0        4.756000    1.571000   -0.935000
 ---------------------------------------------------------------------
                    Distance matrix (angstroms):
                    1          2          3          4          5
     1  O    0.000000
     2  S    1.492814   0.000000
     3  N    2.611380   1.603751   0.000000
     4  C    3.119191   2.585104   1.378598   0.000000
     5  N    3.143980   3.043559   2.473478   1.378288   0.000000
     6  N    4.361731   4.335429   3.538970   2.203133   1.315962
     7  C    4.408794   3.905670   2.462127   1.392298   2.227338
     8  N    4.975368   4.730970   3.525711   2.186938   2.149058
     9  C    6.353106   6.148815   4.886504   3.586870   3.499704
    10  C    7.313250   6.893230   5.458987   4.321591   4.551028
    11  C    8.636277   8.275159   6.846609   5.696285   5.833195
    12  C    9.092708   8.932484   7.620663   6.360881   6.240015
    13  C    8.334107   8.363868   7.214298   5.879608   5.513597
    14  C    6.949824   6.999792   5.915352   4.561796   4.133128
    15  C    2.635373   1.809027   2.776062   3.326708   3.284756
    16  O    2.511348   1.487230   2.475579   3.771396   4.472114
    17  H    5.119871   4.499642   2.927922   2.258366   3.288575
    18  H    7.177957   6.558739   5.038953   4.088743   4.596235
    19  H    9.431567   8.955119   7.460024   6.413997   6.691872
    20  H   10.166038  10.016548   8.693990   7.443423   7.316616
    21  H    8.932162   9.099600   8.052301   6.701171   6.190408
    22  H    6.490710   6.742535   5.866571   4.514036   3.825213
    23  H    2.877617   2.393487   3.006854   3.076340   2.626724
    24  H    3.558659   2.395245   2.981609   3.631931   3.819140
    25  H    2.840921   2.388890   3.693851   4.311514   4.156719
                    6          7          8          9         10
     6  N    0.000000
     7  C    2.230977   0.000000
     8  N    1.347891   1.363744   0.000000
     9  C    2.407660   2.512356   1.423458   0.000000
    10  C    3.621364   3.031053   2.441511   1.397910   0.000000
    11  C    4.780136   4.405253   3.713865   2.411487   1.394799
    12  C    5.033077   5.176806   4.212718   2.789263   2.423177
    13  C    4.238626   4.885375   3.711377   2.411496   2.795092
    14  C    2.867768   3.696605   2.438827   1.399780   2.430830
    15  C    4.521600   4.647459   5.190539   6.571237   7.336277
    16  O    5.732869   4.932263   5.956645   7.342896   7.926933
    17  H    3.251837   1.077005   2.149922   2.848744   2.901520
    18  H    3.924412   2.778400   2.670593   2.159477   1.085536
    19  H    5.719839   5.081258   4.586009   3.393773   2.147350
    20  H    6.094531   6.243030   5.298200   3.874746   3.406062
    21  H    4.901174   5.809255   4.581769   3.393229   3.880932
    22  H    2.590277   3.941054   2.654647   2.153620   3.408432
    23  H    3.750494   4.334489   4.603166   5.929087   6.796219
    24  H    4.963323   4.803206   5.452912   6.781331   7.365604
    25  H    5.396454   5.668813   6.171123   7.555040   8.381639
                   11         12         13         14         15
    11  C    0.000000
    12  C    1.397206   0.000000
    13  C    2.415726   1.396960   0.000000
    14  C    2.796838   2.423976   1.394700   0.000000
    15  C    8.695121   9.314347   8.715266   7.363787   0.000000
    16  O    9.314454  10.090200   9.630344   8.296909   2.639375
    17  H    4.207959   5.170671   5.136155   4.137407   5.393403
    18  H    2.156548   3.407249   3.880392   3.414138   7.024499
    19  H    1.086186   2.158421   3.402477   3.883011   9.383187
    20  H    2.157234   1.085484   2.157530   3.406877  10.388769
    21  H    3.402418   2.158253   1.085855   2.145685   9.417401
    22  H    3.880590   3.410999   2.162558   1.083877   7.071029
    23  H    8.107911   8.617680   7.942588   6.601717   1.091367
    24  H    8.722217   9.465907   9.008567   7.708947   1.092504
    25  H    9.732881  10.297984   9.628049   8.262284   1.092883
                   16         17         18         19         20
    16  O    0.000000
    17  H    5.282170   0.000000
    18  H    7.447162   2.389095   0.000000
    19  H    9.892305   4.703316   2.474848   0.000000
    20  H   11.164788   6.179205   4.303091   2.488680   0.000000
    21  H   10.415688   6.127242   4.966217   4.303982   2.489563
    22  H    8.115253   4.578523   4.303321   4.966747   4.308795
    23  H    3.557720   5.221133   6.612466   8.859242   9.679779
    24  H    2.836130   5.420461   6.920951   9.309691  10.525671
    25  H    2.896717   6.424201   8.102034  10.446783  11.371807
                   21         22         23         24         25
    21  H    0.000000
    22  H    2.483317   0.000000
    23  H    8.589949   6.252586   0.000000
    24  H    9.784960   7.552128   1.794276   0.000000
    25  H   10.273212   7.877621   1.793383   1.792255   0.000000
 Symmetry turned off by external request.
 Stoichiometry    C9H9N4O2S(1-)
 Framework group  C1[X(C9H9N4O2S)]
 Deg. of freedom    69
 Full point group                 C1      NOp   1
 Rotational constants (GHZ):           1.9500072           0.1888685           0.1806648
 Leave Link  202 at Thu Sep 24 14:39:06 2020, MaxMem=  2147483648 cpu:               0.1 elap:               0.0
 (Enter /prod/apps/gaussian/g16b1/l301.exe)
 Standard basis: 6-31G(d) (6D, 7F)
 Ernie: Thresh=  0.10000D-02 Tol=  0.10000D-05 Strict=F.
   262 basis functions,   508 primitive gaussians,   262 cartesian basis functions
    62 alpha electrons       62 beta electrons
       nuclear repulsion energy      1161.9330909127 Hartrees.
 IExCor=  402 DFT=T Ex+Corr=B3LYP ExCW=0 ScaHFX=  0.200000
 ScaDFX=  0.800000  0.720000  1.000000  0.810000 ScalE2=  1.000000  1.000000
 IRadAn=      5 IRanWt=     -1 IRanGd=            0 ICorTp=0 IEmpDi=  4
 NAtoms=   25 NActive=   25 NUniq=   25 SFac= 1.00D+00 NAtFMM=   60 NAOKFM=F Big=F
 Integral buffers will be    131072 words long.
 Raffenetti 2 integral format.
 Two-electron integral symmetry is turned off.
 Using the following non-standard input for PCM:
 MSTModel=DFT cav MSTcharged
 --- end of non-standard input.
 MST model for solvation energy: B3LYP parametrization.
 MST cavity parameters:
 ISph   IAn     Re0     Alpha   Atom Type   QCorr
 ------------------------------------------------
   1      8     1.40     1.25      O          F
   2     16     1.75     1.25      S          F
   3      7     1.40     1.15      N          T
   4      6     1.50     1.25      C          F
   5      7     1.40     1.25      N          F
   6      7     1.40     1.25      N          F
   7      6     1.50     1.25      CH         F
   8      7     1.40     1.25      N          F
   9      6     1.50     1.25      C          F
  10      6     1.50     1.25      CH         F
  11      6     1.50     1.25      CH         F
  12      6     1.50     1.25      CH         F
  13      6     1.50     1.25      CH         F
  14      6     1.50     1.25      CH         F
  15      6     1.50     1.25      CH3        F
  16      8     1.40     1.25      O          F
  17      1     1.20     1.25      CH         F
  18      1     1.20     1.25      CH         F
  19      1     1.20     1.25      CH         F
  20      1     1.20     1.25      CH         F
  21      1     1.20     1.25      CH         F
  22      1     1.20     1.25      CH         F
  23      1     1.20     1.25      CH3        F
  24      1     1.20     1.25      CH3        F
  25      1     1.20     1.25      CH3        F
 ------------------------------------------------------------------------------
 Polarizable Continuum Model (PCM)
 =================================
 Model                : PCM.
 Atomic radii         : MST.
 Polarization charges : Total charges.
 Charge compensation  : None.
 Solution method      : On-the-fly selection.
 Cavity type          : Scaled VdW (van der Waals Surface) (Alpha=1.250).
 Cavity algorithm     : GePol (No added spheres)
                        Default sphere list used, NSphG=   25.
                        Lebedev-Laikov grids with approx.  5.0 points / Ang**2.
                        Smoothing algorithm: York/Karplus (Gamma=1.0000).
                        Polarization charges: spherical gaussians, with
                                              point-specific exponents (IZeta= 3).
                        Self-potential: point-specific (ISelfS= 7).
                        Self-field    : sphere-specific E.n sum rule (ISelfD= 2).
 1st derivatives      : Analytical E(r).r(x)/FMM algorithm (CHGder, D1EAlg=3).
                        Cavity 1st derivative terms included.
 Solvent              : Water, Eps=  78.355300 Eps(inf)=   1.777849
 ------------------------------------------------------------------------------
 GePol: Number of generator spheres                  =      25
 GePol: Total number of spheres                      =      25
 GePol: Number of exposed spheres                    =      25 (100.00%)
 GePol: Number of points                             =    2024
 GePol: Average weight of points                     =       0.13
 GePol: Minimum weight of points                     =   0.27D-09
 GePol: Maximum weight of points                     =    0.22001
 GePol: Number of points with low weight             =     122
 GePol: Fraction of low-weight points (<1% of avg)   =       6.03%
 GePol: Cavity surface area                          =    271.089 Ang**2
 GePol: Cavity volume                                =    250.856 Ang**3
 PCM non-electrostatic energy =         0.0038188356 Hartrees.
 Nuclear repulsion after PCM non-electrostatic terms =     1161.9369097483 Hartrees.
 Leave Link  301 at Thu Sep 24 14:39:06 2020, MaxMem=  2147483648 cpu:               0.3 elap:               0.1
 (Enter /prod/apps/gaussian/g16b1/l302.exe)
 NPDir=0 NMtPBC=     1 NCelOv=     1 NCel=       1 NClECP=     1 NCelD=      1
         NCelK=      1 NCelE2=     1 NClLst=     1 CellRange=     0.0.
 One-electron integrals computed using PRISM.
 NBasis=   262 RedAO= T EigKep=  4.71D-04  NBF=   262
 NBsUse=   262 1.00D-06 EigRej= -1.00D+00 NBFU=   262
 Precomputing XC quadrature grid using
 IXCGrd= 4 IRadAn=           5 IRanWt=          -1 IRanGd=           0 AccXCQ= 0.00D+00.
 Generated NRdTot=       0 NPtTot=           0 NUsed=           0 NTot=          32
 NSgBfM=   260   260   260   260   260 MxSgAt=    25 MxSgA2=    25.
 Leave Link  302 at Thu Sep 24 14:39:06 2020, MaxMem=  2147483648 cpu:               1.1 elap:               0.3
 (Enter /prod/apps/gaussian/g16b1/l303.exe)
 DipDrv:  MaxL=1.
 Leave Link  303 at Thu Sep 24 14:39:06 2020, MaxMem=  2147483648 cpu:               0.1 elap:               0.1
 (Enter /prod/apps/gaussian/g16b1/l401.exe)
 ExpMin= 1.17D-01 ExpMax= 2.19D+04 ExpMxC= 3.30D+03 IAcc=3 IRadAn=         5 AccDes= 0.00D+00
 Harris functional with IExCor=  402 and IRadAn=       5 diagonalized for initial guess.
 HarFok:  IExCor=  402 AccDes= 0.00D+00 IRadAn=         5 IDoV= 1 UseB2=F ITyADJ=14
 ICtDFT=  3500011 ScaDFX=  1.000000  1.000000  1.000000  1.000000
 FoFCou: FMM=F IPFlag=           0 FMFlag=      100000 FMFlg1=           0
         NFxFlg=           0 DoJE=T BraDBF=F KetDBF=T FulRan=T
         wScrn=  0.000000 ICntrl=       500 IOpCl=  0 I1Cent=   200000004 NGrid=           0
         NMat0=    1 NMatS0=      1 NMatT0=    0 NMatD0=    1 NMtDS0=    0 NMtDT0=    0
 Symmetry not used in FoFCou.
 Harris En= -1116.11081603670    
 JPrj=0 DoOrth=F DoCkMO=F.
 Leave Link  401 at Thu Sep 24 14:39:08 2020, MaxMem=  2147483648 cpu:               5.5 elap:               1.4
 (Enter /prod/apps/gaussian/g16b1/l502.exe)
 Keep R1 ints in memory in canonical form, NReq=602618509.
 FoFCou: FMM=F IPFlag=           0 FMFlag=           0 FMFlg1=           0
         NFxFlg=           0 DoJE=F BraDBF=F KetDBF=F FulRan=T
         wScrn=  0.000000 ICntrl=       600 IOpCl=  0 I1Cent=           0 NGrid=           0
         NMat0=    1 NMatS0=  34453 NMatT0=    0 NMatD0=    1 NMtDS0=    0 NMtDT0=    0
 Symmetry not used in FoFCou.
 Two-electron integral symmetry not used.
 Closed shell SCF:
 Using DIIS extrapolation, IDIIS=  1040.
 NGot=  2147483648 LenX=  1553820706 LenY=  1553751621
 Requested convergence on RMS density matrix=1.00D-08 within2000 cycles.
 Requested convergence on MAX density matrix=1.00D-06.
 Requested convergence on             energy=1.00D-06.
 No special actions if energy rises.

 Cycle   1  Pass 1  IDiag  1:
 Inv3:  Mode=1 IEnd=    12289728.
 Iteration    1 A*A^-1 deviation from unit magnitude is 3.11D-15 for    721.
 Iteration    1 A*A^-1 deviation from orthogonality  is 2.00D-15 for   1278    475.
 Iteration    1 A^-1*A deviation from unit magnitude is 3.55D-15 for    971.
 Iteration    1 A^-1*A deviation from orthogonality  is 2.22D-15 for   1961   1943.
 E= -1115.55011118734    
 DIIS: error= 3.51D-02 at cycle   1 NSaved=   1.
 NSaved= 1 IEnMin= 1 EnMin= -1115.55011118734     IErMin= 1 ErrMin= 3.51D-02
 ErrMax= 3.51D-02  0.00D+00 EMaxC= 1.00D-01 BMatC= 6.07D-01 BMatP= 6.07D-01
 IDIUse=3 WtCom= 6.49D-01 WtEn= 3.51D-01
 Coeff-Com:  0.100D+01
 Coeff-En:   0.100D+01
 Coeff:      0.100D+01
 Gap=     0.222 Goal=   None    Shift=    0.000
 GapD=    0.222 DampG=1.000 DampE=0.500 DampFc=0.5000 IDamp=-1.
 Damping current iteration by 5.00D-01
 RMSDP=7.01D-03 MaxDP=5.02D-01              OVMax= 2.17D-01

 Cycle   2  Pass 1  IDiag  1:
 E= -1115.71687160421     Delta-E=       -0.166760416870 Rises=F Damp=T
 DIIS: error= 1.11D-02 at cycle   2 NSaved=   2.
 NSaved= 2 IEnMin= 2 EnMin= -1115.71687160421     IErMin= 2 ErrMin= 1.11D-02
 ErrMax= 1.11D-02  0.00D+00 EMaxC= 1.00D-01 BMatC= 6.55D-02 BMatP= 6.07D-01
 IDIUse=3 WtCom= 8.89D-01 WtEn= 1.11D-01
 Coeff-Com:  0.185D+00 0.815D+00
 Coeff-En:   0.302D+00 0.698D+00
 Coeff:      0.198D+00 0.802D+00
 Gap=     0.199 Goal=   None    Shift=    0.000
 RMSDP=1.77D-03 MaxDP=1.07D-01 DE=-1.67D-01 OVMax= 1.68D-01

 Cycle   3  Pass 1  IDiag  1:
 E= -1116.03761735210     Delta-E=       -0.320745747887 Rises=F Damp=F
 DIIS: error= 9.29D-03 at cycle   3 NSaved=   3.
 NSaved= 3 IEnMin= 3 EnMin= -1116.03761735210     IErMin= 3 ErrMin= 9.29D-03
 ErrMax= 9.29D-03  0.00D+00 EMaxC= 1.00D-01 BMatC= 2.96D-02 BMatP= 6.55D-02
 IDIUse=3 WtCom= 9.07D-01 WtEn= 9.29D-02
 Coeff-Com:  0.487D-01 0.403D+00 0.549D+00
 Coeff-En:   0.000D+00 0.000D+00 0.100D+01
 Coeff:      0.442D-01 0.365D+00 0.591D+00
 Gap=     0.159 Goal=   None    Shift=    0.000
 RMSDP=8.95D-04 MaxDP=2.81D-02 DE=-3.21D-01 OVMax= 4.27D-02

 Cycle   4  Pass 1  IDiag  1:
 E= -1116.05971228189     Delta-E=       -0.022094929795 Rises=F Damp=F
 DIIS: error= 3.91D-03 at cycle   4 NSaved=   4.
 NSaved= 4 IEnMin= 4 EnMin= -1116.05971228189     IErMin= 4 ErrMin= 3.91D-03
 ErrMax= 3.91D-03  0.00D+00 EMaxC= 1.00D-01 BMatC= 5.76D-03 BMatP= 2.96D-02
 IDIUse=3 WtCom= 9.61D-01 WtEn= 3.91D-02
 Coeff-Com:  0.420D-02 0.846D-01 0.323D+00 0.588D+00
 Coeff-En:   0.000D+00 0.000D+00 0.151D+00 0.849D+00
 Coeff:      0.404D-02 0.813D-01 0.317D+00 0.598D+00
 Gap=     0.157 Goal=   None    Shift=    0.000
 RMSDP=3.30D-04 MaxDP=1.29D-02 DE=-2.21D-02 OVMax= 2.09D-02

 Cycle   5  Pass 1  IDiag  1:
 E= -1116.06418227703     Delta-E=       -0.004469995133 Rises=F Damp=F
 DIIS: error= 1.19D-03 at cycle   5 NSaved=   5.
 NSaved= 5 IEnMin= 5 EnMin= -1116.06418227703     IErMin= 5 ErrMin= 1.19D-03
 ErrMax= 1.19D-03  0.00D+00 EMaxC= 1.00D-01 BMatC= 6.90D-04 BMatP= 5.76D-03
 IDIUse=3 WtCom= 9.88D-01 WtEn= 1.19D-02
 Coeff-Com: -0.969D-03 0.187D-01 0.141D+00 0.353D+00 0.489D+00
 Coeff-En:   0.000D+00 0.000D+00 0.000D+00 0.384D-01 0.962D+00
 Coeff:     -0.957D-03 0.185D-01 0.139D+00 0.349D+00 0.494D+00
 Gap=     0.158 Goal=   None    Shift=    0.000
 RMSDP=1.14D-04 MaxDP=6.62D-03 DE=-4.47D-03 OVMax= 7.19D-03

 Cycle   6  Pass 1  IDiag  1:
 E= -1116.06472777096     Delta-E=       -0.000545493936 Rises=F Damp=F
 DIIS: error= 3.23D-04 at cycle   6 NSaved=   6.
 NSaved= 6 IEnMin= 6 EnMin= -1116.06472777096     IErMin= 6 ErrMin= 3.23D-04
 ErrMax= 3.23D-04  0.00D+00 EMaxC= 1.00D-01 BMatC= 5.19D-05 BMatP= 6.90D-04
 IDIUse=3 WtCom= 9.97D-01 WtEn= 3.23D-03
 Coeff-Com: -0.969D-03 0.290D-02 0.502D-01 0.144D+00 0.281D+00 0.522D+00
 Coeff-En:   0.000D+00 0.000D+00 0.000D+00 0.000D+00 0.000D+00 0.100D+01
 Coeff:     -0.966D-03 0.289D-02 0.500D-01 0.144D+00 0.280D+00 0.524D+00
 Gap=     0.158 Goal=   None    Shift=    0.000
 RMSDP=2.98D-05 MaxDP=1.50D-03 DE=-5.45D-04 OVMax= 1.56D-03

 Cycle   7  Pass 1  IDiag  1:
 E= -1116.06476912110     Delta-E=       -0.000041350134 Rises=F Damp=F
 DIIS: error= 6.56D-05 at cycle   7 NSaved=   7.
 NSaved= 7 IEnMin= 7 EnMin= -1116.06476912110     IErMin= 7 ErrMin= 6.56D-05
 ErrMax= 6.56D-05  0.00D+00 EMaxC= 1.00D-01 BMatC= 3.15D-06 BMatP= 5.19D-05
 IDIUse=1 WtCom= 1.00D+00 WtEn= 0.00D+00
 Coeff-Com: -0.419D-03 0.201D-03 0.153D-01 0.473D-01 0.108D+00 0.278D+00
 Coeff-Com:  0.552D+00
 Coeff:     -0.419D-03 0.201D-03 0.153D-01 0.473D-01 0.108D+00 0.278D+00
 Coeff:      0.552D+00
 Gap=     0.158 Goal=   None    Shift=    0.000
 RMSDP=8.49D-06 MaxDP=3.89D-04 DE=-4.14D-05 OVMax= 5.59D-04

 Cycle   8  Pass 1  IDiag  1:
 E= -1116.06477149258     Delta-E=       -0.000002371489 Rises=F Damp=F
 DIIS: error= 2.47D-05 at cycle   8 NSaved=   8.
 NSaved= 8 IEnMin= 8 EnMin= -1116.06477149258     IErMin= 8 ErrMin= 2.47D-05
 ErrMax= 2.47D-05  0.00D+00 EMaxC= 1.00D-01 BMatC= 4.85D-07 BMatP= 3.15D-06
 IDIUse=1 WtCom= 1.00D+00 WtEn= 0.00D+00
 Coeff-Com: -0.167D-03-0.264D-03 0.428D-02 0.143D-01 0.381D-01 0.117D+00
 Coeff-Com:  0.334D+00 0.493D+00
 Coeff:     -0.167D-03-0.264D-03 0.428D-02 0.143D-01 0.381D-01 0.117D+00
 Coeff:      0.334D+00 0.493D+00
 Gap=     0.158 Goal=   None    Shift=    0.000
 RMSDP=3.26D-06 MaxDP=1.39D-04 DE=-2.37D-06 OVMax= 2.73D-04

 Cycle   9  Pass 1  IDiag  1:
 E= -1116.06477190885     Delta-E=       -0.000000416262 Rises=F Damp=F
 DIIS: error= 6.01D-06 at cycle   9 NSaved=   9.
 NSaved= 9 IEnMin= 9 EnMin= -1116.06477190885     IErMin= 9 ErrMin= 6.01D-06
 ErrMax= 6.01D-06  0.00D+00 EMaxC= 1.00D-01 BMatC= 2.83D-08 BMatP= 4.85D-07
 IDIUse=1 WtCom= 1.00D+00 WtEn= 0.00D+00
 Coeff-Com: -0.158D-04-0.134D-03-0.179D-03-0.164D-03 0.231D-02 0.149D-01
 Coeff-Com:  0.768D-01 0.235D+00 0.671D+00
 Coeff:     -0.158D-04-0.134D-03-0.179D-03-0.164D-03 0.231D-02 0.149D-01
 Coeff:      0.768D-01 0.235D+00 0.671D+00
 Gap=     0.158 Goal=   None    Shift=    0.000
 RMSDP=7.67D-07 MaxDP=2.91D-05 DE=-4.16D-07 OVMax= 6.40D-05

 Cycle  10  Pass 1  IDiag  1:
 E= -1116.06477193247     Delta-E=       -0.000000023625 Rises=F Damp=F
 DIIS: error= 1.73D-06 at cycle  10 NSaved=  10.
 NSaved=10 IEnMin=10 EnMin= -1116.06477193247     IErMin=10 ErrMin= 1.73D-06
 ErrMax= 1.73D-06  0.00D+00 EMaxC= 1.00D-01 BMatC= 2.92D-09 BMatP= 2.83D-08
 IDIUse=1 WtCom= 1.00D+00 WtEn= 0.00D+00
 Coeff-Com: -0.258D-05-0.580D-04-0.283D-03-0.721D-03-0.387D-03 0.286D-02
 Coeff-Com:  0.278D-01 0.106D+00 0.371D+00 0.493D+00
 Coeff:     -0.258D-05-0.580D-04-0.283D-03-0.721D-03-0.387D-03 0.286D-02
 Coeff:      0.278D-01 0.106D+00 0.371D+00 0.493D+00
 Gap=     0.158 Goal=   None    Shift=    0.000
 RMSDP=2.59D-07 MaxDP=1.20D-05 DE=-2.36D-08 OVMax= 2.13D-05

 Cycle  11  Pass 1  IDiag  1:
 E= -1116.06477193485     Delta-E=       -0.000000002378 Rises=F Damp=F
 DIIS: error= 6.72D-07 at cycle  11 NSaved=  11.
 NSaved=11 IEnMin=11 EnMin= -1116.06477193485     IErMin=11 ErrMin= 6.72D-07
 ErrMax= 6.72D-07  0.00D+00 EMaxC= 1.00D-01 BMatC= 3.56D-10 BMatP= 2.92D-09
 IDIUse=1 WtCom= 1.00D+00 WtEn= 0.00D+00
 Coeff-Com:  0.362D-06-0.672D-05-0.131D-03-0.389D-03-0.640D-03-0.114D-02
 Coeff-Com:  0.295D-02 0.194D-01 0.934D-01 0.278D+00 0.609D+00
 Coeff:      0.362D-06-0.672D-05-0.131D-03-0.389D-03-0.640D-03-0.114D-02
 Coeff:      0.295D-02 0.194D-01 0.934D-01 0.278D+00 0.609D+00
 Gap=     0.158 Goal=   None    Shift=    0.000
 RMSDP=8.73D-08 MaxDP=4.81D-06 DE=-2.38D-09 OVMax= 7.46D-06

 Cycle  12  Pass 1  IDiag  1:
 E= -1116.06477193512     Delta-E=       -0.000000000268 Rises=F Damp=F
 DIIS: error= 1.99D-07 at cycle  12 NSaved=  12.
 NSaved=12 IEnMin=12 EnMin= -1116.06477193512     IErMin=12 ErrMin= 1.99D-07
 ErrMax= 1.99D-07  0.00D+00 EMaxC= 1.00D-01 BMatC= 4.29D-11 BMatP= 3.56D-10
 IDIUse=1 WtCom= 1.00D+00 WtEn= 0.00D+00
 Coeff-Com:  0.259D-06 0.187D-05-0.520D-04-0.160D-03-0.338D-03-0.966D-03
 Coeff-Com: -0.932D-03 0.623D-03 0.172D-01 0.111D+00 0.345D+00 0.529D+00
 Coeff:      0.259D-06 0.187D-05-0.520D-04-0.160D-03-0.338D-03-0.966D-03
 Coeff:     -0.932D-03 0.623D-03 0.172D-01 0.111D+00 0.345D+00 0.529D+00
 Gap=     0.158 Goal=   None    Shift=    0.000
 RMSDP=2.80D-08 MaxDP=1.25D-06 DE=-2.68D-10 OVMax= 2.57D-06

 Cycle  13  Pass 1  IDiag  1:
 E= -1116.06477193515     Delta-E=       -0.000000000036 Rises=F Damp=F
 DIIS: error= 6.89D-08 at cycle  13 NSaved=  13.
 NSaved=13 IEnMin=13 EnMin= -1116.06477193515     IErMin=13 ErrMin= 6.89D-08
 ErrMax= 6.89D-08  0.00D+00 EMaxC= 1.00D-01 BMatC= 1.92D-12 BMatP= 4.29D-11
 IDIUse=1 WtCom= 1.00D+00 WtEn= 0.00D+00
 Coeff-Com: -0.151D-07 0.147D-05-0.111D-04-0.337D-04-0.920D-04-0.334D-03
 Coeff-Com: -0.708D-03-0.177D-02-0.209D-02 0.210D-01 0.900D-01 0.226D+00
 Coeff-Com:  0.668D+00
 Coeff:     -0.151D-07 0.147D-05-0.111D-04-0.337D-04-0.920D-04-0.334D-03
 Coeff:     -0.708D-03-0.177D-02-0.209D-02 0.210D-01 0.900D-01 0.226D+00
 Coeff:      0.668D+00
 Gap=     0.158 Goal=   None    Shift=    0.000
 RMSDP=7.80D-09 MaxDP=2.23D-07 DE=-3.59D-11 OVMax= 6.47D-07

 Error on total polarization charges =  0.02252
 SCF Done:  E(RB3LYP) =  -1116.06477194     A.U. after   13 cycles
            NFock= 13  Conv=0.78D-08     -V/T= 2.0074
 KE= 1.107920728850D+03 PE=-4.960160743369D+03 EE= 1.574238332836D+03
 Leave Link  502 at Thu Sep 24 14:39:51 2020, MaxMem=  2147483648 cpu:             142.9 elap:              43.6
 (Enter /prod/apps/gaussian/g16b1/l601.exe)
 Copying SCF densities to generalized density rwf, IOpCl= 0 IROHF=0.

 **********************************************************************

            Population analysis using the SCF Density.

 **********************************************************************

 Alpha  occ. eigenvalues --  -89.08058 -19.10977 -19.10932 -14.42845 -14.38427
 Alpha  occ. eigenvalues --  -14.34504 -14.29416 -10.24493 -10.23953 -10.21293
 Alpha  occ. eigenvalues --  -10.20167 -10.19990 -10.19866 -10.19815 -10.19546
 Alpha  occ. eigenvalues --  -10.19495  -8.10494  -6.06984  -6.06899  -6.06840
 Alpha  occ. eigenvalues --   -1.09029  -1.07110  -0.95806  -0.92572  -0.88028
 Alpha  occ. eigenvalues --   -0.85186  -0.78391  -0.75576  -0.75193  -0.73320
 Alpha  occ. eigenvalues --   -0.65154  -0.63951  -0.60872  -0.58804  -0.56507
 Alpha  occ. eigenvalues --   -0.53334  -0.50056  -0.48333  -0.47503  -0.46897
 Alpha  occ. eigenvalues --   -0.45583  -0.44532  -0.44488  -0.43160  -0.42685
 Alpha  occ. eigenvalues --   -0.41476  -0.40494  -0.38089  -0.36783  -0.35729
 Alpha  occ. eigenvalues --   -0.34459  -0.33042  -0.31335  -0.30902  -0.29057
 Alpha  occ. eigenvalues --   -0.28203  -0.27941  -0.27136  -0.26089  -0.24938
 Alpha  occ. eigenvalues --   -0.24256  -0.19051
 Alpha virt. eigenvalues --   -0.03248  -0.01072   0.02385   0.06620   0.09461
 Alpha virt. eigenvalues --    0.11002   0.12009   0.12673   0.13540   0.14084
 Alpha virt. eigenvalues --    0.15277   0.15351   0.15997   0.16753   0.18480
 Alpha virt. eigenvalues --    0.18693   0.19052   0.19199   0.21063   0.23427
 Alpha virt. eigenvalues --    0.24058   0.26859   0.29781   0.31008   0.32738
 Alpha virt. eigenvalues --    0.33541   0.34330   0.38389   0.39291   0.41500
 Alpha virt. eigenvalues --    0.43944   0.45081   0.48086   0.48707   0.51289
 Alpha virt. eigenvalues --    0.51495   0.52803   0.53382   0.54650   0.55331
 Alpha virt. eigenvalues --    0.56334   0.57370   0.57833   0.58497   0.58964
 Alpha virt. eigenvalues --    0.59136   0.59991   0.60858   0.61284   0.61874
 Alpha virt. eigenvalues --    0.63465   0.63897   0.65979   0.67872   0.69415
 Alpha virt. eigenvalues --    0.72407   0.73502   0.74893   0.76019   0.77004
 Alpha virt. eigenvalues --    0.78749   0.80098   0.80992   0.82658   0.82971
 Alpha virt. eigenvalues --    0.83934   0.84022   0.84382   0.84852   0.86976
 Alpha virt. eigenvalues --    0.89377   0.90652   0.90793   0.90965   0.92094
 Alpha virt. eigenvalues --    0.93295   0.94470   0.94892   0.95994   0.98261
 Alpha virt. eigenvalues --    0.99792   1.00200   1.01856   1.03109   1.03732
 Alpha virt. eigenvalues --    1.05194   1.06007   1.06873   1.08854   1.11027
 Alpha virt. eigenvalues --    1.14323   1.14631   1.15903   1.17203   1.19032
 Alpha virt. eigenvalues --    1.20241   1.22000   1.23708   1.25698   1.26369
 Alpha virt. eigenvalues --    1.31207   1.33062   1.35692   1.38606   1.41961
 Alpha virt. eigenvalues --    1.42172   1.44037   1.44102   1.46190   1.46683
 Alpha virt. eigenvalues --    1.48289   1.50292   1.54547   1.55104   1.58967
 Alpha virt. eigenvalues --    1.60472   1.64309   1.69376   1.70238   1.71559
 Alpha virt. eigenvalues --    1.76889   1.79396   1.80288   1.81153   1.81886
 Alpha virt. eigenvalues --    1.82667   1.83668   1.85164   1.87186   1.88933
 Alpha virt. eigenvalues --    1.89474   1.91750   1.93036   1.94754   1.96703
 Alpha virt. eigenvalues --    1.98329   2.00455   2.02437   2.05542   2.06800
 Alpha virt. eigenvalues --    2.07887   2.10989   2.11498   2.13152   2.13338
 Alpha virt. eigenvalues --    2.15416   2.16713   2.17431   2.20648   2.21069
 Alpha virt. eigenvalues --    2.24448   2.25114   2.25691   2.27590   2.29291
 Alpha virt. eigenvalues --    2.30372   2.32407   2.32531   2.34498   2.35965
 Alpha virt. eigenvalues --    2.48436   2.49117   2.51998   2.55439   2.58024
 Alpha virt. eigenvalues --    2.59131   2.61511   2.64451   2.66883   2.68104
 Alpha virt. eigenvalues --    2.71197   2.72850   2.73439   2.74199   2.79886
 Alpha virt. eigenvalues --    2.82446   2.83989   2.88076   2.89893   3.03931
 Alpha virt. eigenvalues --    3.07615   3.15931   3.26015   3.42143   3.63711
 Alpha virt. eigenvalues --    3.81832   3.90579   3.99180   4.03591   4.07613
 Alpha virt. eigenvalues --    4.09958   4.10866   4.14252   4.21241   4.22859
 Alpha virt. eigenvalues --    4.25320   4.32062   4.40048   4.48377   4.71272
          Condensed to atoms (all electrons):
               1          2          3          4          5          6
     1  O    8.413804   0.408036  -0.058856  -0.001490   0.000559   0.000004
     2  S    0.408036  13.651254   0.272787  -0.020405   0.002167   0.000210
     3  N   -0.058856   0.272787   7.463315   0.360807  -0.075851   0.006046
     4  C   -0.001490  -0.020405   0.360807   4.543880   0.331848  -0.076288
     5  N    0.000559   0.002167  -0.075851   0.331848   7.060749   0.257022
     6  N    0.000004   0.000210   0.006046  -0.076288   0.257022   6.850243
     7  C   -0.000154  -0.001001  -0.065892   0.504640  -0.077684  -0.098304
     8  N    0.000003   0.000378   0.002145  -0.026646  -0.093521   0.222007
     9  C    0.000000  -0.000014  -0.000089   0.003948   0.006575  -0.040950
    10  C   -0.000000   0.000000   0.000001   0.000769  -0.000292   0.002546
    11  C   -0.000000  -0.000000   0.000000  -0.000006   0.000002  -0.000076
    12  C    0.000000  -0.000000  -0.000000   0.000000  -0.000000   0.000019
    13  C    0.000000  -0.000000  -0.000000   0.000005  -0.000004   0.000264
    14  C   -0.000000  -0.000000   0.000000  -0.000409   0.000295   0.001040
    15  C   -0.062610   0.179328  -0.064898  -0.003542  -0.008042   0.000152
    16  O   -0.052560   0.447149  -0.068240   0.001144  -0.000047   0.000000
    17  H    0.000001  -0.000101   0.000020  -0.029109   0.005193   0.004072
    18  H   -0.000000  -0.000000  -0.000004  -0.000009  -0.000003  -0.000101
    19  H   -0.000000   0.000000   0.000000   0.000000  -0.000000   0.000001
    20  H    0.000000  -0.000000  -0.000000  -0.000000   0.000000   0.000000
    21  H    0.000000   0.000000   0.000000  -0.000000   0.000000  -0.000008
    22  H    0.000000  -0.000000  -0.000000   0.000025  -0.000346   0.015260
    23  H   -0.001078  -0.004033  -0.002973  -0.000970   0.015795  -0.000576
    24  H    0.002176  -0.006575   0.000147   0.000065   0.000196  -0.000003
    25  H   -0.000007  -0.005204   0.002539   0.000160   0.000095   0.000001
               7          8          9         10         11         12
     1  O   -0.000154   0.000003   0.000000  -0.000000  -0.000000   0.000000
     2  S   -0.001001   0.000378  -0.000014   0.000000  -0.000000  -0.000000
     3  N   -0.065892   0.002145  -0.000089   0.000001   0.000000  -0.000000
     4  C    0.504640  -0.026646   0.003948   0.000769  -0.000006   0.000000
     5  N   -0.077684  -0.093521   0.006575  -0.000292   0.000002  -0.000000
     6  N   -0.098304   0.222007  -0.040950   0.002546  -0.000076   0.000019
     7  C    5.114954   0.311955  -0.030238  -0.006336   0.000004   0.000017
     8  N    0.311955   6.879877   0.207556  -0.052115   0.004807   0.000305
     9  C   -0.030238   0.207556   4.632820   0.526345  -0.010727  -0.038115
    10  C   -0.006336  -0.052115   0.526345   4.998879   0.523220  -0.040954
    11  C    0.000004   0.004807  -0.010727   0.523220   4.874827   0.542788
    12  C    0.000017   0.000305  -0.038115  -0.040954   0.542788   4.878563
    13  C   -0.000098   0.004686  -0.011593  -0.041451  -0.025656   0.538907
    14  C    0.006876  -0.062147   0.510064  -0.070008  -0.041481  -0.039374
    15  C   -0.000368  -0.000016   0.000000   0.000000   0.000000   0.000000
    16  O   -0.000054   0.000000  -0.000000   0.000000  -0.000000  -0.000000
    17  H    0.363242  -0.038281  -0.000886   0.001887   0.000126  -0.000001
    18  H    0.006229  -0.008724  -0.038920   0.354032  -0.036671   0.004379
    19  H   -0.000004  -0.000107   0.003441  -0.037678   0.362922  -0.040063
    20  H   -0.000000   0.000003   0.000482   0.004792  -0.041451   0.365463
    21  H    0.000001  -0.000103   0.003545   0.000685   0.004483  -0.040495
    22  H    0.000175  -0.012598  -0.040817   0.005679   0.000087   0.004611
    23  H    0.000178   0.000048  -0.000001   0.000000  -0.000000  -0.000000
    24  H   -0.000012   0.000001  -0.000000   0.000000  -0.000000  -0.000000
    25  H    0.000005   0.000000   0.000000  -0.000000  -0.000000   0.000000
              13         14         15         16         17         18
     1  O    0.000000  -0.000000  -0.062610  -0.052560   0.000001  -0.000000
     2  S   -0.000000  -0.000000   0.179328   0.447149  -0.000101  -0.000000
     3  N   -0.000000   0.000000  -0.064898  -0.068240   0.000020  -0.000004
     4  C    0.000005  -0.000409  -0.003542   0.001144  -0.029109  -0.000009
     5  N   -0.000004   0.000295  -0.008042  -0.000047   0.005193  -0.000003
     6  N    0.000264   0.001040   0.000152   0.000000   0.004072  -0.000101
     7  C   -0.000098   0.006876  -0.000368  -0.000054   0.363242   0.006229
     8  N    0.004686  -0.062147  -0.000016   0.000000  -0.038281  -0.008724
     9  C   -0.011593   0.510064   0.000000  -0.000000  -0.000886  -0.038920
    10  C   -0.041451  -0.070008   0.000000   0.000000   0.001887   0.354032
    11  C   -0.025656  -0.041481   0.000000  -0.000000   0.000126  -0.036671
    12  C    0.538907  -0.039374   0.000000  -0.000000  -0.000001   0.004379
    13  C    4.887644   0.515849  -0.000000  -0.000000  -0.000006   0.000193
    14  C    0.515849   5.009148   0.000000  -0.000000  -0.000091   0.005522
    15  C   -0.000000   0.000000   5.654180  -0.064361   0.000002   0.000000
    16  O   -0.000000  -0.000000  -0.064361   8.373737  -0.000001  -0.000000
    17  H   -0.000006  -0.000091   0.000002  -0.000001   0.499912   0.001339
    18  H    0.000193   0.005522   0.000000  -0.000000   0.001339   0.547385
    19  H    0.004447   0.000708  -0.000000  -0.000000  -0.000001  -0.005209
    20  H   -0.041597   0.004611   0.000000  -0.000000  -0.000000  -0.000145
    21  H    0.363198  -0.037810  -0.000000   0.000000   0.000000   0.000013
    22  H   -0.038571   0.356190   0.000000  -0.000000  -0.000011  -0.000127
    23  H    0.000000   0.000000   0.325917   0.002116  -0.000003   0.000000
    24  H    0.000000   0.000000   0.339944  -0.000020  -0.000000   0.000000
    25  H   -0.000000  -0.000000   0.340794  -0.000675  -0.000000  -0.000000
              19         20         21         22         23         24
     1  O   -0.000000   0.000000   0.000000   0.000000  -0.001078   0.002176
     2  S    0.000000  -0.000000   0.000000  -0.000000  -0.004033  -0.006575
     3  N    0.000000  -0.000000   0.000000  -0.000000  -0.002973   0.000147
     4  C    0.000000  -0.000000  -0.000000   0.000025  -0.000970   0.000065
     5  N   -0.000000   0.000000   0.000000  -0.000346   0.015795   0.000196
     6  N    0.000001   0.000000  -0.000008   0.015260  -0.000576  -0.000003
     7  C   -0.000004  -0.000000   0.000001   0.000175   0.000178  -0.000012
     8  N   -0.000107   0.000003  -0.000103  -0.012598   0.000048   0.000001
     9  C    0.003441   0.000482   0.003545  -0.040817  -0.000001  -0.000000
    10  C   -0.037678   0.004792   0.000685   0.005679   0.000000   0.000000
    11  C    0.362922  -0.041451   0.004483   0.000087  -0.000000  -0.000000
    12  C   -0.040063   0.365463  -0.040495   0.004611  -0.000000  -0.000000
    13  C    0.004447  -0.041597   0.363198  -0.038571   0.000000   0.000000
    14  C    0.000708   0.004611  -0.037810   0.356190   0.000000   0.000000
    15  C   -0.000000   0.000000  -0.000000   0.000000   0.325917   0.339944
    16  O   -0.000000  -0.000000   0.000000  -0.000000   0.002116  -0.000020
    17  H   -0.000001  -0.000000   0.000000  -0.000011  -0.000003  -0.000000
    18  H   -0.005209  -0.000145   0.000013  -0.000127   0.000000   0.000000
    19  H    0.555893  -0.005069  -0.000166   0.000013   0.000000   0.000000
    20  H   -0.005069   0.561546  -0.005087  -0.000137  -0.000000   0.000000
    21  H   -0.000166  -0.005087   0.556732  -0.005270  -0.000000   0.000000
    22  H    0.000013  -0.000137  -0.005270   0.548447  -0.000000   0.000000
    23  H    0.000000  -0.000000  -0.000000  -0.000000   0.509225  -0.022794
    24  H    0.000000   0.000000   0.000000   0.000000  -0.022794   0.515558
    25  H    0.000000  -0.000000  -0.000000  -0.000000  -0.022159  -0.022941
              25
     1  O   -0.000007
     2  S   -0.005204
     3  N    0.002539
     4  C    0.000160
     5  N    0.000095
     6  N    0.000001
     7  C    0.000005
     8  N    0.000000
     9  C    0.000000
    10  C   -0.000000
    11  C   -0.000000
    12  C    0.000000
    13  C   -0.000000
    14  C   -0.000000
    15  C    0.340794
    16  O   -0.000675
    17  H   -0.000000
    18  H   -0.000000
    19  H    0.000000
    20  H   -0.000000
    21  H   -0.000000
    22  H   -0.000000
    23  H   -0.022159
    24  H   -0.022941
    25  H    0.509900
 Mulliken charges:
               1
     1  O   -0.647827
     2  S    1.076024
     3  N   -0.771004
     4  C    0.411581
     5  N   -0.424707
     6  N   -0.142584
     7  C   -0.028131
     8  N   -0.339511
     9  C    0.317574
    10  C   -0.170001
    11  C   -0.157197
    12  C   -0.136051
    13  C   -0.156216
    14  C   -0.158981
    15  C   -0.636483
    16  O   -0.638190
    17  H    0.192694
    18  H    0.170819
    19  H    0.160872
    20  H    0.156588
    21  H    0.160281
    22  H    0.167393
    23  H    0.201307
    24  H    0.194258
    25  H    0.197492
 Sum of Mulliken charges =  -1.00000
 Mulliken charges with hydrogens summed into heavy atoms:
               1
     1  O   -0.647827
     2  S    1.076024
     3  N   -0.771004
     4  C    0.411581
     5  N   -0.424707
     6  N   -0.142584
     7  C    0.164562
     8  N   -0.339511
     9  C    0.317574
    10  C    0.000818
    11  C    0.003676
    12  C    0.020538
    13  C    0.004065
    14  C    0.008412
    15  C   -0.043425
    16  O   -0.638190
 Electronic spatial extent (au):  <R**2>=           5738.3097
 Charge=             -1.0000 electrons
 Dipole moment (field-independent basis, Debye):
    X=            -18.0229    Y=             -0.9436    Z=             -5.3031  Tot=             18.8106
 Quadrupole moment (field-independent basis, Debye-Ang):
   XX=           -143.2068   YY=           -106.5946   ZZ=           -105.8539
   XY=             13.5506   XZ=            -20.2681   YZ=              0.0643
 Traceless Quadrupole moment (field-independent basis, Debye-Ang):
   XX=            -24.6550   YY=             11.9572   ZZ=             12.6979
   XY=             13.5506   XZ=            -20.2681   YZ=              0.0643
 Octapole moment (field-independent basis, Debye-Ang**2):
  XXX=           -331.3641  YYY=            -29.6749  ZZZ=            -50.3823  XYY=            -34.5924
  XXY=             45.5716  XXZ=            -88.7204  XZZ=             -7.6270  YZZ=            -10.7782
  YYZ=            -19.0671  XYZ=            -25.6944
 Hexadecapole moment (field-independent basis, Debye-Ang**3):
 XXXX=          -7137.1182 YYYY=           -592.8967 ZZZZ=           -335.0860 XXXY=            218.8510
 XXXZ=           -388.1072 YYYX=            -21.6171 YYYZ=            -30.0522 ZZZX=           -120.4942
 ZZZY=            -47.0469 XXYY=          -1235.4499 XXZZ=          -1258.1256 YYZZ=           -152.9805
 XXYZ=             17.4441 YYXZ=            -47.1336 ZZXY=            -36.1654
 N-N= 1.161936909748D+03 E-N=-4.960160741947D+03  KE= 1.107920728850D+03
 No NMR shielding tensors so no spin-rotation constants.
 Leave Link  601 at Thu Sep 24 14:39:52 2020, MaxMem=  2147483648 cpu:               0.4 elap:               0.1
 (Enter /prod/apps/gaussian/g16b1/l701.exe)
 ... and contract with generalized density number  0.
 Compute integral first derivatives.
 D1PCM: PCM CHGder 1st derivatives, ID1Alg=3 FixD1E=F DoIter=F DoCFld=F I1PDM=0.
 GePol: Maximum number of non-zero 1st derivatives   =     179
 Leave Link  701 at Thu Sep 24 14:39:53 2020, MaxMem=  2147483648 cpu:               6.1 elap:               1.5
 (Enter /prod/apps/gaussian/g16b1/l702.exe)
 L702 exits ... SP integral derivatives will be done elsewhere.
 Leave Link  702 at Thu Sep 24 14:39:53 2020, MaxMem=  2147483648 cpu:               0.1 elap:               0.0
 (Enter /prod/apps/gaussian/g16b1/l703.exe)
 Integral derivatives from FoFJK, PRISM(SPDF).
 Compute integral first derivatives, UseDBF=F ICtDFT=           0.
 Calling FoFJK, ICntrl=      2127 FMM=F ISym2X=0 I1Cent= 0 IOpClX= 0 NMat=1 NMatS=1 NMatT=0.
 FoFJK:  IHMeth= 1 ICntrl=    2127 DoSepK=F KAlg= 0 I1Cent=           0 FoldK=F
 IRaf=         0 NMat=       1 IRICut=       1 DoRegI=T DoRafI=F ISym2E= 0 IDoP0=0 IntGTp=1.
 FoFCou: FMM=F IPFlag=           0 FMFlag=      100000 FMFlg1=         800
         NFxFlg=           0 DoJE=F BraDBF=F KetDBF=F FulRan=T
         wScrn=  0.000000 ICntrl=      2127 IOpCl=  0 I1Cent=           0 NGrid=           0
         NMat0=    1 NMatS0=      1 NMatT0=    0 NMatD0=    1 NMtDS0=    0 NMtDT0=    0
 Symmetry not used in FoFCou.
 Leave Link  703 at Thu Sep 24 14:40:03 2020, MaxMem=  2147483648 cpu:              39.0 elap:               9.8
 (Enter /prod/apps/gaussian/g16b1/l716.exe)
 Dipole        =-7.09076657D+00-3.71238787D-01-2.08640496D+00
 -------------------------------------------------------------------
 Center     Atomic                   Forces (Hartrees/Bohr)
 Number     Number              X              Y              Z
 -------------------------------------------------------------------
      1        8          -0.000012113   -0.000778244   -0.000907392
      2       16          -0.001466022    0.000516851   -0.000680513
      3        7           0.000659006    0.001369927    0.000199364
      4        6          -0.000227673   -0.000172679    0.000025346
      5        7           0.000607671   -0.000981061   -0.000012277
      6        7          -0.000804373   -0.000401142    0.000170798
      7        6           0.000706523   -0.000347050   -0.000033690
      8        7          -0.000124182    0.000195055    0.000050014
      9        6          -0.000226596    0.001254288    0.000663391
     10        6           0.000411510   -0.000992423   -0.000562419
     11        6          -0.000842609   -0.000019838   -0.000099682
     12        6           0.000081063   -0.000662954   -0.000239560
     13        6           0.000862363    0.000738715    0.000318598
     14        6           0.000001593   -0.000499579   -0.000327762
     15        6          -0.000104386   -0.000093472   -0.000320412
     16        8          -0.000538268    0.000411930    0.000005962
     17        1          -0.000159441    0.001160645   -0.000361454
     18        1          -0.000119940    0.000942249    0.000876178
     19        1           0.000636028    0.001001347    0.000568354
     20        1           0.000713837    0.000069590   -0.000000744
     21        1           0.000422191   -0.000693356   -0.000333852
     22        1          -0.000101889   -0.001083057   -0.000723047
     23        1           0.000618660   -0.001001802    0.000436336
     24        1          -0.000126688    0.000708704    0.001267152
     25        1          -0.000866265   -0.000642643    0.000021312
 -------------------------------------------------------------------
 Cartesian Forces:  Max     0.001466022 RMS     0.000626471
 Leave Link  716 at Thu Sep 24 14:40:03 2020, MaxMem=  2147483648 cpu:               0.1 elap:               0.0
 (Enter /prod/apps/gaussian/g16b1/l103.exe)

 GradGradGradGradGradGradGradGradGradGradGradGradGradGradGradGradGradGrad
 Berny optimization.
 FormGI is forming the generalized inverse of G from B-inverse, IUseBI=4.
 Internal  Forces:  Max     0.002586540 RMS     0.000687650
 Search for a local minimum.
 Step number   1 out of a maximum of  133
 All quantities printed in internal units (Hartrees-Bohrs-Radians)
 RMS Force = .68765D-03 SwitMx=.10000D-02 MixMth= 2
 Mixed Optimization -- En-DIIS/RFO-DIIS
 Second derivative matrix not updated -- first step.
 ITU=  0
     Eigenvalues ---    0.00251   0.01381   0.01821   0.01887   0.01975
     Eigenvalues ---    0.02080   0.02107   0.02121   0.02125   0.02127
     Eigenvalues ---    0.02131   0.02133   0.02138   0.02141   0.02145
     Eigenvalues ---    0.02146   0.02185   0.02569   0.05866   0.05924
     Eigenvalues ---    0.08522   0.09548   0.15978   0.15997   0.15999
     Eigenvalues ---    0.15999   0.16000   0.16000   0.16000   0.16000
     Eigenvalues ---    0.16000   0.16662   0.21180   0.21999   0.22000
     Eigenvalues ---    0.23490   0.23787   0.24990   0.24998   0.25000
     Eigenvalues ---    0.25000   0.25000   0.25000   0.25418   0.34482
     Eigenvalues ---    0.34525   0.34655   0.35257   0.35296   0.35334
     Eigenvalues ---    0.35340   0.35530   0.36359   0.41869   0.41944
     Eigenvalues ---    0.42030   0.44068   0.45643   0.45833   0.46039
     Eigenvalues ---    0.46209   0.46502   0.49359   0.50499   0.50820
     Eigenvalues ---    0.53648   0.60559   0.79106   0.81066
 RFO step:  Lambda=-2.44265765D-04 EMin= 2.50890443D-03
 Linear search not attempted -- first point.
 Iteration  1 RMS(Cart)=  0.03288462 RMS(Int)=  0.00026847
 Iteration  2 RMS(Cart)=  0.00041650 RMS(Int)=  0.00000371
 Iteration  3 RMS(Cart)=  0.00000006 RMS(Int)=  0.00000371
 ITry= 1 IFail=0 DXMaxC= 8.96D-02 DCOld= 1.00D+10 DXMaxT= 3.00D-01 DXLimC= 3.00D+00 Rises=F
 Variable       Old X    -DE/DX   Delta X   Delta X   Delta X     New X
                                 (Linear)    (Quad)   (Total)
    R1        2.82101  -0.00119   0.00000  -0.00151  -0.00151   2.81950
    R2        3.03065  -0.00258   0.00000  -0.00510  -0.00510   3.02555
    R3        3.41857  -0.00180   0.00000  -0.00708  -0.00708   3.41149
    R4        2.81046  -0.00068   0.00000  -0.00083  -0.00083   2.80962
    R5        2.60517  -0.00185   0.00000  -0.00375  -0.00375   2.60142
    R6        2.60459  -0.00088   0.00000  -0.00176  -0.00176   2.60283
    R7        2.63106  -0.00144   0.00000  -0.00313  -0.00313   2.62793
    R8        2.48681  -0.00004   0.00000   0.00000  -0.00000   2.48681
    R9        2.54715  -0.00095   0.00000  -0.00168  -0.00168   2.54547
   R10        2.57710  -0.00083   0.00000  -0.00166  -0.00166   2.57545
   R11        2.03524  -0.00110   0.00000  -0.00303  -0.00303   2.03222
   R12        2.68995  -0.00184   0.00000  -0.00438  -0.00438   2.68556
   R13        2.64167  -0.00078   0.00000  -0.00174  -0.00174   2.63993
   R14        2.64520  -0.00224   0.00000  -0.00503  -0.00503   2.64017
   R15        2.63579  -0.00048   0.00000  -0.00094  -0.00094   2.63485
   R16        2.05137  -0.00111   0.00000  -0.00313  -0.00313   2.04823
   R17        2.64034  -0.00094   0.00000  -0.00190  -0.00190   2.63844
   R18        2.05259  -0.00131   0.00000  -0.00372  -0.00372   2.04887
   R19        2.63987  -0.00010   0.00000  -0.00017  -0.00018   2.63970
   R20        2.05127  -0.00072   0.00000  -0.00203  -0.00203   2.04924
   R21        2.63560  -0.00142   0.00000  -0.00314  -0.00314   2.63246
   R22        2.05197  -0.00087   0.00000  -0.00248  -0.00248   2.04949
   R23        2.04823  -0.00120   0.00000  -0.00338  -0.00338   2.04485
   R24        2.06238  -0.00115   0.00000  -0.00330  -0.00330   2.05908
   R25        2.06453  -0.00145   0.00000  -0.00419  -0.00419   2.06034
   R26        2.06525  -0.00106   0.00000  -0.00308  -0.00308   2.06217
    A1        2.00603   0.00014   0.00000  -0.00045  -0.00045   2.00558
    A2        1.84146   0.00006   0.00000  -0.00032  -0.00033   1.84114
    A3        2.00464  -0.00006   0.00000   0.00070   0.00070   2.00533
    A4        1.89746  -0.00072   0.00000  -0.00336  -0.00336   1.89410
    A5        1.85654   0.00016   0.00000   0.00113   0.00114   1.85768
    A6        1.84980   0.00039   0.00000   0.00221   0.00221   1.85201
    A7        2.09421  -0.00259   0.00000  -0.01034  -0.01034   2.08387
    A8        2.22678  -0.00099   0.00000  -0.00393  -0.00393   2.22284
    A9        2.18841   0.00063   0.00000   0.00254   0.00253   2.19095
   A10        1.86771   0.00035   0.00000   0.00129   0.00128   1.86899
   A11        1.91449  -0.00006   0.00000   0.00004   0.00004   1.91453
   A12        1.87715  -0.00060   0.00000  -0.00210  -0.00210   1.87505
   A13        1.83302  -0.00027   0.00000  -0.00145  -0.00146   1.83156
   A14        2.30161   0.00060   0.00000   0.00371   0.00370   2.30532
   A15        2.14779  -0.00033   0.00000  -0.00210  -0.00210   2.14569
   A16        1.93241   0.00057   0.00000   0.00222   0.00222   1.93463
   A17        2.10499  -0.00009   0.00000  -0.00035  -0.00035   2.10464
   A18        2.24572  -0.00048   0.00000  -0.00189  -0.00189   2.24383
   A19        2.09171  -0.00048   0.00000  -0.00178  -0.00178   2.08992
   A20        2.08565  -0.00020   0.00000  -0.00067  -0.00067   2.08498
   A21        2.10583   0.00068   0.00000   0.00245   0.00245   2.10828
   A22        2.08431  -0.00042   0.00000  -0.00174  -0.00174   2.08257
   A23        2.09947  -0.00039   0.00000  -0.00285  -0.00285   2.09662
   A24        2.09926   0.00082   0.00000   0.00469   0.00468   2.10394
   A25        2.10191  -0.00021   0.00000  -0.00043  -0.00043   2.10148
   A26        2.08331   0.00003   0.00000  -0.00023  -0.00023   2.08309
   A27        2.09789   0.00018   0.00000   0.00069   0.00069   2.09857
   A28        2.08855   0.00004   0.00000   0.00061   0.00061   2.08916
   A29        2.09689  -0.00001   0.00000  -0.00022  -0.00022   2.09667
   A30        2.09774  -0.00004   0.00000  -0.00039  -0.00039   2.09735
   A31        2.10350  -0.00017   0.00000  -0.00082  -0.00082   2.10268
   A32        2.09843   0.00001   0.00000  -0.00005  -0.00005   2.09838
   A33        2.08120   0.00016   0.00000   0.00086   0.00086   2.08206
   A34        2.08216   0.00008   0.00000  -0.00008  -0.00008   2.08208
   A35        2.08935  -0.00054   0.00000  -0.00311  -0.00311   2.08623
   A36        2.11167   0.00047   0.00000   0.00320   0.00320   2.11487
   A37        1.89694  -0.00069   0.00000  -0.00461  -0.00461   1.89233
   A38        1.89818  -0.00012   0.00000  -0.00081  -0.00081   1.89737
   A39        1.88973  -0.00011   0.00000  -0.00036  -0.00036   1.88937
   A40        1.92844   0.00031   0.00000   0.00125   0.00124   1.92968
   A41        1.92650   0.00040   0.00000   0.00259   0.00258   1.92909
   A42        1.92320   0.00018   0.00000   0.00176   0.00176   1.92496
    D1        0.87660   0.00011   0.00000   0.00911   0.00911   0.88571
    D2       -1.18220   0.00045   0.00000   0.01217   0.01217  -1.17002
    D3        3.11584   0.00026   0.00000   0.01064   0.01064   3.12648
    D4       -1.08077   0.00006   0.00000  -0.00581  -0.00581  -1.08657
    D5        3.10208   0.00016   0.00000  -0.00411  -0.00411   3.09797
    D6        1.01229   0.00008   0.00000  -0.00556  -0.00556   1.00673
    D7        1.07958  -0.00014   0.00000  -0.00842  -0.00841   1.07117
    D8       -1.02075  -0.00004   0.00000  -0.00672  -0.00672  -1.02747
    D9       -3.11055  -0.00013   0.00000  -0.00817  -0.00816  -3.11871
   D10        3.06915  -0.00009   0.00000  -0.00757  -0.00757   3.06158
   D11        0.96882   0.00001   0.00000  -0.00588  -0.00588   0.96294
   D12       -1.12098  -0.00008   0.00000  -0.00732  -0.00732  -1.12830
   D13        0.18075   0.00016   0.00000   0.00843   0.00843   0.18918
   D14       -2.99027   0.00007   0.00000   0.00312   0.00312  -2.98715
   D15        3.11754  -0.00008   0.00000  -0.00454  -0.00453   3.11300
   D16        0.00103  -0.00000   0.00000  -0.00005  -0.00005   0.00099
   D17       -3.11876   0.00006   0.00000   0.00256   0.00258  -3.11619
   D18        0.06513  -0.00002   0.00000  -0.00168  -0.00168   0.06344
   D19       -0.00156  -0.00004   0.00000  -0.00193  -0.00192  -0.00348
   D20       -3.10085  -0.00013   0.00000  -0.00617  -0.00618  -3.10704
   D21       -0.00006   0.00004   0.00000   0.00205   0.00205   0.00199
   D22       -0.00099  -0.00007   0.00000  -0.00337  -0.00338  -0.00436
   D23       -3.13174  -0.00003   0.00000  -0.00185  -0.00185  -3.13359
   D24        0.00158   0.00007   0.00000   0.00326   0.00327   0.00485
   D25        3.13123   0.00003   0.00000   0.00160   0.00160   3.13283
   D26        3.10560   0.00017   0.00000   0.00721   0.00721   3.11281
   D27       -0.04794   0.00014   0.00000   0.00555   0.00554  -0.04240
   D28        2.61197   0.00045   0.00000   0.03201   0.03201   2.64398
   D29       -0.52896   0.00042   0.00000   0.03064   0.03064  -0.49832
   D30       -0.51664   0.00048   0.00000   0.03381   0.03381  -0.48283
   D31        2.62562   0.00046   0.00000   0.03244   0.03244   2.65805
   D32        3.13466  -0.00001   0.00000  -0.00035  -0.00035   3.13431
   D33       -0.02502   0.00014   0.00000   0.00630   0.00629  -0.01873
   D34       -0.00761   0.00002   0.00000   0.00104   0.00104  -0.00657
   D35        3.11590   0.00017   0.00000   0.00769   0.00768   3.12357
   D36        3.13556  -0.00000   0.00000  -0.00015  -0.00016   3.13541
   D37       -0.01149   0.00007   0.00000   0.00322   0.00322  -0.00827
   D38       -0.00536  -0.00003   0.00000  -0.00154  -0.00154  -0.00690
   D39        3.13077   0.00004   0.00000   0.00184   0.00183   3.13261
   D40        0.01308  -0.00001   0.00000  -0.00020  -0.00020   0.01288
   D41       -3.14159   0.00004   0.00000   0.00217   0.00217  -3.13941
   D42       -3.11043  -0.00014   0.00000  -0.00677  -0.00678  -3.11721
   D43        0.01809  -0.00009   0.00000  -0.00440  -0.00441   0.01368
   D44       -0.00555  -0.00000   0.00000  -0.00015  -0.00015  -0.00570
   D45        3.13700  -0.00000   0.00000  -0.00012  -0.00012   3.13688
   D46       -3.13396  -0.00005   0.00000  -0.00253  -0.00254  -3.13650
   D47        0.00859  -0.00005   0.00000  -0.00251  -0.00251   0.00608
   D48       -0.00764  -0.00001   0.00000  -0.00035  -0.00035  -0.00800
   D49       -3.13720   0.00000   0.00000   0.00021   0.00021  -3.13699
   D50        3.13299  -0.00001   0.00000  -0.00038  -0.00038   3.13261
   D51        0.00343   0.00000   0.00000   0.00018   0.00018   0.00361
   D52        0.01301   0.00002   0.00000   0.00118   0.00118   0.01420
   D53       -3.12304  -0.00005   0.00000  -0.00222  -0.00222  -3.12527
   D54       -3.14049   0.00001   0.00000   0.00062   0.00062  -3.13987
   D55        0.00663  -0.00006   0.00000  -0.00278  -0.00279   0.00385
         Item               Value     Threshold  Converged?
 Maximum Force            0.002587     0.000450     NO 
 RMS     Force            0.000688     0.000300     NO 
 Maximum Displacement     0.089589     0.001800     NO 
 RMS     Displacement     0.032877     0.001200     NO 
 Predicted change in Energy=-1.228577D-04
 Lowest energy point so far.  Saving SCF results.
 GradGradGradGradGradGradGradGradGradGradGradGradGradGradGradGradGradGrad

 Leave Link  103 at Thu Sep 24 14:40:03 2020, MaxMem=  2147483648 cpu:               0.1 elap:               0.1
 (Enter /prod/apps/gaussian/g16b1/l202.exe)
                          Input orientation:                          
 ---------------------------------------------------------------------
 Center     Atomic      Atomic             Coordinates (Angstroms)
 Number     Number       Type             X           Y           Z
 ---------------------------------------------------------------------
      1          8           0        3.526578    0.868465    1.562218
      2         16           0        3.558477   -0.040033    0.379118
      3          7           0        2.228228   -0.902328    0.154940
      4          6           0        1.006063   -0.268869    0.144611
      5          7           0        0.767798    1.087093    0.103265
      6          7           0       -0.528968    1.308739    0.071246
      7          6           0       -0.232193   -0.901736    0.135496
      8          7           0       -1.143840    0.110473    0.093770
      9          6           0       -2.561941    0.024584    0.058453
     10          6           0       -3.174495   -1.099480   -0.500867
     11          6           0       -4.566375   -1.178571   -0.523024
     12          6           0       -5.341562   -0.138827   -0.005924
     13          6           0       -4.716686    0.983581    0.542682
     14          6           0       -3.326875    1.067992    0.585816
     15          6           0        3.790974    1.037820   -1.050296
     16          8           0        4.691846   -1.002122    0.359105
     17          1           0       -0.511914   -1.938942    0.184988
     18          1           0       -2.570749   -1.895057   -0.921987
     19          1           0       -5.042262   -2.051678   -0.955163
     20          1           0       -6.423815   -0.203068   -0.029412
     21          1           0       -5.310467    1.794293    0.950611
     22          1           0       -2.831060    1.925355    1.021715
     23          1           0        2.934592    1.707999   -1.119126
     24          1           0        3.866740    0.420092   -1.945501
     25          1           0        4.710905    1.606225   -0.903734
 ---------------------------------------------------------------------
                    Distance matrix (angstroms):
                    1          2          3          4          5
     1  O    0.000000
     2  S    1.492015   0.000000
     3  N    2.608036   1.601053   0.000000
     4  C    3.107432   2.573359   1.376614   0.000000
     5  N    3.128451   3.022316   2.468466   1.377357   0.000000
     6  N    4.343304   4.315226   3.535245   2.202396   1.315962
     7  C    4.392892   3.895004   2.460498   1.390640   2.226312
     8  N    4.954159   4.713370   3.521413   2.183704   2.146680
     9  C    6.327993   6.129152   4.879979   3.581087   3.495439
    10  C    7.282410   6.872387   5.445949   4.310872   4.548379
    11  C    8.604328   8.253686   6.833928   5.685539   5.829140
    12  C    9.061877   8.908912   7.609897   6.350741   6.232102
    13  C    8.306871   8.339835   7.206859   5.871707   5.503033
    14  C    6.925531   6.976999   5.909906   4.555898   4.123054
    15  C    2.631314   1.805283   2.767479   3.300147   3.236158
    16  O    2.510862   1.486789   2.474077   3.764129   4.452912
    17  H    5.107613   4.495734   2.929821   2.257217   3.286523
    18  H    7.140429   6.534631   5.017516   4.071327   4.592413
    19  H    9.396247   8.933069   7.444015   6.400792   6.687971
    20  H   10.133695   9.991978   8.682211   7.432206   7.307627
    21  H    8.906434   9.074663   8.045917   6.693640   6.177656
    22  H    6.467512   6.715791   5.860332   4.506377   3.807626
    23  H    2.871388   2.385285   2.989315   3.037147   2.564129
    24  H    3.552582   2.389685   2.974116   3.609253   3.774357
    25  H    2.833344   2.384107   3.684741   4.282623   4.102638
                    6          7          8          9         10
     6  N    0.000000
     7  C    2.231234   0.000000
     8  N    1.347002   1.362868   0.000000
     9  C    2.404620   2.508332   1.421139   0.000000
    10  C    3.622933   3.016820   2.437445   1.396990   0.000000
    11  C    4.779176   4.392655   3.708883   2.409036   1.394301
    12  C    5.026178   5.167948   4.206301   2.785165   2.421571
    13  C    4.226696   4.881690   3.705276   2.407712   2.794009
    14  C    2.855000   3.695900   2.434049   1.397117   2.429410
    15  C    4.471370   4.621023   5.149878   6.528054   7.306687
    16  O    5.716629   4.930136   5.946722   7.332254   7.913808
[...]
 Alpha  occ. eigenvalues --   -0.78866  -0.76875  -0.71153  -0.69873  -0.66085
 Alpha  occ. eigenvalues --   -0.62014  -0.58790  -0.56041  -0.55321  -0.53218
 Alpha  occ. eigenvalues --   -0.52065  -0.51907  -0.50529  -0.48663  -0.47079
 Alpha  occ. eigenvalues --   -0.44836  -0.44235  -0.43645  -0.43150  -0.42623
 Alpha  occ. eigenvalues --   -0.39651  -0.35014  -0.33033  -0.32505  -0.30589
 Alpha  occ. eigenvalues --   -0.28970  -0.28684  -0.27158  -0.26956  -0.24444
 Alpha  occ. eigenvalues --   -0.23640  -0.15026
 Alpha virt. eigenvalues --    0.08728   0.09715   0.10808   0.12703   0.13204
 Alpha virt. eigenvalues --    0.13767   0.14488   0.15245   0.16463   0.17084
 Alpha virt. eigenvalues --    0.17495   0.17896   0.18655   0.19492   0.19800
 Alpha virt. eigenvalues --    0.20399   0.20699   0.20908   0.21693   0.21888
 Alpha virt. eigenvalues --    0.22476   0.22747   0.23402   0.23588   0.23688
 Alpha virt. eigenvalues --    0.24168   0.24681   0.25068   0.25673   0.25817
 Alpha virt. eigenvalues --    0.26055   0.27224   0.27703   0.27898   0.28433
 Alpha virt. eigenvalues --    0.28749   0.29013   0.29656   0.30247   0.30539
 Alpha virt. eigenvalues --    0.31556   0.32166   0.33207   0.34291   0.34556
 Alpha virt. eigenvalues --    0.35069   0.35395   0.36880   0.37441   0.37571
 Alpha virt. eigenvalues --    0.38159   0.38258   0.39019   0.39406   0.39847
 Alpha virt. eigenvalues --    0.40309   0.40962   0.41332   0.41681   0.42454
 Alpha virt. eigenvalues --    0.42688   0.43085   0.43277   0.44178   0.44909
 Alpha virt. eigenvalues --    0.45117   0.45339   0.45710   0.45974   0.46314
 Alpha virt. eigenvalues --    0.46590   0.46927   0.47142   0.47365   0.47897
 Alpha virt. eigenvalues --    0.48074   0.48912   0.49337   0.49496   0.50027
 Alpha virt. eigenvalues --    0.50728   0.51194   0.51946   0.52035   0.52507
 Alpha virt. eigenvalues --    0.53122   0.53283   0.53772   0.54694   0.55401
 Alpha virt. eigenvalues --    0.56046   0.56656   0.56769   0.57307   0.57643
 Alpha virt. eigenvalues --    0.58550   0.58748   0.58800   0.60139   0.61202
 Alpha virt. eigenvalues --    0.61467   0.62583   0.63215   0.64103   0.64415
 Alpha virt. eigenvalues --    0.65306   0.65940   0.66015   0.66742   0.67516
 Alpha virt. eigenvalues --    0.68135   0.68654   0.69173   0.69687   0.70280
 Alpha virt. eigenvalues --    0.71124   0.71637   0.72319   0.72670   0.73125
 Alpha virt. eigenvalues --    0.73834   0.74191   0.74799   0.75269   0.75690
 Alpha virt. eigenvalues --    0.75946   0.76132   0.76524   0.77333   0.77654
 Alpha virt. eigenvalues --    0.78133   0.78786   0.79781   0.80589   0.80996
 Alpha virt. eigenvalues --    0.82131   0.82361   0.83266   0.83826   0.84321
 Alpha virt. eigenvalues --    0.84786   0.85102   0.85495   0.85733   0.86662
 Alpha virt. eigenvalues --    0.87774   0.88437   0.89113   0.89930   0.90674
 Alpha virt. eigenvalues --    0.91325   0.92457   0.93074   0.94601   0.94692
 Alpha virt. eigenvalues --    0.95162   0.95978   0.96560   0.97760   0.98440
 Alpha virt. eigenvalues --    0.98715   0.98876   0.99411   1.00180   1.00546
 Alpha virt. eigenvalues --    1.00968   1.01556   1.02685   1.03136   1.03243
 Alpha virt. eigenvalues --    1.03840   1.04950   1.05025   1.06506   1.07427
 Alpha virt. eigenvalues --    1.07761   1.08998   1.09675   1.10233   1.10602
 Alpha virt. eigenvalues --    1.11397   1.12543   1.12930   1.13726   1.14262
 Alpha virt. eigenvalues --    1.14857   1.16491   1.17106   1.18321   1.19674
 Alpha virt. eigenvalues --    1.20431   1.21100   1.21855   1.22725   1.23848
 Alpha virt. eigenvalues --    1.24978   1.25793   1.26338   1.28009   1.28580
 Alpha virt. eigenvalues --    1.29294   1.29672   1.30335   1.30527   1.31816
 Alpha virt. eigenvalues --    1.32869   1.34613   1.35071   1.35935   1.37366
 Alpha virt. eigenvalues --    1.38272   1.39365   1.40038   1.41229   1.42262
 Alpha virt. eigenvalues --    1.44150   1.46596   1.46824   1.48810   1.49941
 Alpha virt. eigenvalues --    1.51183   1.52450   1.52558   1.53680   1.54657
 Alpha virt. eigenvalues --    1.56374   1.56916   1.57334   1.58457   1.60120
 Alpha virt. eigenvalues --    1.60862   1.61806   1.62970   1.63194   1.65240
 Alpha virt. eigenvalues --    1.65428   1.65777   1.67416   1.67916   1.68172
 Alpha virt. eigenvalues --    1.70043   1.70646   1.71301   1.72549   1.72810
 Alpha virt. eigenvalues --    1.73785   1.74618   1.75572   1.76499   1.77840
 Alpha virt. eigenvalues --    1.78140   1.79240   1.79547   1.80108   1.81024
 Alpha virt. eigenvalues --    1.81998   1.83679   1.84936   1.85311   1.86419
 Alpha virt. eigenvalues --    1.87816   1.89030   1.91212   1.91865   1.92599
 Alpha virt. eigenvalues --    1.93754   1.95246   1.95970   1.96846   1.98014
 Alpha virt. eigenvalues --    1.99645   2.00257   2.01231   2.01372   2.03492
 Alpha virt. eigenvalues --    2.04709   2.04824   2.05151   2.05595   2.07558
 Alpha virt. eigenvalues --    2.08611   2.09245   2.11486   2.11674   2.13571
 Alpha virt. eigenvalues --    2.15035   2.16672   2.17376   2.18016   2.19446
 Alpha virt. eigenvalues --    2.20562   2.21759   2.23200   2.23457   2.24890
 Alpha virt. eigenvalues --    2.26658   2.28600   2.29107   2.31003   2.31502
 Alpha virt. eigenvalues --    2.31731   2.32823   2.34956   2.35572   2.36572
 Alpha virt. eigenvalues --    2.37033   2.38079   2.39112   2.40677   2.41330
 Alpha virt. eigenvalues --    2.42297   2.44440   2.44671   2.45783   2.46778
 Alpha virt. eigenvalues --    2.47834   2.49179   2.51295   2.52014   2.53294
 Alpha virt. eigenvalues --    2.54526   2.56272   2.57806   2.58845   2.60378
 Alpha virt. eigenvalues --    2.62042   2.65671   2.68579   2.69828   2.72079
 Alpha virt. eigenvalues --    2.72257   2.73302   2.75232   2.76786   2.78659
 Alpha virt. eigenvalues --    2.80662   2.82954   2.84420   2.87365   2.88261
 Alpha virt. eigenvalues --    2.89761   2.92172   2.92267   2.94932   2.97236
 Alpha virt. eigenvalues --    2.99534   3.01035   3.02709   3.03698   3.05620
 Alpha virt. eigenvalues --    3.06585   3.07963   3.11415   3.14067   3.15011
 Alpha virt. eigenvalues --    3.16578   3.17815   3.20486   3.22307   3.23840
 Alpha virt. eigenvalues --    3.24636   3.29096   3.32284   3.34073   3.36875
 Alpha virt. eigenvalues --    3.38229   3.41953   3.46899   3.51150   3.57008
 Alpha virt. eigenvalues --    3.57375   3.65179   3.71087   3.73286   3.76447
 Alpha virt. eigenvalues --    3.83351   3.86028   3.91360   3.93094   3.95578
 Alpha virt. eigenvalues --    3.97268   3.98632   3.99542   4.01242   4.02974
 Alpha virt. eigenvalues --    4.04307   4.07380   4.17319   4.42331   4.48955
 Alpha virt. eigenvalues --    4.96856
          Condensed to atoms (all electrons):
               1          2          3          4          5          6
     1  O    9.431182  -0.381405   0.098292   0.108663   0.050365  -0.056875
     2  S   -0.381405  14.367768  -0.172739  -0.119754  -0.003706  -0.149574
     3  N    0.098292  -0.172739   8.715180  -0.840153   0.035096   0.044588
     4  C    0.108663  -0.119754  -0.840153  12.930762  -0.319467   0.396217
     5  N    0.050365  -0.003706   0.035096  -0.319467  10.412041  -2.306292
     6  N   -0.056875  -0.149574   0.044588   0.396217  -2.306292  10.252885
     7  C   -0.052999  -0.167138   0.493161  -7.359616   0.699668  -0.925288
     8  N   -0.004153  -0.019032  -0.010203   0.243423  -0.307156  -0.228171
     9  C   -0.002701  -0.063235  -0.040462   0.270992  -0.461339   0.157319
    10  C   -0.001714   0.010529   0.007735  -0.328407   0.147916  -0.258116
    11  C   -0.000128   0.003184   0.005035   0.051149   0.049216   0.026057
    12  C   -0.000051  -0.000044  -0.001560  -0.005771  -0.006865  -0.006499
    13  C    0.000400  -0.002469  -0.000795   0.007078  -0.060290  -0.002358
    14  C    0.001076  -0.011972   0.006975  -0.070010  -0.199547   0.439067
    15  C    0.008504   0.405819   0.021786   0.034980  -0.003510  -0.032307
    16  O    0.008865  -0.290954   0.027849   0.017140   0.022825   0.007866
    17  H   -0.003780   0.054171  -0.086817   1.006738  -0.081634  -0.040779
    18  H    0.000161  -0.008570  -0.001002  -0.149368   0.003492  -0.031337
    19  H    0.000005   0.000123   0.000273   0.005772  -0.000765   0.001855
    20  H   -0.000003  -0.000018  -0.000053  -0.000643  -0.000040   0.001031
    21  H   -0.000005  -0.000075  -0.000086  -0.002538   0.000532   0.003279
    22  H    0.000156  -0.000339   0.001398   0.008036  -0.013487  -0.024783
    23  H    0.041909  -0.058127  -0.012046   0.004604   0.021892  -0.042018
    24  H    0.023152  -0.061133   0.029325  -0.024989  -0.006000  -0.001271
    25  H    0.012020  -0.061456  -0.010893   0.044753   0.019783   0.013689
               7          8          9         10         11         12
     1  O   -0.052999  -0.004153  -0.002701  -0.001714  -0.000128  -0.000051
     2  S   -0.167138  -0.019032  -0.063235   0.010529   0.003184  -0.000044
     3  N    0.493161  -0.010203  -0.040462   0.007735   0.005035  -0.001560
     4  C   -7.359616   0.243423   0.270992  -0.328407   0.051149  -0.005771
     5  N    0.699668  -0.307156  -0.461339   0.147916   0.049216  -0.006865
     6  N   -0.925288  -0.228171   0.157319  -0.258116   0.026057  -0.006499
     7  C   14.946279  -0.638766  -1.160769   0.573239  -0.248839  -0.023101
     8  N   -0.638766   9.196687  -0.600216   0.542492  -0.296704   0.267787
     9  C   -1.160769  -0.600216  12.919892  -5.178211   2.606067  -3.203749
    10  C    0.573239   0.542492  -5.178211  12.749574  -3.869296   3.045124
    11  C   -0.248839  -0.296704   2.606067  -3.869296  10.550479  -3.017997
    12  C   -0.023101   0.267787  -3.203749   3.045124  -3.017997   8.902220
    13  C    0.138847  -0.177791   2.542016  -3.318707   2.969630  -2.902753
    14  C   -0.206352  -0.202535  -4.121312   2.241900  -3.154303   2.797492
    15  C   -0.141303   0.005650  -0.000605  -0.000983  -0.000590   0.000101
    16  O    0.036475  -0.001307   0.004570  -0.001238  -0.000124  -0.000003
    17  H   -1.559359   0.295746   0.088597  -0.050643   0.083700  -0.017363
    18  H    0.225024  -0.245061   0.841135  -0.931906   0.124665  -0.158235
    19  H    0.006666   0.002337  -0.103629   0.731437  -0.849117   0.274650
    20  H   -0.000846  -0.001568   0.100665  -0.157862   0.376643  -0.657661
    21  H    0.002768  -0.007401  -0.088447   0.114798  -0.224607   0.248210
    22  H   -0.018105  -0.169547   0.568395  -0.128610   0.100891  -0.140087
    23  H   -0.016660  -0.011928  -0.004631   0.000273   0.000377  -0.000383
    24  H    0.014026   0.001178   0.000789  -0.000153  -0.000125   0.000030
    25  H   -0.008207   0.001084   0.000508  -0.000017  -0.000001   0.000012
              13         14         15         16         17         18
     1  O    0.000400   0.001076   0.008504   0.008865  -0.003780   0.000161
     2  S   -0.002469  -0.011972   0.405819  -0.290954   0.054171  -0.008570
     3  N   -0.000795   0.006975   0.021786   0.027849  -0.086817  -0.001002
     4  C    0.007078  -0.070010   0.034980   0.017140   1.006738  -0.149368
     5  N   -0.060290  -0.199547  -0.003510   0.022825  -0.081634   0.003492
     6  N   -0.002358   0.439067  -0.032307   0.007866  -0.040779  -0.031337
     7  C    0.138847  -0.206352  -0.141303   0.036475  -1.559359   0.225024
     8  N   -0.177791  -0.202535   0.005650  -0.001307   0.295746  -0.245061
     9  C    2.542016  -4.121312  -0.000605   0.004570   0.088597   0.841135
    10  C   -3.318707   2.241900  -0.000983  -0.001238  -0.050643  -0.931906
    11  C    2.969630  -3.154303  -0.000590  -0.000124   0.083700   0.124665
    12  C   -2.902753   2.797492   0.000101  -0.000003  -0.017363  -0.158235
    13  C   10.021254  -3.719568   0.000304   0.000059   0.007290   0.105245
    14  C   -3.719568  12.195773   0.001392   0.000500  -0.114516  -0.081859
    15  C    0.000304   0.001392   4.691947  -0.063335   0.004129  -0.000299
    16  O    0.000059   0.000500  -0.063335   9.412329  -0.006989   0.000668
    17  H    0.007290  -0.114516   0.004129  -0.006989   2.099363  -0.131391
    18  H    0.105245  -0.081859  -0.000299   0.000668  -0.131391   2.192764
    19  H   -0.232395   0.098529  -0.000001  -0.000005   0.003894  -0.086172
    20  H    0.388572  -0.113241   0.000003   0.000000  -0.000261  -0.015410
    21  H   -0.785481   0.679025  -0.000013   0.000002   0.000206   0.010778
    22  H    0.386168  -0.856451   0.000518   0.000034  -0.001988  -0.017786
    23  H    0.000707  -0.002532   0.417371   0.014546  -0.000850   0.000478
    24  H    0.000004   0.000448   0.315697   0.018340  -0.000478   0.000242
    25  H   -0.000052  -0.000073   0.282068   0.023528   0.000659  -0.000118
              19         20         21         22         23         24
     1  O    0.000005  -0.000003  -0.000005   0.000156   0.041909   0.023152
     2  S    0.000123  -0.000018  -0.000075  -0.000339  -0.058127  -0.061133
     3  N    0.000273  -0.000053  -0.000086   0.001398  -0.012046   0.029325
     4  C    0.005772  -0.000643  -0.002538   0.008036   0.004604  -0.024989
     5  N   -0.000765  -0.000040   0.000532  -0.013487   0.021892  -0.006000
     6  N    0.001855   0.001031   0.003279  -0.024783  -0.042018  -0.001271
     7  C    0.006666  -0.000846   0.002768  -0.018105  -0.016660   0.014026
     8  N    0.002337  -0.001568  -0.007401  -0.169547  -0.011928   0.001178
     9  C   -0.103629   0.100665  -0.088447   0.568395  -0.004631   0.000789
    10  C    0.731437  -0.157862   0.114798  -0.128610   0.000273  -0.000153
    11  C   -0.849117   0.376643  -0.224607   0.100891   0.000377  -0.000125
    12  C    0.274650  -0.657661   0.248210  -0.140087  -0.000383   0.000030
    13  C   -0.232395   0.388572  -0.785481   0.386168   0.000707   0.000004
    14  C    0.098529  -0.113241   0.679025  -0.856451  -0.002532   0.000448
    15  C   -0.000001   0.000003  -0.000013   0.000518   0.417371   0.315697
    16  O   -0.000005   0.000000   0.000002   0.000034   0.014546   0.018340
    17  H    0.003894  -0.000261   0.000206  -0.001988  -0.000850  -0.000478
    18  H   -0.086172  -0.015410   0.010778  -0.017786   0.000478   0.000242
    19  H    1.664389  -0.050877  -0.018416   0.009083  -0.000002  -0.000006
    20  H   -0.050877   1.660905  -0.056044  -0.010022  -0.000006   0.000002
    21  H   -0.018416  -0.056044   1.653337  -0.081013   0.000042  -0.000007
    22  H    0.009083  -0.010022  -0.081013   1.922825  -0.000764   0.000077
    23  H   -0.000002  -0.000006   0.000042  -0.000764   0.892502  -0.048796
    24  H   -0.000006   0.000002  -0.000007   0.000077  -0.048796   0.856501
    25  H    0.000001   0.000000  -0.000001   0.000042  -0.156527  -0.105493
              25
     1  O    0.012020
     2  S   -0.061456
     3  N   -0.010893
     4  C    0.044753
     5  N    0.019783
     6  N    0.013689
     7  C   -0.008207
     8  N    0.001084
     9  C    0.000508
    10  C   -0.000017
    11  C   -0.000001
    12  C    0.000012
    13  C   -0.000052
    14  C   -0.000073
    15  C    0.282068
    16  O    0.023528
    17  H    0.000659
    18  H   -0.000118
    19  H    0.000001
    20  H    0.000000
    21  H   -0.000001
    22  H    0.000042
    23  H   -0.156527
    24  H   -0.105493
    25  H    1.009562
 Mulliken charges:
               1
     1  O   -1.280937
     2  S    2.730145
     3  N   -1.309885
     4  C    0.090409
     5  N   -0.692728
     6  N   -0.238184
     7  C    1.391196
     8  N   -0.634845
     9  C    0.928360
    10  C    0.060844
    11  C    0.714737
    12  C    0.606496
    13  C    0.635088
    14  C    0.392094
    15  C    0.052678
    16  O   -1.231642
    17  H   -0.547647
    18  H   -0.646137
    19  H   -0.457629
    20  H   -0.463265
    21  H   -0.448842
    22  H   -0.534641
    23  H   -0.039430
    24  H   -0.011360
    25  H   -0.064873
 Sum of Mulliken charges =  -1.00000
 Mulliken charges with hydrogens summed into heavy atoms:
               1
     1  O   -1.280937
     2  S    2.730145
     3  N   -1.309885
     4  C    0.090409
     5  N   -0.692728
     6  N   -0.238184
     7  C    0.843549
     8  N   -0.634845
     9  C    0.928360
    10  C   -0.585293
    11  C    0.257108
    12  C    0.143231
    13  C    0.186246
    14  C   -0.142548
    15  C   -0.062985
    16  O   -1.231642
 Electronic spatial extent (au):  <R**2>=           5720.5451
 Charge=             -1.0000 electrons
 Dipole moment (field-independent basis, Debye):
    X=            -14.4614    Y=              0.0282    Z=              3.5080  Tot=             14.8808
 Quadrupole moment (field-independent basis, Debye-Ang):
   XX=           -162.1500   YY=           -110.6077   ZZ=           -110.7010
   XY=            -10.6472   XZ=             15.9977   YZ=             -0.7217
 Traceless Quadrupole moment (field-independent basis, Debye-Ang):
   XX=            -34.3305   YY=             17.2119   ZZ=             17.1186
   XY=            -10.6472   XZ=             15.9977   YZ=             -0.7217
 Octapole moment (field-independent basis, Debye-Ang**2):
  XXX=           -233.6514  YYY=              1.7516  ZZZ=              3.1265  XYY=            -37.6444
  XXY=            -51.1107  XXZ=             57.3802  XZZ=             20.1880  YZZ=              2.1795
  YYZ=              1.5802  XYZ=            -15.7732
 Hexadecapole moment (field-independent basis, Debye-Ang**3):
 XXXX=          -7959.8005 YYYY=           -649.2586 ZZZZ=           -309.3613 XXXY=           -227.4981
 XXXZ=            227.5676 YYYX=            -26.3173 YYYZ=              9.4935 ZZZX=              8.1495
 ZZZY=              0.5041 XXYY=          -1319.7119 XXZZ=          -1332.8023 YYZZ=           -171.0633
 XXYZ=             -2.2938 YYXZ=             15.2106 ZZXY=             17.9052
 N-N= 1.164253342940D+03 E-N=-4.961448969242D+03  KE= 1.109793391759D+03
 Leave Link  601 at Thu Sep 24 15:47:58 2020, MaxMem=   262144000 cpu:               0.6 elap:               0.2
 (Enter /prod/apps/gaussian/g16b1/l9999.exe)
 1\1\GINC-PIRINEUS14\SP\RMP2-FC\Aug-CC-pVDZ\C9H9N4O2S1(1-)\UBAFAR01\24-
 Sep-2020\0\\#p mp2/aug-cc-pVDZ scf=(MaxCycle=2000,NoVarAcc,NoIncFock) 
 maxdisk=120GB geom=allcheck\\SM44_m1.a.2.pdb.xyz\\-1,1\O,0,3.564167259
 7,0.7572063137,1.5850084196\S,0,3.5684619457,-0.0740396962,0.346320156
 7\N,0,2.2319238422,-0.9208568979,0.0994932862\C,0,1.0100790532,-0.2875
 642264,0.1353667616\N,0,0.7734094627,1.068409746,0.1995733073\N,0,-0.5
 229639013,1.2927322825,0.1842309229\C,0,-0.2293508499,-0.9151044074,0.
 0788347485\N,0,-1.1408523157,0.0988664578,0.1120863272\C,0,-2.55919717
 41,0.0195705386,0.0682075307\C,0,-3.1759258731,-1.134788854,-0.4220304
 385\C,0,-4.5682629696,-1.2047915316,-0.4546257101\C,0,-5.3415145939,-0
 .1295973069,-0.0137237278\C,0,-4.7130823589,1.0219012697,0.467647756\C
 ,0,-3.3233713258,1.1006940129,0.5172147227\C,0,3.7723529617,1.08856815
 36,-1.0177189369\O,0,4.6994871677,-1.0336808076,0.2469021448\H,0,-0.50
 94244043,-1.952523131,0.0418418429\H,0,-2.5767135112,-1.9621611341,-0.
 7831202324\H,0,-5.0455106226,-2.1012515592,-0.8343546539\H,0,-6.423920
 6713,-0.1879426966,-0.0444820738\H,0,-5.3050827415,1.8614645442,0.8156
 477231\H,0,-2.8237573069,1.9815516148,0.8979004119\H,0,2.9108515705,1.
 7554115595,-1.0298726502\H,0,3.8354974882,0.5271466295,-1.9502034934\H
 ,0,4.6916998685,1.652779126,-0.8531441449\\Version=ES64L-G16RevB.01\St
 ate=1-A\HF=-1111.0870891\MP2=-1113.5798515\RMSD=8.316e-09\PG=C01 [X(C9
 H9N4O2S1)]\\@


 DON'T WORRY CHARLIE BROWN...WE LEARN MORE FROM LOSING 
 THAN WE DO FROM WINNING.
 THEN THAT MAKES ME THE SMARTEST PERSON IN THE WORLD...
 CHARLES SCHULZ 'PEANUTS'
 Job cpu time:       0 days  1 hours 25 minutes 31.0 seconds.
 Elapsed time:       0 days  0 hours 25 minutes 18.3 seconds.
 File lengths (MBytes):  RWF=  32945 Int=      0 D2E=      0 Chk=     17 Scr=      1
 Normal termination of Gaussian 16 at Thu Sep 24 15:48:02 2020.
