 Entering Gaussian System, Link 0=g16
 Initial command:
 /prod/apps/gaussian/g16b1/l1.exe "/tmp/ubafar01/1460624/Gau-223837.inp" -scrdir="/tmp/ubafar01/1460624/"
 Entering Link 1 = /prod/apps/gaussian/g16b1/l1.exe PID=    223838.
  
 Copyright (c) 1988-2017, Gaussian, Inc.  All Rights Reserved.
  
 This is part of the Gaussian(R) 16 program.  It is based on
 the Gaussian(R) 09 system (copyright 2009, Gaussian, Inc.),
 the Gaussian(R) 03 system (copyright 2003, Gaussian, Inc.),
 the Gaussian(R) 98 system (copyright 1998, Gaussian, Inc.),
 the Gaussian(R) 94 system (copyright 1995, Gaussian, Inc.),
 the Gaussian 92(TM) system (copyright 1992, Gaussian, Inc.),
 the Gaussian 90(TM) system (copyright 1990, Gaussian, Inc.),
 the Gaussian 88(TM) system (copyright 1988, Gaussian, Inc.),
 the Gaussian 86(TM) system (copyright 1986, Carnegie Mellon
 University), and the Gaussian 82(TM) system (copyright 1983,
 Carnegie Mellon University). Gaussian is a federally registered
 trademark of Gaussian, Inc.
  
 This software contains proprietary and confidential information,
 including trade secrets, belonging to Gaussian, Inc.
  
 This software is provided under written license and may be
 used, copied, transmitted, or stored only in accord with that
 written license.
  
 The following legend is applicable only to US Government
 contracts under FAR:
  
                    RESTRICTED RIGHTS LEGEND
  
 Use, reproduction and disclosure by the US Government is
 subject to restrictions as set forth in subparagraphs (a)
 and (c) of the Commercial Computer Software - Restricted
 Rights clause in FAR 52.227-19.
  
 Gaussian, Inc.
 340 Quinnipiac St., Bldg. 40, Wallingford CT 06492
  
  
 ---------------------------------------------------------------
 Warning -- This program may not be used in any manner that
 competes with the business of Gaussian, Inc. or will provide
 assistance to any competitor of Gaussian, Inc.  The licensee
 of this program is prohibited from giving any competitor of
 Gaussian, Inc. access to this program.  By using this program,
 the user acknowledges that Gaussian, Inc. is engaged in the
 business of creating and licensing software in the field of
 computational chemistry and represents and warrants to the
 licensee that it is not a competitor of Gaussian, Inc. and that
 it will not use this program in any manner prohibited above.
 ---------------------------------------------------------------
  

 Cite this work as:
 Gaussian 16, Revision B.01,
 M. J. Frisch, G. W. Trucks, H. B. Schlegel, G. E. Scuseria, 
 M. A. Robb, J. R. Cheeseman, G. Scalmani, V. Barone, 
 G. A. Petersson, H. Nakatsuji, X. Li, M. Caricato, A. V. Marenich, 
 J. Bloino, B. G. Janesko, R. Gomperts, B. Mennucci, H. P. Hratchian, 
 J. V. Ortiz, A. F. Izmaylov, J. L. Sonnenberg, D. Williams-Young, 
 F. Ding, F. Lipparini, F. Egidi, J. Goings, B. Peng, A. Petrone, 
 T. Henderson, D. Ranasinghe, V. G. Zakrzewski, J. Gao, N. Rega, 
 G. Zheng, W. Liang, M. Hada, M. Ehara, K. Toyota, R. Fukuda, 
 J. Hasegawa, M. Ishida, T. Nakajima, Y. Honda, O. Kitao, H. Nakai, 
 T. Vreven, K. Throssell, J. A. Montgomery, Jr., J. E. Peralta, 
 F. Ogliaro, M. J. Bearpark, J. J. Heyd, E. N. Brothers, K. N. Kudin, 
 V. N. Staroverov, T. A. Keith, R. Kobayashi, J. Normand, 
 K. Raghavachari, A. P. Rendell, J. C. Burant, S. S. Iyengar, 
 J. Tomasi, M. Cossi, J. M. Millam, M. Klene, C. Adamo, R. Cammi, 
 J. W. Ochterski, R. L. Martin, K. Morokuma, O. Farkas, 
 J. B. Foresman, and D. J. Fox, Gaussian, Inc., Wallingford CT, 2016.
 
 ******************************************
 Gaussian 16:  ES64L-G16RevB.01 20-Dec-2017
                23-Sep-2020 
 ******************************************
 %nproc=4
 Will use up to    4 processors via shared memory.
 %Chk=SM44_m0.n.8.pdb.xyz.mst.n.w.chk
 %mem=16GB
 ----------------------------------------------------------------------
 #p b3lyp/6-31G(d) opt freq NoSymm scf=(MaxCycle=2000,NoVarAcc,NoIncFoc
 k) scrf=(iefpcm,read,solvent=water)
 ----------------------------------------------------------------------
 1/18=20,19=15,26=3,38=1,40=2/1,3;
 2/9=110,12=2,15=1,17=6,18=5,40=1/2;
 3/5=1,6=6,7=1,11=2,25=1,30=1,70=2203,71=1,72=1,74=-5/1,2,3;
 4//1;
 5/5=100002,7=2000,38=1,53=1/2;
 6/7=2,8=2,9=2,10=2,28=1/1;
 7/30=1/1,2,3,16;
 1/18=20,19=15,26=3/3(2);
 2/9=110,15=1/2;
 99//99;
 2/9=110,15=1/2;
 3/5=1,6=6,7=1,11=2,25=1,30=1,70=2205,71=1,72=1,74=-5/1,2,3;
 4/5=5,16=3,69=1/1;
 5/5=100002,7=2000,38=1,53=1/2;
 7/30=1/1,2,3,16;
 1/18=20,19=15,26=3/3(-5);
 2/9=110,15=1/2;
 6/7=2,8=2,9=2,10=2,19=2,28=1/1;
 99/9=1/99;
 Leave Link    1 at Wed Sep 23 05:18:40 2020, MaxMem=  2147483648 cpu:               0.1 elap:               0.0
 (Enter /prod/apps/gaussian/g16b1/l101.exe)
 -------------------
 SM44_m0.n.8.pdb.xyz
 -------------------
 Symbolic Z-matrix:
 Charge =  0 Multiplicity = 1
 O                     4.713    -0.539    -0.447 
 S                     3.472    -0.099     0.201 
 N                     2.285    -0.212    -1.006 
 C                     0.961     0.175    -0.721 
 N                     0.591     1.485    -0.693 
 N                    -0.69      1.554    -0.451 
 C                    -0.152    -0.607    -0.49 
 N                    -1.158     0.288    -0.337 
 C                    -2.539     0.041    -0.09 
 C                    -3.308     1.032     0.525 
 C                    -4.66      0.79      0.761 
 C                    -5.235    -0.431     0.4 
 C                    -4.452    -1.413    -0.208 
 C                    -3.101    -1.181    -0.463 
 C                     3.038    -1.281     1.48 
 O                     3.383     1.251     0.767 
 H                     2.363    -1.106    -1.495 
 H                    -0.289    -1.672    -0.419 
 H                    -2.845     1.966     0.812 
 H                    -5.261     1.556     1.239 
 H                    -6.286    -0.615     0.591 
 H                    -4.891    -2.36     -0.496 
 H                    -2.498    -1.935    -0.954 
 H                     3.053    -2.28      1.047 
 H                     2.05     -1.033     1.866 
 H                     3.788    -1.19      2.267 
 
 ITRead=  0  0  0  0  0  0  0  0  0  0  0  0  0  0  0  0  0  0  0  0
 ITRead=  0  0  0  0  0  0
 MicOpt= -1 -1 -1 -1 -1 -1 -1 -1 -1 -1 -1 -1 -1 -1 -1 -1 -1 -1 -1 -1
 MicOpt= -1 -1 -1 -1 -1 -1
 NAtoms=     26 NQM=       26 NQMF=       0 NMMI=      0 NMMIF=      0
                NMic=       0 NMicF=      0.
                    Isotopes and Nuclear Properties:
 (Nuclear quadrupole moments (NQMom) in fm**2, nuclear magnetic moments (NMagM)
  in nuclear magnetons)

  Atom         1           2           3           4           5           6           7           8           9          10
 IAtWgt=          16          32          14          12          14          14          12          14          12          12
 AtmWgt=  15.9949146  31.9720718  14.0030740  12.0000000  14.0030740  14.0030740  12.0000000  14.0030740  12.0000000  12.0000000
 NucSpn=           0           0           2           0           2           2           0           2           0           0
 AtZEff=  -0.0000000  -0.0000000  -0.0000000  -0.0000000  -0.0000000  -0.0000000  -0.0000000  -0.0000000  -0.0000000  -0.0000000
 NQMom=    0.0000000   0.0000000   2.0440000   0.0000000   2.0440000   2.0440000   0.0000000   2.0440000   0.0000000   0.0000000
 NMagM=    0.0000000   0.0000000   0.4037610   0.0000000   0.4037610   0.4037610   0.0000000   0.4037610   0.0000000   0.0000000
 AtZNuc=   8.0000000  16.0000000   7.0000000   6.0000000   7.0000000   7.0000000   6.0000000   7.0000000   6.0000000   6.0000000

  Atom        11          12          13          14          15          16          17          18          19          20
 IAtWgt=          12          12          12          12          12          16           1           1           1           1
 AtmWgt=  12.0000000  12.0000000  12.0000000  12.0000000  12.0000000  15.9949146   1.0078250   1.0078250   1.0078250   1.0078250
 NucSpn=           0           0           0           0           0           0           1           1           1           1
 AtZEff=  -0.0000000  -0.0000000  -0.0000000  -0.0000000  -0.0000000  -0.0000000  -0.0000000  -0.0000000  -0.0000000  -0.0000000
 NQMom=    0.0000000   0.0000000   0.0000000   0.0000000   0.0000000   0.0000000   0.0000000   0.0000000   0.0000000   0.0000000
 NMagM=    0.0000000   0.0000000   0.0000000   0.0000000   0.0000000   0.0000000   2.7928460   2.7928460   2.7928460   2.7928460
 AtZNuc=   6.0000000   6.0000000   6.0000000   6.0000000   6.0000000   8.0000000   1.0000000   1.0000000   1.0000000   1.0000000

  Atom        21          22          23          24          25          26
 IAtWgt=           1           1           1           1           1           1
 AtmWgt=   1.0078250   1.0078250   1.0078250   1.0078250   1.0078250   1.0078250
 NucSpn=           1           1           1           1           1           1
 AtZEff=  -0.0000000  -0.0000000  -0.0000000  -0.0000000  -0.0000000  -0.0000000
 NQMom=    0.0000000   0.0000000   0.0000000   0.0000000   0.0000000   0.0000000
 NMagM=    2.7928460   2.7928460   2.7928460   2.7928460   2.7928460   2.7928460
 AtZNuc=   1.0000000   1.0000000   1.0000000   1.0000000   1.0000000   1.0000000
 Leave Link  101 at Wed Sep 23 05:18:41 2020, MaxMem=  2147483648 cpu:               1.3 elap:               0.3
 (Enter /prod/apps/gaussian/g16b1/l103.exe)

 GradGradGradGradGradGradGradGradGradGradGradGradGradGradGradGradGradGrad
 Berny optimization.
 Initialization pass.
                           ----------------------------
                           !    Initial Parameters    !
                           ! (Angstroms and Degrees)  !
 --------------------------                            --------------------------
 ! Name  Definition              Value          Derivative Info.                !
 --------------------------------------------------------------------------------
 ! R1    R(1,2)                  1.4675         estimate D2E/DX2                !
 ! R2    R(2,3)                  1.6966         estimate D2E/DX2                !
 ! R3    R(2,15)                 1.7948         estimate D2E/DX2                !
 ! R4    R(2,16)                 1.4666         estimate D2E/DX2                !
 ! R5    R(3,4)                  1.4085         estimate D2E/DX2                !
 ! R6    R(3,17)                 1.022          estimate D2E/DX2                !
 ! R7    R(4,5)                  1.3615         estimate D2E/DX2                !
 ! R8    R(4,7)                  1.3797         estimate D2E/DX2                !
 ! R9    R(5,6)                  1.3055         estimate D2E/DX2                !
 ! R10   R(6,8)                  1.3545         estimate D2E/DX2                !
 ! R11   R(7,8)                  1.3552         estimate D2E/DX2                !
 ! R12   R(7,18)                 1.0761         estimate D2E/DX2                !
 ! R13   R(8,9)                  1.4245         estimate D2E/DX2                !
 ! R14   R(9,10)                 1.397          estimate D2E/DX2                !
 ! R15   R(9,14)                 1.3958         estimate D2E/DX2                !
 ! R16   R(10,11)                1.3936         estimate D2E/DX2                !
 ! R17   R(10,19)                1.0812         estimate D2E/DX2                !
 ! R18   R(11,12)                1.3971         estimate D2E/DX2                !
 ! R19   R(11,20)                1.0846         estimate D2E/DX2                !
 ! R20   R(12,13)                1.3954         estimate D2E/DX2                !
 ! R21   R(12,21)                1.0839         estimate D2E/DX2                !
 ! R22   R(13,14)                1.3943         estimate D2E/DX2                !
 ! R23   R(13,22)                1.0828         estimate D2E/DX2                !
 ! R24   R(14,23)                1.0831         estimate D2E/DX2                !
 ! R25   R(15,24)                1.0889         estimate D2E/DX2                !
 ! R26   R(15,25)                1.0893         estimate D2E/DX2                !
 ! R27   R(15,26)                1.0909         estimate D2E/DX2                !
 ! A1    A(1,2,3)              104.9236         estimate D2E/DX2                !
 ! A2    A(1,2,15)             108.7654         estimate D2E/DX2                !
 ! A3    A(1,2,16)             119.8503         estimate D2E/DX2                !
 ! A4    A(3,2,15)             107.0928         estimate D2E/DX2                !
 ! A5    A(3,2,16)             107.0623         estimate D2E/DX2                !
 ! A6    A(15,2,16)            108.4532         estimate D2E/DX2                !
 ! A7    A(2,3,4)              119.6952         estimate D2E/DX2                !
 ! A8    A(2,3,17)             110.1977         estimate D2E/DX2                !
 ! A9    A(4,3,17)             114.136          estimate D2E/DX2                !
 ! A10   A(3,4,5)              121.598          estimate D2E/DX2                !
 ! A11   A(3,4,7)              129.5252         estimate D2E/DX2                !
 ! A12   A(5,4,7)              108.8241         estimate D2E/DX2                !
 ! A13   A(4,5,6)              108.7428         estimate D2E/DX2                !
 ! A14   A(5,6,8)              107.7718         estimate D2E/DX2                !
 ! A15   A(4,7,8)              104.0883         estimate D2E/DX2                !
 ! A16   A(4,7,18)             132.4281         estimate D2E/DX2                !
 ! A17   A(8,7,18)             123.4807         estimate D2E/DX2                !
 ! A18   A(6,8,7)              110.5657         estimate D2E/DX2                !
 ! A19   A(6,8,9)              120.7712         estimate D2E/DX2                !
 ! A20   A(7,8,9)              128.6631         estimate D2E/DX2                !
 ! A21   A(8,9,10)             119.1424         estimate D2E/DX2                !
 ! A22   A(8,9,14)             119.7233         estimate D2E/DX2                !
 ! A23   A(10,9,14)            121.1343         estimate D2E/DX2                !
 ! A24   A(9,10,11)            119.0379         estimate D2E/DX2                !
 ! A25   A(9,10,19)            119.5974         estimate D2E/DX2                !
 ! A26   A(11,10,19)           121.3641         estimate D2E/DX2                !
 ! A27   A(10,11,12)           120.4838         estimate D2E/DX2                !
 ! A28   A(10,11,20)           119.311          estimate D2E/DX2                !
 ! A29   A(12,11,20)           120.2017         estimate D2E/DX2                !
 ! A30   A(11,12,13)           119.782          estimate D2E/DX2                !
 ! A31   A(11,12,21)           120.1254         estimate D2E/DX2                !
 ! A32   A(13,12,21)           120.0926         estimate D2E/DX2                !
 ! A33   A(12,13,14)           120.418          estimate D2E/DX2                !
 ! A34   A(12,13,22)           120.2568         estimate D2E/DX2                !
 ! A35   A(14,13,22)           119.3221         estimate D2E/DX2                !
 ! A36   A(9,14,13)            119.1394         estimate D2E/DX2                !
 ! A37   A(9,14,23)            120.4262         estimate D2E/DX2                !
 ! A38   A(13,14,23)           120.4311         estimate D2E/DX2                !
 ! A39   A(2,15,24)            108.5114         estimate D2E/DX2                !
 ! A40   A(2,15,25)            108.7776         estimate D2E/DX2                !
 ! A41   A(2,15,26)            107.0318         estimate D2E/DX2                !
 ! A42   A(24,15,25)           111.2393         estimate D2E/DX2                !
 ! A43   A(24,15,26)           110.7271         estimate D2E/DX2                !
 ! A44   A(25,15,26)           110.421          estimate D2E/DX2                !
 ! D1    D(1,2,3,4)           -178.3972         estimate D2E/DX2                !
 ! D2    D(1,2,3,17)            46.2569         estimate D2E/DX2                !
 ! D3    D(15,2,3,4)            66.1185         estimate D2E/DX2                !
 ! D4    D(15,2,3,17)          -69.2274         estimate D2E/DX2                !
 ! D5    D(16,2,3,4)           -50.0353         estimate D2E/DX2                !
 ! D6    D(16,2,3,17)          174.6188         estimate D2E/DX2                !
 ! D7    D(1,2,15,24)          -51.0488         estimate D2E/DX2                !
 ! D8    D(1,2,15,25)         -172.2029         estimate D2E/DX2                !
 ! D9    D(1,2,15,26)           68.4836         estimate D2E/DX2                !
 ! D10   D(3,2,15,24)           61.8456         estimate D2E/DX2                !
 ! D11   D(3,2,15,25)          -59.3085         estimate D2E/DX2                !
 ! D12   D(3,2,15,26)         -178.622          estimate D2E/DX2                !
 ! D13   D(16,2,15,24)         177.0734         estimate D2E/DX2                !
 ! D14   D(16,2,15,25)          55.9193         estimate D2E/DX2                !
 ! D15   D(16,2,15,26)         -63.3941         estimate D2E/DX2                !
 ! D16   D(2,3,4,5)             78.4494         estimate D2E/DX2                !
 ! D17   D(2,3,4,7)           -104.4974         estimate D2E/DX2                !
 ! D18   D(17,3,4,5)          -147.8363         estimate D2E/DX2                !
 ! D19   D(17,3,4,7)            29.2168         estimate D2E/DX2                !
 ! D20   D(3,4,5,6)            177.8834         estimate D2E/DX2                !
 ! D21   D(7,4,5,6)              0.2846         estimate D2E/DX2                !
 ! D22   D(3,4,7,8)           -177.0909         estimate D2E/DX2                !
 ! D23   D(3,4,7,18)             3.5348         estimate D2E/DX2                !
 ! D24   D(5,4,7,8)              0.2575         estimate D2E/DX2                !
 ! D25   D(5,4,7,18)          -179.1168         estimate D2E/DX2                !
 ! D26   D(4,5,6,8)             -0.7129         estimate D2E/DX2                !
 ! D27   D(5,6,8,7)              0.9043         estimate D2E/DX2                !
 ! D28   D(5,6,8,9)           -179.0684         estimate D2E/DX2                !
 ! D29   D(4,7,8,6)             -0.7006         estimate D2E/DX2                !
 ! D30   D(4,7,8,9)            179.2693         estimate D2E/DX2                !
 ! D31   D(18,7,8,6)           178.7456         estimate D2E/DX2                !
 ! D32   D(18,7,8,9)            -1.2845         estimate D2E/DX2                !
 ! D33   D(6,8,9,10)           -24.124          estimate D2E/DX2                !
 ! D34   D(6,8,9,14)           155.9166         estimate D2E/DX2                !
 ! D35   D(7,8,9,10)           155.9088         estimate D2E/DX2                !
 ! D36   D(7,8,9,14)           -24.0506         estimate D2E/DX2                !
 ! D37   D(8,9,10,11)          179.7582         estimate D2E/DX2                !
 ! D38   D(8,9,10,19)           -0.5296         estimate D2E/DX2                !
 ! D39   D(14,9,10,11)          -0.2829         estimate D2E/DX2                !
 ! D40   D(14,9,10,19)         179.4293         estimate D2E/DX2                !
 ! D41   D(8,9,14,13)          179.6076         estimate D2E/DX2                !
 ! D42   D(8,9,14,23)           -1.0596         estimate D2E/DX2                !
 ! D43   D(10,9,14,13)          -0.351          estimate D2E/DX2                !
 ! D44   D(10,9,14,23)         178.9818         estimate D2E/DX2                !
 ! D45   D(9,10,11,12)           0.6355         estimate D2E/DX2                !
 ! D46   D(9,10,11,20)         179.9469         estimate D2E/DX2                !
 ! D47   D(19,10,11,12)       -179.0715         estimate D2E/DX2                !
 ! D48   D(19,10,11,20)          0.24           estimate D2E/DX2                !
 ! D49   D(10,11,12,13)         -0.3526         estimate D2E/DX2                !
 ! D50   D(10,11,12,21)        179.6784         estimate D2E/DX2                !
 ! D51   D(20,11,12,13)       -179.6579         estimate D2E/DX2                !
 ! D52   D(20,11,12,21)          0.3731         estimate D2E/DX2                !
 ! D53   D(11,12,13,14)         -0.2944         estimate D2E/DX2                !
 ! D54   D(11,12,13,22)       -179.6568         estimate D2E/DX2                !
 ! D55   D(21,12,13,14)        179.6746         estimate D2E/DX2                !
 ! D56   D(21,12,13,22)          0.3122         estimate D2E/DX2                !
 ! D57   D(12,13,14,9)           0.6399         estimate D2E/DX2                !
 ! D58   D(12,13,14,23)       -178.6928         estimate D2E/DX2                !
 ! D59   D(22,13,14,9)        -179.9918         estimate D2E/DX2                !
 ! D60   D(22,13,14,23)          0.6754         estimate D2E/DX2                !
 --------------------------------------------------------------------------------
 Trust Radius=3.00D-01 FncErr=1.00D-07 GrdErr=1.00D-06 EigMax=2.50D+02 EigMin=1.00D-04
 Number of steps in this run=    141 maximum allowed number of steps=    156.
 GradGradGradGradGradGradGradGradGradGradGradGradGradGradGradGradGradGrad

 Leave Link  103 at Wed Sep 23 05:18:41 2020, MaxMem=  2147483648 cpu:               0.0 elap:               0.0
 (Enter /prod/apps/gaussian/g16b1/l202.exe)
                          Input orientation:                          
 ---------------------------------------------------------------------
 Center     Atomic      Atomic             Coordinates (Angstroms)
 Number     Number       Type             X           Y           Z
 ---------------------------------------------------------------------
      1          8           0        4.713000   -0.539000   -0.447000
      2         16           0        3.472000   -0.099000    0.201000
      3          7           0        2.285000   -0.212000   -1.006000
      4          6           0        0.961000    0.175000   -0.721000
      5          7           0        0.591000    1.485000   -0.693000
      6          7           0       -0.690000    1.554000   -0.451000
      7          6           0       -0.152000   -0.607000   -0.490000
      8          7           0       -1.158000    0.288000   -0.337000
      9          6           0       -2.539000    0.041000   -0.090000
     10          6           0       -3.308000    1.032000    0.525000
     11          6           0       -4.660000    0.790000    0.761000
     12          6           0       -5.235000   -0.431000    0.400000
     13          6           0       -4.452000   -1.413000   -0.208000
     14          6           0       -3.101000   -1.181000   -0.463000
     15          6           0        3.038000   -1.281000    1.480000
     16          8           0        3.383000    1.251000    0.767000
     17          1           0        2.363000   -1.106000   -1.495000
     18          1           0       -0.289000   -1.672000   -0.419000
     19          1           0       -2.845000    1.966000    0.812000
     20          1           0       -5.261000    1.556000    1.239000
     21          1           0       -6.286000   -0.615000    0.591000
     22          1           0       -4.891000   -2.360000   -0.496000
     23          1           0       -2.498000   -1.935000   -0.954000
     24          1           0        3.053000   -2.280000    1.047000
     25          1           0        2.050000   -1.033000    1.866000
     26          1           0        3.788000   -1.190000    2.267000
 ---------------------------------------------------------------------
                    Distance matrix (angstroms):
                    1          2          3          4          5
     1  O    0.000000
     2  S    1.467510   0.000000
     3  N    2.512886   1.696640   0.000000
     4  C    3.829148   2.688918   1.408535   0.000000
     5  N    4.598693   3.407118   2.418143   1.361537   0.000000
     6  N    5.794228   4.525457   3.503913   2.168027   1.305483
     7  C    4.865665   3.724100   2.522152   1.379730   2.229287
     8  N    5.929981   4.677191   3.542853   2.156475   2.149080
     9  C    7.283911   6.019668   4.916710   3.558949   3.499378
    10  C    8.230994   6.881318   5.930695   4.528943   4.109858
    11  C    9.543513   8.199594   7.235974   5.845527   5.492735
    12  C    9.984577   8.715599   7.653443   6.325685   6.229605
    13  C    9.209681   8.042615   6.889584   5.664405   5.836564
    14  C    7.840345   6.694472   5.499346   4.290122   4.559750
    15  C    2.658857   1.794804   2.808908   3.358313   4.284915
    16  O    2.539054   1.466553   2.547450   3.039408   3.159370
    17  H    2.634823   2.262818   1.021979   2.050766   3.239825
    18  H    5.128789   4.123572   3.016893   2.250581   3.288788
    19  H    8.061233   6.673982   5.862227   4.476986   3.781862
    20  H   10.330164   8.948841   8.068951   6.667987   6.163081
    21  H   11.048132   9.779413   8.727821   7.407054   7.304231
    22  H    9.775237   8.691243   7.507928   6.381438   6.698892
    23  H    7.362363   6.351836   5.084144   4.058457   4.615890
    24  H    2.831734   2.376560   3.013512   3.678221   4.823305
    25  H    3.561681   2.380476   2.996273   3.055774   3.875240
    26  H    2.940276   2.357646   3.732027   4.333970   5.112537
                    6          7          8          9         10
     6  N    0.000000
     7  C    2.227305   0.000000
     8  N    1.354539   1.355164   0.000000
     9  C    2.416256   2.505528   1.424493   0.000000
    10  C    2.842355   3.698227   2.432916   1.397021   0.000000
    11  C    4.220609   4.882486   3.704269   2.404962   1.393615
    12  C    5.032042   5.163329   4.205004   2.780522   2.422669
    13  C    4.797372   4.383966   3.709512   2.405745   2.797150
    14  C    3.645996   3.004464   2.439075   1.395800   2.432357
    15  C    5.065962   3.809367   4.834218   5.942686   6.821562
    16  O    4.262002   4.186698   4.771464   6.104804   6.698956
    17  H    4.181668   2.753952   3.960005   5.226781   6.388402
    18  H    3.250985   1.076120   2.145573   2.846947   4.161384
    19  H    2.531588   3.945603   2.642320   2.147758   1.081247
    20  H    4.873412   5.811187   4.574517   3.386850   2.144430
    21  H    6.091432   6.228530   5.288949   3.864467   3.403740
    22  H    5.741935   5.052837   4.579571   3.385490   3.879948
    23  H    3.961691   2.735433   2.667961   2.157024   3.412716
    24  H    5.563597   3.928527   5.122753   6.160379   7.190560
    25  H    4.423648   3.252847   4.109685   5.102777   5.896666
    26  H    5.913505   4.844021   5.781714   6.863071   7.637085
                   11         12         13         14         15
    11  C    0.000000
    12  C    1.397064   0.000000
    13  C    2.415664   1.395377   0.000000
    14  C    2.795263   2.420997   1.394292   0.000000
    15  C    8.004074   8.386384   7.678989   6.439920   0.000000
    16  O    8.056203   8.788273   8.332751   7.033476   2.653002
    17  H    7.616225   7.859787   6.942251   5.561110   3.055630
    18  H    5.153590   5.164664   4.176383   2.854884   3.850716
    19  H    2.163285   3.409905   3.878207   3.405109   6.752697
    20  H    1.084639   2.157027   3.400478   3.879893   8.773828
    21  H    2.155644   1.083946   2.153778   3.402278   9.389934
    22  H    3.399398   2.154575   1.082808   2.143649   8.242442
    23  H    3.878285   3.403895   2.155717   1.083146   6.082711
    24  H    8.306447   8.516358   7.658442   6.431144   1.088905
    25  H    7.040487   7.455386   6.835341   5.654993   1.089332
    26  H    8.806653   9.245339   8.606565   7.410216   1.090940
                   16         17         18         19         20
    16  O    0.000000
    17  H    3.422352   0.000000
    18  H    4.840879   2.917402   0.000000
    19  H    6.269070   6.471684   4.613409   0.000000
    20  H    8.662248   8.525631   6.155464   2.487466   0.000000
    21  H    9.848984   8.910537   6.172630   4.307074   2.486719
    22  H    9.115567   7.429067   4.653781   4.960973   4.299091
    23  H    6.906417   4.960770   2.288029   4.296157   4.962912
    24  H    3.557423   2.883772   3.699701   7.271186   9.158294
    25  H    2.863799   3.376332   3.331736   5.836604   7.781181
    26  H    2.893528   4.023720   4.906001   7.488261   9.512187
                   21         22         23         24         25
    21  H    0.000000
    22  H    2.484476   0.000000
    23  H    4.298647   2.473224   0.000000
    24  H    9.497214   8.092860   5.910721   0.000000
    25  H    8.443296   7.451004   5.426814   1.797715   0.000000
    26  H   10.228640   9.183034   7.102370   1.793523   1.790557
                   26
    26  H    0.000000
 Symmetry turned off by external request.
 Stoichiometry    C9H10N4O2S
 Framework group  C1[X(C9H10N4O2S)]
 Deg. of freedom    72
 Full point group                 C1      NOp   1
 Rotational constants (GHZ):           1.5913068           0.1984860           0.1905606
 Leave Link  202 at Wed Sep 23 05:18:41 2020, MaxMem=  2147483648 cpu:               0.1 elap:               0.0
 (Enter /prod/apps/gaussian/g16b1/l301.exe)
 Standard basis: 6-31G(d) (6D, 7F)
 Ernie: Thresh=  0.10000D-02 Tol=  0.10000D-05 Strict=F.
   264 basis functions,   512 primitive gaussians,   264 cartesian basis functions
    62 alpha electrons       62 beta electrons
       nuclear repulsion energy      1185.4326976170 Hartrees.
 IExCor=  402 DFT=T Ex+Corr=B3LYP ExCW=0 ScaHFX=  0.200000
 ScaDFX=  0.800000  0.720000  1.000000  0.810000 ScalE2=  1.000000  1.000000
 IRadAn=      5 IRanWt=     -1 IRanGd=            0 ICorTp=0 IEmpDi=  4
 NAtoms=   26 NActive=   26 NUniq=   26 SFac= 1.00D+00 NAtFMM=   60 NAOKFM=F Big=F
 Integral buffers will be    131072 words long.
 Raffenetti 2 integral format.
 Two-electron integral symmetry is turned off.
 Using the following non-standard input for PCM:
 MSTModel=DFT cav
 --- end of non-standard input.
 MST model for solvation energy: B3LYP parametrization.
 MST cavity parameters:
 ISph   IAn     Re0     Alpha   Atom Type   QCorr
 ------------------------------------------------
   1      8     1.40     1.25      O          F
   2     16     1.75     1.25      S          F
   3      7     1.50     1.25      NH         F
   4      6     1.50     1.25      C          F
   5      7     1.40     1.25      N          F
   6      7     1.40     1.25      N          F
   7      6     1.50     1.25      CH         F
   8      7     1.40     1.25      N          F
   9      6     1.50     1.25      C          F
  10      6     1.50     1.25      CH         F
  11      6     1.50     1.25      CH         F
  12      6     1.50     1.25      CH         F
  13      6     1.50     1.25      CH         F
  14      6     1.50     1.25      CH         F
  15      6     1.50     1.25      CH3        F
  16      8     1.40     1.25      O          F
  17      1     0.90     1.25      NH         F
  18      1     1.20     1.25      CH         F
  19      1     1.20     1.25      CH         F
  20      1     1.20     1.25      CH         F
  21      1     1.20     1.25      CH         F
  22      1     1.20     1.25      CH         F
  23      1     1.20     1.25      CH         F
  24      1     1.20     1.25      CH3        F
  25      1     1.20     1.25      CH3        F
  26      1     1.20     1.25      CH3        F
 ------------------------------------------------------------------------------
 Polarizable Continuum Model (PCM)
 =================================
 Model                : PCM.
 Atomic radii         : MST.
 Polarization charges : Total charges.
 Charge compensation  : None.
 Solution method      : On-the-fly selection.
 Cavity type          : Scaled VdW (van der Waals Surface) (Alpha=1.250).
 Cavity algorithm     : GePol (No added spheres)
                        Default sphere list used, NSphG=   26.
                        Lebedev-Laikov grids with approx.  5.0 points / Ang**2.
                        Smoothing algorithm: York/Karplus (Gamma=1.0000).
                        Polarization charges: spherical gaussians, with
                                              point-specific exponents (IZeta= 3).
                        Self-potential: point-specific (ISelfS= 7).
                        Self-field    : sphere-specific E.n sum rule (ISelfD= 2).
 1st derivatives      : Analytical E(r).r(x)/FMM algorithm (CHGder, D1EAlg=3).
                        Cavity 1st derivative terms included.
 Solvent              : Water, Eps=  78.355300 Eps(inf)=   1.777849
 ------------------------------------------------------------------------------
 GePol: Number of generator spheres                  =      26
 GePol: Total number of spheres                      =      26
 GePol: Number of exposed spheres                    =      26 (100.00%)
 GePol: Number of points                             =    2105
 GePol: Average weight of points                     =       0.13
 GePol: Minimum weight of points                     =   0.41D-09
 GePol: Maximum weight of points                     =    0.22001
 GePol: Number of points with low weight             =     142
 GePol: Fraction of low-weight points (<1% of avg)   =       6.75%
 GePol: Cavity surface area                          =    274.046 Ang**2
 GePol: Cavity volume                                =    253.777 Ang**3
 PCM non-electrostatic energy =         0.0029617859 Hartrees.
 Nuclear repulsion after PCM non-electrostatic terms =     1185.4356594029 Hartrees.
 Leave Link  301 at Wed Sep 23 05:18:41 2020, MaxMem=  2147483648 cpu:               0.3 elap:               0.1
 (Enter /prod/apps/gaussian/g16b1/l302.exe)
 NPDir=0 NMtPBC=     1 NCelOv=     1 NCel=       1 NClECP=     1 NCelD=      1
         NCelK=      1 NCelE2=     1 NClLst=     1 CellRange=     0.0.
 One-electron integrals computed using PRISM.
 NBasis=   264 RedAO= T EigKep=  4.68D-04  NBF=   264
 NBsUse=   264 1.00D-06 EigRej= -1.00D+00 NBFU=   264
 Precomputing XC quadrature grid using
 IXCGrd= 4 IRadAn=           5 IRanWt=          -1 IRanGd=           0 AccXCQ= 0.00D+00.
 Generated NRdTot=       0 NPtTot=           0 NUsed=           0 NTot=          32
 NSgBfM=   262   262   262   262   262 MxSgAt=    26 MxSgA2=    26.
 Leave Link  302 at Wed Sep 23 05:18:41 2020, MaxMem=  2147483648 cpu:               1.1 elap:               0.3
 (Enter /prod/apps/gaussian/g16b1/l303.exe)
 DipDrv:  MaxL=1.
 Leave Link  303 at Wed Sep 23 05:18:41 2020, MaxMem=  2147483648 cpu:               0.1 elap:               0.0
 (Enter /prod/apps/gaussian/g16b1/l401.exe)
 ExpMin= 1.17D-01 ExpMax= 2.19D+04 ExpMxC= 3.30D+03 IAcc=3 IRadAn=         5 AccDes= 0.00D+00
 Harris functional with IExCor=  402 and IRadAn=       5 diagonalized for initial guess.
 HarFok:  IExCor=  402 AccDes= 0.00D+00 IRadAn=         5 IDoV= 1 UseB2=F ITyADJ=14
 ICtDFT=  3500011 ScaDFX=  1.000000  1.000000  1.000000  1.000000
 FoFCou: FMM=F IPFlag=           0 FMFlag=      100000 FMFlg1=           0
         NFxFlg=           0 DoJE=T BraDBF=F KetDBF=T FulRan=T
         wScrn=  0.000000 ICntrl=       500 IOpCl=  0 I1Cent=   200000004 NGrid=           0
         NMat0=    1 NMatS0=      1 NMatT0=    0 NMatD0=    1 NMtDS0=    0 NMtDT0=    0
 Symmetry not used in FoFCou.
 Harris En= -1116.51865992356    
 JPrj=0 DoOrth=F DoCkMO=F.
 Leave Link  401 at Wed Sep 23 05:18:43 2020, MaxMem=  2147483648 cpu:               5.6 elap:               1.4
 (Enter /prod/apps/gaussian/g16b1/l502.exe)
 Keep R1 ints in memory in canonical form, NReq=621123487.
 FoFCou: FMM=F IPFlag=           0 FMFlag=           0 FMFlg1=           0
         NFxFlg=           0 DoJE=F BraDBF=F KetDBF=F FulRan=T
         wScrn=  0.000000 ICntrl=       600 IOpCl=  0 I1Cent=           0 NGrid=           0
         NMat0=    1 NMatS0=  34980 NMatT0=    0 NMatD0=    1 NMtDS0=    0 NMtDT0=    0
 Symmetry not used in FoFCou.
 Two-electron integral symmetry not used.
 Closed shell SCF:
 Using DIIS extrapolation, IDIIS=  1040.
 NGot=  2147483648 LenX=  1535522690 LenY=  1535452553
 Requested convergence on RMS density matrix=1.00D-08 within2000 cycles.
 Requested convergence on MAX density matrix=1.00D-06.
 Requested convergence on             energy=1.00D-06.
 No special actions if energy rises.

 Cycle   1  Pass 1  IDiag  1:
 Inv3:  Mode=1 IEnd=    13293075.
 Iteration    1 A*A^-1 deviation from unit magnitude is 2.89D-15 for    725.
 Iteration    1 A*A^-1 deviation from orthogonality  is 2.05D-15 for   1996   1673.
 Iteration    1 A^-1*A deviation from unit magnitude is 2.66D-15 for    255.
 Iteration    1 A^-1*A deviation from orthogonality  is 3.15D-11 for   1744   1715.
 E= -1116.05563083023    
 DIIS: error= 3.20D-02 at cycle   1 NSaved=   1.
 NSaved= 1 IEnMin= 1 EnMin= -1116.05563083023     IErMin= 1 ErrMin= 3.20D-02
 ErrMax= 3.20D-02  0.00D+00 EMaxC= 1.00D-01 BMatC= 5.67D-01 BMatP= 5.67D-01
 IDIUse=3 WtCom= 6.80D-01 WtEn= 3.20D-01
 Coeff-Com:  0.100D+01
 Coeff-En:   0.100D+01
 Coeff:      0.100D+01
 Gap=     0.301 Goal=   None    Shift=    0.000
 GapD=    0.301 DampG=1.000 DampE=0.500 DampFc=0.5000 IDamp=-1.
 Damping current iteration by 5.00D-01
 RMSDP=6.74D-03 MaxDP=5.48D-01              OVMax= 2.26D-01

 Cycle   2  Pass 1  IDiag  1:
 E= -1116.19125704061     Delta-E=       -0.135626210382 Rises=F Damp=T
 DIIS: error= 1.62D-02 at cycle   2 NSaved=   2.
 NSaved= 2 IEnMin= 2 EnMin= -1116.19125704061     IErMin= 2 ErrMin= 1.62D-02
 ErrMax= 1.62D-02  0.00D+00 EMaxC= 1.00D-01 BMatC= 7.61D-02 BMatP= 5.67D-01
 IDIUse=3 WtCom= 8.38D-01 WtEn= 1.62D-01
 Coeff-Com:  0.211D+00 0.789D+00
 Coeff-En:   0.341D+00 0.659D+00
 Coeff:      0.232D+00 0.768D+00
 Gap=     0.217 Goal=   None    Shift=    0.000
 RMSDP=1.80D-03 MaxDP=1.12D-01 DE=-1.36D-01 OVMax= 1.65D-01

 Cycle   3  Pass 1  IDiag  1:
 E= -1116.50894595942     Delta-E=       -0.317688918806 Rises=F Damp=F
 DIIS: error= 9.11D-03 at cycle   3 NSaved=   3.
 NSaved= 3 IEnMin= 3 EnMin= -1116.50894595942     IErMin= 3 ErrMin= 9.11D-03
 ErrMax= 9.11D-03  0.00D+00 EMaxC= 1.00D-01 BMatC= 3.28D-02 BMatP= 7.61D-02
 IDIUse=3 WtCom= 9.09D-01 WtEn= 9.11D-02
 Coeff-Com:  0.633D-01 0.398D+00 0.539D+00
 Coeff-En:   0.000D+00 0.000D+00 0.100D+01
 Coeff:      0.575D-01 0.362D+00 0.581D+00
 Gap=     0.200 Goal=   None    Shift=    0.000
 RMSDP=8.72D-04 MaxDP=2.84D-02 DE=-3.18D-01 OVMax= 4.55D-02

 Cycle   4  Pass 1  IDiag  1:
 E= -1116.53400833918     Delta-E=       -0.025062379758 Rises=F Damp=F
 DIIS: error= 3.03D-03 at cycle   4 NSaved=   4.
 NSaved= 4 IEnMin= 4 EnMin= -1116.53400833918     IErMin= 4 ErrMin= 3.03D-03
 ErrMax= 3.03D-03  0.00D+00 EMaxC= 1.00D-01 BMatC= 5.16D-03 BMatP= 3.28D-02
 IDIUse=3 WtCom= 9.70D-01 WtEn= 3.03D-02
 Coeff-Com:  0.367D-02 0.718D-01 0.301D+00 0.624D+00
 Coeff-En:   0.000D+00 0.000D+00 0.114D+00 0.886D+00
 Coeff:      0.356D-02 0.697D-01 0.295D+00 0.631D+00
 Gap=     0.198 Goal=   None    Shift=    0.000
 RMSDP=2.82D-04 MaxDP=1.10D-02 DE=-2.51D-02 OVMax= 1.38D-02

 Cycle   5  Pass 1  IDiag  1:
 E= -1116.53815397654     Delta-E=       -0.004145637360 Rises=F Damp=F
 DIIS: error= 6.54D-04 at cycle   5 NSaved=   5.
 NSaved= 5 IEnMin= 5 EnMin= -1116.53815397654     IErMin= 5 ErrMin= 6.54D-04
 ErrMax= 6.54D-04  0.00D+00 EMaxC= 1.00D-01 BMatC= 3.68D-04 BMatP= 5.16D-03
 IDIUse=3 WtCom= 9.93D-01 WtEn= 6.54D-03
 Coeff-Com: -0.178D-02 0.150D-01 0.119D+00 0.327D+00 0.541D+00
 Coeff-En:   0.000D+00 0.000D+00 0.000D+00 0.000D+00 0.100D+01
 Coeff:     -0.177D-02 0.149D-01 0.118D+00 0.325D+00 0.544D+00
 Gap=     0.199 Goal=   None    Shift=    0.000
 RMSDP=8.53D-05 MaxDP=4.98D-03 DE=-4.15D-03 OVMax= 5.35D-03

 Cycle   6  Pass 1  IDiag  1:
 E= -1116.53844631422     Delta-E=       -0.000292337683 Rises=F Damp=F
 DIIS: error= 2.31D-04 at cycle   6 NSaved=   6.
 NSaved= 6 IEnMin= 6 EnMin= -1116.53844631422     IErMin= 6 ErrMin= 2.31D-04
 ErrMax= 2.31D-04  0.00D+00 EMaxC= 1.00D-01 BMatC= 3.48D-05 BMatP= 3.68D-04
 IDIUse=3 WtCom= 9.98D-01 WtEn= 2.31D-03
 Coeff-Com: -0.135D-02 0.234D-02 0.402D-01 0.126D+00 0.301D+00 0.531D+00
 Coeff-En:   0.000D+00 0.000D+00 0.000D+00 0.000D+00 0.000D+00 0.100D+01
 Coeff:     -0.135D-02 0.234D-02 0.401D-01 0.126D+00 0.301D+00 0.532D+00
 Gap=     0.199 Goal=   None    Shift=    0.000
 RMSDP=2.36D-05 MaxDP=1.25D-03 DE=-2.92D-04 OVMax= 1.45D-03

 Cycle   7  Pass 1  IDiag  1:
 E= -1116.53847434984     Delta-E=       -0.000028035617 Rises=F Damp=F
 DIIS: error= 6.83D-05 at cycle   7 NSaved=   7.
 NSaved= 7 IEnMin= 7 EnMin= -1116.53847434984     IErMin= 7 ErrMin= 6.83D-05
 ErrMax= 6.83D-05  0.00D+00 EMaxC= 1.00D-01 BMatC= 2.38D-06 BMatP= 3.48D-05
 IDIUse=1 WtCom= 1.00D+00 WtEn= 0.00D+00
 Coeff-Com: -0.552D-03 0.190D-03 0.116D-01 0.392D-01 0.113D+00 0.281D+00
 Coeff-Com:  0.556D+00
 Coeff:     -0.552D-03 0.190D-03 0.116D-01 0.392D-01 0.113D+00 0.281D+00
 Coeff:      0.556D+00
 Gap=     0.199 Goal=   None    Shift=    0.000
 RMSDP=7.00D-06 MaxDP=3.64D-04 DE=-2.80D-05 OVMax= 4.70D-04

 Cycle   8  Pass 1  IDiag  1:
 E= -1116.53847622502     Delta-E=       -0.000001875186 Rises=F Damp=F
 DIIS: error= 2.61D-05 at cycle   8 NSaved=   8.
 NSaved= 8 IEnMin= 8 EnMin= -1116.53847622502     IErMin= 8 ErrMin= 2.61D-05
 ErrMax= 2.61D-05  0.00D+00 EMaxC= 1.00D-01 BMatC= 3.45D-07 BMatP= 2.38D-06
 IDIUse=1 WtCom= 1.00D+00 WtEn= 0.00D+00
 Coeff-Com: -0.205D-03-0.224D-03 0.280D-02 0.106D-01 0.374D-01 0.112D+00
 Coeff-Com:  0.328D+00 0.509D+00
 Coeff:     -0.205D-03-0.224D-03 0.280D-02 0.106D-01 0.374D-01 0.112D+00
 Coeff:      0.328D+00 0.509D+00
 Gap=     0.199 Goal=   None    Shift=    0.000
 RMSDP=2.61D-06 MaxDP=1.31D-04 DE=-1.88D-06 OVMax= 1.68D-04

 Cycle   9  Pass 1  IDiag  1:
 E= -1116.53847650652     Delta-E=       -0.000000281497 Rises=F Damp=F
 DIIS: error= 6.61D-06 at cycle   9 NSaved=   9.
 NSaved= 9 IEnMin= 9 EnMin= -1116.53847650652     IErMin= 9 ErrMin= 6.61D-06
 ErrMax= 6.61D-06  0.00D+00 EMaxC= 1.00D-01 BMatC= 3.07D-08 BMatP= 3.45D-07
 IDIUse=1 WtCom= 1.00D+00 WtEn= 0.00D+00
 Coeff-Com: -0.147D-04-0.127D-03-0.392D-03-0.819D-03 0.134D-02 0.139D-01
 Coeff-Com:  0.867D-01 0.270D+00 0.630D+00
 Coeff:     -0.147D-04-0.127D-03-0.392D-03-0.819D-03 0.134D-02 0.139D-01
 Coeff:      0.867D-01 0.270D+00 0.630D+00
 Gap=     0.199 Goal=   None    Shift=    0.000
 RMSDP=7.65D-07 MaxDP=3.10D-05 DE=-2.81D-07 OVMax= 4.27D-05

 Cycle  10  Pass 1  IDiag  1:
 E= -1116.53847653438     Delta-E=       -0.000000027862 Rises=F Damp=F
 DIIS: error= 1.72D-06 at cycle  10 NSaved=  10.
 NSaved=10 IEnMin=10 EnMin= -1116.53847653438     IErMin=10 ErrMin= 1.72D-06
 ErrMax= 1.72D-06  0.00D+00 EMaxC= 1.00D-01 BMatC= 1.51D-09 BMatP= 3.07D-08
 IDIUse=1 WtCom= 1.00D+00 WtEn= 0.00D+00
 Coeff-Com:  0.334D-06-0.441D-04-0.272D-03-0.749D-03-0.860D-03 0.149D-02
 Coeff-Com:  0.275D-01 0.990D-01 0.288D+00 0.585D+00
 Coeff:      0.334D-06-0.441D-04-0.272D-03-0.749D-03-0.860D-03 0.149D-02
 Coeff:      0.275D-01 0.990D-01 0.288D+00 0.585D+00
 Gap=     0.199 Goal=   None    Shift=    0.000
 RMSDP=1.95D-07 MaxDP=9.68D-06 DE=-2.79D-08 OVMax= 1.26D-05

 Cycle  11  Pass 1  IDiag  1:
 E= -1116.53847653556     Delta-E=       -0.000000001180 Rises=F Damp=F
 DIIS: error= 8.77D-07 at cycle  11 NSaved=  11.
 NSaved=11 IEnMin=11 EnMin= -1116.53847653556     IErMin=11 ErrMin= 8.77D-07
 ErrMax= 8.77D-07  0.00D+00 EMaxC= 1.00D-01 BMatC= 3.10D-10 BMatP= 1.51D-09
 IDIUse=1 WtCom= 1.00D+00 WtEn= 0.00D+00
 Coeff-Com:  0.241D-05-0.485D-05-0.106D-03-0.327D-03-0.754D-03-0.142D-02
 Coeff-Com:  0.325D-02 0.149D-01 0.692D-01 0.337D+00 0.578D+00
 Coeff:      0.241D-05-0.485D-05-0.106D-03-0.327D-03-0.754D-03-0.142D-02
 Coeff:      0.325D-02 0.149D-01 0.692D-01 0.337D+00 0.578D+00
 Gap=     0.199 Goal=   None    Shift=    0.000
 RMSDP=6.95D-08 MaxDP=5.26D-06 DE=-1.18D-09 OVMax= 5.44D-06

 Cycle  12  Pass 1  IDiag  1:
 E= -1116.53847653582     Delta-E=       -0.000000000256 Rises=F Damp=F
 DIIS: error= 3.11D-07 at cycle  12 NSaved=  12.
 NSaved=12 IEnMin=12 EnMin= -1116.53847653582     IErMin=12 ErrMin= 3.11D-07
 ErrMax= 3.11D-07  0.00D+00 EMaxC= 1.00D-01 BMatC= 3.57D-11 BMatP= 3.10D-10
 IDIUse=1 WtCom= 1.00D+00 WtEn= 0.00D+00
 Coeff-Com:  0.148D-05 0.106D-05-0.428D-04-0.138D-03-0.417D-03-0.116D-02
 Coeff-Com: -0.901D-03-0.159D-02 0.121D-01 0.150D+00 0.345D+00 0.497D+00
 Coeff:      0.148D-05 0.106D-05-0.428D-04-0.138D-03-0.417D-03-0.116D-02
 Coeff:     -0.901D-03-0.159D-02 0.121D-01 0.150D+00 0.345D+00 0.497D+00
 Gap=     0.199 Goal=   None    Shift=    0.000
 RMSDP=2.25D-08 MaxDP=1.37D-06 DE=-2.56D-10 OVMax= 1.45D-06

 Cycle  13  Pass 1  IDiag  1:
 E= -1116.53847653584     Delta-E=       -0.000000000022 Rises=F Damp=F
 DIIS: error= 5.66D-08 at cycle  13 NSaved=  13.
 NSaved=13 IEnMin=13 EnMin= -1116.53847653584     IErMin=13 ErrMin= 5.66D-08
 ErrMax= 5.66D-08  0.00D+00 EMaxC= 1.00D-01 BMatC= 1.59D-12 BMatP= 3.57D-11
 IDIUse=1 WtCom= 1.00D+00 WtEn= 0.00D+00
 Coeff-Com:  0.305D-06 0.863D-06-0.585D-05-0.183D-04-0.820D-04-0.307D-03
 Coeff-Com: -0.600D-03-0.229D-02-0.289D-02 0.256D-01 0.755D-01 0.205D+00
 Coeff-Com:  0.700D+00
 Coeff:      0.305D-06 0.863D-06-0.585D-05-0.183D-04-0.820D-04-0.307D-03
 Coeff:     -0.600D-03-0.229D-02-0.289D-02 0.256D-01 0.755D-01 0.205D+00
 Coeff:      0.700D+00
 Gap=     0.199 Goal=   None    Shift=    0.000
 RMSDP=6.59D-09 MaxDP=2.92D-07 DE=-2.23D-11 OVMax= 5.49D-07

 Error on total polarization charges =  0.01967
 SCF Done:  E(RB3LYP) =  -1116.53847654     A.U. after   13 cycles
            NFock= 13  Conv=0.66D-08     -V/T= 2.0074
 KE= 1.108374004732D+03 PE=-4.987694371835D+03 EE= 1.577346231164D+03
 Leave Link  502 at Wed Sep 23 05:19:26 2020, MaxMem=  2147483648 cpu:             140.1 elap:              43.1
 (Enter /prod/apps/gaussian/g16b1/l601.exe)
 Copying SCF densities to generalized density rwf, IOpCl= 0 IROHF=0.

 **********************************************************************

            Population analysis using the SCF Density.

 **********************************************************************

 Alpha  occ. eigenvalues --  -89.12459 -19.15583 -19.15535 -14.44708 -14.40465
 Alpha  occ. eigenvalues --  -14.38396 -14.37157 -10.26437 -10.25134 -10.24530
 Alpha  occ. eigenvalues --  -10.22390 -10.20680 -10.20409 -10.20183 -10.20148
 Alpha  occ. eigenvalues --  -10.19892  -8.15043  -6.11542  -6.11470  -6.11313
 Alpha  occ. eigenvalues --   -1.12361  -1.11419  -1.01288  -0.95780  -0.93056
 Alpha  occ. eigenvalues --   -0.86135  -0.81245  -0.77503  -0.76375  -0.75825
 Alpha  occ. eigenvalues --   -0.66863  -0.66396  -0.63051  -0.60905  -0.58723
 Alpha  occ. eigenvalues --   -0.56474  -0.53889  -0.52548  -0.49818  -0.49781
 Alpha  occ. eigenvalues --   -0.48735  -0.48285  -0.46979  -0.45420  -0.44541
 Alpha  occ. eigenvalues --   -0.43767  -0.43356  -0.43330  -0.38893  -0.37308
 Alpha  occ. eigenvalues --   -0.36450  -0.35975  -0.34922  -0.34046  -0.33016
 Alpha  occ. eigenvalues --   -0.32031  -0.31818  -0.31394  -0.28980  -0.26716
 Alpha  occ. eigenvalues --   -0.26417  -0.24386
 Alpha virt. eigenvalues --   -0.04497  -0.01495   0.01138   0.02059   0.06917
 Alpha virt. eigenvalues --    0.07376   0.09023   0.09891   0.10313   0.10991
 Alpha virt. eigenvalues --    0.12412   0.13837   0.15043   0.15213   0.15628
 Alpha virt. eigenvalues --    0.16110   0.16531   0.18444   0.19169   0.19836
 Alpha virt. eigenvalues --    0.21451   0.23371   0.24654   0.29394   0.30303
 Alpha virt. eigenvalues --    0.31177   0.32696   0.33577   0.35531   0.36455
 Alpha virt. eigenvalues --    0.39082   0.42576   0.42920   0.43443   0.48445
 Alpha virt. eigenvalues --    0.48660   0.50245   0.51830   0.52072   0.52794
 Alpha virt. eigenvalues --    0.54234   0.54787   0.55720   0.57293   0.57748
 Alpha virt. eigenvalues --    0.58200   0.58711   0.60066   0.60711   0.60822
 Alpha virt. eigenvalues --    0.61187   0.62727   0.63364   0.64195   0.66451
 Alpha virt. eigenvalues --    0.67763   0.68785   0.70241   0.70341   0.73035
 Alpha virt. eigenvalues --    0.74191   0.77484   0.77619   0.78645   0.79264
 Alpha virt. eigenvalues --    0.80833   0.83093   0.83673   0.83997   0.84488
 Alpha virt. eigenvalues --    0.84760   0.85341   0.86745   0.87021   0.88044
 Alpha virt. eigenvalues --    0.89422   0.90216   0.91672   0.93307   0.93860
 Alpha virt. eigenvalues --    0.95543   0.96745   0.97479   0.99228   1.00711
 Alpha virt. eigenvalues --    1.01228   1.02523   1.04209   1.05926   1.06426
 Alpha virt. eigenvalues --    1.07932   1.10799   1.12713   1.15439   1.15487
 Alpha virt. eigenvalues --    1.16519   1.17695   1.19155   1.19464   1.24249
 Alpha virt. eigenvalues --    1.24496   1.25699   1.30715   1.32151   1.35525
 Alpha virt. eigenvalues --    1.37114   1.40019   1.41720   1.42617   1.44295
 Alpha virt. eigenvalues --    1.45834   1.47067   1.47885   1.49803   1.51582
 Alpha virt. eigenvalues --    1.52178   1.56213   1.57917   1.61088   1.64501
 Alpha virt. eigenvalues --    1.68701   1.71947   1.74724   1.77276   1.78679
 Alpha virt. eigenvalues --    1.79053   1.79685   1.80732   1.81239   1.83821
 Alpha virt. eigenvalues --    1.85443   1.86509   1.88036   1.90109   1.90974
 Alpha virt. eigenvalues --    1.94350   1.96149   1.96828   2.00493   2.03230
 Alpha virt. eigenvalues --    2.05289   2.05918   2.07629   2.08926   2.10749
 Alpha virt. eigenvalues --    2.10903   2.13015   2.13800   2.14669   2.16964
 Alpha virt. eigenvalues --    2.19665   2.19980   2.21479   2.22807   2.24515
 Alpha virt. eigenvalues --    2.26085   2.27862   2.29123   2.30558   2.31834
 Alpha virt. eigenvalues --    2.34183   2.37062   2.38338   2.48576   2.51040
 Alpha virt. eigenvalues --    2.53139   2.56759   2.58049   2.59318   2.63063
 Alpha virt. eigenvalues --    2.64192   2.66925   2.69605   2.71577   2.72949
 Alpha virt. eigenvalues --    2.73961   2.75700   2.76884   2.81743   2.86401
 Alpha virt. eigenvalues --    2.88737   3.00194   3.06156   3.13128   3.25463
 Alpha virt. eigenvalues --    3.42211   3.60468   3.75863   3.87839   3.93834
 Alpha virt. eigenvalues --    3.96940   4.06371   4.07952   4.10092   4.10743
 Alpha virt. eigenvalues --    4.15305   4.19237   4.23941   4.31703   4.39128
 Alpha virt. eigenvalues --    4.48759   4.70989
          Condensed to atoms (all electrons):
               1          2          3          4          5          6
     1  O    8.267976   0.449271  -0.051406   0.001543  -0.000017  -0.000000
     2  S    0.449271  13.626579   0.136381  -0.017650   0.002197   0.000098
     3  N   -0.051406   0.136381   7.370278   0.258147  -0.058616   0.005675
     4  C    0.001543  -0.017650   0.258147   4.652263   0.370519  -0.083642
     5  N   -0.000017   0.002197  -0.058616   0.370519   6.889117   0.303433
     6  N   -0.000000   0.000098   0.005675  -0.083642   0.303433   6.771993
     7  C   -0.000038  -0.004837  -0.070852   0.519843  -0.071280  -0.099156
     8  N    0.000000   0.000302   0.003278  -0.035395  -0.095952   0.230394
     9  C   -0.000000  -0.000012  -0.000123   0.004188   0.006553  -0.043774
    10  C    0.000000   0.000000   0.000001  -0.000408   0.000374  -0.000455
    11  C   -0.000000  -0.000000  -0.000000   0.000006  -0.000004   0.000290
    12  C   -0.000000  -0.000000  -0.000000   0.000000  -0.000000   0.000017
    13  C   -0.000000  -0.000000   0.000000  -0.000009   0.000002  -0.000067
    14  C   -0.000000  -0.000000   0.000004   0.000951  -0.000333   0.002963
    15  C   -0.058507   0.236090  -0.060660  -0.001996   0.000005   0.000007
    16  O   -0.043862   0.442546  -0.052194  -0.000335   0.000908   0.000042
    17  H    0.000931  -0.004721   0.299120  -0.026301   0.001794  -0.000072
    18  H   -0.000000  -0.000034  -0.000563  -0.025683   0.004037   0.003481
    19  H   -0.000000  -0.000000  -0.000000   0.000043  -0.000327   0.016256
    20  H    0.000000   0.000000   0.000000  -0.000000   0.000000  -0.000008
    21  H   -0.000000  -0.000000  -0.000000  -0.000000   0.000000   0.000000
    22  H    0.000000   0.000000   0.000000   0.000000  -0.000000   0.000001
    23  H   -0.000000  -0.000000   0.000000   0.000053  -0.000007  -0.000085
    24  H    0.000027  -0.008513   0.000081   0.000248  -0.000004  -0.000001
    25  H    0.001786  -0.008328  -0.002290   0.002355  -0.000028  -0.000041
    26  H   -0.000411  -0.012926   0.002233   0.000015  -0.000002  -0.000000
               7          8          9         10         11         12
     1  O   -0.000038   0.000000  -0.000000   0.000000  -0.000000  -0.000000
     2  S   -0.004837   0.000302  -0.000012   0.000000  -0.000000  -0.000000
     3  N   -0.070852   0.003278  -0.000123   0.000001  -0.000000  -0.000000
     4  C    0.519843  -0.035395   0.004188  -0.000408   0.000006   0.000000
     5  N   -0.071280  -0.095952   0.006553   0.000374  -0.000004  -0.000000
     6  N   -0.099156   0.230394  -0.043774  -0.000455   0.000290   0.000017
     7  C    4.997573   0.332357  -0.031250   0.007217  -0.000087   0.000020
     8  N    0.332357   6.876664   0.198571  -0.058959   0.004564   0.000331
     9  C   -0.031250   0.198571   4.626521   0.512559  -0.010713  -0.038270
    10  C    0.007217  -0.058959   0.512559   4.998369   0.519267  -0.039269
    11  C   -0.000087   0.004564  -0.010713   0.519267   4.880724   0.538666
    12  C    0.000020   0.000331  -0.038270  -0.039269   0.538666   4.871872
    13  C    0.000001   0.004667  -0.009490  -0.041401  -0.024703   0.543566
    14  C   -0.006863  -0.050450   0.529098  -0.071435  -0.042253  -0.040873
    15  C    0.000089  -0.000024  -0.000001   0.000000   0.000000   0.000000
    16  O   -0.000169   0.000003   0.000000  -0.000000   0.000000   0.000000
    17  H   -0.001585   0.000002   0.000002   0.000000  -0.000000   0.000000
    18  H    0.363045  -0.034188  -0.001770  -0.000100  -0.000004  -0.000001
    19  H    0.000228  -0.013670  -0.039691   0.356990  -0.037983   0.004500
    20  H    0.000001  -0.000104   0.003546  -0.037918   0.364028  -0.040073
    21  H   -0.000000   0.000003   0.000472   0.004667  -0.041544   0.366095
    22  H   -0.000004  -0.000108   0.003445   0.000727   0.004458  -0.039745
    23  H    0.005714  -0.009154  -0.039311   0.005257   0.000204   0.004307
    24  H    0.000188   0.000000   0.000000  -0.000000  -0.000000  -0.000000
    25  H    0.002948  -0.000097   0.000003  -0.000000  -0.000000  -0.000000
    26  H   -0.000022   0.000001  -0.000000  -0.000000   0.000000   0.000000
              13         14         15         16         17         18
     1  O   -0.000000  -0.000000  -0.058507  -0.043862   0.000931  -0.000000
     2  S   -0.000000  -0.000000   0.236090   0.442546  -0.004721  -0.000034
     3  N    0.000000   0.000004  -0.060660  -0.052194   0.299120  -0.000563
     4  C   -0.000009   0.000951  -0.001996  -0.000335  -0.026301  -0.025683
     5  N    0.000002  -0.000333   0.000005   0.000908   0.001794   0.004037
     6  N   -0.000067   0.002963   0.000007   0.000042  -0.000072   0.003481
     7  C    0.000001  -0.006863   0.000089  -0.000169  -0.001585   0.363045
     8  N    0.004667  -0.050450  -0.000024   0.000003   0.000002  -0.034188
     9  C   -0.009490   0.529098  -0.000001   0.000000   0.000002  -0.001770
    10  C   -0.041401  -0.071435   0.000000  -0.000000   0.000000  -0.000100
    11  C   -0.024703  -0.042253   0.000000   0.000000  -0.000000  -0.000004
    12  C    0.543566  -0.040873   0.000000   0.000000   0.000000  -0.000001
    13  C    4.864527   0.526508   0.000000  -0.000000   0.000000   0.000164
    14  C    0.526508   4.992704  -0.000000  -0.000000  -0.000000   0.002117
    15  C    0.000000  -0.000000   5.528009  -0.058467   0.000080   0.000081
    16  O   -0.000000  -0.000000  -0.058467   8.276059   0.001299   0.000000
    17  H    0.000000  -0.000000   0.000080   0.001299   0.304038   0.000701
    18  H    0.000164   0.002117   0.000081   0.000000   0.000701   0.458231
    19  H    0.000087   0.005492   0.000000   0.000000   0.000000  -0.000010
    20  H    0.004464   0.000708  -0.000000  -0.000000   0.000000   0.000000
    21  H   -0.041378   0.004890   0.000000   0.000000   0.000000  -0.000000
    22  H    0.363910  -0.037810   0.000000  -0.000000   0.000000  -0.000001
    23  H   -0.035109   0.354327  -0.000000  -0.000000   0.000000   0.001529
    24  H    0.000000   0.000000   0.343933   0.001846   0.000008   0.000028
    25  H   -0.000000  -0.000000   0.342165  -0.000195   0.000146   0.000112
    26  H    0.000000  -0.000000   0.355113  -0.000094  -0.000007   0.000000
              19         20         21         22         23         24
     1  O   -0.000000   0.000000  -0.000000   0.000000  -0.000000   0.000027
     2  S   -0.000000   0.000000  -0.000000   0.000000  -0.000000  -0.008513
     3  N   -0.000000   0.000000  -0.000000   0.000000   0.000000   0.000081
     4  C    0.000043  -0.000000  -0.000000   0.000000   0.000053   0.000248
     5  N   -0.000327   0.000000   0.000000  -0.000000  -0.000007  -0.000004
     6  N    0.016256  -0.000008   0.000000   0.000001  -0.000085  -0.000001
     7  C    0.000228   0.000001  -0.000000  -0.000004   0.005714   0.000188
     8  N   -0.013670  -0.000104   0.000003  -0.000108  -0.009154   0.000000
     9  C   -0.039691   0.003546   0.000472   0.003445  -0.039311   0.000000
    10  C    0.356990  -0.037918   0.004667   0.000727   0.005257  -0.000000
    11  C   -0.037983   0.364028  -0.041544   0.004458   0.000204  -0.000000
    12  C    0.004500  -0.040073   0.366095  -0.039745   0.004307  -0.000000
    13  C    0.000087   0.004464  -0.041378   0.363910  -0.035109   0.000000
    14  C    0.005492   0.000708   0.004890  -0.037810   0.354327   0.000000
    15  C    0.000000  -0.000000   0.000000   0.000000  -0.000000   0.343933
    16  O    0.000000  -0.000000   0.000000  -0.000000  -0.000000   0.001846
    17  H    0.000000   0.000000   0.000000   0.000000   0.000000   0.000008
    18  H   -0.000010   0.000000  -0.000000  -0.000001   0.001529   0.000028
    19  H    0.538598  -0.005117  -0.000133   0.000013  -0.000129  -0.000000
    20  H   -0.005117   0.551881  -0.005083  -0.000165   0.000013   0.000000
    21  H   -0.000133  -0.005083   0.557172  -0.005105  -0.000144  -0.000000
    22  H    0.000013  -0.000165  -0.005105   0.551055  -0.005124   0.000000
    23  H   -0.000129   0.000013  -0.000144  -0.005124   0.541886  -0.000000
    24  H   -0.000000   0.000000  -0.000000   0.000000  -0.000000   0.471572
    25  H   -0.000000  -0.000000  -0.000000   0.000000  -0.000000  -0.020495
    26  H    0.000000  -0.000000   0.000000   0.000000   0.000000  -0.018068
              25         26
     1  O    0.001786  -0.000411
     2  S   -0.008328  -0.012926
     3  N   -0.002290   0.002233
     4  C    0.002355   0.000015
     5  N   -0.000028  -0.000002
     6  N   -0.000041  -0.000000
     7  C    0.002948  -0.000022
     8  N   -0.000097   0.000001
     9  C    0.000003  -0.000000
    10  C   -0.000000  -0.000000
    11  C   -0.000000   0.000000
    12  C   -0.000000   0.000000
    13  C   -0.000000   0.000000
    14  C   -0.000000  -0.000000
    15  C    0.342165   0.355113
    16  O   -0.000195  -0.000094
    17  H    0.000146  -0.000007
    18  H    0.000112   0.000000
    19  H   -0.000000   0.000000
    20  H   -0.000000  -0.000000
    21  H   -0.000000   0.000000
    22  H    0.000000   0.000000
    23  H   -0.000000   0.000000
    24  H   -0.020495  -0.018068
    25  H    0.472218  -0.019582
    26  H   -0.019582   0.456899
 Mulliken charges:
               1
     1  O   -0.567293
     2  S    1.163557
     3  N   -0.778494
     4  C    0.381242
     5  N   -0.352371
     6  N   -0.107352
     7  C    0.056920
     8  N   -0.353034
     9  C    0.329447
    10  C   -0.155482
    11  C   -0.154916
    12  C   -0.131143
    13  C   -0.155739
    14  C   -0.169746
    15  C   -0.625917
    16  O   -0.567388
    17  H    0.424564
    18  H    0.228829
    19  H    0.174854
    20  H    0.163826
    21  H    0.160086
    22  H    0.164454
    23  H    0.175773
    24  H    0.229150
    25  H    0.229323
    26  H    0.236850
 Sum of Mulliken charges =  -0.00000
 Mulliken charges with hydrogens summed into heavy atoms:
               1
     1  O   -0.567293
     2  S    1.163557
     3  N   -0.353930
     4  C    0.381242
     5  N   -0.352371
     6  N   -0.107352
     7  C    0.285748
     8  N   -0.353034
     9  C    0.329447
    10  C    0.019371
    11  C    0.008910
    12  C    0.028944
    13  C    0.008716
    14  C    0.006027
    15  C    0.069406
    16  O   -0.567388
 Electronic spatial extent (au):  <R**2>=           5475.3245
 Charge=              0.0000 electrons
 Dipole moment (field-independent basis, Debye):
    X=             -7.8980    Y=            -10.1996    Z=              1.8435  Tot=             13.0310
 Quadrupole moment (field-independent basis, Debye-Ang):
   XX=           -109.6532   YY=            -97.5927   ZZ=            -95.7624
   XY=            -12.0484   XZ=              3.9868   YZ=              3.5948
 Traceless Quadrupole moment (field-independent basis, Debye-Ang):
   XX=             -8.6504   YY=              3.4100   ZZ=              5.2404
   XY=            -12.0484   XZ=              3.9868   YZ=              3.5948
 Octapole moment (field-independent basis, Debye-Ang**2):
  XXX=           -219.3216  YYY=            -37.1118  ZZZ=              5.4087  XYY=             -5.3605
  XXY=            -45.8451  XXZ=             46.3962  XZZ=             29.1007  YZZ=            -10.4943
  YYZ=              1.2482  XYZ=            -22.5145
 Hexadecapole moment (field-independent basis, Debye-Ang**3):
 XXXX=          -6296.2413 YYYY=           -640.5604 ZZZZ=           -362.1191 XXXY=            -13.2090
 XXXZ=             36.4696 YYYX=            -27.4355 YYYZ=             27.9524 ZZZX=             29.0370
 ZZZY=              4.2901 XXYY=          -1069.8340 XXZZ=          -1073.6787 YYZZ=           -164.2376
 XXYZ=              4.7155 YYXZ=             -1.4377 ZZXY=            -40.0783
 N-N= 1.185435659403D+03 E-N=-4.987694371710D+03  KE= 1.108374004732D+03
 No NMR shielding tensors so no spin-rotation constants.
 Leave Link  601 at Wed Sep 23 05:19:26 2020, MaxMem=  2147483648 cpu:               0.4 elap:               0.1
 (Enter /prod/apps/gaussian/g16b1/l701.exe)
 ... and contract with generalized density number  0.
 Compute integral first derivatives.
 D1PCM: PCM CHGder 1st derivatives, ID1Alg=3 FixD1E=F DoIter=F DoCFld=F I1PDM=0.
 GePol: Maximum number of non-zero 1st derivatives   =     183
 Leave Link  701 at Wed Sep 23 05:19:28 2020, MaxMem=  2147483648 cpu:               6.6 elap:               1.7
 (Enter /prod/apps/gaussian/g16b1/l702.exe)
 L702 exits ... SP integral derivatives will be done elsewhere.
 Leave Link  702 at Wed Sep 23 05:19:28 2020, MaxMem=  2147483648 cpu:               0.1 elap:               0.0
 (Enter /prod/apps/gaussian/g16b1/l703.exe)
 Integral derivatives from FoFJK, PRISM(SPDF).
 Compute integral first derivatives, UseDBF=F ICtDFT=           0.
 Calling FoFJK, ICntrl=      2127 FMM=F ISym2X=0 I1Cent= 0 IOpClX= 0 NMat=1 NMatS=1 NMatT=0.
 FoFJK:  IHMeth= 1 ICntrl=    2127 DoSepK=F KAlg= 0 I1Cent=           0 FoldK=F
 IRaf=         0 NMat=       1 IRICut=       1 DoRegI=T DoRafI=F ISym2E= 0 IDoP0=0 IntGTp=1.
 FoFCou: FMM=F IPFlag=           0 FMFlag=      100000 FMFlg1=         800
         NFxFlg=           0 DoJE=F BraDBF=F KetDBF=F FulRan=T
         wScrn=  0.000000 ICntrl=      2127 IOpCl=  0 I1Cent=           0 NGrid=           0
         NMat0=    1 NMatS0=      1 NMatT0=    0 NMatD0=    1 NMtDS0=    0 NMtDT0=    0
 Symmetry not used in FoFCou.
 Leave Link  703 at Wed Sep 23 05:19:37 2020, MaxMem=  2147483648 cpu:              36.4 elap:               9.1
 (Enter /prod/apps/gaussian/g16b1/l716.exe)
 Dipole        =-3.10730057D+00-4.01281879D+00 7.25307630D-01
 -------------------------------------------------------------------
 Center     Atomic                   Forces (Hartrees/Bohr)
 Number     Number              X              Y              Z
 -------------------------------------------------------------------
      1        8          -0.000061248   -0.000090730   -0.000153598
      2       16           0.000639444    0.000202611   -0.000302118
      3        7           0.000089953   -0.001721204   -0.000725522
      4        6           0.000275382   -0.000369857   -0.000339644
      5        7           0.000055096   -0.000059118   -0.000049278
      6        7          -0.000525426    0.001032408   -0.000000885
      7        6          -0.000043706    0.000292126    0.000245608
      8        7           0.000337464   -0.000860847   -0.000141385
      9        6          -0.000112909    0.000289203    0.000109186
     10        6          -0.000615770   -0.000677017    0.000002034
     11        6           0.000078943    0.000213132    0.000232206
     12        6           0.000291521    0.000431221    0.000034283
     13        6           0.001026667    0.000632967   -0.000086226
     14        6          -0.000651291    0.000029097    0.000181398
     15        6           0.000256093    0.000391952    0.000337011
     16        8          -0.000125208    0.000286064    0.000173928
     17        1          -0.000026718    0.001555219    0.000779677
     18        1           0.000136346   -0.000192836    0.000095709
     19        1           0.000106350    0.000382276    0.000037056
     20        1           0.000086125   -0.000117576   -0.000150275
     21        1          -0.000307842   -0.000055970    0.000097225
     22        1          -0.000279147   -0.000852686   -0.000243648
     23        1          -0.000103996   -0.000002555   -0.000150026
     24        1          -0.000115648   -0.000430892    0.000027777
     25        1          -0.000283036   -0.000154804    0.000078902
     26        1          -0.000127436   -0.000152182   -0.000089395
 -------------------------------------------------------------------
 Cartesian Forces:  Max     0.001721204 RMS     0.000440524
 Leave Link  716 at Wed Sep 23 05:19:37 2020, MaxMem=  2147483648 cpu:               0.1 elap:               0.0
 (Enter /prod/apps/gaussian/g16b1/l103.exe)

 GradGradGradGradGradGradGradGradGradGradGradGradGradGradGradGradGradGrad
 Berny optimization.
 FormGI is forming the generalized inverse of G from B-inverse, IUseBI=4.
 GSVD:  received Info=                   1 from GESDD.
 Internal  Forces:  Max     0.001740824 RMS     0.000248772
 Search for a local minimum.
 Step number   1 out of a maximum of  141
 All quantities printed in internal units (Hartrees-Bohrs-Radians)
 RMS Force = .24877D-03 SwitMx=.10000D-02 MixMth= 2
 Mixed Optimization -- En-DIIS/RFO-DIIS
 Second derivative matrix not updated -- first step.
 ITU=  0
     Eigenvalues ---    0.00439   0.01341   0.01368   0.01579   0.01846
     Eigenvalues ---    0.01906   0.02024   0.02135   0.02138   0.02146
     Eigenvalues ---    0.02149   0.02150   0.02153   0.02154   0.02158
     Eigenvalues ---    0.02160   0.02298   0.02327   0.02580   0.05997
     Eigenvalues ---    0.06200   0.08145   0.08343   0.13304   0.13505
     Eigenvalues ---    0.15998   0.15999   0.15999   0.15999   0.16000
     Eigenvalues ---    0.16000   0.16000   0.16000   0.16000   0.18718
     Eigenvalues ---    0.22000   0.22000   0.22852   0.23494   0.23788
     Eigenvalues ---    0.24973   0.24997   0.25000   0.25000   0.25000
     Eigenvalues ---    0.26530   0.34704   0.34890   0.34939   0.35440
     Eigenvalues ---    0.35522   0.35617   0.35657   0.35844   0.36298
     Eigenvalues ---    0.36467   0.41791   0.42087   0.42187   0.44024
     Eigenvalues ---    0.44235   0.45564   0.46184   0.46240   0.46425
     Eigenvalues ---    0.46643   0.47739   0.52749   0.53292   0.63090
     Eigenvalues ---    0.88527   0.88912
 RFO step:  Lambda=-3.83169935D-05 EMin= 4.39036079D-03
 Linear search not attempted -- first point.
 Iteration  1 RMS(Cart)=  0.00786238 RMS(Int)=  0.00002112
 Iteration  2 RMS(Cart)=  0.00003119 RMS(Int)=  0.00000051
 Iteration  3 RMS(Cart)=  0.00000000 RMS(Int)=  0.00000051
 ITry= 1 IFail=0 DXMaxC= 3.41D-02 DCOld= 1.00D+10 DXMaxT= 3.00D-01 DXLimC= 3.00D+00 Rises=F
 Variable       Old X    -DE/DX   Delta X   Delta X   Delta X     New X
                                 (Linear)    (Quad)   (Total)
    R1        2.77319   0.00004   0.00000   0.00005   0.00005   2.77324
    R2        3.20618   0.00017   0.00000   0.00048   0.00048   3.20666
    R3        3.39169   0.00054   0.00000   0.00204   0.00204   3.39373
    R4        2.77138   0.00034   0.00000   0.00038   0.00038   2.77177
    R5        2.66174   0.00024   0.00000   0.00055   0.00055   2.66229
    R6        1.93126  -0.00174   0.00000  -0.00395  -0.00395   1.92731
    R7        2.57293   0.00038   0.00000   0.00070   0.00070   2.57363
    R8        2.60731   0.00006   0.00000   0.00003   0.00003   2.60734
    R9        2.46701   0.00044   0.00000   0.00073   0.00073   2.46773
   R10        2.55971   0.00061   0.00000   0.00119   0.00119   2.56090
   R11        2.56089   0.00023   0.00000   0.00039   0.00039   2.56128
   R12        2.03357   0.00018   0.00000   0.00049   0.00049   2.03406
   R13        2.69190   0.00044   0.00000   0.00104   0.00104   2.69294
   R14        2.63999   0.00011   0.00000   0.00023   0.00023   2.64021
   R15        2.63768   0.00004   0.00000   0.00006   0.00006   2.63774
   R16        2.63355  -0.00029   0.00000  -0.00061  -0.00061   2.63294
   R17        2.04326   0.00038   0.00000   0.00107   0.00107   2.04433
   R18        2.64007  -0.00014   0.00000  -0.00028  -0.00028   2.63979
   R19        2.04967  -0.00020   0.00000  -0.00056  -0.00056   2.04911
   R20        2.63688   0.00032   0.00000   0.00070   0.00070   2.63758
   R21        2.04836   0.00033   0.00000   0.00092   0.00092   2.04928
   R22        2.63483  -0.00064   0.00000  -0.00139  -0.00139   2.63344
   R23        2.04621   0.00092   0.00000   0.00259   0.00259   2.04881
   R24        2.04685   0.00001   0.00000   0.00004   0.00004   2.04689
   R25        2.05773   0.00039   0.00000   0.00111   0.00111   2.05884
   R26        2.05854   0.00025   0.00000   0.00071   0.00071   2.05925
   R27        2.06158  -0.00017   0.00000  -0.00048  -0.00048   2.06109
    A1        1.83126  -0.00007   0.00000  -0.00091  -0.00091   1.83035
    A2        1.89831   0.00014   0.00000   0.00072   0.00072   1.89903
    A3        2.09178   0.00007   0.00000   0.00129   0.00129   2.09307
    A4        1.86912  -0.00027   0.00000  -0.00161  -0.00161   1.86751
    A5        1.86859   0.00010   0.00000   0.00016   0.00015   1.86874
    A6        1.89286  -0.00002   0.00000  -0.00003  -0.00003   1.89283
    A7        2.08908   0.00019   0.00000   0.00096   0.00096   2.09004
    A8        1.92331  -0.00016   0.00000  -0.00067  -0.00067   1.92265
    A9        1.99205   0.00003   0.00000   0.00071   0.00071   1.99275
   A10        2.12229   0.00015   0.00000   0.00072   0.00072   2.12301
   A11        2.26064   0.00006   0.00000   0.00038   0.00038   2.26102
   A12        1.89934  -0.00020   0.00000  -0.00099  -0.00100   1.89834
   A13        1.89792   0.00035   0.00000   0.00146   0.00146   1.89939
   A14        1.88097  -0.00044   0.00000  -0.00151  -0.00151   1.87947
   A15        1.81668   0.00019   0.00000   0.00056   0.00056   1.81724
   A16        2.31131  -0.00024   0.00000  -0.00120  -0.00120   2.31011
   A17        2.15514   0.00005   0.00000   0.00063   0.00063   2.15577
   A18        1.92974   0.00011   0.00000   0.00044   0.00044   1.93018
   A19        2.10785  -0.00030   0.00000  -0.00121  -0.00121   2.10664
   A20        2.24560   0.00019   0.00000   0.00077   0.00077   2.24637
   A21        2.07943   0.00027   0.00000   0.00111   0.00111   2.08054
   A22        2.08957  -0.00009   0.00000  -0.00032  -0.00032   2.08925
   A23        2.11419  -0.00019   0.00000  -0.00079  -0.00079   2.11340
   A24        2.07760   0.00016   0.00000   0.00073   0.00073   2.07833
   A25        2.08737  -0.00003   0.00000  -0.00006  -0.00006   2.08731
   A26        2.11820  -0.00013   0.00000  -0.00066  -0.00066   2.11754
   A27        2.10284  -0.00011   0.00000  -0.00046  -0.00047   2.10237
   A28        2.08237   0.00007   0.00000   0.00032   0.00032   2.08269
   A29        2.09791   0.00004   0.00000   0.00016   0.00016   2.09808
   A30        2.09059   0.00002   0.00000   0.00012   0.00012   2.09071
   A31        2.09658  -0.00002   0.00000  -0.00013  -0.00013   2.09646
   A32        2.09601  -0.00000   0.00000   0.00000   0.00000   2.09602
   A33        2.10169  -0.00002   0.00000  -0.00014  -0.00014   2.10155
   A34        2.09888   0.00011   0.00000   0.00071   0.00071   2.09959
   A35        2.08256  -0.00009   0.00000  -0.00057  -0.00057   2.08199
   A36        2.07937   0.00014   0.00000   0.00056   0.00056   2.07993
   A37        2.10183   0.00002   0.00000   0.00028   0.00027   2.10211
   A38        2.10192  -0.00016   0.00000  -0.00086  -0.00087   2.10105
   A39        1.89388   0.00023   0.00000   0.00120   0.00120   1.89508
   A40        1.89853   0.00016   0.00000   0.00101   0.00101   1.89954
   A41        1.86806   0.00014   0.00000   0.00111   0.00111   1.86917
   A42        1.94149  -0.00026   0.00000  -0.00213  -0.00213   1.93936
   A43        1.93255  -0.00017   0.00000  -0.00110  -0.00110   1.93145
   A44        1.92721  -0.00007   0.00000   0.00010   0.00010   1.92731
    D1       -3.11362   0.00000   0.00000   0.00023   0.00023  -3.11339
    D2        0.80734  -0.00006   0.00000  -0.00117  -0.00117   0.80617
    D3        1.15398  -0.00001   0.00000   0.00055   0.00055   1.15454
    D4       -1.20825  -0.00007   0.00000  -0.00084  -0.00084  -1.20909
    D5       -0.87328   0.00010   0.00000   0.00131   0.00131  -0.87197
    D6        3.04767   0.00003   0.00000  -0.00009  -0.00009   3.04759
    D7       -0.89097   0.00009   0.00000   0.00141   0.00141  -0.88956
    D8       -3.00551   0.00016   0.00000   0.00266   0.00266  -3.00284
    D9        1.19527   0.00008   0.00000   0.00137   0.00137   1.19663
   D10        1.07941  -0.00006   0.00000  -0.00011  -0.00012   1.07929
   D11       -1.03513   0.00001   0.00000   0.00114   0.00114  -1.03399
   D12       -3.11754  -0.00006   0.00000  -0.00015  -0.00015  -3.11769
   D13        3.09051  -0.00009   0.00000  -0.00078  -0.00078   3.08974
   D14        0.97598  -0.00002   0.00000   0.00048   0.00048   0.97646
   D15       -1.10644  -0.00009   0.00000  -0.00081  -0.00082  -1.10725
   D16        1.36920   0.00005   0.00000   0.00253   0.00253   1.37173
   D17       -1.82382   0.00010   0.00000   0.00564   0.00564  -1.81819
   D18       -2.58023   0.00004   0.00000   0.00342   0.00342  -2.57681
   D19        0.50993   0.00010   0.00000   0.00653   0.00653   0.51646
   D20        3.10465   0.00004   0.00000   0.00177   0.00177   3.10642
   D21        0.00497  -0.00002   0.00000  -0.00080  -0.00080   0.00417
   D22       -3.09082  -0.00002   0.00000  -0.00092  -0.00091  -3.09173
   D23        0.06169  -0.00000   0.00000  -0.00017  -0.00017   0.06152
   D24        0.00449   0.00004   0.00000   0.00192   0.00192   0.00641
   D25       -3.12618   0.00006   0.00000   0.00266   0.00266  -3.12352
   D26       -0.01244  -0.00001   0.00000  -0.00069  -0.00069  -0.01313
   D27        0.01578   0.00004   0.00000   0.00197   0.00197   0.01775
   D28       -3.12533   0.00002   0.00000   0.00085   0.00085  -3.12448
   D29       -0.01223  -0.00005   0.00000  -0.00238  -0.00238  -0.01461
   D30        3.12884  -0.00003   0.00000  -0.00115  -0.00115   3.12769
   D31        3.11970  -0.00007   0.00000  -0.00305  -0.00306   3.11664
   D32       -0.02242  -0.00005   0.00000  -0.00182  -0.00182  -0.02424
   D33       -0.42104  -0.00018   0.00000  -0.01340  -0.01340  -0.43444
   D34        2.72126  -0.00019   0.00000  -0.01410  -0.01410   2.70716
   D35        2.72112  -0.00020   0.00000  -0.01474  -0.01474   2.70638
   D36       -0.41976  -0.00022   0.00000  -0.01544  -0.01544  -0.43521
   D37        3.13737   0.00004   0.00000   0.00167   0.00167   3.13904
   D38       -0.00924   0.00004   0.00000   0.00206   0.00206  -0.00718
   D39       -0.00494   0.00005   0.00000   0.00238   0.00238  -0.00256
   D40        3.13163   0.00006   0.00000   0.00277   0.00277   3.13440
   D41        3.13474  -0.00002   0.00000  -0.00067  -0.00067   3.13408
   D42       -0.01849  -0.00008   0.00000  -0.00354  -0.00354  -0.02204
   D43       -0.00613  -0.00003   0.00000  -0.00138  -0.00138  -0.00751
   D44        3.12382  -0.00009   0.00000  -0.00426  -0.00426   3.11957
   D45        0.01109  -0.00003   0.00000  -0.00159  -0.00159   0.00951
   D46        3.14067   0.00001   0.00000   0.00052   0.00052   3.14119
   D47       -3.12539  -0.00004   0.00000  -0.00199  -0.00199  -3.12737
   D48        0.00419   0.00000   0.00000   0.00012   0.00012   0.00431
   D49       -0.00615  -0.00000   0.00000  -0.00018  -0.00018  -0.00633
   D50        3.13598   0.00000   0.00000   0.00005   0.00005   3.13603
   D51       -3.13562  -0.00005   0.00000  -0.00231  -0.00231  -3.13793
   D52        0.00651  -0.00004   0.00000  -0.00208  -0.00208   0.00443
   D53       -0.00514   0.00003   0.00000   0.00120   0.00120  -0.00394
   D54       -3.13560   0.00001   0.00000   0.00046   0.00046  -3.13514
   D55        3.13591   0.00002   0.00000   0.00098   0.00098   3.13689
   D56        0.00545   0.00001   0.00000   0.00024   0.00024   0.00569
   D57        0.01117  -0.00001   0.00000  -0.00043  -0.00043   0.01074
   D58       -3.11878   0.00005   0.00000   0.00244   0.00244  -3.11634
   D59       -3.14145   0.00001   0.00000   0.00031   0.00031  -3.14114
   D60        0.01179   0.00007   0.00000   0.00318   0.00318   0.01497
         Item               Value     Threshold  Converged?
 Maximum Force            0.001741     0.000450     NO 
 RMS     Force            0.000249     0.000300     YES
 Maximum Displacement     0.034078     0.001800     NO 
 RMS     Displacement     0.007864     0.001200     NO 
 Predicted change in Energy=-1.918096D-05
 Lowest energy point so far.  Saving SCF results.
 GradGradGradGradGradGradGradGradGradGradGradGradGradGradGradGradGradGrad

 Leave Link  103 at Wed Sep 23 05:19:37 2020, MaxMem=  2147483648 cpu:               0.1 elap:               0.0
 (Enter /prod/apps/gaussian/g16b1/l202.exe)
                          Input orientation:                          
 ---------------------------------------------------------------------
 Center     Atomic      Atomic             Coordinates (Angstroms)
 Number     Number       Type             X           Y           Z
 ---------------------------------------------------------------------
      1          8           0        4.713921   -0.540633   -0.445860
      2         16           0        3.473171   -0.097841    0.200773
      3          7           0        2.286660   -0.216059   -1.006562
      4          6           0        0.961886    0.172006   -0.725199
      5          7           0        0.589878    1.481987   -0.706342
      6          7           0       -0.691278    1.552789   -0.463618
      7          6           0       -0.150331   -0.608770   -0.486316
      8          7           0       -1.157631    0.286332   -0.340802
      9          6           0       -2.539078    0.040624   -0.091838
     10          6           0       -3.305856    1.028718    0.530836
     11          6           0       -4.656963    0.786901    0.770203
     12          6           0       -5.234215   -0.431039    0.403081
     13          6           0       -4.454185   -1.409856   -0.214643
     14          6           0       -3.104321   -1.177826   -0.471617
     15          6           0        3.036315   -1.276398    1.483488
     16          8           0        3.382881    1.254162    0.762295
     17          1           0        2.366090   -1.109972   -1.491104
     18          1           0       -0.285065   -1.673584   -0.405042
     19          1           0       -2.841411    1.961659    0.821064
     20          1           0       -5.255784    1.550824    1.253562
[...]
 Alpha virt. eigenvalues --    0.10927   0.11480   0.12044   0.12495   0.12851
 Alpha virt. eigenvalues --    0.12918   0.13239   0.14009   0.14186   0.14276
 Alpha virt. eigenvalues --    0.14596   0.14768   0.15106   0.15712   0.15978
 Alpha virt. eigenvalues --    0.16306   0.16614   0.16869   0.17273   0.17347
 Alpha virt. eigenvalues --    0.17971   0.18146   0.19092   0.19226   0.19443
 Alpha virt. eigenvalues --    0.19835   0.20167   0.20900   0.21170   0.22596
 Alpha virt. eigenvalues --    0.22854   0.23826   0.24315   0.24812   0.25027
 Alpha virt. eigenvalues --    0.25929   0.26317   0.26767   0.26866   0.27416
 Alpha virt. eigenvalues --    0.27880   0.28768   0.29470   0.29852   0.29929
 Alpha virt. eigenvalues --    0.30092   0.30764   0.31121   0.31303   0.31867
 Alpha virt. eigenvalues --    0.32186   0.32677   0.32842   0.33554   0.33943
 Alpha virt. eigenvalues --    0.34480   0.34942   0.35072   0.35568   0.35887
 Alpha virt. eigenvalues --    0.36160   0.36390   0.36893   0.37484   0.37687
 Alpha virt. eigenvalues --    0.38414   0.38458   0.38963   0.39280   0.39903
 Alpha virt. eigenvalues --    0.40131   0.40445   0.41326   0.41577   0.42048
 Alpha virt. eigenvalues --    0.42401   0.42864   0.43261   0.43527   0.44286
 Alpha virt. eigenvalues --    0.44653   0.44871   0.45816   0.46008   0.46357
 Alpha virt. eigenvalues --    0.46956   0.47761   0.48609   0.49328   0.49898
 Alpha virt. eigenvalues --    0.49935   0.50894   0.52102   0.52265   0.52863
 Alpha virt. eigenvalues --    0.53934   0.54497   0.54924   0.55468   0.55898
 Alpha virt. eigenvalues --    0.56769   0.57172   0.57975   0.58698   0.59117
 Alpha virt. eigenvalues --    0.59440   0.59830   0.60171   0.60301   0.61049
 Alpha virt. eigenvalues --    0.61707   0.62898   0.63317   0.64086   0.64374
 Alpha virt. eigenvalues --    0.64867   0.65038   0.65838   0.66112   0.66822
 Alpha virt. eigenvalues --    0.67218   0.67438   0.68219   0.68692   0.69344
 Alpha virt. eigenvalues --    0.69669   0.70388   0.71245   0.72216   0.72608
 Alpha virt. eigenvalues --    0.72845   0.74002   0.74664   0.75182   0.75581
 Alpha virt. eigenvalues --    0.75958   0.76041   0.76862   0.77106   0.77651
 Alpha virt. eigenvalues --    0.78850   0.79374   0.80497   0.81162   0.82556
 Alpha virt. eigenvalues --    0.83634   0.83907   0.84619   0.84702   0.85910
 Alpha virt. eigenvalues --    0.86421   0.87457   0.88062   0.88538   0.88863
 Alpha virt. eigenvalues --    0.89393   0.90357   0.90783   0.91473   0.91723
 Alpha virt. eigenvalues --    0.92621   0.93042   0.93396   0.93626   0.94226
 Alpha virt. eigenvalues --    0.95389   0.96099   0.96911   0.98008   0.99307
 Alpha virt. eigenvalues --    0.99386   0.99635   1.00496   1.01161   1.01611
 Alpha virt. eigenvalues --    1.02260   1.02856   1.04489   1.05026   1.05566
 Alpha virt. eigenvalues --    1.06223   1.06395   1.07794   1.08443   1.10285
 Alpha virt. eigenvalues --    1.10343   1.11982   1.12996   1.13399   1.13709
 Alpha virt. eigenvalues --    1.14442   1.15128   1.16142   1.16501   1.17258
 Alpha virt. eigenvalues --    1.19107   1.19247   1.20701   1.21802   1.23035
 Alpha virt. eigenvalues --    1.23281   1.23938   1.27456   1.27504   1.28651
 Alpha virt. eigenvalues --    1.29913   1.30740   1.31030   1.32954   1.34715
 Alpha virt. eigenvalues --    1.36643   1.37602   1.38900   1.39711   1.41336
 Alpha virt. eigenvalues --    1.41864   1.42242   1.43341   1.44589   1.45933
 Alpha virt. eigenvalues --    1.47061   1.47397   1.47909   1.50010   1.50352
 Alpha virt. eigenvalues --    1.51658   1.51922   1.53208   1.54738   1.55523
 Alpha virt. eigenvalues --    1.56583   1.57040   1.57920   1.58104   1.60526
 Alpha virt. eigenvalues --    1.60934   1.61930   1.62746   1.63355   1.64229
 Alpha virt. eigenvalues --    1.65986   1.67174   1.67269   1.67954   1.69348
 Alpha virt. eigenvalues --    1.70336   1.70858   1.71014   1.71565   1.73241
 Alpha virt. eigenvalues --    1.74294   1.75204   1.77108   1.78062   1.79158
 Alpha virt. eigenvalues --    1.80069   1.81383   1.81810   1.82650   1.84035
 Alpha virt. eigenvalues --    1.85009   1.86139   1.87937   1.89113   1.89564
 Alpha virt. eigenvalues --    1.90620   1.92633   1.92963   1.93779   1.93927
 Alpha virt. eigenvalues --    1.95368   1.95921   1.96864   1.97755   1.98848
 Alpha virt. eigenvalues --    1.99047   2.00977   2.02255   2.03203   2.04816
 Alpha virt. eigenvalues --    2.06671   2.07852   2.09193   2.10860   2.11216
 Alpha virt. eigenvalues --    2.11736   2.14482   2.15803   2.16160   2.17798
 Alpha virt. eigenvalues --    2.18289   2.19568   2.19918   2.20393   2.22387
 Alpha virt. eigenvalues --    2.22745   2.23628   2.24185   2.26095   2.27306
 Alpha virt. eigenvalues --    2.29850   2.30639   2.32184   2.32748   2.33884
 Alpha virt. eigenvalues --    2.34409   2.35207   2.36474   2.36820   2.37391
 Alpha virt. eigenvalues --    2.38007   2.40776   2.41621   2.42147   2.42882
 Alpha virt. eigenvalues --    2.44069   2.47624   2.48629   2.50795   2.51434
 Alpha virt. eigenvalues --    2.53612   2.55921   2.57681   2.58360   2.60353
 Alpha virt. eigenvalues --    2.61701   2.63715   2.65455   2.66645   2.69615
 Alpha virt. eigenvalues --    2.71792   2.72453   2.74914   2.76878   2.79886
 Alpha virt. eigenvalues --    2.80456   2.82140   2.84453   2.85545   2.87245
 Alpha virt. eigenvalues --    2.87571   2.88971   2.89498   2.93313   2.95088
 Alpha virt. eigenvalues --    2.96981   2.97835   2.99810   3.01666   3.02908
 Alpha virt. eigenvalues --    3.03837   3.06523   3.11451   3.12237   3.13077
 Alpha virt. eigenvalues --    3.14209   3.16550   3.20819   3.23427   3.29372
 Alpha virt. eigenvalues --    3.31793   3.35137   3.37554   3.39881   3.43789
 Alpha virt. eigenvalues --    3.54240   3.56974   3.61029   3.64869   3.70962
 Alpha virt. eigenvalues --    3.72299   3.73269   3.74941   3.76669   3.79219
 Alpha virt. eigenvalues --    3.80311   3.80922   3.82886   3.85581   3.88991
 Alpha virt. eigenvalues --    3.93234   4.01230   4.25564   4.35369   4.87262
          Condensed to atoms (all electrons):
               1          2          3          4          5          6
     1  O    9.140505  -0.089475  -0.089305   0.197158  -0.029441  -0.001740
     2  S   -0.089475  13.452687   0.528739  -1.405283   0.209444  -0.008368
     3  N   -0.089305   0.528739   8.144100  -1.662461   0.157670  -0.162671
     4  C    0.197158  -1.405283  -1.662461  13.681798  -1.252703   0.789863
     5  N   -0.029441   0.209444   0.157670  -1.252703   8.665004  -0.810299
     6  N   -0.001740  -0.008368  -0.162671   0.789863  -0.810299   8.942480
     7  C   -0.053372   0.523262   0.797359  -5.822300   0.933463  -0.924639
     8  N    0.001706   0.029617  -0.016100  -0.143072  -0.070274  -0.365368
     9  C    0.004063  -0.037348   0.003041   0.593804  -0.011798  -0.313463
    10  C    0.000267  -0.001907  -0.000523  -0.114683  -0.103747   0.455271
    11  C    0.000040  -0.002243  -0.001689   0.020883  -0.014107  -0.005528
    12  C   -0.000002   0.000238  -0.000700  -0.013617  -0.010914   0.010934
    13  C   -0.000049   0.000276  -0.003142   0.117839   0.013593   0.005635
    14  C   -0.001100   0.015102  -0.003308  -0.168540   0.066644  -0.087710
    15  C   -0.029899   0.417582  -0.000492   0.065960  -0.026139  -0.009495
    16  O    0.024301  -0.072042  -0.088875   0.293566  -0.070926  -0.017764
    17  H    0.025195  -0.096898   0.398774  -0.011175   0.008080   0.016135
    18  H   -0.002804   0.004320  -0.128602   0.288326  -0.071062  -0.067657
    19  H    0.000049  -0.000610  -0.001277   0.012541  -0.008166   0.007417
    20  H    0.000001  -0.000064  -0.000061   0.001215   0.000558  -0.001755
    21  H    0.000000  -0.000004  -0.000023  -0.000647  -0.000096   0.001027
    22  H    0.000001  -0.000018   0.000025   0.002192  -0.000378   0.001758
    23  H    0.000018  -0.000837  -0.001213  -0.003839   0.000620  -0.027711
    24  H    0.021536   0.051988  -0.049523  -0.093898   0.006000   0.000216
    25  H    0.014063  -0.105446  -0.002244   0.002520  -0.005083   0.001760
    26  H   -0.000798  -0.003260   0.016674  -0.024064   0.006315   0.001613
               7          8          9         10         11         12
     1  O   -0.053372   0.001706   0.004063   0.000267   0.000040  -0.000002
     2  S    0.523262   0.029617  -0.037348  -0.001907  -0.002243   0.000238
     3  N    0.797359  -0.016100   0.003041  -0.000523  -0.001689  -0.000700
     4  C   -5.822300  -0.143072   0.593804  -0.114683   0.020883  -0.013617
     5  N    0.933463  -0.070274  -0.011798  -0.103747  -0.014107  -0.010914
     6  N   -0.924639  -0.365368  -0.313463   0.455271  -0.005528   0.010934
     7  C   11.466267   0.053688  -1.747584   0.050537   0.039304   0.058783
     8  N    0.053688   8.980376  -0.834488   0.027325  -0.230930   0.346611
     9  C   -1.747584  -0.834488  14.236163  -4.830322   2.598080  -3.496173
    10  C    0.050537   0.027325  -4.830322  11.936909  -3.264017   2.806586
    11  C    0.039304  -0.230930   2.598080  -3.264017   9.589971  -2.848500
    12  C    0.058783   0.346611  -3.496173   2.806586  -2.848500   8.881905
    13  C   -0.387341  -0.364391   2.924284  -3.149415   2.892532  -3.005207
    14  C    0.613653   0.488478  -5.579443   2.353812  -3.269013   3.106350
    15  C   -0.033427   0.008047   0.002501  -0.000744  -0.000626   0.000656
    16  O   -0.077882   0.002561   0.006084  -0.000130   0.000180  -0.000070
    17  H   -0.096295   0.010062   0.009754   0.000029   0.000095  -0.000262
    18  H   -0.591214   0.117625   0.161773  -0.134518  -0.005945  -0.003412
    19  H   -0.020532  -0.200371   0.665561  -0.903209   0.320815  -0.172001
    20  H   -0.003122  -0.007635  -0.107306   0.579639  -0.698246   0.282929
    21  H    0.000356  -0.002460   0.114147  -0.114065   0.397127  -0.632775
    22  H    0.005001   0.002617  -0.122018   0.103271  -0.222733   0.289474
    23  H    0.087660  -0.195344   0.861939  -0.126148   0.126547  -0.183284
    24  H    0.028017   0.006095   0.003515   0.000212  -0.000317   0.000184
    25  H   -0.013454   0.002052   0.021994  -0.003040   0.002717  -0.001868
    26  H    0.020585  -0.002994  -0.003798   0.000444  -0.000122   0.000117
              13         14         15         16         17         18
     1  O   -0.000049  -0.001100  -0.029899   0.024301   0.025195  -0.002804
     2  S    0.000276   0.015102   0.417582  -0.072042  -0.096898   0.004320
     3  N   -0.003142  -0.003308  -0.000492  -0.088875   0.398774  -0.128602
     4  C    0.117839  -0.168540   0.065960   0.293566  -0.011175   0.288326
     5  N    0.013593   0.066644  -0.026139  -0.070926   0.008080  -0.071062
     6  N    0.005635  -0.087710  -0.009495  -0.017764   0.016135  -0.067657
     7  C   -0.387341   0.613653  -0.033427  -0.077882  -0.096295  -0.591214
     8  N   -0.364391   0.488478   0.008047   0.002561   0.010062   0.117625
     9  C    2.924284  -5.579443   0.002501   0.006084   0.009754   0.161773
    10  C   -3.149415   2.353812  -0.000744  -0.000130   0.000029  -0.134518
    11  C    2.892532  -3.269013  -0.000626   0.000180   0.000095  -0.005945
    12  C   -3.005207   3.106350   0.000656  -0.000070  -0.000262  -0.003412
    13  C   10.132354  -3.702429  -0.002239  -0.000011  -0.000243   0.080429
    14  C   -3.702429  12.627034   0.002023  -0.002136  -0.003955   0.013256
    15  C   -0.002239   0.002023   4.626149  -0.024667  -0.024306  -0.001351
    16  O   -0.000011  -0.002136  -0.024667   9.098548   0.004124  -0.000942
    17  H   -0.000243  -0.003955  -0.024306   0.004124   0.802119   0.008983
    18  H    0.080429   0.013256  -0.001351  -0.000942   0.008983   1.908804
    19  H    0.119867  -0.107255   0.000578   0.000014  -0.000131  -0.001274
    20  H   -0.211571   0.120172  -0.000040   0.000003  -0.000001  -0.000078
    21  H    0.361614  -0.172001   0.000021  -0.000002  -0.000005   0.000120
    22  H   -0.766246   0.646874  -0.000081   0.000003  -0.000017   0.002649
    23  H    0.172699  -1.022543   0.000383   0.000041   0.001359  -0.080442
    24  H   -0.000045   0.000505   0.291727   0.005296   0.014794   0.001056
    25  H    0.002433  -0.009667   0.325007   0.046430  -0.001737  -0.005549
    26  H   -0.000344   0.001125   0.334660   0.001706  -0.001521   0.002687
              19         20         21         22         23         24
     1  O    0.000049   0.000001   0.000000   0.000001   0.000018   0.021536
     2  S   -0.000610  -0.000064  -0.000004  -0.000018  -0.000837   0.051988
     3  N   -0.001277  -0.000061  -0.000023   0.000025  -0.001213  -0.049523
     4  C    0.012541   0.001215  -0.000647   0.002192  -0.003839  -0.093898
     5  N   -0.008166   0.000558  -0.000096  -0.000378   0.000620   0.006000
     6  N    0.007417  -0.001755   0.001027   0.001758  -0.027711   0.000216
     7  C   -0.020532  -0.003122   0.000356   0.005001   0.087660   0.028017
     8  N   -0.200371  -0.007635  -0.002460   0.002617  -0.195344   0.006095
     9  C    0.665561  -0.107306   0.114147  -0.122018   0.861939   0.003515
    10  C   -0.903209   0.579639  -0.114065   0.103271  -0.126148   0.000212
    11  C    0.320815  -0.698246   0.397127  -0.222733   0.126547  -0.000317
    12  C   -0.172001   0.282929  -0.632775   0.289474  -0.183284   0.000184
    13  C    0.119867  -0.211571   0.361614  -0.766246   0.172699  -0.000045
    14  C   -0.107255   0.120172  -0.172001   0.646874  -1.022543   0.000505
    15  C    0.000578  -0.000040   0.000021  -0.000081   0.000383   0.291727
    16  O    0.000014   0.000003  -0.000002   0.000003   0.000041   0.005296
    17  H   -0.000131  -0.000001  -0.000005  -0.000017   0.001359   0.014794
    18  H   -0.001274  -0.000078   0.000120   0.002649  -0.080442   0.001056
    19  H    1.918857  -0.081837  -0.011279   0.009131  -0.018100   0.000195
    20  H   -0.081837   1.619591  -0.059146  -0.017482   0.010202  -0.000014
    21  H   -0.011279  -0.059146   1.632209  -0.055516  -0.015078   0.000001
    22  H    0.009131  -0.017482  -0.055516   1.641426  -0.083187  -0.000021
    23  H   -0.018100   0.010202  -0.015078  -0.083187   2.151113   0.000227
    24  H    0.000195  -0.000014   0.000001  -0.000021   0.000227   0.865569
    25  H   -0.000755   0.000096  -0.000019   0.000117  -0.000218  -0.068281
    26  H   -0.000020  -0.000006   0.000004  -0.000017   0.000051  -0.107730
              25         26
     1  O    0.014063  -0.000798
     2  S   -0.105446  -0.003260
     3  N   -0.002244   0.016674
     4  C    0.002520  -0.024064
     5  N   -0.005083   0.006315
     6  N    0.001760   0.001613
     7  C   -0.013454   0.020585
     8  N    0.002052  -0.002994
     9  C    0.021994  -0.003798
    10  C   -0.003040   0.000444
    11  C    0.002717  -0.000122
    12  C   -0.001868   0.000117
    13  C    0.002433  -0.000344
    14  C   -0.009667   0.001125
    15  C    0.325007   0.334660
    16  O    0.046430   0.001706
    17  H   -0.001737  -0.001521
    18  H   -0.005549   0.002687
    19  H   -0.000755  -0.000020
    20  H    0.000096  -0.000006
    21  H   -0.000019   0.000004
    22  H    0.000117  -0.000017
    23  H   -0.000218   0.000051
    24  H   -0.068281  -0.107730
    25  H    0.869587  -0.101753
    26  H   -0.101753   0.840445
 Mulliken charges:
               1
     1  O   -1.130920
     2  S    2.590546
     3  N   -0.834172
     4  C    0.648617
     5  N   -0.582258
     6  N   -0.429941
     7  C    1.093226
     8  N   -0.643433
     9  C    0.877038
    10  C    0.432166
    11  C    0.575725
    12  C    0.584019
    13  C    0.769121
    14  C    0.074073
    15  C    0.078213
    16  O   -1.127414
    17  H   -0.062957
    18  H   -0.495179
    19  H   -0.528209
    20  H   -0.426042
    21  H   -0.443512
    22  H   -0.436826
    23  H   -0.654914
    24  H    0.022695
    25  H    0.030340
    26  H    0.020001
 Sum of Mulliken charges =  -0.00000
 Mulliken charges with hydrogens summed into heavy atoms:
               1
     1  O   -1.130920
     2  S    2.590546
     3  N   -0.897129
     4  C    0.648617
     5  N   -0.582258
     6  N   -0.429941
     7  C    0.598048
     8  N   -0.643433
     9  C    0.877038
    10  C   -0.096043
    11  C    0.149683
    12  C    0.140507
    13  C    0.332295
    14  C   -0.580842
    15  C    0.151248
    16  O   -1.127414
 Electronic spatial extent (au):  <R**2>=           5476.4487
 Charge=              0.0000 electrons
 Dipole moment (field-independent basis, Debye):
    X=             -6.7647    Y=             -7.4030    Z=              1.8213  Tot=             10.1922
 Quadrupole moment (field-independent basis, Debye-Ang):
   XX=           -112.5685   YY=           -100.1029   ZZ=            -99.8630
   XY=            -10.5820   XZ=              3.6492   YZ=              3.0343
 Traceless Quadrupole moment (field-independent basis, Debye-Ang):
   XX=             -8.3904   YY=              4.0752   ZZ=              4.3151
   XY=            -10.5820   XZ=              3.6492   YZ=              3.0343
 Octapole moment (field-independent basis, Debye-Ang**2):
  XXX=           -189.2160  YYY=            -26.1373  ZZZ=              5.7614  XYY=             -2.7862
  XXY=            -31.3891  XXZ=             48.6675  XZZ=             33.6988  YZZ=             -7.6511
  YYZ=              0.6643  XYZ=            -26.3328
 Hexadecapole moment (field-independent basis, Debye-Ang**3):
 XXXX=          -6509.1734 YYYY=           -657.9253 ZZZZ=           -400.2257 XXXY=              3.5696
 XXXZ=             31.7027 YYYX=            -28.1041 YYYZ=             29.4268 ZZZX=             32.8805
 ZZZY=              3.2781 XXYY=          -1115.2863 XXZZ=          -1119.2634 YYZZ=           -174.2975
 XXYZ=             10.8399 YYXZ=             -1.6354 ZZXY=            -41.3434
 N-N= 1.185311683040D+03 E-N=-4.985723740173D+03  KE= 1.110251086970D+03
 Leave Link  601 at Wed Sep 23 05:48:58 2020, MaxMem=   262144000 cpu:               1.7 elap:               0.7
 (Enter /prod/apps/gaussian/g16b1/l9999.exe)
 1\1\GINC-PIRINEUS9\SP\RMP2-FC\Aug-CC-pVDZ\C9H10N4O2S1\UBAFAR01\23-Sep-
 2020\0\\#p mp2/aug-cc-pVDZ scf=(MaxCycle=2000,NoVarAcc,NoIncFock) maxd
 isk=120GB geom=allcheck\\SM44_m0.n.8.pdb.xyz\\0,1\O,0,4.7156124488,-0.
 523544831,-0.4292394679\S,0,3.4661918827,-0.0920554691,0.2082106588\N,
 0,2.2884311626,-0.2246377247,-1.0056549814\C,0,0.9615421955,0.16481844
 44,-0.7377980889\N,0,0.5860223937,1.4738978301,-0.7525736606\N,0,-0.69
 53465072,1.5472644382,-0.5126405821\C,0,-0.1488620078,-0.6129031893,-0
 .4797154928\N,0,-1.1580545741,0.2823551471,-0.3562039159\C,0,-2.538345
 1744,0.0392243957,-0.0991687126\C,0,-3.2952126793,1.0212590739,0.54418
 6823\C,0,-4.645688943,0.7818033682,0.7905744956\C,0,-5.2305712565,-0.4
 286985279,0.4112146455\C,0,-4.4597763942,-1.4022142201,-0.2264887415\C
 ,0,-3.1113683333,-1.1715097731,-0.4919195278\C,0,3.0341885713,-1.27279
 68607,1.4909222591\O,0,3.3585472261,1.2600727789,0.7666472606\H,0,2.37
 50642943,-1.1202763895,-1.4856152437\H,0,-0.281380279,-1.6758326075,-0
 .3724343942\H,0,-2.8245355115,1.9480550265,0.8444180515\H,0,-5.2375847
 918,1.5409551657,1.289734116\H,0,-6.2805491282,-0.611771179,0.61120644
 39\H,0,-4.9072633875,-2.3419687975,-0.5295411666\H,0,-2.5173993413,-1.
 916699263,-1.0071302812\H,0,3.0590734096,-2.274419477,1.0628587792\H,0
 ,2.0411261418,-1.0325500303,1.8697892664\H,0,3.7781385824,-1.173827329
 ,2.2823614576\\Version=ES64L-G16RevB.01\State=1-A\HF=-1111.631872\MP2=
 -1114.1088112\RMSD=4.688e-09\PG=C01 [X(C9H10N4O2S1)]\\@


 THERE'S A SUCKER BORN EVERY MINUTE

              -- PHINEAS TAYLOR (P.T.) BARNUM
 Job cpu time:       0 days  1 hours  4 minutes 45.5 seconds.
 Elapsed time:       0 days  0 hours 17 minutes 50.0 seconds.
 File lengths (MBytes):  RWF=  35463 Int=      0 D2E=      0 Chk=     19 Scr=      1
 Normal termination of Gaussian 16 at Wed Sep 23 05:49:00 2020.
