 Entering Gaussian System, Link 0=g16
 Initial command:
 /prod/apps/gaussian/g16b1/l1.exe "/tmp/ubafar01/1461354/Gau-33497.inp" -scrdir="/tmp/ubafar01/1461354/"
 Entering Link 1 = /prod/apps/gaussian/g16b1/l1.exe PID=     33498.
  
 Copyright (c) 1988-2017, Gaussian, Inc.  All Rights Reserved.
  
 This is part of the Gaussian(R) 16 program.  It is based on
 the Gaussian(R) 09 system (copyright 2009, Gaussian, Inc.),
 the Gaussian(R) 03 system (copyright 2003, Gaussian, Inc.),
 the Gaussian(R) 98 system (copyright 1998, Gaussian, Inc.),
 the Gaussian(R) 94 system (copyright 1995, Gaussian, Inc.),
 the Gaussian 92(TM) system (copyright 1992, Gaussian, Inc.),
 the Gaussian 90(TM) system (copyright 1990, Gaussian, Inc.),
 the Gaussian 88(TM) system (copyright 1988, Gaussian, Inc.),
 the Gaussian 86(TM) system (copyright 1986, Carnegie Mellon
 University), and the Gaussian 82(TM) system (copyright 1983,
 Carnegie Mellon University). Gaussian is a federally registered
 trademark of Gaussian, Inc.
  
 This software contains proprietary and confidential information,
 including trade secrets, belonging to Gaussian, Inc.
  
 This software is provided under written license and may be
 used, copied, transmitted, or stored only in accord with that
 written license.
  
 The following legend is applicable only to US Government
 contracts under FAR:
  
                    RESTRICTED RIGHTS LEGEND
  
 Use, reproduction and disclosure by the US Government is
 subject to restrictions as set forth in subparagraphs (a)
 and (c) of the Commercial Computer Software - Restricted
 Rights clause in FAR 52.227-19.
  
 Gaussian, Inc.
 340 Quinnipiac St., Bldg. 40, Wallingford CT 06492
  
  
 ---------------------------------------------------------------
 Warning -- This program may not be used in any manner that
 competes with the business of Gaussian, Inc. or will provide
 assistance to any competitor of Gaussian, Inc.  The licensee
 of this program is prohibited from giving any competitor of
 Gaussian, Inc. access to this program.  By using this program,
 the user acknowledges that Gaussian, Inc. is engaged in the
 business of creating and licensing software in the field of
 computational chemistry and represents and warrants to the
 licensee that it is not a competitor of Gaussian, Inc. and that
 it will not use this program in any manner prohibited above.
 ---------------------------------------------------------------
  

 Cite this work as:
 Gaussian 16, Revision B.01,
 M. J. Frisch, G. W. Trucks, H. B. Schlegel, G. E. Scuseria, 
 M. A. Robb, J. R. Cheeseman, G. Scalmani, V. Barone, 
 G. A. Petersson, H. Nakatsuji, X. Li, M. Caricato, A. V. Marenich, 
 J. Bloino, B. G. Janesko, R. Gomperts, B. Mennucci, H. P. Hratchian, 
 J. V. Ortiz, A. F. Izmaylov, J. L. Sonnenberg, D. Williams-Young, 
 F. Ding, F. Lipparini, F. Egidi, J. Goings, B. Peng, A. Petrone, 
 T. Henderson, D. Ranasinghe, V. G. Zakrzewski, J. Gao, N. Rega, 
 G. Zheng, W. Liang, M. Hada, M. Ehara, K. Toyota, R. Fukuda, 
 J. Hasegawa, M. Ishida, T. Nakajima, Y. Honda, O. Kitao, H. Nakai, 
 T. Vreven, K. Throssell, J. A. Montgomery, Jr., J. E. Peralta, 
 F. Ogliaro, M. J. Bearpark, J. J. Heyd, E. N. Brothers, K. N. Kudin, 
 V. N. Staroverov, T. A. Keith, R. Kobayashi, J. Normand, 
 K. Raghavachari, A. P. Rendell, J. C. Burant, S. S. Iyengar, 
 J. Tomasi, M. Cossi, J. M. Millam, M. Klene, C. Adamo, R. Cammi, 
 J. W. Ochterski, R. L. Martin, K. Morokuma, O. Farkas, 
 J. B. Foresman, and D. J. Fox, Gaussian, Inc., Wallingford CT, 2016.
 
 ******************************************
 Gaussian 16:  ES64L-G16RevB.01 20-Dec-2017
                24-Sep-2020 
 ******************************************
 %nproc=4
 Will use up to    4 processors via shared memory.
 %Chk=SM44_m2.b.3.pdb.xyz.mst.b.w.chk
 %mem=16GB
 ----------------------------------------------------------------------
 #p b3lyp/6-31G(d) opt freq NoSymm scf=(MaxCycle=2000,NoVarAcc,NoIncFoc
 k) scrf=(iefpcm,read,solvent=water)
 ----------------------------------------------------------------------
 1/18=20,19=15,26=3,38=1,40=2/1,3;
 2/9=110,12=2,15=1,17=6,18=5,40=1/2;
 3/5=1,6=6,7=1,11=2,25=1,30=1,70=2203,71=1,72=1,74=-5/1,2,3;
 4//1;
 5/5=100002,7=2000,38=1,53=1/2;
 6/7=2,8=2,9=2,10=2,28=1/1;
 7/30=1/1,2,3,16;
 1/18=20,19=15,26=3/3(2);
 2/9=110,15=1/2;
 99//99;
 2/9=110,15=1/2;
 3/5=1,6=6,7=1,11=2,25=1,30=1,70=2205,71=1,72=1,74=-5/1,2,3;
 4/5=5,16=3,69=1/1;
 5/5=100002,7=2000,38=1,53=1/2;
 7/30=1/1,2,3,16;
 1/18=20,19=15,26=3/3(-5);
 2/9=110,15=1/2;
 6/7=2,8=2,9=2,10=2,19=2,28=1/1;
 99/9=1/99;
 Leave Link    1 at Thu Sep 24 14:39:06 2020, MaxMem=  2147483648 cpu:               0.1 elap:               0.0
 (Enter /prod/apps/gaussian/g16b1/l101.exe)
 -------------------
 SM44_m2.b.3.pdb.xyz
 -------------------
 Symbolic Z-matrix:
 Charge =  1 Multiplicity = 1
 O                    -4.732     0.409    -0.588 
 S                    -3.517     0.048     0.144 
 N                    -2.233     0.428    -0.935 
 C                    -0.939     0.006    -0.683 
 N                    -0.562    -1.303    -0.667 
 N                     0.726    -1.47     -0.461 
 C                     0.232     0.707    -0.474 
 N                     1.202    -0.241    -0.359 
 C                     2.605    -0.034    -0.127 
 C                     3.233     1.059    -0.726 
 C                     4.591     1.262    -0.487 
 C                     5.303     0.378     0.329 
 C                     4.655    -0.715     0.913 
 C                     3.295    -0.927     0.693 
 C                    -3.327     1.149     1.551 
 O                    -3.28     -1.334     0.57 
 H                    -2.297     1.389    -1.281 
 H                     0.418     1.764    -0.385 
 H                     2.681     1.726    -1.381 
 H                     5.093     2.106    -0.948 
 H                     6.361     0.54      0.51 
 H                     5.205    -1.399     1.551 
 H                     2.776    -1.759     1.155 
 H                    -3.406     2.177     1.197 
 H                    -2.359     0.962     2.018 
 H                    -4.14      0.917     2.243 
 H                    -1.154    -2.13     -0.783 
 
 ITRead=  0  0  0  0  0  0  0  0  0  0  0  0  0  0  0  0  0  0  0  0
 ITRead=  0  0  0  0  0  0  0
 MicOpt= -1 -1 -1 -1 -1 -1 -1 -1 -1 -1 -1 -1 -1 -1 -1 -1 -1 -1 -1 -1
 MicOpt= -1 -1 -1 -1 -1 -1 -1
 NAtoms=     27 NQM=       27 NQMF=       0 NMMI=      0 NMMIF=      0
                NMic=       0 NMicF=      0.
                    Isotopes and Nuclear Properties:
 (Nuclear quadrupole moments (NQMom) in fm**2, nuclear magnetic moments (NMagM)
  in nuclear magnetons)

  Atom         1           2           3           4           5           6           7           8           9          10
 IAtWgt=          16          32          14          12          14          14          12          14          12          12
 AtmWgt=  15.9949146  31.9720718  14.0030740  12.0000000  14.0030740  14.0030740  12.0000000  14.0030740  12.0000000  12.0000000
 NucSpn=           0           0           2           0           2           2           0           2           0           0
 AtZEff=  -0.0000000  -0.0000000  -0.0000000  -0.0000000  -0.0000000  -0.0000000  -0.0000000  -0.0000000  -0.0000000  -0.0000000
 NQMom=    0.0000000   0.0000000   2.0440000   0.0000000   2.0440000   2.0440000   0.0000000   2.0440000   0.0000000   0.0000000
 NMagM=    0.0000000   0.0000000   0.4037610   0.0000000   0.4037610   0.4037610   0.0000000   0.4037610   0.0000000   0.0000000
 AtZNuc=   8.0000000  16.0000000   7.0000000   6.0000000   7.0000000   7.0000000   6.0000000   7.0000000   6.0000000   6.0000000

  Atom        11          12          13          14          15          16          17          18          19          20
 IAtWgt=          12          12          12          12          12          16           1           1           1           1
 AtmWgt=  12.0000000  12.0000000  12.0000000  12.0000000  12.0000000  15.9949146   1.0078250   1.0078250   1.0078250   1.0078250
 NucSpn=           0           0           0           0           0           0           1           1           1           1
 AtZEff=  -0.0000000  -0.0000000  -0.0000000  -0.0000000  -0.0000000  -0.0000000  -0.0000000  -0.0000000  -0.0000000  -0.0000000
 NQMom=    0.0000000   0.0000000   0.0000000   0.0000000   0.0000000   0.0000000   0.0000000   0.0000000   0.0000000   0.0000000
 NMagM=    0.0000000   0.0000000   0.0000000   0.0000000   0.0000000   0.0000000   2.7928460   2.7928460   2.7928460   2.7928460
 AtZNuc=   6.0000000   6.0000000   6.0000000   6.0000000   6.0000000   8.0000000   1.0000000   1.0000000   1.0000000   1.0000000

  Atom        21          22          23          24          25          26          27
 IAtWgt=           1           1           1           1           1           1           1
 AtmWgt=   1.0078250   1.0078250   1.0078250   1.0078250   1.0078250   1.0078250   1.0078250
 NucSpn=           1           1           1           1           1           1           1
 AtZEff=  -0.0000000  -0.0000000  -0.0000000  -0.0000000  -0.0000000  -0.0000000  -0.0000000
 NQMom=    0.0000000   0.0000000   0.0000000   0.0000000   0.0000000   0.0000000   0.0000000
 NMagM=    2.7928460   2.7928460   2.7928460   2.7928460   2.7928460   2.7928460   2.7928460
 AtZNuc=   1.0000000   1.0000000   1.0000000   1.0000000   1.0000000   1.0000000   1.0000000
 Leave Link  101 at Thu Sep 24 14:39:06 2020, MaxMem=  2147483648 cpu:               1.3 elap:               0.3
 (Enter /prod/apps/gaussian/g16b1/l103.exe)

 GradGradGradGradGradGradGradGradGradGradGradGradGradGradGradGradGradGrad
 Berny optimization.
 Initialization pass.
                           ----------------------------
                           !    Initial Parameters    !
                           ! (Angstroms and Degrees)  !
 --------------------------                            --------------------------
 ! Name  Definition              Value          Derivative Info.                !
 --------------------------------------------------------------------------------
 ! R1    R(1,2)                  1.4637         estimate D2E/DX2                !
 ! R2    R(2,3)                  1.7197         estimate D2E/DX2                !
 ! R3    R(2,15)                 1.7966         estimate D2E/DX2                !
 ! R4    R(2,16)                 1.4655         estimate D2E/DX2                !
 ! R5    R(3,4)                  1.3842         estimate D2E/DX2                !
 ! R6    R(3,17)                 1.0234         estimate D2E/DX2                !
 ! R7    R(4,5)                  1.3623         estimate D2E/DX2                !
 ! R8    R(4,7)                  1.3807         estimate D2E/DX2                !
 ! R9    R(5,6)                  1.315          estimate D2E/DX2                !
 ! R10   R(5,27)                 1.0236         estimate D2E/DX2                !
 ! R11   R(6,8)                  1.3219         estimate D2E/DX2                !
 ! R12   R(7,8)                  1.3612         estimate D2E/DX2                !
 ! R13   R(7,18)                 1.0769         estimate D2E/DX2                !
 ! R14   R(8,9)                  1.437          estimate D2E/DX2                !
 ! R15   R(9,10)                 1.3956         estimate D2E/DX2                !
 ! R16   R(9,14)                 1.395          estimate D2E/DX2                !
 ! R17   R(10,11)                1.3937         estimate D2E/DX2                !
 ! R18   R(10,19)                1.0856         estimate D2E/DX2                !
 ! R19   R(11,12)                1.3979         estimate D2E/DX2                !
 ! R20   R(11,20)                1.0848         estimate D2E/DX2                !
 ! R21   R(12,13)                1.3984         estimate D2E/DX2                !
 ! R22   R(12,21)                1.0855         estimate D2E/DX2                !
 ! R23   R(13,14)                1.3939         estimate D2E/DX2                !
 ! R24   R(13,22)                1.0851         estimate D2E/DX2                !
 ! R25   R(14,23)                1.084          estimate D2E/DX2                !
 ! R26   R(15,24)                1.0901         estimate D2E/DX2                !
 ! R27   R(15,25)                1.0909         estimate D2E/DX2                !
 ! R28   R(15,26)                1.0925         estimate D2E/DX2                !
 ! A1    A(1,2,3)              104.5665         estimate D2E/DX2                !
 ! A2    A(1,2,15)             109.165          estimate D2E/DX2                !
 ! A3    A(1,2,16)             120.8116         estimate D2E/DX2                !
 ! A4    A(3,2,15)             106.0808         estimate D2E/DX2                !
 ! A5    A(3,2,16)             105.666          estimate D2E/DX2                !
 ! A6    A(15,2,16)            109.4604         estimate D2E/DX2                !
 ! A7    A(2,3,4)              121.0909         estimate D2E/DX2                !
 ! A8    A(2,3,17)             111.897          estimate D2E/DX2                !
 ! A9    A(4,3,17)             113.9722         estimate D2E/DX2                !
 ! A10   A(3,4,5)              123.6268         estimate D2E/DX2                !
 ! A11   A(3,4,7)              131.7303         estimate D2E/DX2                !
 ! A12   A(5,4,7)              104.5583         estimate D2E/DX2                !
 ! A13   A(4,5,6)              113.2608         estimate D2E/DX2                !
 ! A14   A(4,5,27)             127.9455         estimate D2E/DX2                !
 ! A15   A(6,5,27)             118.7898         estimate D2E/DX2                !
 ! A16   A(5,6,8)              104.2828         estimate D2E/DX2                !
 ! A17   A(4,7,8)              105.2822         estimate D2E/DX2                !
 ! A18   A(4,7,18)             131.0953         estimate D2E/DX2                !
 ! A19   A(8,7,18)             123.6078         estimate D2E/DX2                !
 ! A20   A(6,8,7)              112.6055         estimate D2E/DX2                !
 ! A21   A(6,8,9)              119.8637         estimate D2E/DX2                !
 ! A22   A(7,8,9)              127.521          estimate D2E/DX2                !
 ! A23   A(8,9,10)             118.8705         estimate D2E/DX2                !
 ! A24   A(8,9,14)             119.0521         estimate D2E/DX2                !
 ! A25   A(10,9,14)            122.0769         estimate D2E/DX2                !
 ! A26   A(9,10,11)            118.6137         estimate D2E/DX2                !
 ! A27   A(9,10,19)            120.751          estimate D2E/DX2                !
 ! A28   A(11,10,19)           120.6234         estimate D2E/DX2                !
 ! A29   A(10,11,12)           120.2817         estimate D2E/DX2                !
 ! A30   A(10,11,20)           119.4278         estimate D2E/DX2                !
 ! A31   A(12,11,20)           120.2874         estimate D2E/DX2                !
 ! A32   A(11,12,13)           120.1325         estimate D2E/DX2                !
 ! A33   A(11,12,21)           119.9577         estimate D2E/DX2                !
 ! A34   A(13,12,21)           119.9098         estimate D2E/DX2                !
 ! A35   A(12,13,14)           120.336          estimate D2E/DX2                !
 ! A36   A(12,13,22)           120.2226         estimate D2E/DX2                !
 ! A37   A(14,13,22)           119.4376         estimate D2E/DX2                !
 ! A38   A(9,14,13)            118.5562         estimate D2E/DX2                !
 ! A39   A(9,14,23)            120.3348         estimate D2E/DX2                !
 ! A40   A(13,14,23)           121.1053         estimate D2E/DX2                !
 ! A41   A(2,15,24)            108.4162         estimate D2E/DX2                !
 ! A42   A(2,15,25)            108.9071         estimate D2E/DX2                !
 ! A43   A(2,15,26)            106.6901         estimate D2E/DX2                !
 ! A44   A(24,15,25)           111.4057         estimate D2E/DX2                !
 ! A45   A(24,15,26)           110.61           estimate D2E/DX2                !
 ! A46   A(25,15,26)           110.6558         estimate D2E/DX2                !
 ! D1    D(1,2,3,4)           -168.5629         estimate D2E/DX2                !
 ! D2    D(1,2,3,17)            52.5238         estimate D2E/DX2                !
 ! D3    D(15,2,3,4)            76.1018         estimate D2E/DX2                !
 ! D4    D(15,2,3,17)          -62.8115         estimate D2E/DX2                !
 ! D5    D(16,2,3,4)           -40.0623         estimate D2E/DX2                !
 ! D6    D(16,2,3,17)         -178.9756         estimate D2E/DX2                !
 ! D7    D(1,2,15,24)          -51.4215         estimate D2E/DX2                !
 ! D8    D(1,2,15,25)         -172.7978         estimate D2E/DX2                !
 ! D9    D(1,2,15,26)           67.7323         estimate D2E/DX2                !
 ! D10   D(3,2,15,24)           60.7446         estimate D2E/DX2                !
 ! D11   D(3,2,15,25)          -60.6317         estimate D2E/DX2                !
 ! D12   D(3,2,15,26)          179.8984         estimate D2E/DX2                !
 ! D13   D(16,2,15,24)         174.3172         estimate D2E/DX2                !
 ! D14   D(16,2,15,25)          52.9409         estimate D2E/DX2                !
 ! D15   D(16,2,15,26)         -66.529          estimate D2E/DX2                !
 ! D16   D(2,3,4,5)             65.2044         estimate D2E/DX2                !
 ! D17   D(2,3,4,7)           -118.6831         estimate D2E/DX2                !
 ! D18   D(17,3,4,5)          -156.6585         estimate D2E/DX2                !
 ! D19   D(17,3,4,7)            19.4539         estimate D2E/DX2                !
 ! D20   D(3,4,5,6)            177.353          estimate D2E/DX2                !
 ! D21   D(3,4,5,27)            -3.3787         estimate D2E/DX2                !
 ! D22   D(7,4,5,6)              0.3495         estimate D2E/DX2                !
 ! D23   D(7,4,5,27)           179.6179         estimate D2E/DX2                !
 ! D24   D(3,4,7,8)           -176.353          estimate D2E/DX2                !
 ! D25   D(3,4,7,18)             5.0305         estimate D2E/DX2                !
 ! D26   D(5,4,7,8)              0.3032         estimate D2E/DX2                !
 ! D27   D(5,4,7,18)          -178.3133         estimate D2E/DX2                !
 ! D28   D(4,5,6,8)             -0.8602         estimate D2E/DX2                !
 ! D29   D(27,5,6,8)           179.7981         estimate D2E/DX2                !
 ! D30   D(5,6,8,7)              1.0647         estimate D2E/DX2                !
 ! D31   D(5,6,8,9)           -179.9915         estimate D2E/DX2                !
 ! D32   D(4,7,8,6)             -0.874          estimate D2E/DX2                !
 ! D33   D(4,7,8,9)           -179.7192         estimate D2E/DX2                !
 ! D34   D(18,7,8,6)           177.8741         estimate D2E/DX2                !
 ! D35   D(18,7,8,9)            -0.9711         estimate D2E/DX2                !
 ! D36   D(6,8,9,10)           144.2847         estimate D2E/DX2                !
 ! D37   D(6,8,9,14)           -35.9762         estimate D2E/DX2                !
 ! D38   D(7,8,9,10)           -36.9446         estimate D2E/DX2                !
 ! D39   D(7,8,9,14)           142.7945         estimate D2E/DX2                !
 ! D40   D(8,9,10,11)          179.3902         estimate D2E/DX2                !
 ! D41   D(8,9,10,19)           -1.8583         estimate D2E/DX2                !
 ! D42   D(14,9,10,11)          -0.3406         estimate D2E/DX2                !
 ! D43   D(14,9,10,19)         178.4108         estimate D2E/DX2                !
 ! D44   D(8,9,14,13)         -179.8822         estimate D2E/DX2                !
 ! D45   D(8,9,14,23)           -0.5746         estimate D2E/DX2                !
 ! D46   D(10,9,14,13)          -0.1518         estimate D2E/DX2                !
 ! D47   D(10,9,14,23)         179.1558         estimate D2E/DX2                !
 ! D48   D(9,10,11,12)           0.4775         estimate D2E/DX2                !
 ! D49   D(9,10,11,20)         179.8422         estimate D2E/DX2                !
 ! D50   D(19,10,11,12)       -178.2757         estimate D2E/DX2                !
 ! D51   D(19,10,11,20)          1.0891         estimate D2E/DX2                !
 ! D52   D(10,11,12,13)         -0.1279         estimate D2E/DX2                !
 ! D53   D(10,11,12,21)        179.8773         estimate D2E/DX2                !
 ! D54   D(20,11,12,13)       -179.4871         estimate D2E/DX2                !
 ! D55   D(20,11,12,21)          0.518          estimate D2E/DX2                !
 ! D56   D(11,12,13,14)         -0.3769         estimate D2E/DX2                !
 ! D57   D(11,12,13,22)       -179.6646         estimate D2E/DX2                !
 ! D58   D(21,12,13,14)        179.618          estimate D2E/DX2                !
 ! D59   D(21,12,13,22)          0.3303         estimate D2E/DX2                !
 ! D60   D(12,13,14,9)           0.5103         estimate D2E/DX2                !
 ! D61   D(12,13,14,23)       -178.7918         estimate D2E/DX2                !
 ! D62   D(22,13,14,9)         179.8035         estimate D2E/DX2                !
 ! D63   D(22,13,14,23)          0.5014         estimate D2E/DX2                !
 --------------------------------------------------------------------------------
 Trust Radius=3.00D-01 FncErr=1.00D-07 GrdErr=1.00D-06 EigMax=2.50D+02 EigMin=1.00D-04
 Number of steps in this run=    147 maximum allowed number of steps=    162.
 GradGradGradGradGradGradGradGradGradGradGradGradGradGradGradGradGradGrad

 Leave Link  103 at Thu Sep 24 14:39:06 2020, MaxMem=  2147483648 cpu:               0.1 elap:               0.0
 (Enter /prod/apps/gaussian/g16b1/l202.exe)
                          Input orientation:                          
 ---------------------------------------------------------------------
 Center     Atomic      Atomic             Coordinates (Angstroms)
 Number     Number       Type             X           Y           Z
 ---------------------------------------------------------------------
      1          8           0       -4.732000    0.409000   -0.588000
      2         16           0       -3.517000    0.048000    0.144000
      3          7           0       -2.233000    0.428000   -0.935000
      4          6           0       -0.939000    0.006000   -0.683000
      5          7           0       -0.562000   -1.303000   -0.667000
      6          7           0        0.726000   -1.470000   -0.461000
      7          6           0        0.232000    0.707000   -0.474000
      8          7           0        1.202000   -0.241000   -0.359000
      9          6           0        2.605000   -0.034000   -0.127000
     10          6           0        3.233000    1.059000   -0.726000
     11          6           0        4.591000    1.262000   -0.487000
     12          6           0        5.303000    0.378000    0.329000
     13          6           0        4.655000   -0.715000    0.913000
     14          6           0        3.295000   -0.927000    0.693000
     15          6           0       -3.327000    1.149000    1.551000
     16          8           0       -3.280000   -1.334000    0.570000
     17          1           0       -2.297000    1.389000   -1.281000
     18          1           0        0.418000    1.764000   -0.385000
     19          1           0        2.681000    1.726000   -1.381000
     20          1           0        5.093000    2.106000   -0.948000
     21          1           0        6.361000    0.540000    0.510000
     22          1           0        5.205000   -1.399000    1.551000
     23          1           0        2.776000   -1.759000    1.155000
     24          1           0       -3.406000    2.177000    1.197000
     25          1           0       -2.359000    0.962000    2.018000
     26          1           0       -4.140000    0.917000    2.243000
     27          1           0       -1.154000   -2.130000   -0.783000
 ---------------------------------------------------------------------
                    Distance matrix (angstroms):
                    1          2          3          4          5
     1  O    0.000000
     2  S    1.463684   0.000000
     3  N    2.523048   1.719679   0.000000
     4  C    3.815532   2.707725   1.384205   0.000000
     5  N    4.508446   3.348872   2.420832   1.362302   0.000000
     6  N    5.773780   4.546801   3.547219   2.236087   1.315017
     7  C    4.974243   3.856320   2.523210   1.380697   2.169743
     8  N    5.973885   4.754523   3.546627   2.179419   2.081923
     9  C    7.364804   6.128544   4.926718   3.587572   3.454251
    10  C    7.992670   6.880517   5.506269   4.303050   4.470408
    11  C    9.362486   8.222629   6.889357   5.674227   5.758909
    12  C   10.076858   8.828110   7.641433   6.334437   6.181909
    13  C    9.572468   8.243489   7.222610   5.861731   5.482630
    14  C    8.237632   6.903287   5.919898   4.548694   4.106997
    15  C    2.664009   1.796650   2.810138   3.464065   4.310111
    16  O    2.547021   1.465459   2.542809   2.974204   2.986412
    17  H    2.714751   2.305928   1.023393   2.028412   3.260994
    18  H    5.329140   4.325358   3.019138   2.240718   3.232091
    19  H    7.570727   6.599736   5.102070   4.068170   4.494629
    20  H    9.976975   8.919637   7.515725   6.392593   6.609029
    21  H   11.147978   9.897015   8.715355   7.416091   7.260159
    22  H   10.324154   8.952471   8.052451   6.686817   6.179565
    23  H    8.006768   6.624894   5.851594   4.504963   3.830126
    24  H    2.840832   2.377766   2.996724   3.785991   4.865515
    25  H    3.567657   2.385002   3.003538   3.197771   3.945714
    26  H    2.936510   2.355651   3.738376   4.431456   5.118455
    27  H    4.391655   3.344665   2.780415   2.149121   1.023645
                    6          7          8          9         10
     6  N    0.000000
     7  C    2.232383   0.000000
     8  N    1.321901   1.361187   0.000000
     9  C    2.388366   2.510103   1.437039   0.000000
    10  C    3.570870   3.032063   2.439190   1.395648   0.000000
    11  C    4.733152   4.394209   3.709544   2.398627   1.393734
    12  C    4.998813   5.144715   4.204130   2.767108   2.421092
    13  C    4.230241   4.848586   3.710238   2.397470   2.802763
    14  C    2.868157   3.662487   2.440891   1.394973   2.441639
    15  C    5.228204   4.118552   5.108037   6.277244   6.944525
    16  O    4.138779   4.194015   4.705955   6.067045   7.058699
    17  H    4.240850   2.740842   3.968625   5.233187   5.567569
    18  H    3.249522   1.076924   2.152988   2.842945   2.921905
    19  H    3.857829   2.803321   2.664773   2.162381   1.085642
    20  H    5.665301   5.080472   4.582053   3.382866   2.145948
    21  H    6.061037   6.209733   5.289651   3.852633   3.403152
    22  H    4.910665   5.767720   4.584002   3.382146   3.887837
    23  H    2.626305   3.899581   2.659698   2.156013   3.418791
    24  H    5.755258   4.264761   5.431531   6.540154   7.001727
    25  H    4.645136   3.603938   4.447253   5.498576   6.229720
    26  H    6.057008   5.151754   6.053787   7.212234   7.949607
    27  H    2.018337   3.172546   3.049399   4.353577   5.423904
                   11         12         13         14         15
    11  C    0.000000
    12  C    1.397947   0.000000
    13  C    2.423350   1.398431   0.000000
    14  C    2.804236   2.422310   1.393895   0.000000
    15  C    8.176854   8.750121   8.221549   6.992626   0.000000
    16  O    8.355184   8.755393   7.966495   6.588733   2.670180
    17  H    6.934775   7.834170   7.587540   6.366396   3.023032
    18  H    4.204324   5.127769   5.077639   4.084201   4.260440
    19  H    2.159313   3.408238   3.888135   3.422993   6.710113
    20  H    1.084832   2.158892   3.407815   3.889058   8.835001
    21  H    2.155967   1.085527   2.155892   3.403812   9.762782
    22  H    3.407545   2.158846   1.085081   2.146404   8.904343
    23  H    3.888037   3.410978   2.163132   1.083988   6.771993
    24  H    8.223448   8.935128   8.568783   7.402178   1.090111
    25  H    7.393749   7.867657   7.295858   6.106690   1.090909
    26  H    9.154359   9.650086   9.043470   7.815501   1.092546
    27  H    6.678196   7.015658   6.214750   4.839358   4.573984
                   16         17         18         19         20
    16  O    0.000000
    17  H    3.436163   0.000000
    18  H    4.917808   2.883516   0.000000
    19  H    6.978791   4.990396   2.472778   0.000000
    20  H    9.178510   7.432165   4.721182   2.479845   0.000000
    21  H    9.821627   8.881973   6.133388   4.304054   2.487156
    22  H    8.541769   8.489592   6.055414   4.973211   4.306108
    23  H    6.099015   6.448204   4.510354   4.311096   4.972859
    24  H    3.568771   2.826890   4.158878   6.625787   8.765790
    25  H    2.866454   3.327097   3.758902   6.126867   8.101740
    26  H    2.933518   4.004748   5.329086   7.766202   9.840960
    27  H    2.642745   3.733338   4.218154   5.471158   7.549565
                   21         22         23         24         25
    21  H    0.000000
    22  H    2.485908   0.000000
    23  H    4.307395   2.487259   0.000000
    24  H    9.927035   9.330724   7.328778   0.000000
    25  H    8.859489   7.937664   5.875103   1.801798   0.000000
    26  H   10.649715   9.652551   7.495050   1.794567   1.795720
    27  H    8.079355   6.813134   4.397543   5.248062   4.342590
                   26         27
    26  H    0.000000
    27  H    5.230400   0.000000
 Symmetry turned off by external request.
 Stoichiometry    C9H11N4O2S(1+)
 Framework group  C1[X(C9H11N4O2S)]
 Deg. of freedom    75
 Full point group                 C1      NOp   1
 Rotational constants (GHZ):           1.6452383           0.1925886           0.1870074
 Leave Link  202 at Thu Sep 24 14:39:06 2020, MaxMem=  2147483648 cpu:               0.0 elap:               0.0
 (Enter /prod/apps/gaussian/g16b1/l301.exe)
 Standard basis: 6-31G(d) (6D, 7F)
 Ernie: Thresh=  0.10000D-02 Tol=  0.10000D-05 Strict=F.
   266 basis functions,   516 primitive gaussians,   266 cartesian basis functions
    62 alpha electrons       62 beta electrons
       nuclear repulsion energy      1202.8492910694 Hartrees.
 IExCor=  402 DFT=T Ex+Corr=B3LYP ExCW=0 ScaHFX=  0.200000
 ScaDFX=  0.800000  0.720000  1.000000  0.810000 ScalE2=  1.000000  1.000000
 IRadAn=      5 IRanWt=     -1 IRanGd=            0 ICorTp=0 IEmpDi=  4
 NAtoms=   27 NActive=   27 NUniq=   27 SFac= 1.00D+00 NAtFMM=   60 NAOKFM=F Big=F
 Integral buffers will be    131072 words long.
 Raffenetti 2 integral format.
 Two-electron integral symmetry is turned off.
 Using the following non-standard input for PCM:
 MSTModel=DFT cav MSTcharged
 --- end of non-standard input.
 MST model for solvation energy: B3LYP parametrization.
 MST cavity parameters:
 ISph   IAn     Re0     Alpha   Atom Type   QCorr
 ------------------------------------------------
   1      8     1.40     1.25      O          F
   2     16     1.75     1.25      S          F
   3      7     1.50     1.25      NH         F
   4      6     1.50     1.25      C          F
   5      7     1.50     1.15      NH         T
   6      7     1.40     1.25      N          F
   7      6     1.50     1.25      CH         F
   8      7     1.40     1.25      N          F
   9      6     1.50     1.25      C          F
  10      6     1.50     1.25      CH         F
  11      6     1.50     1.25      CH         F
  12      6     1.50     1.25      CH         F
  13      6     1.50     1.25      CH         F
  14      6     1.50     1.25      CH         F
  15      6     1.50     1.25      CH3        F
  16      8     1.40     1.25      O          F
  17      1     0.90     1.25      NH         F
  18      1     1.20     1.25      CH         F
  19      1     1.20     1.25      CH         F
  20      1     1.20     1.25      CH         F
  21      1     1.20     1.25      CH         F
  22      1     1.20     1.25      CH         F
  23      1     1.20     1.25      CH         F
  24      1     1.20     1.25      CH3        F
  25      1     1.20     1.25      CH3        F
  26      1     1.20     1.25      CH3        F
  27      1     0.90     1.15      NH         T
 ------------------------------------------------------------------------------
 Polarizable Continuum Model (PCM)
 =================================
 Model                : PCM.
 Atomic radii         : MST.
 Polarization charges : Total charges.
 Charge compensation  : None.
 Solution method      : On-the-fly selection.
 Cavity type          : Scaled VdW (van der Waals Surface) (Alpha=1.250).
 Cavity algorithm     : GePol (No added spheres)
                        Default sphere list used, NSphG=   27.
                        Lebedev-Laikov grids with approx.  5.0 points / Ang**2.
                        Smoothing algorithm: York/Karplus (Gamma=1.0000).
                        Polarization charges: spherical gaussians, with
                                              point-specific exponents (IZeta= 3).
                        Self-potential: point-specific (ISelfS= 7).
                        Self-field    : sphere-specific E.n sum rule (ISelfD= 2).
 1st derivatives      : Analytical E(r).r(x)/FMM algorithm (CHGder, D1EAlg=3).
                        Cavity 1st derivative terms included.
 Solvent              : Water, Eps=  78.355300 Eps(inf)=   1.777849
 ------------------------------------------------------------------------------
 GePol: Number of generator spheres                  =      27
 GePol: Total number of spheres                      =      27
 GePol: Number of exposed spheres                    =      27 (100.00%)
 GePol: Number of points                             =    2134
 GePol: Average weight of points                     =       0.13
 GePol: Minimum weight of points                     =   0.28D-08
 GePol: Maximum weight of points                     =    0.22001
 GePol: Number of points with low weight             =     144
 GePol: Fraction of low-weight points (<1% of avg)   =       6.75%
 GePol: Cavity surface area                          =    276.849 Ang**2
 GePol: Cavity volume                                =    254.185 Ang**3
 PCM non-electrostatic energy =         0.0019953468 Hartrees.
 Nuclear repulsion after PCM non-electrostatic terms =     1202.8512864162 Hartrees.
 Leave Link  301 at Thu Sep 24 14:39:06 2020, MaxMem=  2147483648 cpu:               0.3 elap:               0.1
 (Enter /prod/apps/gaussian/g16b1/l302.exe)
 NPDir=0 NMtPBC=     1 NCelOv=     1 NCel=       1 NClECP=     1 NCelD=      1
         NCelK=      1 NCelE2=     1 NClLst=     1 CellRange=     0.0.
 One-electron integrals computed using PRISM.
 NBasis=   266 RedAO= T EigKep=  4.77D-04  NBF=   266
 NBsUse=   266 1.00D-06 EigRej= -1.00D+00 NBFU=   266
 Precomputing XC quadrature grid using
 IXCGrd= 4 IRadAn=           5 IRanWt=          -1 IRanGd=           0 AccXCQ= 0.00D+00.
 Generated NRdTot=       0 NPtTot=           0 NUsed=           0 NTot=          32
 NSgBfM=   264   264   264   264   264 MxSgAt=    27 MxSgA2=    27.
 Leave Link  302 at Thu Sep 24 14:39:06 2020, MaxMem=  2147483648 cpu:               1.1 elap:               0.3
 (Enter /prod/apps/gaussian/g16b1/l303.exe)
 DipDrv:  MaxL=1.
 Leave Link  303 at Thu Sep 24 14:39:06 2020, MaxMem=  2147483648 cpu:               0.1 elap:               0.0
 (Enter /prod/apps/gaussian/g16b1/l401.exe)
 ExpMin= 1.17D-01 ExpMax= 2.19D+04 ExpMxC= 3.30D+03 IAcc=3 IRadAn=         5 AccDes= 0.00D+00
 Harris functional with IExCor=  402 and IRadAn=       5 diagonalized for initial guess.
 HarFok:  IExCor=  402 AccDes= 0.00D+00 IRadAn=         5 IDoV= 1 UseB2=F ITyADJ=14
 ICtDFT=  3500011 ScaDFX=  1.000000  1.000000  1.000000  1.000000
 FoFCou: FMM=F IPFlag=           0 FMFlag=      100000 FMFlg1=           0
         NFxFlg=           0 DoJE=T BraDBF=F KetDBF=T FulRan=T
         wScrn=  0.000000 ICntrl=       500 IOpCl=  0 I1Cent=   200000004 NGrid=           0
         NMat0=    1 NMatS0=      1 NMatT0=    0 NMatD0=    1 NMtDS0=    0 NMtDT0=    0
 Symmetry not used in FoFCou.
 Harris En= -1116.92363524505    
 JPrj=0 DoOrth=F DoCkMO=F.
 Leave Link  401 at Thu Sep 24 14:39:08 2020, MaxMem=  2147483648 cpu:               6.3 elap:               1.6
 (Enter /prod/apps/gaussian/g16b1/l502.exe)
 Keep R1 ints in memory in canonical form, NReq=640051412.
 FoFCou: FMM=F IPFlag=           0 FMFlag=           0 FMFlg1=           0
         NFxFlg=           0 DoJE=F BraDBF=F KetDBF=F FulRan=T
         wScrn=  0.000000 ICntrl=       600 IOpCl=  0 I1Cent=           0 NGrid=           0
         NMat0=    1 NMatS0=  35511 NMatT0=    0 NMatD0=    1 NMtDS0=    0 NMtDT0=    0
 Symmetry not used in FoFCou.
 Two-electron integral symmetry not used.
 Closed shell SCF:
 Using DIIS extrapolation, IDIIS=  1040.
 NGot=  2147483648 LenX=  1516804891 LenY=  1516733694
 Requested convergence on RMS density matrix=1.00D-08 within2000 cycles.
 Requested convergence on MAX density matrix=1.00D-06.
 Requested convergence on             energy=1.00D-06.
 No special actions if energy rises.

 Cycle   1  Pass 1  IDiag  1:
 Inv3:  Mode=1 IEnd=    13661868.
 Iteration    1 A*A^-1 deviation from unit magnitude is 4.11D-15 for    938.
 Iteration    1 A*A^-1 deviation from orthogonality  is 2.75D-15 for   1628     61.
 Iteration    1 A^-1*A deviation from unit magnitude is 3.89D-15 for    938.
 Iteration    1 A^-1*A deviation from orthogonality  is 2.52D-15 for    767      6.
 E= -1116.50900766583    
 DIIS: error= 3.08D-02 at cycle   1 NSaved=   1.
 NSaved= 1 IEnMin= 1 EnMin= -1116.50900766583     IErMin= 1 ErrMin= 3.08D-02
 ErrMax= 3.08D-02  0.00D+00 EMaxC= 1.00D-01 BMatC= 5.56D-01 BMatP= 5.56D-01
 IDIUse=3 WtCom= 6.92D-01 WtEn= 3.08D-01
 Coeff-Com:  0.100D+01
 Coeff-En:   0.100D+01
 Coeff:      0.100D+01
 Gap=     0.356 Goal=   None    Shift=    0.000
 GapD=    0.356 DampG=1.000 DampE=0.500 DampFc=0.5000 IDamp=-1.
 Damping current iteration by 5.00D-01
 RMSDP=6.79D-03 MaxDP=5.60D-01              OVMax= 2.59D-01

 Cycle   2  Pass 1  IDiag  1:
 E= -1116.63338488699     Delta-E=       -0.124377221161 Rises=F Damp=T
 DIIS: error= 1.38D-02 at cycle   2 NSaved=   2.
 NSaved= 2 IEnMin= 2 EnMin= -1116.63338488699     IErMin= 2 ErrMin= 1.38D-02
 ErrMax= 1.38D-02  0.00D+00 EMaxC= 1.00D-01 BMatC= 7.75D-02 BMatP= 5.56D-01
 IDIUse=3 WtCom= 8.62D-01 WtEn= 1.38D-01
 Coeff-Com:  0.220D+00 0.780D+00
 Coeff-En:   0.359D+00 0.641D+00
 Coeff:      0.239D+00 0.761D+00
 Gap=     0.184 Goal=   None    Shift=    0.000
 RMSDP=1.79D-03 MaxDP=1.12D-01 DE=-1.24D-01 OVMax= 1.88D-01

 Cycle   3  Pass 1  IDiag  1:
 E= -1116.95797738194     Delta-E=       -0.324592494958 Rises=F Damp=F
 DIIS: error= 9.26D-03 at cycle   3 NSaved=   3.
 NSaved= 3 IEnMin= 3 EnMin= -1116.95797738194     IErMin= 3 ErrMin= 9.26D-03
 ErrMax= 9.26D-03  0.00D+00 EMaxC= 1.00D-01 BMatC= 3.09D-02 BMatP= 7.75D-02
 IDIUse=3 WtCom= 9.07D-01 WtEn= 9.26D-02
 Coeff-Com:  0.676D-01 0.391D+00 0.541D+00
 Coeff-En:   0.000D+00 0.000D+00 0.100D+01
 Coeff:      0.613D-01 0.355D+00 0.583D+00
 Gap=     0.193 Goal=   None    Shift=    0.000
 RMSDP=8.41D-04 MaxDP=2.85D-02 DE=-3.25D-01 OVMax= 4.86D-02

 Cycle   4  Pass 1  IDiag  1:
 E= -1116.98051278271     Delta-E=       -0.022535400762 Rises=F Damp=F
 DIIS: error= 3.92D-03 at cycle   4 NSaved=   4.
 NSaved= 4 IEnMin= 4 EnMin= -1116.98051278271     IErMin= 4 ErrMin= 3.92D-03
 ErrMax= 3.92D-03  0.00D+00 EMaxC= 1.00D-01 BMatC= 5.61D-03 BMatP= 3.09D-02
 IDIUse=3 WtCom= 9.61D-01 WtEn= 3.92D-02
 Coeff-Com:  0.143D-02 0.706D-01 0.314D+00 0.614D+00
 Coeff-En:   0.000D+00 0.000D+00 0.142D+00 0.858D+00
 Coeff:      0.138D-02 0.678D-01 0.307D+00 0.624D+00
 Gap=     0.189 Goal=   None    Shift=    0.000
 RMSDP=2.83D-04 MaxDP=1.23D-02 DE=-2.25D-02 OVMax= 1.61D-02

 Cycle   5  Pass 1  IDiag  1:
 E= -1116.98493773342     Delta-E=       -0.004424950713 Rises=F Damp=F
 DIIS: error= 5.37D-04 at cycle   5 NSaved=   5.
 NSaved= 5 IEnMin= 5 EnMin= -1116.98493773342     IErMin= 5 ErrMin= 5.37D-04
 ErrMax= 5.37D-04  0.00D+00 EMaxC= 1.00D-01 BMatC= 3.92D-04 BMatP= 5.61D-03
 IDIUse=3 WtCom= 9.95D-01 WtEn= 5.37D-03
 Coeff-Com: -0.348D-02 0.148D-01 0.129D+00 0.330D+00 0.530D+00
 Coeff-En:   0.000D+00 0.000D+00 0.000D+00 0.000D+00 0.100D+01
 Coeff:     -0.346D-02 0.147D-01 0.128D+00 0.329D+00 0.532D+00
 Gap=     0.190 Goal=   None    Shift=    0.000
 RMSDP=8.40D-05 MaxDP=3.50D-03 DE=-4.42D-03 OVMax= 5.44D-03

 Cycle   6  Pass 1  IDiag  1:
 E= -1116.98525118349     Delta-E=       -0.000313450071 Rises=F Damp=F
 DIIS: error= 2.02D-04 at cycle   6 NSaved=   6.
 NSaved= 6 IEnMin= 6 EnMin= -1116.98525118349     IErMin= 6 ErrMin= 2.02D-04
 ErrMax= 2.02D-04  0.00D+00 EMaxC= 1.00D-01 BMatC= 3.32D-05 BMatP= 3.92D-04
 IDIUse=3 WtCom= 9.98D-01 WtEn= 2.02D-03
 Coeff-Com: -0.196D-02 0.276D-02 0.416D-01 0.120D+00 0.289D+00 0.549D+00
 Coeff-En:   0.000D+00 0.000D+00 0.000D+00 0.000D+00 0.770D-02 0.992D+00
 Coeff:     -0.196D-02 0.276D-02 0.415D-01 0.120D+00 0.288D+00 0.550D+00
 Gap=     0.190 Goal=   None    Shift=    0.000
 RMSDP=2.51D-05 MaxDP=1.16D-03 DE=-3.13D-04 OVMax= 1.79D-03

 Cycle   7  Pass 1  IDiag  1:
 E= -1116.98528073924     Delta-E=       -0.000029555746 Rises=F Damp=F
 DIIS: error= 6.48D-05 at cycle   7 NSaved=   7.
 NSaved= 7 IEnMin= 7 EnMin= -1116.98528073924     IErMin= 7 ErrMin= 6.48D-05
 ErrMax= 6.48D-05  0.00D+00 EMaxC= 1.00D-01 BMatC= 2.38D-06 BMatP= 3.32D-05
 IDIUse=1 WtCom= 1.00D+00 WtEn= 0.00D+00
 Coeff-Com: -0.834D-03 0.308D-03 0.125D-01 0.390D-01 0.114D+00 0.288D+00
 Coeff-Com:  0.547D+00
 Coeff:     -0.834D-03 0.308D-03 0.125D-01 0.390D-01 0.114D+00 0.288D+00
 Coeff:      0.547D+00
 Gap=     0.190 Goal=   None    Shift=    0.000
 RMSDP=6.94D-06 MaxDP=3.17D-04 DE=-2.96D-05 OVMax= 4.63D-04

 Cycle   8  Pass 1  IDiag  1:
 E= -1116.98528265644     Delta-E=       -0.000001917208 Rises=F Damp=F
 DIIS: error= 3.95D-05 at cycle   8 NSaved=   8.
 NSaved= 8 IEnMin= 8 EnMin= -1116.98528265644     IErMin= 8 ErrMin= 3.95D-05
 ErrMax= 3.95D-05  0.00D+00 EMaxC= 1.00D-01 BMatC= 4.00D-07 BMatP= 2.38D-06
 IDIUse=1 WtCom= 1.00D+00 WtEn= 0.00D+00
 Coeff-Com: -0.261D-03-0.146D-03 0.224D-02 0.816D-02 0.323D-01 0.106D+00
 Coeff-Com:  0.330D+00 0.521D+00
 Coeff:     -0.261D-03-0.146D-03 0.224D-02 0.816D-02 0.323D-01 0.106D+00
 Coeff:      0.330D+00 0.521D+00
 Gap=     0.190 Goal=   None    Shift=    0.000
 RMSDP=2.38D-06 MaxDP=1.49D-04 DE=-1.92D-06 OVMax= 1.64D-04

 Cycle   9  Pass 1  IDiag  1:
 E= -1116.98528297014     Delta-E=       -0.000000313696 Rises=F Damp=F
 DIIS: error= 8.91D-06 at cycle   9 NSaved=   9.
 NSaved= 9 IEnMin= 9 EnMin= -1116.98528297014     IErMin= 9 ErrMin= 8.91D-06
 ErrMax= 8.91D-06  0.00D+00 EMaxC= 1.00D-01 BMatC= 2.75D-08 BMatP= 4.00D-07
 IDIUse=1 WtCom= 1.00D+00 WtEn= 0.00D+00
 Coeff-Com: -0.187D-04-0.116D-03-0.631D-03-0.135D-02 0.145D-03 0.126D-01
 Coeff-Com:  0.883D-01 0.259D+00 0.642D+00
 Coeff:     -0.187D-04-0.116D-03-0.631D-03-0.135D-02 0.145D-03 0.126D-01
 Coeff:      0.883D-01 0.259D+00 0.642D+00
 Gap=     0.190 Goal=   None    Shift=    0.000
 RMSDP=6.34D-07 MaxDP=3.15D-05 DE=-3.14D-07 OVMax= 3.09D-05

 Cycle  10  Pass 1  IDiag  1:
 E= -1116.98528299307     Delta-E=       -0.000000022930 Rises=F Damp=F
 DIIS: error= 1.64D-06 at cycle  10 NSaved=  10.
 NSaved=10 IEnMin=10 EnMin= -1116.98528299307     IErMin=10 ErrMin= 1.64D-06
 ErrMax= 1.64D-06  0.00D+00 EMaxC= 1.00D-01 BMatC= 1.10D-09 BMatP= 2.75D-08
 IDIUse=1 WtCom= 1.00D+00 WtEn= 0.00D+00
 Coeff-Com:  0.979D-06-0.310D-04-0.323D-03-0.802D-03-0.121D-02 0.102D-02
 Coeff-Com:  0.232D-01 0.845D-01 0.259D+00 0.635D+00
 Coeff:      0.979D-06-0.310D-04-0.323D-03-0.802D-03-0.121D-02 0.102D-02
 Coeff:      0.232D-01 0.845D-01 0.259D+00 0.635D+00
 Gap=     0.190 Goal=   None    Shift=    0.000
 RMSDP=1.78D-07 MaxDP=9.22D-06 DE=-2.29D-08 OVMax= 1.64D-05

 Cycle  11  Pass 1  IDiag  1:
 E= -1116.98528299390     Delta-E=       -0.000000000827 Rises=F Damp=F
 DIIS: error= 7.35D-07 at cycle  11 NSaved=  11.
 NSaved=11 IEnMin=11 EnMin= -1116.98528299390     IErMin=11 ErrMin= 7.35D-07
 ErrMax= 7.35D-07  0.00D+00 EMaxC= 1.00D-01 BMatC= 3.10D-10 BMatP= 1.10D-09
 IDIUse=1 WtCom= 1.00D+00 WtEn= 0.00D+00
 Coeff-Com:  0.318D-05-0.182D-05-0.116D-03-0.310D-03-0.828D-03-0.132D-02
 Coeff-Com:  0.122D-02 0.128D-01 0.569D-01 0.370D+00 0.561D+00
 Coeff:      0.318D-05-0.182D-05-0.116D-03-0.310D-03-0.828D-03-0.132D-02
 Coeff:      0.122D-02 0.128D-01 0.569D-01 0.370D+00 0.561D+00
 Gap=     0.190 Goal=   None    Shift=    0.000
 RMSDP=6.94D-08 MaxDP=2.14D-06 DE=-8.27D-10 OVMax= 5.31D-06

 Cycle  12  Pass 1  IDiag  1:
 E= -1116.98528299416     Delta-E=       -0.000000000265 Rises=F Damp=F
 DIIS: error= 2.47D-07 at cycle  12 NSaved=  12.
 NSaved=12 IEnMin=12 EnMin= -1116.98528299416     IErMin=12 ErrMin= 2.47D-07
 ErrMax= 2.47D-07  0.00D+00 EMaxC= 1.00D-01 BMatC= 2.83D-11 BMatP= 3.10D-10
 IDIUse=1 WtCom= 1.00D+00 WtEn= 0.00D+00
 Coeff-Com:  0.180D-05 0.152D-05-0.423D-04-0.114D-03-0.407D-03-0.983D-03
 Coeff-Com: -0.176D-02-0.110D-02 0.765D-02 0.165D+00 0.318D+00 0.513D+00
 Coeff:      0.180D-05 0.152D-05-0.423D-04-0.114D-03-0.407D-03-0.983D-03
 Coeff:     -0.176D-02-0.110D-02 0.765D-02 0.165D+00 0.318D+00 0.513D+00
 Gap=     0.190 Goal=   None    Shift=    0.000
 RMSDP=2.21D-08 MaxDP=7.78D-07 DE=-2.65D-10 OVMax= 1.08D-06

 Cycle  13  Pass 1  IDiag  1:
 E= -1116.98528299419     Delta-E=       -0.000000000026 Rises=F Damp=F
 DIIS: error= 6.38D-08 at cycle  13 NSaved=  13.
 NSaved=13 IEnMin=13 EnMin= -1116.98528299419     IErMin=13 ErrMin= 6.38D-08
 ErrMax= 6.38D-08  0.00D+00 EMaxC= 1.00D-01 BMatC= 2.77D-12 BMatP= 2.83D-11
 IDIUse=1 WtCom= 1.00D+00 WtEn= 0.00D+00
 Coeff-Com:  0.404D-06 0.909D-06-0.669D-05-0.165D-04-0.883D-04-0.283D-03
 Coeff-Com: -0.815D-03-0.183D-02-0.297D-02 0.350D-01 0.773D-01 0.266D+00
 Coeff-Com:  0.628D+00
 Coeff:      0.404D-06 0.909D-06-0.669D-05-0.165D-04-0.883D-04-0.283D-03
 Coeff:     -0.815D-03-0.183D-02-0.297D-02 0.350D-01 0.773D-01 0.266D+00
 Coeff:      0.628D+00
 Gap=     0.190 Goal=   None    Shift=    0.000
 RMSDP=7.22D-09 MaxDP=3.39D-07 DE=-2.64D-11 OVMax= 4.37D-07

 Error on total polarization charges =  0.01856
 SCF Done:  E(RB3LYP) =  -1116.98528299     A.U. after   13 cycles
            NFock= 13  Conv=0.72D-08     -V/T= 2.0076
 KE= 1.108569889864D+03 PE=-5.002909558740D+03 EE= 1.574503099465D+03
 Leave Link  502 at Thu Sep 24 14:39:55 2020, MaxMem=  2147483648 cpu:             152.4 elap:              46.5
 (Enter /prod/apps/gaussian/g16b1/l601.exe)
 Copying SCF densities to generalized density rwf, IOpCl= 0 IROHF=0.

 **********************************************************************

            Population analysis using the SCF Density.

 **********************************************************************

 Alpha  occ. eigenvalues --  -89.14067 -19.17167 -19.17003 -14.49638 -14.47583
 Alpha  occ. eigenvalues --  -14.46034 -14.40752 -10.32391 -10.27920 -10.26551
 Alpha  occ. eigenvalues --  -10.23396 -10.21888 -10.21722 -10.21004 -10.20975
 Alpha  occ. eigenvalues --  -10.20883  -8.16634  -6.13178  -6.13042  -6.12876
 Alpha  occ. eigenvalues --   -1.18205  -1.13781  -1.02893  -1.00734  -0.96732
 Alpha  occ. eigenvalues --   -0.87865  -0.86298  -0.79556  -0.78686  -0.77018
 Alpha  occ. eigenvalues --   -0.71404  -0.70531  -0.66558  -0.62974  -0.61626
 Alpha  occ. eigenvalues --   -0.59553  -0.56205  -0.55716  -0.55158  -0.53674
 Alpha  occ. eigenvalues --   -0.50646  -0.50582  -0.49956  -0.48347  -0.47051
 Alpha  occ. eigenvalues --   -0.45504  -0.44673  -0.44330  -0.44283  -0.41218
 Alpha  occ. eigenvalues --   -0.39170  -0.38029  -0.37838  -0.37145  -0.36220
 Alpha  occ. eigenvalues --   -0.35319  -0.34499  -0.33225  -0.32841  -0.28781
 Alpha  occ. eigenvalues --   -0.27325  -0.26883
 Alpha virt. eigenvalues --   -0.07886  -0.03067  -0.02237  -0.00563   0.05127
 Alpha virt. eigenvalues --    0.05441   0.07575   0.08448   0.08879   0.09411
 Alpha virt. eigenvalues --    0.10653   0.11872   0.12400   0.13824   0.14288
 Alpha virt. eigenvalues --    0.14916   0.15193   0.15489   0.16747   0.17558
 Alpha virt. eigenvalues --    0.18618   0.18992   0.20251   0.22025   0.27595
 Alpha virt. eigenvalues --    0.28461   0.29107   0.31185   0.32495   0.32986
 Alpha virt. eigenvalues --    0.34852   0.36760   0.40011   0.41460   0.43147
 Alpha virt. eigenvalues --    0.45794   0.47246   0.48601   0.49935   0.50118
 Alpha virt. eigenvalues --    0.51034   0.52907   0.53413   0.54058   0.55506
 Alpha virt. eigenvalues --    0.55782   0.57318   0.57478   0.57734   0.58511
 Alpha virt. eigenvalues --    0.59372   0.59804   0.60203   0.60573   0.62458
 Alpha virt. eigenvalues --    0.64203   0.64821   0.67073   0.67840   0.69666
 Alpha virt. eigenvalues --    0.71915   0.73615   0.74632   0.75954   0.76950
 Alpha virt. eigenvalues --    0.77876   0.78541   0.80578   0.80724   0.80965
 Alpha virt. eigenvalues --    0.82755   0.83257   0.84596   0.85138   0.85285
 Alpha virt. eigenvalues --    0.86112   0.86920   0.89198   0.89881   0.91518
 Alpha virt. eigenvalues --    0.92296   0.93854   0.94752   0.95387   0.96897
 Alpha virt. eigenvalues --    0.97445   0.99818   1.00342   1.01067   1.03520
 Alpha virt. eigenvalues --    1.04601   1.06305   1.06791   1.11421   1.12148
 Alpha virt. eigenvalues --    1.12876   1.14441   1.16423   1.16924   1.17676
 Alpha virt. eigenvalues --    1.20608   1.23037   1.24643   1.25309   1.27791
 Alpha virt. eigenvalues --    1.30886   1.33288   1.37114   1.38255   1.40818
 Alpha virt. eigenvalues --    1.41899   1.42822   1.43314   1.44488   1.46469
 Alpha virt. eigenvalues --    1.47122   1.48819   1.50865   1.54452   1.58076
 Alpha virt. eigenvalues --    1.61840   1.65575   1.69486   1.71503   1.74122
 Alpha virt. eigenvalues --    1.75118   1.76037   1.77700   1.78374   1.78685
 Alpha virt. eigenvalues --    1.78935   1.82546   1.83050   1.84779   1.86499
 Alpha virt. eigenvalues --    1.86942   1.89980   1.93184   1.94773   1.98163
 Alpha virt. eigenvalues --    1.99238   2.00438   2.03499   2.05416   2.05606
 Alpha virt. eigenvalues --    2.06005   2.08241   2.09253   2.11316   2.12537
 Alpha virt. eigenvalues --    2.13083   2.14557   2.16918   2.18564   2.19639
 Alpha virt. eigenvalues --    2.21955   2.22192   2.23687   2.25393   2.27543
 Alpha virt. eigenvalues --    2.28435   2.29541   2.31003   2.33687   2.35639
 Alpha virt. eigenvalues --    2.42443   2.49286   2.51869   2.54487   2.56636
 Alpha virt. eigenvalues --    2.56880   2.61453   2.63256   2.64534   2.68536
 Alpha virt. eigenvalues --    2.70157   2.71690   2.72123   2.72668   2.77434
 Alpha virt. eigenvalues --    2.79877   2.82207   2.86437   2.97141   3.02910
 Alpha virt. eigenvalues --    3.10917   3.21461   3.40420   3.56646   3.74820
 Alpha virt. eigenvalues --    3.85834   3.90231   3.95533   4.02105   4.07066
 Alpha virt. eigenvalues --    4.09219   4.09664   4.12708   4.17097   4.21772
 Alpha virt. eigenvalues --    4.30809   4.37502   4.45415   4.69113
          Condensed to atoms (all electrons):
               1          2          3          4          5          6
     1  O    8.231999   0.455316  -0.049502   0.001172  -0.000007  -0.000000
     2  S    0.455316  13.619361   0.108080  -0.011295  -0.001034   0.000193
     3  N   -0.049502   0.108080   7.376260   0.293033  -0.061187   0.004439
     4  C    0.001172  -0.011295   0.293033   4.506714   0.292047  -0.059902
     5  N   -0.000007  -0.001034  -0.061187   0.292047   6.713139   0.256564
     6  N   -0.000000   0.000193   0.004439  -0.059902   0.256564   6.678649
     7  C   -0.000038  -0.004424  -0.066633   0.510257  -0.054481  -0.093196
     8  N    0.000000   0.000174   0.003435  -0.010031  -0.085559   0.273102
     9  C   -0.000000  -0.000006  -0.000105   0.001901   0.006317  -0.051948
    10  C   -0.000000   0.000000   0.000005   0.001089  -0.000298   0.003054
    11  C   -0.000000  -0.000000   0.000000  -0.000007   0.000003  -0.000071
    12  C    0.000000  -0.000000  -0.000000  -0.000000  -0.000000   0.000013
    13  C   -0.000000  -0.000000  -0.000000   0.000005  -0.000003   0.000193
    14  C    0.000000   0.000000   0.000000  -0.000575   0.000404  -0.000163
    15  C   -0.058434   0.249471  -0.056579  -0.002194   0.000044  -0.000004
    16  O   -0.041944   0.430593  -0.052483   0.001401   0.000043   0.000077
    17  H    0.000312  -0.002522   0.297632  -0.024432   0.002051  -0.000018
    18  H   -0.000000   0.000015  -0.001190  -0.023830   0.003170   0.003144
    19  H    0.000000  -0.000000   0.000000  -0.000044  -0.000011  -0.000053
    20  H    0.000000   0.000000   0.000000   0.000000  -0.000000   0.000001
    21  H   -0.000000   0.000000  -0.000000   0.000000  -0.000000   0.000000
    22  H    0.000000   0.000000   0.000000  -0.000000   0.000000  -0.000006
    23  H   -0.000000  -0.000000  -0.000000   0.000012  -0.000289   0.009104
    24  H   -0.000044  -0.008308   0.000133   0.000140  -0.000007  -0.000000
    25  H    0.001662  -0.008170  -0.001399   0.001168   0.000010  -0.000016
    26  H   -0.000226  -0.014984   0.002115   0.000020  -0.000003   0.000000
    27  H   -0.000034   0.000714   0.000408  -0.022460   0.303813  -0.024944
               7          8          9         10         11         12
     1  O   -0.000038   0.000000  -0.000000  -0.000000  -0.000000   0.000000
     2  S   -0.004424   0.000174  -0.000006   0.000000  -0.000000  -0.000000
     3  N   -0.066633   0.003435  -0.000105   0.000005   0.000000  -0.000000
     4  C    0.510257  -0.010031   0.001901   0.001089  -0.000007  -0.000000
     5  N   -0.054481  -0.085559   0.006317  -0.000298   0.000003  -0.000000
     6  N   -0.093196   0.273102  -0.051948   0.003054  -0.000071   0.000013
     7  C    4.971726   0.313105  -0.030580  -0.004408  -0.000017   0.000016
     8  N    0.313105   6.761060   0.206908  -0.049119   0.004388   0.000357
     9  C   -0.030580   0.206908   4.644266   0.530955  -0.012421  -0.036756
    10  C   -0.004408  -0.049119   0.530955   4.953535   0.530065  -0.041081
    11  C   -0.000017   0.004388  -0.012421   0.530065   4.856989   0.541409
    12  C    0.000016   0.000357  -0.036756  -0.041081   0.541409   4.859612
    13  C   -0.000081   0.004326  -0.011923  -0.041207  -0.024038   0.538510
    14  C    0.005954  -0.055181   0.521787  -0.064752  -0.040584  -0.040172
    15  C    0.000307  -0.000006  -0.000000   0.000000   0.000000   0.000000
    16  O    0.000178  -0.000005   0.000000  -0.000000  -0.000000   0.000000
    17  H   -0.002371  -0.000005   0.000003  -0.000000  -0.000000  -0.000000
    18  H    0.366575  -0.031680  -0.001530   0.002130   0.000080   0.000000
    19  H    0.004879  -0.008069  -0.040000   0.356773  -0.031892   0.004146
    20  H   -0.000004  -0.000112   0.003440  -0.036771   0.364414  -0.038383
    21  H   -0.000000   0.000003   0.000484   0.004824  -0.040450   0.366337
    22  H    0.000001  -0.000107   0.003485   0.000713   0.004268  -0.038640
    23  H    0.000126  -0.010697  -0.040410   0.004865   0.000117   0.004296
    24  H    0.000059   0.000001   0.000000   0.000000  -0.000000  -0.000000
    25  H    0.001108  -0.000029   0.000001  -0.000000  -0.000000   0.000000
    26  H   -0.000017   0.000000  -0.000000   0.000000   0.000000   0.000000
    27  H    0.005008   0.003777  -0.000057   0.000002  -0.000000  -0.000000
              13         14         15         16         17         18
     1  O   -0.000000   0.000000  -0.058434  -0.041944   0.000312  -0.000000
     2  S   -0.000000   0.000000   0.249471   0.430593  -0.002522   0.000015
     3  N   -0.000000   0.000000  -0.056579  -0.052483   0.297632  -0.001190
     4  C    0.000005  -0.000575  -0.002194   0.001401  -0.024432  -0.023830
     5  N   -0.000003   0.000404   0.000044   0.000043   0.002051   0.003170
     6  N    0.000193  -0.000163  -0.000004   0.000077  -0.000018   0.003144
     7  C   -0.000081   0.005954   0.000307   0.000178  -0.002371   0.366575
     8  N    0.004326  -0.055181  -0.000006  -0.000005  -0.000005  -0.031680
     9  C   -0.011923   0.521787  -0.000000   0.000000   0.000003  -0.001530
    10  C   -0.041207  -0.064752   0.000000  -0.000000  -0.000000   0.002130
    11  C   -0.024038  -0.040584   0.000000  -0.000000  -0.000000   0.000080
    12  C    0.538510  -0.040172   0.000000   0.000000  -0.000000   0.000000
    13  C    4.866244   0.525344   0.000000   0.000000  -0.000000  -0.000006
    14  C    0.525344   4.952605  -0.000000  -0.000000   0.000000  -0.000013
    15  C    0.000000  -0.000000   5.498868  -0.055041   0.000111  -0.000005
    16  O    0.000000  -0.000000  -0.055041   8.264907   0.001139   0.000001
    17  H   -0.000000   0.000000   0.000111   0.001139   0.279823   0.000746
    18  H   -0.000006  -0.000013  -0.000005   0.000001   0.000746   0.416212
    19  H    0.000186   0.004645  -0.000000  -0.000000   0.000000   0.001034
    20  H    0.004235   0.000746  -0.000000   0.000000   0.000000  -0.000000
    21  H   -0.040445   0.004674   0.000000  -0.000000   0.000000  -0.000000
    22  H    0.364692  -0.036921  -0.000000  -0.000000   0.000000   0.000000
    23  H   -0.034276   0.359665  -0.000000   0.000000   0.000000  -0.000008
    24  H   -0.000000  -0.000000   0.344642   0.001671   0.000015  -0.000008
    25  H   -0.000000  -0.000000   0.343764  -0.000085   0.000101   0.000045
    26  H    0.000000   0.000000   0.356496  -0.000174  -0.000001   0.000000
    27  H   -0.000000  -0.000002   0.000065   0.006096  -0.000034  -0.000049
              19         20         21         22         23         24
     1  O    0.000000   0.000000  -0.000000   0.000000  -0.000000  -0.000044
     2  S   -0.000000   0.000000   0.000000   0.000000  -0.000000  -0.008308
     3  N    0.000000   0.000000  -0.000000   0.000000  -0.000000   0.000133
     4  C   -0.000044   0.000000   0.000000  -0.000000   0.000012   0.000140
     5  N   -0.000011  -0.000000  -0.000000   0.000000  -0.000289  -0.000007
     6  N   -0.000053   0.000001   0.000000  -0.000006   0.009104  -0.000000
     7  C    0.004879  -0.000004  -0.000000   0.000001   0.000126   0.000059
     8  N   -0.008069  -0.000112   0.000003  -0.000107  -0.010697   0.000001
     9  C   -0.040000   0.003440   0.000484   0.003485  -0.040410   0.000000
    10  C    0.356773  -0.036771   0.004824   0.000713   0.004865   0.000000
    11  C   -0.031892   0.364414  -0.040450   0.004268   0.000117  -0.000000
    12  C    0.004146  -0.038383   0.366337  -0.038640   0.004296  -0.000000
    13  C    0.000186   0.004235  -0.040445   0.364692  -0.034276  -0.000000
    14  C    0.004645   0.000746   0.004674  -0.036921   0.359665  -0.000000
    15  C   -0.000000  -0.000000   0.000000  -0.000000  -0.000000   0.344642
    16  O   -0.000000   0.000000  -0.000000  -0.000000   0.000000   0.001671
    17  H    0.000000   0.000000   0.000000   0.000000   0.000000   0.000015
    18  H    0.001034  -0.000000  -0.000000   0.000000  -0.000008  -0.000008
    19  H    0.524130  -0.004881  -0.000135   0.000013  -0.000119   0.000000
    20  H   -0.004881   0.538536  -0.004909  -0.000154   0.000013   0.000000
    21  H   -0.000135  -0.004909   0.544819  -0.004921  -0.000131  -0.000000
    22  H    0.000013  -0.000154  -0.004921   0.538975  -0.004893   0.000000
    23  H   -0.000119   0.000013  -0.000131  -0.004893   0.524877  -0.000000
    24  H    0.000000   0.000000  -0.000000   0.000000  -0.000000   0.458857
    25  H   -0.000000   0.000000  -0.000000  -0.000000  -0.000000  -0.019555
    26  H    0.000000   0.000000   0.000000  -0.000000   0.000000  -0.017122
    27  H   -0.000000   0.000000  -0.000000   0.000000  -0.000002  -0.000002
              25         26         27
     1  O    0.001662  -0.000226  -0.000034
     2  S   -0.008170  -0.014984   0.000714
     3  N   -0.001399   0.002115   0.000408
     4  C    0.001168   0.000020  -0.022460
     5  N    0.000010  -0.000003   0.303813
     6  N   -0.000016   0.000000  -0.024944
     7  C    0.001108  -0.000017   0.005008
     8  N   -0.000029   0.000000   0.003777
     9  C    0.000001  -0.000000  -0.000057
    10  C   -0.000000   0.000000   0.000002
    11  C   -0.000000   0.000000  -0.000000
    12  C    0.000000   0.000000  -0.000000
    13  C   -0.000000   0.000000  -0.000000
    14  C   -0.000000   0.000000  -0.000002
    15  C    0.343764   0.356496   0.000065
    16  O   -0.000085  -0.000174   0.006096
    17  H    0.000101  -0.000001  -0.000034
    18  H    0.000045   0.000000  -0.000049
    19  H   -0.000000   0.000000  -0.000000
    20  H    0.000000   0.000000   0.000000
    21  H   -0.000000   0.000000  -0.000000
    22  H   -0.000000  -0.000000   0.000000
    23  H   -0.000000   0.000000  -0.000002
    24  H   -0.019555  -0.017122  -0.000002
    25  H    0.460923  -0.018163   0.000011
    26  H   -0.018163   0.445277  -0.000000
    27  H    0.000011  -0.000000   0.256292
 Mulliken charges:
               1
     1  O   -0.540231
     2  S    1.186826
     3  N   -0.796465
     4  C    0.545812
     5  N   -0.374726
     6  N    0.001786
     7  C    0.076952
     8  N   -0.320035
     9  C    0.306190
    10  C   -0.150373
    11  C   -0.152253
    12  C   -0.119662
    13  C   -0.151756
    14  C   -0.137461
    15  C   -0.621504
    16  O   -0.556373
    17  H    0.447452
    18  H    0.265166
    19  H    0.189399
    20  H    0.173829
    21  H    0.169850
    22  H    0.173495
    23  H    0.187750
    24  H    0.239530
    25  H    0.238625
    26  H    0.246782
    27  H    0.471397
 Sum of Mulliken charges =   1.00000
 Mulliken charges with hydrogens summed into heavy atoms:
               1
     1  O   -0.540231
     2  S    1.186826
     3  N   -0.349013
     4  C    0.545812
     5  N    0.096671
     6  N    0.001786
     7  C    0.342117
     8  N   -0.320035
     9  C    0.306190
    10  C    0.039025
    11  C    0.021576
    12  C    0.050188
    13  C    0.021739
    14  C    0.050289
    15  C    0.103433
    16  O   -0.556373
 Electronic spatial extent (au):  <R**2>=           5573.3075
 Charge=              1.0000 electrons
 Dipole moment (field-independent basis, Debye):
    X=              4.4662    Y=              4.6036    Z=              0.1759  Tot=              6.4165
 Quadrupole moment (field-independent basis, Debye-Ang):
   XX=            -83.4057   YY=            -81.3207   ZZ=            -90.1765
   XY=             -6.7737   XZ=             -5.9151   YZ=             -0.6265
 Traceless Quadrupole moment (field-independent basis, Debye-Ang):
   XX=              1.5619   YY=              3.6469   ZZ=             -5.2089
   XY=             -6.7737   XZ=             -5.9151   YZ=             -0.6265
 Octapole moment (field-independent basis, Debye-Ang**2):
  XXX=            204.1669  YYY=              7.5681  ZZZ=             17.3100  XYY=            -16.4369
  XXY=             49.5920  XXZ=             63.6216  XZZ=            -27.1284  YZZ=              4.8769
  YYZ=             -8.2630  XYZ=            -32.6958
 Hexadecapole moment (field-independent basis, Debye-Ang**3):
 XXXX=          -5966.7666 YYYY=           -501.6641 ZZZZ=           -389.1078 XXXY=            -17.2681
 XXXZ=           -101.0729 YYYX=            -15.9096 YYYZ=             14.7905 ZZZX=            -17.4651
 ZZZY=             18.0195 XXYY=          -1058.2768 XXZZ=          -1054.4233 YYZZ=           -139.5963
 XXYZ=            -19.6841 YYXZ=             13.9334 ZZXY=            -31.6858
 N-N= 1.202851286416D+03 E-N=-5.002909566200D+03  KE= 1.108569889864D+03
 No NMR shielding tensors so no spin-rotation constants.
 Leave Link  601 at Thu Sep 24 14:39:55 2020, MaxMem=  2147483648 cpu:               0.4 elap:               0.1
 (Enter /prod/apps/gaussian/g16b1/l701.exe)
 ... and contract with generalized density number  0.
 Compute integral first derivatives.
 D1PCM: PCM CHGder 1st derivatives, ID1Alg=3 FixD1E=F DoIter=F DoCFld=F I1PDM=0.
 GePol: Maximum number of non-zero 1st derivatives   =     181
 Leave Link  701 at Thu Sep 24 14:39:56 2020, MaxMem=  2147483648 cpu:               6.7 elap:               1.7
 (Enter /prod/apps/gaussian/g16b1/l702.exe)
 L702 exits ... SP integral derivatives will be done elsewhere.
 Leave Link  702 at Thu Sep 24 14:39:56 2020, MaxMem=  2147483648 cpu:               0.1 elap:               0.0
 (Enter /prod/apps/gaussian/g16b1/l703.exe)
 Integral derivatives from FoFJK, PRISM(SPDF).
 Compute integral first derivatives, UseDBF=F ICtDFT=           0.
 Calling FoFJK, ICntrl=      2127 FMM=F ISym2X=0 I1Cent= 0 IOpClX= 0 NMat=1 NMatS=1 NMatT=0.
 FoFJK:  IHMeth= 1 ICntrl=    2127 DoSepK=F KAlg= 0 I1Cent=           0 FoldK=F
 IRaf=         0 NMat=       1 IRICut=       1 DoRegI=T DoRafI=F ISym2E= 0 IDoP0=0 IntGTp=1.
 FoFCou: FMM=F IPFlag=           0 FMFlag=      100000 FMFlg1=         800
         NFxFlg=           0 DoJE=F BraDBF=F KetDBF=F FulRan=T
         wScrn=  0.000000 ICntrl=      2127 IOpCl=  0 I1Cent=           0 NGrid=           0
         NMat0=    1 NMatS0=      1 NMatT0=    0 NMatD0=    1 NMtDS0=    0 NMtDT0=    0
 Symmetry not used in FoFCou.
 Leave Link  703 at Thu Sep 24 14:40:06 2020, MaxMem=  2147483648 cpu:              39.8 elap:              10.0
 (Enter /prod/apps/gaussian/g16b1/l716.exe)
 Dipole        = 1.75714157D+00 1.81120754D+00 6.91876450D-02
 -------------------------------------------------------------------
 Center     Atomic                   Forces (Hartrees/Bohr)
 Number     Number              X              Y              Z
 -------------------------------------------------------------------
      1        8           0.001126646   -0.000477454    0.000632676
      2       16          -0.000257933    0.001011155    0.000342585
      3        7          -0.000395150   -0.000520217    0.000667457
      4        6           0.000284862   -0.000167198    0.000022279
      5        7          -0.000249335   -0.000182063    0.000036544
      6        7          -0.000233292    0.000258042    0.000085655
      7        6           0.000217966   -0.000013859    0.000015647
      8        7           0.000053807    0.000391604    0.000091995
      9        6           0.000114129    0.000548787   -0.000384828
     10        6          -0.000975982    0.000382386   -0.000514768
     11        6           0.000898421   -0.000579494    0.000626294
     12        6          -0.000763992   -0.000255221   -0.000074884
     13        6           0.000557922    0.000833858   -0.000416410
     14        6           0.000065413   -0.000747785    0.000501378
     15        6           0.000130101   -0.000453879    0.000285076
     16        8          -0.000012290    0.000643232   -0.000344842
     17        1           0.000000201    0.000270103   -0.000086154
     18        1           0.000015827   -0.000843379   -0.000131034
     19        1           0.000581975   -0.000944751    0.000982472
     20        1          -0.000412113   -0.000534106    0.000270158
     21        1          -0.000937921   -0.000113038   -0.000198803
     22        1          -0.000525985    0.000428365   -0.000492774
     23        1           0.000259434    0.000791619   -0.000626530
     24        1           0.000063486   -0.000594538   -0.000024292
     25        1          -0.001036287    0.000076239   -0.000527999
     26        1           0.000852865   -0.000008571   -0.000856495
     27        1           0.000577224    0.000800162    0.000119597
 -------------------------------------------------------------------
 Cartesian Forces:  Max     0.001126646 RMS     0.000518682
 Leave Link  716 at Thu Sep 24 14:40:06 2020, MaxMem=  2147483648 cpu:               0.1 elap:               0.0
 (Enter /prod/apps/gaussian/g16b1/l103.exe)

 GradGradGradGradGradGradGradGradGradGradGradGradGradGradGradGradGradGrad
 Berny optimization.
 FormGI is forming the generalized inverse of G from B-inverse, IUseBI=4.
 Internal  Forces:  Max     0.001528560 RMS     0.000457845
 Search for a local minimum.
 Step number   1 out of a maximum of  147
 All quantities printed in internal units (Hartrees-Bohrs-Radians)
 RMS Force = .45784D-03 SwitMx=.10000D-02 MixMth= 2
 Mixed Optimization -- En-DIIS/RFO-DIIS
 Second derivative matrix not updated -- first step.
 ITU=  0
     Eigenvalues ---    0.00415   0.01036   0.01202   0.01832   0.01870
     Eigenvalues ---    0.01901   0.02113   0.02125   0.02138   0.02140
     Eigenvalues ---    0.02144   0.02154   0.02155   0.02162   0.02163
     Eigenvalues ---    0.02242   0.02267   0.02284   0.02298   0.02319
     Eigenvalues ---    0.05976   0.06225   0.08027   0.08350   0.13218
     Eigenvalues ---    0.13919   0.15993   0.15996   0.15998   0.15999
     Eigenvalues ---    0.15999   0.15999   0.16000   0.16000   0.16000
     Eigenvalues ---    0.16000   0.18452   0.22000   0.22000   0.22705
     Eigenvalues ---    0.23358   0.23501   0.24063   0.24931   0.24995
     Eigenvalues ---    0.25000   0.25000   0.26382   0.33622   0.34520
     Eigenvalues ---    0.34708   0.34800   0.35321   0.35335   0.35387
     Eigenvalues ---    0.35417   0.35517   0.36369   0.39994   0.41974
     Eigenvalues ---    0.42222   0.43762   0.43801   0.45928   0.46037
     Eigenvalues ---    0.46180   0.46183   0.46466   0.46661   0.48342
     Eigenvalues ---    0.52341   0.58860   0.60901   0.89355   0.90080
 RFO step:  Lambda=-9.03950074D-05 EMin= 4.14620070D-03
 Linear search not attempted -- first point.
 Iteration  1 RMS(Cart)=  0.01033212 RMS(Int)=  0.00002760
 Iteration  2 RMS(Cart)=  0.00004235 RMS(Int)=  0.00000056
 Iteration  3 RMS(Cart)=  0.00000000 RMS(Int)=  0.00000056
 ITry= 1 IFail=0 DXMaxC= 3.60D-02 DCOld= 1.00D+10 DXMaxT= 3.00D-01 DXLimC= 3.00D+00 Rises=F
 Variable       Old X    -DE/DX   Delta X   Delta X   Delta X     New X
                                 (Linear)    (Quad)   (Total)
    R1        2.76596  -0.00137   0.00000  -0.00152  -0.00152   2.76444
    R2        3.24972  -0.00104   0.00000  -0.00310  -0.00310   3.24662
    R3        3.39518  -0.00153   0.00000  -0.00579  -0.00579   3.38938
    R4        2.76932  -0.00070   0.00000  -0.00079  -0.00079   2.76853
    R5        2.61577  -0.00044   0.00000  -0.00092  -0.00092   2.61485
    R6        1.93393   0.00027   0.00000   0.00063   0.00063   1.93456
    R7        2.57438  -0.00059   0.00000  -0.00111  -0.00111   2.57327
    R8        2.60914  -0.00059   0.00000  -0.00121  -0.00121   2.60793
    R9        2.48502  -0.00056   0.00000  -0.00088  -0.00088   2.48414
   R10        1.93441  -0.00099   0.00000  -0.00227  -0.00227   1.93214
   R11        2.49803  -0.00042   0.00000  -0.00069  -0.00069   2.49734
   R12        2.57227  -0.00093   0.00000  -0.00178  -0.00178   2.57049
   R13        2.03509  -0.00084   0.00000  -0.00231  -0.00231   2.03278
   R14        2.71561  -0.00117   0.00000  -0.00291  -0.00291   2.71270
   R15        2.63739  -0.00128   0.00000  -0.00269  -0.00269   2.63470
   R16        2.63612  -0.00061   0.00000  -0.00125  -0.00125   2.63487
   R17        2.63378  -0.00041   0.00000  -0.00086  -0.00086   2.63291
   R18        2.05157  -0.00147   0.00000  -0.00416  -0.00416   2.04740
   R19        2.64174  -0.00142   0.00000  -0.00315  -0.00315   2.63859
   R20        2.05004  -0.00072   0.00000  -0.00203  -0.00203   2.04800
   R21        2.64265  -0.00151   0.00000  -0.00336  -0.00336   2.63929
   R22        2.05135  -0.00096   0.00000  -0.00272  -0.00272   2.04863
   R23        2.63408  -0.00081   0.00000  -0.00174  -0.00174   2.63234
   R24        2.05051  -0.00082   0.00000  -0.00233  -0.00233   2.04818
   R25        2.04844  -0.00100   0.00000  -0.00281  -0.00281   2.04563
   R26        2.06001  -0.00055   0.00000  -0.00158  -0.00158   2.05843
   R27        2.06152  -0.00117   0.00000  -0.00337  -0.00337   2.05814
   R28        2.06461  -0.00118   0.00000  -0.00342  -0.00342   2.06119
    A1        1.82503   0.00001   0.00000   0.00026   0.00026   1.82529
    A2        1.90529   0.00013   0.00000   0.00137   0.00137   1.90666
    A3        2.10856  -0.00008   0.00000  -0.00045  -0.00045   2.10811
    A4        1.85146   0.00003   0.00000   0.00010   0.00010   1.85156
    A5        1.84422  -0.00020   0.00000  -0.00180  -0.00180   1.84241
    A6        1.91044   0.00009   0.00000   0.00041   0.00041   1.91085
    A7        2.11344  -0.00053   0.00000  -0.00227  -0.00227   2.11117
    A8        1.95297   0.00025   0.00000   0.00135   0.00135   1.95432
    A9        1.98919   0.00020   0.00000   0.00097   0.00097   1.99016
   A10        2.15769  -0.00018   0.00000  -0.00072  -0.00072   2.15697
   A11        2.29913   0.00018   0.00000   0.00076   0.00076   2.29989
   A12        1.82489   0.00000   0.00000   0.00006   0.00006   1.82494
   A13        1.97677   0.00005   0.00000   0.00030   0.00030   1.97707
   A14        2.23307  -0.00001   0.00000  -0.00005  -0.00005   2.23302
   A15        2.07327  -0.00004   0.00000  -0.00025  -0.00025   2.07302
   A16        1.82008  -0.00022   0.00000  -0.00085  -0.00085   1.81923
   A17        1.83752  -0.00005   0.00000  -0.00029  -0.00029   1.83723
   A18        2.28805   0.00018   0.00000   0.00110   0.00110   2.28915
   A19        2.15736  -0.00012   0.00000  -0.00079  -0.00079   2.15657
   A20        1.96534   0.00021   0.00000   0.00080   0.00080   1.96613
   A21        2.09202  -0.00013   0.00000  -0.00052  -0.00052   2.09150
   A22        2.22566  -0.00008   0.00000  -0.00029  -0.00029   2.22537
   A23        2.07468  -0.00000   0.00000  -0.00016  -0.00016   2.07453
   A24        2.07785  -0.00024   0.00000  -0.00111  -0.00111   2.07674
   A25        2.13064   0.00025   0.00000   0.00127   0.00127   2.13191
   A26        2.07020  -0.00031   0.00000  -0.00121  -0.00122   2.06898
   A27        2.10750  -0.00002   0.00000  -0.00050  -0.00050   2.10700
   A28        2.10528   0.00034   0.00000   0.00175   0.00175   2.10702
   A29        2.09931   0.00003   0.00000   0.00007   0.00007   2.09938
   A30        2.08441  -0.00011   0.00000  -0.00062  -0.00062   2.08379
   A31        2.09941   0.00008   0.00000   0.00056   0.00056   2.09997
   A32        2.09671   0.00026   0.00000   0.00091   0.00091   2.09761
   A33        2.09366  -0.00018   0.00000  -0.00078  -0.00078   2.09288
   A34        2.09282  -0.00008   0.00000  -0.00013  -0.00013   2.09269
   A35        2.10026   0.00004   0.00000   0.00003   0.00003   2.10029
   A36        2.09828   0.00012   0.00000   0.00083   0.00083   2.09911
   A37        2.08458  -0.00015   0.00000  -0.00086  -0.00086   2.08372
   A38        2.06920  -0.00026   0.00000  -0.00106  -0.00106   2.06814
   A39        2.10024  -0.00015   0.00000  -0.00123  -0.00123   2.09901
   A40        2.11369   0.00041   0.00000   0.00230   0.00230   2.11599
   A41        1.89222  -0.00026   0.00000  -0.00145  -0.00145   1.89077
   A42        1.90079  -0.00006   0.00000  -0.00047  -0.00047   1.90032
   A43        1.86209  -0.00035   0.00000  -0.00226  -0.00226   1.85983
   A44        1.94440   0.00019   0.00000   0.00136   0.00136   1.94576
   A45        1.93051   0.00030   0.00000   0.00199   0.00199   1.93250
   A46        1.93131   0.00015   0.00000   0.00058   0.00058   1.93189
    D1       -2.94198   0.00013   0.00000   0.00259   0.00259  -2.93938
    D2        0.91671   0.00014   0.00000   0.00200   0.00200   0.91871
    D3        1.32823  -0.00004   0.00000   0.00089   0.00089   1.32912
    D4       -1.09627  -0.00003   0.00000   0.00030   0.00030  -1.09597
    D5       -0.69922  -0.00006   0.00000   0.00121   0.00121  -0.69801
    D6       -3.12371  -0.00006   0.00000   0.00062   0.00062  -3.12309
    D7       -0.89747   0.00000   0.00000  -0.00053  -0.00053  -0.89801
    D8       -3.01589  -0.00003   0.00000  -0.00103  -0.00103  -3.01692
    D9        1.18215   0.00002   0.00000  -0.00020  -0.00020   1.18196
   D10        1.06019   0.00008   0.00000   0.00044   0.00044   1.06063
   D11       -1.05822   0.00006   0.00000  -0.00005  -0.00005  -1.05828
   D12        3.13982   0.00011   0.00000   0.00078   0.00078   3.14060
   D13        3.04241  -0.00009   0.00000  -0.00141  -0.00141   3.04100
   D14        0.92399  -0.00012   0.00000  -0.00190  -0.00190   0.92209
   D15       -1.16115  -0.00006   0.00000  -0.00107  -0.00107  -1.16222
   D16        1.13803  -0.00007   0.00000  -0.00387  -0.00387   1.13416
   D17       -2.07141  -0.00003   0.00000  -0.00165  -0.00165  -2.07306
   D18       -2.73421  -0.00007   0.00000  -0.00316  -0.00316  -2.73737
   D19        0.33953  -0.00002   0.00000  -0.00094  -0.00094   0.33860
   D20        3.09539   0.00003   0.00000   0.00093   0.00093   3.09632
   D21       -0.05897   0.00002   0.00000   0.00080   0.00080  -0.05817
   D22        0.00610  -0.00002   0.00000  -0.00082  -0.00082   0.00528
   D23        3.13492  -0.00002   0.00000  -0.00095  -0.00095   3.13398
   D24       -3.07794  -0.00003   0.00000  -0.00151  -0.00152  -3.07946
   D25        0.08780  -0.00005   0.00000  -0.00268  -0.00268   0.08511
   D26        0.00529   0.00001   0.00000   0.00037   0.00037   0.00566
   D27       -3.11215  -0.00002   0.00000  -0.00080  -0.00080  -3.11295
   D28       -0.01501   0.00002   0.00000   0.00092   0.00092  -0.01410
   D29        3.13807   0.00003   0.00000   0.00103   0.00103   3.13910
   D30        0.01858  -0.00002   0.00000  -0.00065  -0.00065   0.01793
   D31       -3.14144  -0.00003   0.00000  -0.00126  -0.00126   3.14048
   D32       -0.01525   0.00000   0.00000   0.00016   0.00016  -0.01509
   D33       -3.13669   0.00002   0.00000   0.00084   0.00084  -3.13586
   D34        3.10449   0.00003   0.00000   0.00125   0.00125   3.10574
   D35       -0.01695   0.00005   0.00000   0.00192   0.00192  -0.01503
   D36        2.51824   0.00020   0.00000   0.01660   0.01660   2.53484
   D37       -0.62790   0.00020   0.00000   0.01632   0.01632  -0.61159
   D38       -0.64481   0.00019   0.00000   0.01589   0.01589  -0.62891
   D39        2.49223   0.00019   0.00000   0.01561   0.01561   2.50785
   D40        3.13095   0.00000   0.00000   0.00005   0.00005   3.13100
   D41       -0.03243   0.00004   0.00000   0.00169   0.00169  -0.03074
   D42       -0.00595   0.00001   0.00000   0.00035   0.00035  -0.00560
   D43        3.11386   0.00004   0.00000   0.00199   0.00199   3.11584
   D44       -3.13954   0.00000   0.00000  -0.00001  -0.00001  -3.13954
   D45       -0.01003   0.00004   0.00000   0.00177   0.00177  -0.00825
   D46       -0.00265  -0.00001   0.00000  -0.00030  -0.00030  -0.00295
   D47        3.12686   0.00003   0.00000   0.00148   0.00148   3.12834
   D48        0.00833  -0.00000   0.00000  -0.00009  -0.00009   0.00824
   D49        3.13884   0.00001   0.00000   0.00041   0.00041   3.13925
   D50       -3.11150  -0.00003   0.00000  -0.00170  -0.00170  -3.11320
   D51        0.01901  -0.00002   0.00000  -0.00120  -0.00120   0.01781
   D52       -0.00223  -0.00000   0.00000  -0.00019  -0.00019  -0.00243
   D53        3.13945   0.00000   0.00000   0.00010   0.00010   3.13955
   D54       -3.13264  -0.00001   0.00000  -0.00070  -0.00070  -3.13334
   D55        0.00904  -0.00001   0.00000  -0.00040  -0.00040   0.00864
   D56       -0.00658   0.00000   0.00000   0.00023   0.00023  -0.00635
   D57       -3.13574  -0.00001   0.00000  -0.00035  -0.00035  -3.13609
   D58        3.13493  -0.00000   0.00000  -0.00006  -0.00006   3.13486
   D59        0.00577  -0.00001   0.00000  -0.00064  -0.00064   0.00512
   D60        0.00891  -0.00000   0.00000   0.00001   0.00001   0.00891
   D61       -3.12051  -0.00004   0.00000  -0.00176  -0.00177  -3.12227
   D62        3.13816   0.00001   0.00000   0.00059   0.00059   3.13876
   D63        0.00875  -0.00002   0.00000  -0.00118  -0.00118   0.00757
         Item               Value     Threshold  Converged?
 Maximum Force            0.001529     0.000450     NO 
[...]
 Alpha virt. eigenvalues --    0.24166   0.24262   0.24840   0.25017   0.25158
 Alpha virt. eigenvalues --    0.25628   0.26420   0.26593   0.27112   0.27517
 Alpha virt. eigenvalues --    0.27901   0.27948   0.28507   0.29200   0.29237
 Alpha virt. eigenvalues --    0.29564   0.30264   0.30659   0.30826   0.31285
 Alpha virt. eigenvalues --    0.31913   0.32811   0.33084   0.33366   0.33514
 Alpha virt. eigenvalues --    0.33582   0.34254   0.34817   0.35228   0.35993
 Alpha virt. eigenvalues --    0.36316   0.37279   0.37333   0.38850   0.39243
 Alpha virt. eigenvalues --    0.39762   0.40243   0.41346   0.41510   0.42038
 Alpha virt. eigenvalues --    0.42850   0.43398   0.44336   0.44542   0.45089
 Alpha virt. eigenvalues --    0.45703   0.45856   0.46512   0.47321   0.48068
 Alpha virt. eigenvalues --    0.48682   0.48980   0.49742   0.49822   0.50255
 Alpha virt. eigenvalues --    0.50655   0.51747   0.52238   0.52423   0.53049
 Alpha virt. eigenvalues --    0.53417   0.54149   0.54291   0.54863   0.55324
 Alpha virt. eigenvalues --    0.55491   0.56340   0.56763   0.56840   0.57674
 Alpha virt. eigenvalues --    0.58052   0.58354   0.58558   0.59269   0.59669
 Alpha virt. eigenvalues --    0.59779   0.60980   0.61843   0.63040   0.63779
 Alpha virt. eigenvalues --    0.63841   0.64276   0.65289   0.65784   0.66731
 Alpha virt. eigenvalues --    0.67054   0.67220   0.67735   0.68450   0.68895
 Alpha virt. eigenvalues --    0.70893   0.71263   0.71667   0.72283   0.73201
 Alpha virt. eigenvalues --    0.73586   0.74314   0.74874   0.74925   0.75726
 Alpha virt. eigenvalues --    0.76543   0.77498   0.78007   0.78408   0.78632
 Alpha virt. eigenvalues --    0.80126   0.80241   0.80875   0.81326   0.82046
 Alpha virt. eigenvalues --    0.82627   0.82766   0.83468   0.84271   0.84433
 Alpha virt. eigenvalues --    0.85087   0.86222   0.87110   0.87678   0.88720
 Alpha virt. eigenvalues --    0.88832   0.89743   0.90453   0.90830   0.91845
 Alpha virt. eigenvalues --    0.92322   0.93220   0.93850   0.95352   0.95737
 Alpha virt. eigenvalues --    0.97397   0.98380   0.98906   0.99638   1.00620
 Alpha virt. eigenvalues --    1.01543   1.01613   1.02998   1.04313   1.04746
 Alpha virt. eigenvalues --    1.06195   1.06763   1.07364   1.08640   1.09180
 Alpha virt. eigenvalues --    1.09409   1.10647   1.11316   1.14048   1.14674
 Alpha virt. eigenvalues --    1.15498   1.15884   1.17158   1.19016   1.20479
 Alpha virt. eigenvalues --    1.21928   1.23132   1.24778   1.25512   1.26723
 Alpha virt. eigenvalues --    1.27191   1.29382   1.29581   1.30330   1.32159
 Alpha virt. eigenvalues --    1.33090   1.33446   1.35419   1.36596   1.37961
 Alpha virt. eigenvalues --    1.38657   1.39466   1.40552   1.41602   1.42618
 Alpha virt. eigenvalues --    1.43220   1.44395   1.45371   1.46784   1.48140
 Alpha virt. eigenvalues --    1.48618   1.49748   1.50066   1.50860   1.51256
 Alpha virt. eigenvalues --    1.52519   1.52788   1.53583   1.54380   1.54874
 Alpha virt. eigenvalues --    1.56105   1.57426   1.58485   1.58959   1.59380
 Alpha virt. eigenvalues --    1.60192   1.61013   1.62041   1.62639   1.64828
 Alpha virt. eigenvalues --    1.66517   1.67286   1.68192   1.68523   1.70559
 Alpha virt. eigenvalues --    1.70869   1.71969   1.73418   1.74039   1.74899
 Alpha virt. eigenvalues --    1.76992   1.78727   1.79190   1.80980   1.81708
 Alpha virt. eigenvalues --    1.82262   1.82786   1.83980   1.84799   1.86214
 Alpha virt. eigenvalues --    1.86683   1.86959   1.88954   1.89676   1.91955
 Alpha virt. eigenvalues --    1.93864   1.94029   1.95593   1.97723   1.98835
 Alpha virt. eigenvalues --    1.99505   2.00083   2.01851   2.03234   2.03483
 Alpha virt. eigenvalues --    2.03816   2.05029   2.06171   2.06759   2.07931
 Alpha virt. eigenvalues --    2.08939   2.09287   2.10759   2.11481   2.12432
 Alpha virt. eigenvalues --    2.13112   2.15690   2.15800   2.16844   2.19488
 Alpha virt. eigenvalues --    2.19945   2.20787   2.21170   2.22323   2.23012
 Alpha virt. eigenvalues --    2.24211   2.24598   2.25618   2.26191   2.27740
 Alpha virt. eigenvalues --    2.28324   2.31195   2.31465   2.33487   2.35361
 Alpha virt. eigenvalues --    2.36164   2.36783   2.37723   2.39497   2.40723
 Alpha virt. eigenvalues --    2.43607   2.46401   2.48281   2.50226   2.51400
 Alpha virt. eigenvalues --    2.53006   2.53395   2.54389   2.55694   2.58535
 Alpha virt. eigenvalues --    2.60988   2.62600   2.64470   2.66432   2.69207
 Alpha virt. eigenvalues --    2.69690   2.71088   2.72211   2.73348   2.74231
 Alpha virt. eigenvalues --    2.76741   2.79215   2.80872   2.84067   2.84631
 Alpha virt. eigenvalues --    2.85704   2.86582   2.87372   2.89438   2.90994
 Alpha virt. eigenvalues --    2.93343   2.96058   2.99528   3.01414   3.02166
 Alpha virt. eigenvalues --    3.03134   3.05821   3.07791   3.18016   3.21395
 Alpha virt. eigenvalues --    3.23593   3.24937   3.28956   3.34653   3.37046
 Alpha virt. eigenvalues --    3.42805   3.50461   3.52805   3.58662   3.60151
 Alpha virt. eigenvalues --    3.62205   3.63054   3.64734   3.66352   3.67682
 Alpha virt. eigenvalues --    3.68698   3.70703   3.73629   3.77030   3.82667
 Alpha virt. eigenvalues --    3.88245   4.16039   4.28140   4.75766
          Condensed to atoms (all electrons):
               1          2          3          4          5          6
     1  O    9.019820  -0.053563  -0.042968   0.101327  -0.006247  -0.001625
     2  S   -0.053563  13.506119   0.408029  -1.035596   0.051032   0.000821
     3  N   -0.042968   0.408029   8.266002  -1.356329  -0.091110  -0.163940
     4  C    0.101327  -1.035596  -1.356329  11.852878  -0.268316   0.367229
     5  N   -0.006247   0.051032  -0.091110  -0.268316   7.910977  -0.480446
     6  N   -0.001625   0.000821  -0.163940   0.367229  -0.480446   8.598064
     7  C   -0.019762   0.330424   0.658193  -4.777834   0.497692  -0.697280
     8  N   -0.001516   0.054862  -0.004661   0.006761  -0.387221  -0.112589
     9  C    0.002658  -0.018377   0.031702   0.347473  -0.224084  -0.486295
    10  C   -0.000696   0.006017  -0.010542  -0.134840   0.099871   0.009123
    11  C   -0.000018  -0.001231  -0.009138   0.188664   0.004772  -0.017511
    12  C   -0.000002   0.000100   0.000087  -0.028249   0.000611   0.037718
    13  C    0.000021  -0.000952  -0.003015   0.046470  -0.034324   0.020103
    14  C    0.000110   0.000319   0.001161  -0.138570  -0.030532   0.535657
    15  C   -0.024114   0.434706  -0.019836   0.027340  -0.021879  -0.004207
    16  O    0.039617  -0.111524  -0.092415   0.279627  -0.036286  -0.028421
    17  H    0.018543  -0.097346   0.391396  -0.058611   0.030400   0.009772
    18  H   -0.000327  -0.010281  -0.149591   0.294158  -0.089197  -0.060116
    19  H    0.000013   0.000827   0.006527  -0.024348  -0.002439  -0.024167
    20  H    0.000001  -0.000065  -0.000401   0.004528  -0.001197   0.000876
    21  H    0.000000  -0.000000   0.000005  -0.000546  -0.000036   0.001399
    22  H    0.000001  -0.000107  -0.000232   0.002015  -0.000147  -0.001401
    23  H    0.000020  -0.000375  -0.000417   0.013290  -0.002002   0.005610
    24  H    0.023923   0.030943  -0.067208  -0.061428   0.003960   0.001163
    25  H    0.014213  -0.127260  -0.008900   0.025569   0.007691  -0.003112
    26  H   -0.001848   0.003269   0.014017  -0.008542   0.002330   0.002259
    27  H   -0.001700   0.037806   0.028575  -0.102453   0.432470  -0.206451
               7          8          9         10         11         12
     1  O   -0.019762  -0.001516   0.002658  -0.000696  -0.000018  -0.000002
     2  S    0.330424   0.054862  -0.018377   0.006017  -0.001231   0.000100
     3  N    0.658193  -0.004661   0.031702  -0.010542  -0.009138   0.000087
     4  C   -4.777834   0.006761   0.347473  -0.134840   0.188664  -0.028249
     5  N    0.497692  -0.387221  -0.224084   0.099871   0.004772   0.000611
     6  N   -0.697280  -0.112589  -0.486295   0.009123  -0.017511   0.037718
     7  C   10.442561  -0.054362  -1.274599   0.487494  -0.400680   0.057486
     8  N   -0.054362   8.929484  -0.778026   0.437444  -0.333413   0.334528
     9  C   -1.274599  -0.778026  14.271190  -5.472329   2.809232  -3.493346
    10  C    0.487494   0.437444  -5.472329  12.493082  -3.354801   3.017997
    11  C   -0.400680  -0.333413   2.809232  -3.354801   9.692390  -2.881601
    12  C    0.057486   0.334528  -3.493346   3.017997  -2.881601   8.739209
    13  C   -0.020001  -0.258841   2.555678  -3.208110   2.854317  -2.816151
    14  C    0.049707  -0.041160  -4.979084   2.115715  -3.100921   2.831626
    15  C   -0.017962   0.010318   0.004908   0.000924  -0.000930   0.000219
    16  O   -0.063726  -0.002379   0.003354  -0.000335   0.000220  -0.000092
    17  H   -0.074543   0.002105   0.006016  -0.003805  -0.000061  -0.000247
    18  H   -0.577901   0.127775   0.166898   0.034941   0.081912  -0.000572
    19  H    0.091234  -0.218453   0.968218  -1.049516   0.142440  -0.194707
    20  H   -0.002133   0.002744  -0.134572   0.591304  -0.691583   0.298284
    21  H   -0.001099  -0.003521   0.119172  -0.177611   0.348061  -0.578654
    22  H   -0.003179  -0.007453  -0.110370   0.115476  -0.203998   0.271621
    23  H   -0.033336  -0.217588   0.705200  -0.113395   0.117957  -0.168985
    24  H    0.018018   0.005251   0.002646   0.000772   0.000013   0.000093
    25  H   -0.022472  -0.001381   0.010483  -0.004281   0.002027  -0.001149
    26  H    0.010449  -0.001018  -0.001703   0.000277  -0.000240   0.000059
    27  H   -0.054601   0.087001   0.011460  -0.002976   0.000191  -0.000343
              13         14         15         16         17         18
     1  O    0.000021   0.000110  -0.024114   0.039617   0.018543  -0.000327
     2  S   -0.000952   0.000319   0.434706  -0.111524  -0.097346  -0.010281
     3  N   -0.003015   0.001161  -0.019836  -0.092415   0.391396  -0.149591
     4  C    0.046470  -0.138570   0.027340   0.279627  -0.058611   0.294158
     5  N   -0.034324  -0.030532  -0.021879  -0.036286   0.030400  -0.089197
     6  N    0.020103   0.535657  -0.004207  -0.028421   0.009772  -0.060116
     7  C   -0.020001   0.049707  -0.017962  -0.063726  -0.074543  -0.577901
     8  N   -0.258841  -0.041160   0.010318  -0.002379   0.002105   0.127775
     9  C    2.555678  -4.979084   0.004908   0.003354   0.006016   0.166898
    10  C   -3.208110   2.115715   0.000924  -0.000335  -0.003805   0.034941
    11  C    2.854317  -3.100921  -0.000930   0.000220  -0.000061   0.081912
    12  C   -2.816151   2.831626   0.000219  -0.000092  -0.000247  -0.000572
    13  C    9.397711  -3.065543  -0.000150  -0.000121  -0.000052  -0.007283
    14  C   -3.065543  12.087173  -0.001445  -0.002438  -0.000408  -0.148524
    15  C   -0.000150  -0.001445   4.565346  -0.013280  -0.019553   0.001313
    16  O   -0.000121  -0.002438  -0.013280   9.111475   0.003000   0.001957
    17  H   -0.000052  -0.000408  -0.019553   0.003000   0.794985   0.011734
    18  H   -0.007283  -0.148524   0.001313   0.001957   0.011734   1.838939
    19  H    0.128967  -0.130909   0.000428  -0.000201   0.000990  -0.053917
    20  H   -0.230491   0.115559  -0.000044   0.000011   0.000008   0.002869
    21  H    0.387755  -0.122002   0.000009  -0.000004  -0.000008  -0.000094
    22  H   -0.629370   0.537107  -0.000020   0.000021  -0.000005   0.000112
    23  H    0.289987  -0.881895   0.000244  -0.000595  -0.000213  -0.003676
    24  H   -0.000193  -0.000173   0.311604   0.005347   0.014004   0.000475
    25  H    0.001384  -0.003733   0.341267   0.045753  -0.000965   0.005241
    26  H   -0.000004   0.000609   0.337085  -0.007148  -0.001709   0.000333
    27  H    0.001700  -0.001281  -0.001827  -0.002501   0.001465   0.000169
              19         20         21         22         23         24
     1  O    0.000013   0.000001   0.000000   0.000001   0.000020   0.023923
     2  S    0.000827  -0.000065  -0.000000  -0.000107  -0.000375   0.030943
     3  N    0.006527  -0.000401   0.000005  -0.000232  -0.000417  -0.067208
     4  C   -0.024348   0.004528  -0.000546   0.002015   0.013290  -0.061428
     5  N   -0.002439  -0.001197  -0.000036  -0.000147  -0.002002   0.003960
     6  N   -0.024167   0.000876   0.001399  -0.001401   0.005610   0.001163
     7  C    0.091234  -0.002133  -0.001099  -0.003179  -0.033336   0.018018
     8  N   -0.218453   0.002744  -0.003521  -0.007453  -0.217588   0.005251
     9  C    0.968218  -0.134572   0.119172  -0.110370   0.705200   0.002646
    10  C   -1.049516   0.591304  -0.177611   0.115476  -0.113395   0.000772
    11  C    0.142440  -0.691583   0.348061  -0.203998   0.117957   0.000013
    12  C   -0.194707   0.298284  -0.578654   0.271621  -0.168985   0.000093
    13  C    0.128967  -0.230491   0.387755  -0.629370   0.289987  -0.000193
    14  C   -0.130909   0.115559  -0.122002   0.537107  -0.881895  -0.000173
    15  C    0.000428  -0.000044   0.000009  -0.000020   0.000244   0.311604
    16  O   -0.000201   0.000011  -0.000004   0.000021  -0.000595   0.005347
    17  H    0.000990   0.000008  -0.000008  -0.000005  -0.000213   0.014004
    18  H   -0.053917   0.002869  -0.000094   0.000112  -0.003676   0.000475
    19  H    2.103082  -0.083679  -0.014356   0.009685  -0.017394   0.000103
    20  H   -0.083679   1.607520  -0.059690  -0.017284   0.009353  -0.000013
    21  H   -0.014356  -0.059690   1.592370  -0.062781  -0.011567   0.000002
    22  H    0.009685  -0.017284  -0.062781   1.583751  -0.077957  -0.000014
    23  H   -0.017394   0.009353  -0.011567  -0.077957   1.911223   0.000219
    24  H    0.000103  -0.000013   0.000002  -0.000014   0.000219   0.828516
    25  H   -0.000595   0.000097  -0.000022   0.000098  -0.000793  -0.060448
    26  H    0.000162  -0.000012   0.000002  -0.000006   0.000014  -0.098883
    27  H   -0.000092  -0.000001  -0.000014   0.000018  -0.001744  -0.000126
              25         26         27
     1  O    0.014213  -0.001848  -0.001700
     2  S   -0.127260   0.003269   0.037806
     3  N   -0.008900   0.014017   0.028575
     4  C    0.025569  -0.008542  -0.102453
     5  N    0.007691   0.002330   0.432470
     6  N   -0.003112   0.002259  -0.206451
     7  C   -0.022472   0.010449  -0.054601
     8  N   -0.001381  -0.001018   0.087001
     9  C    0.010483  -0.001703   0.011460
    10  C   -0.004281   0.000277  -0.002976
    11  C    0.002027  -0.000240   0.000191
    12  C   -0.001149   0.000059  -0.000343
    13  C    0.001384  -0.000004   0.001700
    14  C   -0.003733   0.000609  -0.001281
    15  C    0.341267   0.337085  -0.001827
    16  O    0.045753  -0.007148  -0.002501
    17  H   -0.000965  -0.001709   0.001465
    18  H    0.005241   0.000333   0.000169
    19  H   -0.000595   0.000162  -0.000092
    20  H    0.000097  -0.000012  -0.000001
    21  H   -0.000022   0.000002  -0.000014
    22  H    0.000098  -0.000006   0.000018
    23  H   -0.000793   0.000014  -0.001744
    24  H   -0.060448  -0.098883  -0.000126
    25  H    0.832766  -0.083242  -0.001568
    26  H   -0.083242   0.776631   0.000214
    27  H   -0.001568   0.000214   0.740859
 Mulliken charges:
               1
     1  O   -1.065881
     2  S    2.591404
     3  N   -0.784991
     4  C    0.438334
     5  N   -0.366342
     6  N   -0.302234
     7  C    1.452213
     8  N   -0.574692
     9  C    0.956498
    10  C    0.122799
    11  C    0.753930
    12  C    0.574460
    13  C    0.590508
    14  C    0.373876
    15  C    0.089533
    16  O   -1.128915
    17  H   -0.026890
    18  H   -0.467346
    19  H   -0.637900
    20  H   -0.411987
    21  H   -0.416772
    22  H   -0.405583
    23  H   -0.521184
    24  H    0.041433
    25  H    0.033333
    26  H    0.056645
    27  H    0.035751
 Sum of Mulliken charges =   1.00000
 Mulliken charges with hydrogens summed into heavy atoms:
               1
     1  O   -1.065881
     2  S    2.591404
     3  N   -0.811881
     4  C    0.438334
     5  N   -0.330592
     6  N   -0.302234
     7  C    0.984867
     8  N   -0.574692
     9  C    0.956498
    10  C   -0.515101
    11  C    0.341943
    12  C    0.157689
    13  C    0.184925
    14  C   -0.147308
    15  C    0.220944
    16  O   -1.128915
 Electronic spatial extent (au):  <R**2>=           5553.7093
 Charge=              1.0000 electrons
 Dipole moment (field-independent basis, Debye):
    X=             -5.0227    Y=             -3.5693    Z=              1.7068  Tot=              6.3938
 Quadrupole moment (field-independent basis, Debye-Ang):
   XX=            -68.5435   YY=            -83.4001   ZZ=            -92.9663
   XY=             -5.3878   XZ=              7.3366   YZ=             -1.0397
 Traceless Quadrupole moment (field-independent basis, Debye-Ang):
   XX=             13.0932   YY=             -1.7635   ZZ=            -11.3297
   XY=             -5.3878   XZ=              7.3366   YZ=             -1.0397
 Octapole moment (field-independent basis, Debye-Ang**2):
  XXX=           -221.7450  YYY=             -8.9518  ZZZ=              9.3485  XYY=             -1.1344
  XXY=            -31.1842  XXZ=             80.1639  XZZ=             46.5472  YZZ=              1.8911
  YYZ=             -8.7994  XYZ=            -29.7885
 Hexadecapole moment (field-independent basis, Debye-Ang**3):
 XXXX=          -5559.5478 YYYY=           -524.5661 ZZZZ=           -372.9035 XXXY=             29.6919
 XXXZ=             87.6658 YYYX=            -13.0209 YYYZ=              4.2773 ZZZX=             56.3156
 ZZZY=            -10.6499 XXYY=          -1052.2941 XXZZ=          -1071.4335 YYZZ=           -149.8975
 XXYZ=             20.8025 YYXZ=            -15.4401 ZZXY=            -21.8457
 N-N= 1.204679355791D+03 E-N=-5.006250878819D+03  KE= 1.110629698020D+03
 Leave Link  601 at Thu Sep 24 15:30:51 2020, MaxMem=   262144000 cpu:               0.7 elap:               0.2
 (Enter /prod/apps/gaussian/g16b1/l9999.exe)
 1\1\GINC-PIRINEUS24\SP\RMP2-FC\Aug-CC-pVDZ\C9H11N4O2S1(1+)\UBAFAR01\24
 -Sep-2020\0\\#p mp2/aug-cc-pVDZ scf=(MaxCycle=2000,NoVarAcc,NoIncFock)
  maxdisk=120GB geom=allcheck\\SM44_m2.b.3.pdb.xyz\\1,1\O,0,-4.72579693
 15,0.3987080366,-0.6045872335\S,0,-3.5120780921,0.0506750013,0.1330194
 846\N,0,-2.2274884542,0.4270505478,-0.9409384505\C,0,-0.9362216697,0.0
 064726558,-0.6775007954\N,0,-0.5704087311,-1.3023725462,-0.5964400355\
 N,0,0.7166257482,-1.4688773144,-0.3835053484\C,0,0.2401018375,0.707307
 709,-0.5061619106\N,0,1.2021212747,-0.240748613,-0.3438186879\C,0,2.60
 48252668,-0.0334947069,-0.1215104508\C,0,3.2211530588,1.0803161371,-0.
 6903172861\C,0,4.580407991,1.2808972394,-0.4574918584\C,0,5.303137258,
 0.3747908366,0.3206691779\C,0,4.6668775144,-0.73864375,0.8738590531\C,
 0,3.3068494021,-0.9498439699,0.6613985571\C,0,-3.333731717,1.154908806
 5,1.5339834874\O,0,-3.2659235448,-1.3274166777,0.5654823345\H,0,-2.290
 6940313,1.3830895909,-1.3011516781\H,0,0.4360532218,1.7642817318,-0.47
 24222529\H,0,2.6614435653,1.7655608398,-1.3154424686\H,0,5.0727428631,
 2.1419415191,-0.8942348829\H,0,6.3607282137,0.5358386536,0.4961128102\
 H,0,5.2250324555,-1.4410511365,1.481932076\H,0,2.7942603584,-1.7977177
 427,1.096846612\H,0,-3.4157955725,2.1804784381,1.1764434001\H,0,-2.369
 0856126,0.9728118815,2.0057459077\H,0,-4.1480374463,0.9193117739,2.220
 3828646\H,0,-1.1670982262,-2.1292749414,-0.6713524255\\Version=ES64L-G
 16RevB.01\State=1-A\HF=-1112.0030757\MP2=-1114.4730196\RMSD=5.951e-09\
 PG=C01 [X(C9H11N4O2S1)]\\@


 SIC AS THE CAWSE OF EWERY THING IS, SIC WILBE THE EFFECT.
 -- PROVERBS AND REASONS OF THE YEAR 1585
           AS REPRINTED IN PAISLEY MAGAZINE 1828.
 Job cpu time:       0 days  0 hours 59 minutes 46.0 seconds.
 Elapsed time:       0 days  0 hours 15 minutes 58.0 seconds.
 File lengths (MBytes):  RWF=  37480 Int=      0 D2E=      0 Chk=     19 Scr=      1
 Normal termination of Gaussian 16 at Thu Sep 24 15:30:52 2020.
