 Entering Gaussian System, Link 0=g16
 Initial command:
 /prod/apps/gaussian/g16b1/l1.exe "/tmp/ubafar01/1460623/Gau-41704.inp" -scrdir="/tmp/ubafar01/1460623/"
 Entering Link 1 = /prod/apps/gaussian/g16b1/l1.exe PID=     41705.
  
 Copyright (c) 1988-2017, Gaussian, Inc.  All Rights Reserved.
  
 This is part of the Gaussian(R) 16 program.  It is based on
 the Gaussian(R) 09 system (copyright 2009, Gaussian, Inc.),
 the Gaussian(R) 03 system (copyright 2003, Gaussian, Inc.),
 the Gaussian(R) 98 system (copyright 1998, Gaussian, Inc.),
 the Gaussian(R) 94 system (copyright 1995, Gaussian, Inc.),
 the Gaussian 92(TM) system (copyright 1992, Gaussian, Inc.),
 the Gaussian 90(TM) system (copyright 1990, Gaussian, Inc.),
 the Gaussian 88(TM) system (copyright 1988, Gaussian, Inc.),
 the Gaussian 86(TM) system (copyright 1986, Carnegie Mellon
 University), and the Gaussian 82(TM) system (copyright 1983,
 Carnegie Mellon University). Gaussian is a federally registered
 trademark of Gaussian, Inc.
  
 This software contains proprietary and confidential information,
 including trade secrets, belonging to Gaussian, Inc.
  
 This software is provided under written license and may be
 used, copied, transmitted, or stored only in accord with that
 written license.
  
 The following legend is applicable only to US Government
 contracts under FAR:
  
                    RESTRICTED RIGHTS LEGEND
  
 Use, reproduction and disclosure by the US Government is
 subject to restrictions as set forth in subparagraphs (a)
 and (c) of the Commercial Computer Software - Restricted
 Rights clause in FAR 52.227-19.
  
 Gaussian, Inc.
 340 Quinnipiac St., Bldg. 40, Wallingford CT 06492
  
  
 ---------------------------------------------------------------
 Warning -- This program may not be used in any manner that
 competes with the business of Gaussian, Inc. or will provide
 assistance to any competitor of Gaussian, Inc.  The licensee
 of this program is prohibited from giving any competitor of
 Gaussian, Inc. access to this program.  By using this program,
 the user acknowledges that Gaussian, Inc. is engaged in the
 business of creating and licensing software in the field of
 computational chemistry and represents and warrants to the
 licensee that it is not a competitor of Gaussian, Inc. and that
 it will not use this program in any manner prohibited above.
 ---------------------------------------------------------------
  

 Cite this work as:
 Gaussian 16, Revision B.01,
 M. J. Frisch, G. W. Trucks, H. B. Schlegel, G. E. Scuseria, 
 M. A. Robb, J. R. Cheeseman, G. Scalmani, V. Barone, 
 G. A. Petersson, H. Nakatsuji, X. Li, M. Caricato, A. V. Marenich, 
 J. Bloino, B. G. Janesko, R. Gomperts, B. Mennucci, H. P. Hratchian, 
 J. V. Ortiz, A. F. Izmaylov, J. L. Sonnenberg, D. Williams-Young, 
 F. Ding, F. Lipparini, F. Egidi, J. Goings, B. Peng, A. Petrone, 
 T. Henderson, D. Ranasinghe, V. G. Zakrzewski, J. Gao, N. Rega, 
 G. Zheng, W. Liang, M. Hada, M. Ehara, K. Toyota, R. Fukuda, 
 J. Hasegawa, M. Ishida, T. Nakajima, Y. Honda, O. Kitao, H. Nakai, 
 T. Vreven, K. Throssell, J. A. Montgomery, Jr., J. E. Peralta, 
 F. Ogliaro, M. J. Bearpark, J. J. Heyd, E. N. Brothers, K. N. Kudin, 
 V. N. Staroverov, T. A. Keith, R. Kobayashi, J. Normand, 
 K. Raghavachari, A. P. Rendell, J. C. Burant, S. S. Iyengar, 
 J. Tomasi, M. Cossi, J. M. Millam, M. Klene, C. Adamo, R. Cammi, 
 J. W. Ochterski, R. L. Martin, K. Morokuma, O. Farkas, 
 J. B. Foresman, and D. J. Fox, Gaussian, Inc., Wallingford CT, 2016.
 
 ******************************************
 Gaussian 16:  ES64L-G16RevB.01 20-Dec-2017
                23-Sep-2020 
 ******************************************
 %nproc=4
 Will use up to    4 processors via shared memory.
 %Chk=SM44_m0.n.7.pdb.xyz.mst.n.w.chk
 %mem=16GB
 ----------------------------------------------------------------------
 #p b3lyp/6-31G(d) opt freq NoSymm scf=(MaxCycle=2000,NoVarAcc,NoIncFoc
 k) scrf=(iefpcm,read,solvent=water)
 ----------------------------------------------------------------------
 1/18=20,19=15,26=3,38=1,40=2/1,3;
 2/9=110,12=2,15=1,17=6,18=5,40=1/2;
 3/5=1,6=6,7=1,11=2,25=1,30=1,70=2203,71=1,72=1,74=-5/1,2,3;
 4//1;
 5/5=100002,7=2000,38=1,53=1/2;
 6/7=2,8=2,9=2,10=2,28=1/1;
 7/30=1/1,2,3,16;
 1/18=20,19=15,26=3/3(2);
 2/9=110,15=1/2;
 99//99;
 2/9=110,15=1/2;
 3/5=1,6=6,7=1,11=2,25=1,30=1,70=2205,71=1,72=1,74=-5/1,2,3;
 4/5=5,16=3,69=1/1;
 5/5=100002,7=2000,38=1,53=1/2;
 7/30=1/1,2,3,16;
 1/18=20,19=15,26=3/3(-5);
 2/9=110,15=1/2;
 6/7=2,8=2,9=2,10=2,19=2,28=1/1;
 99/9=1/99;
 Leave Link    1 at Wed Sep 23 05:18:39 2020, MaxMem=  2147483648 cpu:               0.1 elap:               0.0
 (Enter /prod/apps/gaussian/g16b1/l101.exe)
 -------------------
 SM44_m0.n.7.pdb.xyz
 -------------------
 Symbolic Z-matrix:
 Charge =  0 Multiplicity = 1
 O                     2.909     0.225     1.637 
 S                     3.46     -0.189     0.337 
 N                     2.222    -0.732    -0.707 
 C                     0.924    -0.214    -0.553 
 N                     0.659     1.103    -0.769 
 N                    -0.621     1.311    -0.598 
 C                    -0.251    -0.858    -0.236 
 N                    -1.188     0.124    -0.288 
 C                    -2.592     0.018    -0.07 
 C                    -3.229    -1.206    -0.277 
 C                    -4.602    -1.303    -0.054 
 C                    -5.33     -0.186     0.359 
 C                    -4.68      1.033     0.555 
 C                    -3.306     1.144     0.349 
 C                     4.055     1.268    -0.513 
 O                     4.477    -1.25      0.293 
 H                     2.261    -1.751    -0.76 
 H                    -0.477    -1.879     0.02 
 H                    -2.665    -2.065    -0.62 
 H                    -5.101    -2.253    -0.213 
 H                    -6.399    -0.265     0.528 
 H                    -5.239     1.904     0.879 
 H                    -2.787     2.078     0.51 
 H                     3.216     1.954    -0.633 
 H                     4.454     0.965    -1.481 
 H                     4.834     1.709     0.11 
 
 ITRead=  0  0  0  0  0  0  0  0  0  0  0  0  0  0  0  0  0  0  0  0
 ITRead=  0  0  0  0  0  0
 MicOpt= -1 -1 -1 -1 -1 -1 -1 -1 -1 -1 -1 -1 -1 -1 -1 -1 -1 -1 -1 -1
 MicOpt= -1 -1 -1 -1 -1 -1
 NAtoms=     26 NQM=       26 NQMF=       0 NMMI=      0 NMMIF=      0
                NMic=       0 NMicF=      0.
                    Isotopes and Nuclear Properties:
 (Nuclear quadrupole moments (NQMom) in fm**2, nuclear magnetic moments (NMagM)
  in nuclear magnetons)

  Atom         1           2           3           4           5           6           7           8           9          10
 IAtWgt=          16          32          14          12          14          14          12          14          12          12
 AtmWgt=  15.9949146  31.9720718  14.0030740  12.0000000  14.0030740  14.0030740  12.0000000  14.0030740  12.0000000  12.0000000
 NucSpn=           0           0           2           0           2           2           0           2           0           0
 AtZEff=  -0.0000000  -0.0000000  -0.0000000  -0.0000000  -0.0000000  -0.0000000  -0.0000000  -0.0000000  -0.0000000  -0.0000000
 NQMom=    0.0000000   0.0000000   2.0440000   0.0000000   2.0440000   2.0440000   0.0000000   2.0440000   0.0000000   0.0000000
 NMagM=    0.0000000   0.0000000   0.4037610   0.0000000   0.4037610   0.4037610   0.0000000   0.4037610   0.0000000   0.0000000
 AtZNuc=   8.0000000  16.0000000   7.0000000   6.0000000   7.0000000   7.0000000   6.0000000   7.0000000   6.0000000   6.0000000

  Atom        11          12          13          14          15          16          17          18          19          20
 IAtWgt=          12          12          12          12          12          16           1           1           1           1
 AtmWgt=  12.0000000  12.0000000  12.0000000  12.0000000  12.0000000  15.9949146   1.0078250   1.0078250   1.0078250   1.0078250
 NucSpn=           0           0           0           0           0           0           1           1           1           1
 AtZEff=  -0.0000000  -0.0000000  -0.0000000  -0.0000000  -0.0000000  -0.0000000  -0.0000000  -0.0000000  -0.0000000  -0.0000000
 NQMom=    0.0000000   0.0000000   0.0000000   0.0000000   0.0000000   0.0000000   0.0000000   0.0000000   0.0000000   0.0000000
 NMagM=    0.0000000   0.0000000   0.0000000   0.0000000   0.0000000   0.0000000   2.7928460   2.7928460   2.7928460   2.7928460
 AtZNuc=   6.0000000   6.0000000   6.0000000   6.0000000   6.0000000   8.0000000   1.0000000   1.0000000   1.0000000   1.0000000

  Atom        21          22          23          24          25          26
 IAtWgt=           1           1           1           1           1           1
 AtmWgt=   1.0078250   1.0078250   1.0078250   1.0078250   1.0078250   1.0078250
 NucSpn=           1           1           1           1           1           1
 AtZEff=  -0.0000000  -0.0000000  -0.0000000  -0.0000000  -0.0000000  -0.0000000
 NQMom=    0.0000000   0.0000000   0.0000000   0.0000000   0.0000000   0.0000000
 NMagM=    2.7928460   2.7928460   2.7928460   2.7928460   2.7928460   2.7928460
 AtZNuc=   1.0000000   1.0000000   1.0000000   1.0000000   1.0000000   1.0000000
 Leave Link  101 at Wed Sep 23 05:18:39 2020, MaxMem=  2147483648 cpu:               1.2 elap:               0.3
 (Enter /prod/apps/gaussian/g16b1/l103.exe)

 GradGradGradGradGradGradGradGradGradGradGradGradGradGradGradGradGradGrad
 Berny optimization.
 Initialization pass.
                           ----------------------------
                           !    Initial Parameters    !
                           ! (Angstroms and Degrees)  !
 --------------------------                            --------------------------
 ! Name  Definition              Value          Derivative Info.                !
 --------------------------------------------------------------------------------
 ! R1    R(1,2)                  1.4714         estimate D2E/DX2                !
 ! R2    R(2,3)                  1.708          estimate D2E/DX2                !
 ! R3    R(2,15)                 1.7887         estimate D2E/DX2                !
 ! R4    R(2,16)                 1.4704         estimate D2E/DX2                !
 ! R5    R(3,4)                  1.406          estimate D2E/DX2                !
 ! R6    R(3,17)                 1.0211         estimate D2E/DX2                !
 ! R7    R(4,5)                  1.3607         estimate D2E/DX2                !
 ! R8    R(4,7)                  1.3769         estimate D2E/DX2                !
 ! R9    R(5,6)                  1.308          estimate D2E/DX2                !
 ! R10   R(6,8)                  1.3515         estimate D2E/DX2                !
 ! R11   R(7,8)                  1.3583         estimate D2E/DX2                !
 ! R12   R(7,18)                 1.0766         estimate D2E/DX2                !
 ! R13   R(8,9)                  1.4248         estimate D2E/DX2                !
 ! R14   R(9,10)                 1.3953         estimate D2E/DX2                !
 ! R15   R(9,14)                 1.3976         estimate D2E/DX2                !
 ! R16   R(10,11)                1.3944         estimate D2E/DX2                !
 ! R17   R(10,19)                1.0833         estimate D2E/DX2                !
 ! R18   R(11,12)                1.3958         estimate D2E/DX2                !
 ! R19   R(11,20)                1.0848         estimate D2E/DX2                !
 ! R20   R(12,13)                1.3953         estimate D2E/DX2                !
 ! R21   R(12,21)                1.0852         estimate D2E/DX2                !
 ! R22   R(13,14)                1.3938         estimate D2E/DX2                !
 ! R23   R(13,22)                1.0845         estimate D2E/DX2                !
 ! R24   R(14,23)                1.0806         estimate D2E/DX2                !
 ! R25   R(15,24)                1.0904         estimate D2E/DX2                !
 ! R26   R(15,25)                1.09           estimate D2E/DX2                !
 ! R27   R(15,26)                1.0906         estimate D2E/DX2                !
 ! A1    A(1,2,3)              110.9807         estimate D2E/DX2                !
 ! A2    A(1,2,15)             108.3749         estimate D2E/DX2                !
 ! A3    A(1,2,16)             119.241          estimate D2E/DX2                !
 ! A4    A(3,2,15)             102.0989         estimate D2E/DX2                !
 ! A5    A(3,2,16)             104.6927         estimate D2E/DX2                !
 ! A6    A(15,2,16)            110.0893         estimate D2E/DX2                !
 ! A7    A(2,3,4)              119.0162         estimate D2E/DX2                !
 ! A8    A(2,3,17)             108.7408         estimate D2E/DX2                !
 ! A9    A(4,3,17)             114.1169         estimate D2E/DX2                !
 ! A10   A(3,4,5)              121.266          estimate D2E/DX2                !
 ! A11   A(3,4,7)              129.8452         estimate D2E/DX2                !
 ! A12   A(5,4,7)              108.8481         estimate D2E/DX2                !
 ! A13   A(4,5,6)              108.89           estimate D2E/DX2                !
 ! A14   A(5,6,8)              107.5099         estimate D2E/DX2                !
 ! A15   A(4,7,8)              103.9883         estimate D2E/DX2                !
 ! A16   A(4,7,18)             132.6448         estimate D2E/DX2                !
 ! A17   A(8,7,18)             123.3615         estimate D2E/DX2                !
 ! A18   A(6,8,7)              110.7528         estimate D2E/DX2                !
 ! A19   A(6,8,9)              120.9209         estimate D2E/DX2                !
 ! A20   A(7,8,9)              128.3255         estimate D2E/DX2                !
 ! A21   A(8,9,10)             119.5017         estimate D2E/DX2                !
 ! A22   A(8,9,14)             119.2989         estimate D2E/DX2                !
 ! A23   A(10,9,14)            121.1993         estimate D2E/DX2                !
 ! A24   A(9,10,11)            119.1333         estimate D2E/DX2                !
 ! A25   A(9,10,19)            120.3231         estimate D2E/DX2                !
 ! A26   A(11,10,19)           120.538          estimate D2E/DX2                !
 ! A27   A(10,11,12)           120.3462         estimate D2E/DX2                !
 ! A28   A(10,11,20)           119.3685         estimate D2E/DX2                !
 ! A29   A(12,11,20)           120.2831         estimate D2E/DX2                !
 ! A30   A(11,12,13)           119.8503         estimate D2E/DX2                !
 ! A31   A(11,12,21)           120.1075         estimate D2E/DX2                !
 ! A32   A(13,12,21)           120.0422         estimate D2E/DX2                !
 ! A33   A(12,13,14)           120.5341         estimate D2E/DX2                !
 ! A34   A(12,13,22)           120.2325         estimate D2E/DX2                !
 ! A35   A(14,13,22)           119.231          estimate D2E/DX2                !
 ! A36   A(9,14,13)            118.9325         estimate D2E/DX2                !
 ! A37   A(9,14,23)            119.7149         estimate D2E/DX2                !
 ! A38   A(13,14,23)           121.3523         estimate D2E/DX2                !
 ! A39   A(2,15,24)            107.988          estimate D2E/DX2                !
 ! A40   A(2,15,25)            108.5036         estimate D2E/DX2                !
 ! A41   A(2,15,26)            107.1887         estimate D2E/DX2                !
 ! A42   A(24,15,25)           111.0283         estimate D2E/DX2                !
 ! A43   A(24,15,26)           110.9819         estimate D2E/DX2                !
 ! A44   A(25,15,26)           110.9927         estimate D2E/DX2                !
 ! D1    D(1,2,3,4)             28.1659         estimate D2E/DX2                !
 ! D2    D(1,2,3,17)          -104.8026         estimate D2E/DX2                !
 ! D3    D(15,2,3,4)           -87.1425         estimate D2E/DX2                !
 ! D4    D(15,2,3,17)          139.889          estimate D2E/DX2                !
 ! D5    D(16,2,3,4)           158.0626         estimate D2E/DX2                !
 ! D6    D(16,2,3,17)           25.0942         estimate D2E/DX2                !
 ! D7    D(1,2,15,24)          -58.9711         estimate D2E/DX2                !
 ! D8    D(1,2,15,25)         -179.4019         estimate D2E/DX2                !
 ! D9    D(1,2,15,26)           60.6666         estimate D2E/DX2                !
 ! D10   D(3,2,15,24)           58.2268         estimate D2E/DX2                !
 ! D11   D(3,2,15,25)          -62.2039         estimate D2E/DX2                !
 ! D12   D(3,2,15,26)          177.8645         estimate D2E/DX2                !
 ! D13   D(16,2,15,24)         168.9958         estimate D2E/DX2                !
 ! D14   D(16,2,15,25)          48.565          estimate D2E/DX2                !
 ! D15   D(16,2,15,26)         -71.3665         estimate D2E/DX2                !
 ! D16   D(2,3,4,5)             64.5452         estimate D2E/DX2                !
 ! D17   D(2,3,4,7)           -118.0486         estimate D2E/DX2                !
 ! D18   D(17,3,4,5)          -164.8487         estimate D2E/DX2                !
 ! D19   D(17,3,4,7)            12.5575         estimate D2E/DX2                !
 ! D20   D(3,4,5,6)            178.0978         estimate D2E/DX2                !
 ! D21   D(7,4,5,6)              0.2019         estimate D2E/DX2                !
 ! D22   D(3,4,7,8)           -177.2047         estimate D2E/DX2                !
 ! D23   D(3,4,7,18)             3.6497         estimate D2E/DX2                !
 ! D24   D(5,4,7,8)              0.4527         estimate D2E/DX2                !
 ! D25   D(5,4,7,18)          -178.6929         estimate D2E/DX2                !
 ! D26   D(4,5,6,8)             -0.7825         estimate D2E/DX2                !
 ! D27   D(5,6,8,7)              1.1051         estimate D2E/DX2                !
 ! D28   D(5,6,8,9)           -178.5995         estimate D2E/DX2                !
 ! D29   D(4,7,8,6)             -0.9458         estimate D2E/DX2                !
 ! D30   D(4,7,8,9)            178.7312         estimate D2E/DX2                !
 ! D31   D(18,7,8,6)           178.3018         estimate D2E/DX2                !
 ! D32   D(18,7,8,9)            -2.0212         estimate D2E/DX2                !
 ! D33   D(6,8,9,10)           154.6815         estimate D2E/DX2                !
 ! D34   D(6,8,9,14)           -25.3718         estimate D2E/DX2                !
 ! D35   D(7,8,9,10)           -24.9665         estimate D2E/DX2                !
 ! D36   D(7,8,9,14)           154.9802         estimate D2E/DX2                !
 ! D37   D(8,9,10,11)          179.6373         estimate D2E/DX2                !
 ! D38   D(8,9,10,19)           -1.2211         estimate D2E/DX2                !
 ! D39   D(14,9,10,11)          -0.3084         estimate D2E/DX2                !
 ! D40   D(14,9,10,19)         178.8333         estimate D2E/DX2                !
 ! D41   D(8,9,14,13)          179.756          estimate D2E/DX2                !
 ! D42   D(8,9,14,23)           -0.4602         estimate D2E/DX2                !
 ! D43   D(10,9,14,13)          -0.2982         estimate D2E/DX2                !
 ! D44   D(10,9,14,23)         179.4856         estimate D2E/DX2                !
 ! D45   D(9,10,11,12)           0.5853         estimate D2E/DX2                !
 ! D46   D(9,10,11,20)        -179.9521         estimate D2E/DX2                !
 ! D47   D(19,10,11,12)       -178.5544         estimate D2E/DX2                !
 ! D48   D(19,10,11,20)          0.9082         estimate D2E/DX2                !
 ! D49   D(10,11,12,13)         -0.255          estimate D2E/DX2                !
 ! D50   D(10,11,12,21)        179.7815         estimate D2E/DX2                !
 ! D51   D(20,11,12,13)       -179.7127         estimate D2E/DX2                !
 ! D52   D(20,11,12,21)          0.3239         estimate D2E/DX2                !
 ! D53   D(11,12,13,14)         -0.3648         estimate D2E/DX2                !
 ! D54   D(11,12,13,22)       -179.7964         estimate D2E/DX2                !
 ! D55   D(21,12,13,14)        179.5987         estimate D2E/DX2                !
 ! D56   D(21,12,13,22)          0.167          estimate D2E/DX2                !
 ! D57   D(12,13,14,9)           0.6353         estimate D2E/DX2                !
 ! D58   D(12,13,14,23)       -179.1448         estimate D2E/DX2                !
 ! D59   D(22,13,14,9)        -179.9274         estimate D2E/DX2                !
 ! D60   D(22,13,14,23)          0.2925         estimate D2E/DX2                !
 --------------------------------------------------------------------------------
 Trust Radius=3.00D-01 FncErr=1.00D-07 GrdErr=1.00D-06 EigMax=2.50D+02 EigMin=1.00D-04
 Number of steps in this run=    141 maximum allowed number of steps=    156.
 GradGradGradGradGradGradGradGradGradGradGradGradGradGradGradGradGradGrad

 Leave Link  103 at Wed Sep 23 05:18:39 2020, MaxMem=  2147483648 cpu:               0.0 elap:               0.0
 (Enter /prod/apps/gaussian/g16b1/l202.exe)
                          Input orientation:                          
 ---------------------------------------------------------------------
 Center     Atomic      Atomic             Coordinates (Angstroms)
 Number     Number       Type             X           Y           Z
 ---------------------------------------------------------------------
      1          8           0        2.909000    0.225000    1.637000
      2         16           0        3.460000   -0.189000    0.337000
      3          7           0        2.222000   -0.732000   -0.707000
      4          6           0        0.924000   -0.214000   -0.553000
      5          7           0        0.659000    1.103000   -0.769000
      6          7           0       -0.621000    1.311000   -0.598000
      7          6           0       -0.251000   -0.858000   -0.236000
      8          7           0       -1.188000    0.124000   -0.288000
      9          6           0       -2.592000    0.018000   -0.070000
     10          6           0       -3.229000   -1.206000   -0.277000
     11          6           0       -4.602000   -1.303000   -0.054000
     12          6           0       -5.330000   -0.186000    0.359000
     13          6           0       -4.680000    1.033000    0.555000
     14          6           0       -3.306000    1.144000    0.349000
     15          6           0        4.055000    1.268000   -0.513000
     16          8           0        4.477000   -1.250000    0.293000
     17          1           0        2.261000   -1.751000   -0.760000
     18          1           0       -0.477000   -1.879000    0.020000
     19          1           0       -2.665000   -2.065000   -0.620000
     20          1           0       -5.101000   -2.253000   -0.213000
     21          1           0       -6.399000   -0.265000    0.528000
     22          1           0       -5.239000    1.904000    0.879000
     23          1           0       -2.787000    2.078000    0.510000
     24          1           0        3.216000    1.954000   -0.633000
     25          1           0        4.454000    0.965000   -1.481000
     26          1           0        4.834000    1.709000    0.110000
 ---------------------------------------------------------------------
                    Distance matrix (angstroms):
                    1          2          3          4          5
     1  O    0.000000
     2  S    1.471393   0.000000
     3  N    2.623386   1.708048   0.000000
     4  C    2.988151   2.687754   1.406003   0.000000
     5  N    3.409138   3.276904   2.411232   1.360651   0.000000
     6  N    4.316888   4.447335   3.502625   2.171330   1.308016
     7  C    3.829702   3.814107   2.520604   1.376899   2.226592
     8  N    4.527829   4.700266   3.540677   2.155229   2.145043
     9  C    5.763480   6.069201   4.913539   3.556595   3.497832
    10  C    6.586820   6.793674   5.488440   4.278744   4.548636
    11  C    7.849165   8.147989   6.878912   5.654343   5.829081
    12  C    8.347654   8.790028   7.646383   6.320209   6.229127
    13  C    7.708210   8.234100   7.235017   5.847007   5.501163
    14  C    6.413246   6.896071   5.932394   4.533284   4.119809
    15  C    2.650220   1.788679   2.719839   3.464258   3.409630
    16  O    2.537831   1.470356   2.520585   3.796422   4.608859
    17  H    3.173340   2.254075   1.021122   2.047630   3.272889
    18  H    4.301918   4.296110   3.021380   2.250190   3.287148
    19  H    6.434876   6.476948   5.066283   4.038764   4.594279
    20  H    8.586215   8.823453   7.495586   6.369752   6.689505
    21  H    9.386631   9.861143   8.721523   7.402533   7.305409
    22  H    8.353652   8.963650   8.070342   6.672265   6.176076
    23  H    6.094929   6.647874   5.870883   4.489405   3.802812
    24  H    2.869946   2.364928   2.864980   3.155929   2.698323
    25  H    3.557604   2.371682   2.908730   3.835639   3.863679
    26  H    2.870472   2.354105   3.667222   4.407448   4.309351
                    6          7          8          9         10
     6  N    0.000000
     7  C    2.229911   0.000000
     8  N    1.351502   1.358307   0.000000
     9  C    2.415673   2.505038   1.424772   0.000000
    10  C    3.638680   2.998544   2.436124   1.395276   0.000000
    11  C    4.793464   4.377482   3.707625   2.405285   1.394370
    12  C    5.033045   5.157698   4.203674   2.778903   2.420557
    13  C    4.228732   4.880328   3.705536   2.404287   2.794771
    14  C    2.852003   3.699088   2.435589   1.397581   2.433168
    15  C    4.676970   4.810223   5.371072   6.778005   7.696300
    16  O    5.774271   4.773624   5.858128   7.190991   7.727177
    17  H    4.208089   2.717015   3.953987   5.211245   5.538088
    18  H    3.252501   1.076593   2.147648   2.842522   2.848621
    19  H    3.946618   2.726115   2.661480   2.155625   1.083340
    20  H    5.737658   5.046687   4.579009   3.387177   2.145854
    21  H    6.094008   6.223604   5.288828   3.864058   3.403293
    22  H    4.884578   5.809648   4.576122   3.385883   3.879244
    23  H    2.550982   3.950684   2.647965   2.148959   3.405788
    24  H    3.890661   4.481634   4.781542   6.148002   7.186819
    25  H    5.162851   5.197151   5.827752   7.248024   8.074116
    26  H    5.515133   5.706700   6.239801   7.618225   8.582480
                   11         12         13         14         15
    11  C    0.000000
    12  C    1.395794   0.000000
    13  C    2.415339   1.395305   0.000000
    14  C    2.798184   2.421895   1.393784   0.000000
    15  C    9.042365   9.536914   8.803185   7.412337   0.000000
    16  O    9.085783   9.864771   9.440942   8.143062   2.677320
    17  H    6.913748   7.831007   7.593244   6.372001   3.520484
    18  H    4.165678   5.150998   5.141126   4.153313   5.543169
    19  H    2.157074   3.404601   3.877945   3.412847   7.501916
    20  H    1.084796   2.156876   3.400715   3.882973   9.814264
    21  H    2.155314   1.085156   2.154181   3.403523  10.616962
    22  H    3.400163   2.155639   1.084481   2.143593   9.419161
    23  H    3.878593   3.408129   2.162753   1.080573   6.965314
    24  H    8.489076   8.865539   8.037811   6.645066   1.090375
    25  H    9.444114  10.021829   9.358412   7.974869   1.089970
    26  H    9.906419  10.342143   9.548361   8.163084   1.090620
                   16         17         18         19         20
    16  O    0.000000
    17  H    2.504090   0.000000
    18  H    5.001228   2.849812   0.000000
    19  H    7.246100   4.937983   2.287256   0.000000
    20  H    9.643657   7.399342   4.644948   2.476911   0.000000
    21  H   10.923041   8.880470   6.158989   4.301239   2.487173
    22  H   10.231900   8.502667   6.142118   4.962402   4.300251
    23  H    7.993020   6.461923   4.608042   4.296072   4.963354
    24  H    3.565559   3.828208   5.362513   7.123110   9.329938
    25  H    2.837927   3.564512   5.886943   7.784753  10.161760
    26  H    2.986071   4.398730   6.410036   8.426801  10.700748
                   21         22         23         24         25
    21  H    0.000000
    22  H    2.484625   0.000000
    23  H    4.305406   2.485707   0.000000
    24  H    9.935799   8.589276   6.112106   0.000000
    25  H   11.105701  10.020258   7.591767   1.797184   0.000000
    26  H   11.412786  10.104193   7.640406   1.797220   1.797002
                   26
    26  H    0.000000
 Symmetry turned off by external request.
 Stoichiometry    C9H10N4O2S
 Framework group  C1[X(C9H10N4O2S)]
 Deg. of freedom    72
 Full point group                 C1      NOp   1
 Rotational constants (GHZ):           1.7290191           0.1943041           0.1861658
 Leave Link  202 at Wed Sep 23 05:18:39 2020, MaxMem=  2147483648 cpu:               0.0 elap:               0.0
 (Enter /prod/apps/gaussian/g16b1/l301.exe)
 Standard basis: 6-31G(d) (6D, 7F)
 Ernie: Thresh=  0.10000D-02 Tol=  0.10000D-05 Strict=F.
   264 basis functions,   512 primitive gaussians,   264 cartesian basis functions
    62 alpha electrons       62 beta electrons
       nuclear repulsion energy      1183.5958798897 Hartrees.
 IExCor=  402 DFT=T Ex+Corr=B3LYP ExCW=0 ScaHFX=  0.200000
 ScaDFX=  0.800000  0.720000  1.000000  0.810000 ScalE2=  1.000000  1.000000
 IRadAn=      5 IRanWt=     -1 IRanGd=            0 ICorTp=0 IEmpDi=  4
 NAtoms=   26 NActive=   26 NUniq=   26 SFac= 1.00D+00 NAtFMM=   60 NAOKFM=F Big=F
 Integral buffers will be    131072 words long.
 Raffenetti 2 integral format.
 Two-electron integral symmetry is turned off.
 Using the following non-standard input for PCM:
 MSTModel=DFT cav
 --- end of non-standard input.
 MST model for solvation energy: B3LYP parametrization.
 MST cavity parameters:
 ISph   IAn     Re0     Alpha   Atom Type   QCorr
 ------------------------------------------------
   1      8     1.40     1.25      O          F
   2     16     1.75     1.25      S          F
   3      7     1.50     1.25      NH         F
   4      6     1.50     1.25      C          F
   5      7     1.40     1.25      N          F
   6      7     1.40     1.25      N          F
   7      6     1.50     1.25      CH         F
   8      7     1.40     1.25      N          F
   9      6     1.50     1.25      C          F
  10      6     1.50     1.25      CH         F
  11      6     1.50     1.25      CH         F
  12      6     1.50     1.25      CH         F
  13      6     1.50     1.25      CH         F
  14      6     1.50     1.25      CH         F
  15      6     1.50     1.25      CH3        F
  16      8     1.40     1.25      O          F
  17      1     0.90     1.25      NH         F
  18      1     1.20     1.25      CH         F
  19      1     1.20     1.25      CH         F
  20      1     1.20     1.25      CH         F
  21      1     1.20     1.25      CH         F
  22      1     1.20     1.25      CH         F
  23      1     1.20     1.25      CH         F
  24      1     1.20     1.25      CH3        F
  25      1     1.20     1.25      CH3        F
  26      1     1.20     1.25      CH3        F
 ------------------------------------------------------------------------------
 Polarizable Continuum Model (PCM)
 =================================
 Model                : PCM.
 Atomic radii         : MST.
 Polarization charges : Total charges.
 Charge compensation  : None.
 Solution method      : On-the-fly selection.
 Cavity type          : Scaled VdW (van der Waals Surface) (Alpha=1.250).
 Cavity algorithm     : GePol (No added spheres)
                        Default sphere list used, NSphG=   26.
                        Lebedev-Laikov grids with approx.  5.0 points / Ang**2.
                        Smoothing algorithm: York/Karplus (Gamma=1.0000).
                        Polarization charges: spherical gaussians, with
                                              point-specific exponents (IZeta= 3).
                        Self-potential: point-specific (ISelfS= 7).
                        Self-field    : sphere-specific E.n sum rule (ISelfD= 2).
 1st derivatives      : Analytical E(r).r(x)/FMM algorithm (CHGder, D1EAlg=3).
                        Cavity 1st derivative terms included.
 Solvent              : Water, Eps=  78.355300 Eps(inf)=   1.777849
 ------------------------------------------------------------------------------
 GePol: Number of generator spheres                  =      26
 GePol: Total number of spheres                      =      26
 GePol: Number of exposed spheres                    =      26 (100.00%)
 GePol: Number of points                             =    2084
 GePol: Average weight of points                     =       0.13
 GePol: Minimum weight of points                     =   0.51D-10
 GePol: Maximum weight of points                     =    0.22001
 GePol: Number of points with low weight             =     126
 GePol: Fraction of low-weight points (<1% of avg)   =       6.05%
 GePol: Cavity surface area                          =    273.912 Ang**2
 GePol: Cavity volume                                =    254.373 Ang**3
 PCM non-electrostatic energy =         0.0029617952 Hartrees.
 Nuclear repulsion after PCM non-electrostatic terms =     1183.5988416850 Hartrees.
 Leave Link  301 at Wed Sep 23 05:18:39 2020, MaxMem=  2147483648 cpu:               0.3 elap:               0.1
 (Enter /prod/apps/gaussian/g16b1/l302.exe)
 NPDir=0 NMtPBC=     1 NCelOv=     1 NCel=       1 NClECP=     1 NCelD=      1
         NCelK=      1 NCelE2=     1 NClLst=     1 CellRange=     0.0.
 One-electron integrals computed using PRISM.
 NBasis=   264 RedAO= T EigKep=  4.68D-04  NBF=   264
 NBsUse=   264 1.00D-06 EigRej= -1.00D+00 NBFU=   264
 Precomputing XC quadrature grid using
 IXCGrd= 4 IRadAn=           5 IRanWt=          -1 IRanGd=           0 AccXCQ= 0.00D+00.
 Generated NRdTot=       0 NPtTot=           0 NUsed=           0 NTot=          32
 NSgBfM=   262   262   262   262   262 MxSgAt=    26 MxSgA2=    26.
 Leave Link  302 at Wed Sep 23 05:18:39 2020, MaxMem=  2147483648 cpu:               1.0 elap:               0.3
 (Enter /prod/apps/gaussian/g16b1/l303.exe)
 DipDrv:  MaxL=1.
 Leave Link  303 at Wed Sep 23 05:18:39 2020, MaxMem=  2147483648 cpu:               0.1 elap:               0.0
 (Enter /prod/apps/gaussian/g16b1/l401.exe)
 ExpMin= 1.17D-01 ExpMax= 2.19D+04 ExpMxC= 3.30D+03 IAcc=3 IRadAn=         5 AccDes= 0.00D+00
 Harris functional with IExCor=  402 and IRadAn=       5 diagonalized for initial guess.
 HarFok:  IExCor=  402 AccDes= 0.00D+00 IRadAn=         5 IDoV= 1 UseB2=F ITyADJ=14
 ICtDFT=  3500011 ScaDFX=  1.000000  1.000000  1.000000  1.000000
 FoFCou: FMM=F IPFlag=           0 FMFlag=      100000 FMFlg1=           0
         NFxFlg=           0 DoJE=T BraDBF=F KetDBF=T FulRan=T
         wScrn=  0.000000 ICntrl=       500 IOpCl=  0 I1Cent=   200000004 NGrid=           0
         NMat0=    1 NMatS0=      1 NMatT0=    0 NMatD0=    1 NMtDS0=    0 NMtDT0=    0
 Symmetry not used in FoFCou.
 Harris En= -1116.51990421306    
 JPrj=0 DoOrth=F DoCkMO=F.
 Leave Link  401 at Wed Sep 23 05:18:41 2020, MaxMem=  2147483648 cpu:               4.9 elap:               1.2
 (Enter /prod/apps/gaussian/g16b1/l502.exe)
 Keep R1 ints in memory in canonical form, NReq=621123487.
 FoFCou: FMM=F IPFlag=           0 FMFlag=           0 FMFlg1=           0
         NFxFlg=           0 DoJE=F BraDBF=F KetDBF=F FulRan=T
         wScrn=  0.000000 ICntrl=       600 IOpCl=  0 I1Cent=           0 NGrid=           0
         NMat0=    1 NMatS0=  34980 NMatT0=    0 NMatD0=    1 NMtDS0=    0 NMtDT0=    0
 Symmetry not used in FoFCou.
 Two-electron integral symmetry not used.
 Closed shell SCF:
 Using DIIS extrapolation, IDIIS=  1040.
 NGot=  2147483648 LenX=  1535522690 LenY=  1535452553
 Requested convergence on RMS density matrix=1.00D-08 within2000 cycles.
 Requested convergence on MAX density matrix=1.00D-06.
 Requested convergence on             energy=1.00D-06.
 No special actions if energy rises.

 Cycle   1  Pass 1  IDiag  1:
 Inv3:  Mode=1 IEnd=    13029168.
 Iteration    1 A*A^-1 deviation from unit magnitude is 2.89D-15 for   1462.
 Iteration    1 A*A^-1 deviation from orthogonality  is 2.03D-15 for   1365   1114.
 Iteration    1 A^-1*A deviation from unit magnitude is 2.89D-15 for   1462.
 Iteration    1 A^-1*A deviation from orthogonality  is 1.83D-15 for   1646     29.
 E= -1116.05497399522    
 DIIS: error= 2.92D-02 at cycle   1 NSaved=   1.
 NSaved= 1 IEnMin= 1 EnMin= -1116.05497399522     IErMin= 1 ErrMin= 2.92D-02
 ErrMax= 2.92D-02  0.00D+00 EMaxC= 1.00D-01 BMatC= 5.67D-01 BMatP= 5.67D-01
 IDIUse=3 WtCom= 7.08D-01 WtEn= 2.92D-01
 Coeff-Com:  0.100D+01
 Coeff-En:   0.100D+01
 Coeff:      0.100D+01
 Gap=     0.296 Goal=   None    Shift=    0.000
 GapD=    0.296 DampG=1.000 DampE=0.500 DampFc=0.5000 IDamp=-1.
 Damping current iteration by 5.00D-01
 RMSDP=6.72D-03 MaxDP=5.52D-01              OVMax= 2.30D-01

 Cycle   2  Pass 1  IDiag  1:
 E= -1116.19217521038     Delta-E=       -0.137201215168 Rises=F Damp=T
 DIIS: error= 1.69D-02 at cycle   2 NSaved=   2.
 NSaved= 2 IEnMin= 2 EnMin= -1116.19217521038     IErMin= 2 ErrMin= 1.69D-02
 ErrMax= 1.69D-02  0.00D+00 EMaxC= 1.00D-01 BMatC= 7.55D-02 BMatP= 5.67D-01
 IDIUse=3 WtCom= 8.31D-01 WtEn= 1.69D-01
 Coeff-Com:  0.210D+00 0.790D+00
 Coeff-En:   0.339D+00 0.661D+00
 Coeff:      0.232D+00 0.768D+00
 Gap=     0.219 Goal=   None    Shift=    0.000
 RMSDP=1.78D-03 MaxDP=1.08D-01 DE=-1.37D-01 OVMax= 1.68D-01

 Cycle   3  Pass 1  IDiag  1:
 E= -1116.50873283636     Delta-E=       -0.316557625975 Rises=F Damp=F
 DIIS: error= 9.75D-03 at cycle   3 NSaved=   3.
 NSaved= 3 IEnMin= 3 EnMin= -1116.50873283636     IErMin= 3 ErrMin= 9.75D-03
 ErrMax= 9.75D-03  0.00D+00 EMaxC= 1.00D-01 BMatC= 3.38D-02 BMatP= 7.55D-02
 IDIUse=3 WtCom= 9.03D-01 WtEn= 9.75D-02
 Coeff-Com:  0.649D-01 0.402D+00 0.534D+00
 Coeff-En:   0.000D+00 0.000D+00 0.100D+01
 Coeff:      0.586D-01 0.362D+00 0.579D+00
 Gap=     0.197 Goal=   None    Shift=    0.000
 RMSDP=9.00D-04 MaxDP=3.30D-02 DE=-3.17D-01 OVMax= 3.98D-02

 Cycle   4  Pass 1  IDiag  1:
 E= -1116.53403465295     Delta-E=       -0.025301816587 Rises=F Damp=F
 DIIS: error= 2.93D-03 at cycle   4 NSaved=   4.
 NSaved= 4 IEnMin= 4 EnMin= -1116.53403465295     IErMin= 4 ErrMin= 2.93D-03
 ErrMax= 2.93D-03  0.00D+00 EMaxC= 1.00D-01 BMatC= 5.75D-03 BMatP= 3.38D-02
 IDIUse=3 WtCom= 9.71D-01 WtEn= 2.93D-02
 Coeff-Com:  0.499D-02 0.743D-01 0.308D+00 0.613D+00
 Coeff-En:   0.000D+00 0.000D+00 0.129D+00 0.871D+00
 Coeff:      0.484D-02 0.721D-01 0.302D+00 0.621D+00
 Gap=     0.194 Goal=   None    Shift=    0.000
 RMSDP=3.00D-04 MaxDP=1.53D-02 DE=-2.53D-02 OVMax= 1.43D-02

 Cycle   5  Pass 1  IDiag  1:
 E= -1116.53858551473     Delta-E=       -0.004550861789 Rises=F Damp=F
 DIIS: error= 6.67D-04 at cycle   5 NSaved=   5.
 NSaved= 5 IEnMin= 5 EnMin= -1116.53858551473     IErMin= 5 ErrMin= 6.67D-04
 ErrMax= 6.67D-04  0.00D+00 EMaxC= 1.00D-01 BMatC= 4.08D-04 BMatP= 5.75D-03
 IDIUse=3 WtCom= 9.93D-01 WtEn= 6.67D-03
 Coeff-Com: -0.149D-02 0.142D-01 0.122D+00 0.326D+00 0.539D+00
 Coeff-En:   0.000D+00 0.000D+00 0.000D+00 0.000D+00 0.100D+01
 Coeff:     -0.148D-02 0.141D-01 0.121D+00 0.324D+00 0.542D+00
 Gap=     0.195 Goal=   None    Shift=    0.000
 RMSDP=9.08D-05 MaxDP=3.88D-03 DE=-4.55D-03 OVMax= 5.99D-03

 Cycle   6  Pass 1  IDiag  1:
 E= -1116.53891414341     Delta-E=       -0.000328628677 Rises=F Damp=F
 DIIS: error= 2.19D-04 at cycle   6 NSaved=   6.
 NSaved= 6 IEnMin= 6 EnMin= -1116.53891414341     IErMin= 6 ErrMin= 2.19D-04
 ErrMax= 2.19D-04  0.00D+00 EMaxC= 1.00D-01 BMatC= 3.53D-05 BMatP= 4.08D-04
 IDIUse=3 WtCom= 9.98D-01 WtEn= 2.19D-03
 Coeff-Com: -0.120D-02 0.229D-02 0.417D-01 0.125D+00 0.296D+00 0.536D+00
 Coeff-En:   0.000D+00 0.000D+00 0.000D+00 0.000D+00 0.000D+00 0.100D+01
 Coeff:     -0.119D-02 0.228D-02 0.416D-01 0.125D+00 0.296D+00 0.537D+00
 Gap=     0.195 Goal=   None    Shift=    0.000
 RMSDP=2.49D-05 MaxDP=8.73D-04 DE=-3.29D-04 OVMax= 1.64D-03

 Cycle   7  Pass 1  IDiag  1:
 E= -1116.53894335316     Delta-E=       -0.000029209750 Rises=F Damp=F
 DIIS: error= 8.45D-05 at cycle   7 NSaved=   7.
 NSaved= 7 IEnMin= 7 EnMin= -1116.53894335316     IErMin= 7 ErrMin= 8.45D-05
 ErrMax= 8.45D-05  0.00D+00 EMaxC= 1.00D-01 BMatC= 2.55D-06 BMatP= 3.53D-05
 IDIUse=1 WtCom= 1.00D+00 WtEn= 0.00D+00
 Coeff-Com: -0.538D-03 0.486D-04 0.124D-01 0.400D-01 0.114D+00 0.285D+00
 Coeff-Com:  0.549D+00
 Coeff:     -0.538D-03 0.486D-04 0.124D-01 0.400D-01 0.114D+00 0.285D+00
 Coeff:      0.549D+00
 Gap=     0.195 Goal=   None    Shift=    0.000
 RMSDP=6.90D-06 MaxDP=2.65D-04 DE=-2.92D-05 OVMax= 3.45D-04

 Cycle   8  Pass 1  IDiag  1:
 E= -1116.53894529116     Delta-E=       -0.000001938000 Rises=F Damp=F
 DIIS: error= 3.36D-05 at cycle   8 NSaved=   8.
 NSaved= 8 IEnMin= 8 EnMin= -1116.53894529116     IErMin= 8 ErrMin= 3.36D-05
 ErrMax= 3.36D-05  0.00D+00 EMaxC= 1.00D-01 BMatC= 3.39D-07 BMatP= 2.55D-06
 IDIUse=1 WtCom= 1.00D+00 WtEn= 0.00D+00
 Coeff-Com: -0.188D-03-0.233D-03 0.285D-02 0.101D-01 0.358D-01 0.110D+00
 Coeff-Com:  0.317D+00 0.524D+00
 Coeff:     -0.188D-03-0.233D-03 0.285D-02 0.101D-01 0.358D-01 0.110D+00
 Coeff:      0.317D+00 0.524D+00
 Gap=     0.195 Goal=   None    Shift=    0.000
 RMSDP=2.38D-06 MaxDP=9.66D-05 DE=-1.94D-06 OVMax= 1.32D-04

 Cycle   9  Pass 1  IDiag  1:
 E= -1116.53894553685     Delta-E=       -0.000000245693 Rises=F Damp=F
 DIIS: error= 7.79D-06 at cycle   9 NSaved=   9.
 NSaved= 9 IEnMin= 9 EnMin= -1116.53894553685     IErMin= 9 ErrMin= 7.79D-06
 ErrMax= 7.79D-06  0.00D+00 EMaxC= 1.00D-01 BMatC= 3.13D-08 BMatP= 3.39D-07
 IDIUse=1 WtCom= 1.00D+00 WtEn= 0.00D+00
 Coeff-Com: -0.157D-04-0.126D-03-0.391D-03-0.836D-03 0.125D-02 0.139D-01
 Coeff-Com:  0.816D-01 0.276D+00 0.628D+00
 Coeff:     -0.157D-04-0.126D-03-0.391D-03-0.836D-03 0.125D-02 0.139D-01
 Coeff:      0.816D-01 0.276D+00 0.628D+00
 Gap=     0.195 Goal=   None    Shift=    0.000
 RMSDP=6.92D-07 MaxDP=2.31D-05 DE=-2.46D-07 OVMax= 2.92D-05

 Cycle  10  Pass 1  IDiag  1:
 E= -1116.53894556225     Delta-E=       -0.000000025393 Rises=F Damp=F
 DIIS: error= 1.14D-06 at cycle  10 NSaved=  10.
 NSaved=10 IEnMin=10 EnMin= -1116.53894556225     IErMin=10 ErrMin= 1.14D-06
 ErrMax= 1.14D-06  0.00D+00 EMaxC= 1.00D-01 BMatC= 1.36D-09 BMatP= 3.13D-08
 IDIUse=1 WtCom= 1.00D+00 WtEn= 0.00D+00
 Coeff-Com: -0.170D-06-0.416D-04-0.287D-03-0.780D-03-0.986D-03 0.139D-02
 Coeff-Com:  0.237D-01 0.103D+00 0.280D+00 0.594D+00
 Coeff:     -0.170D-06-0.416D-04-0.287D-03-0.780D-03-0.986D-03 0.139D-02
 Coeff:      0.237D-01 0.103D+00 0.280D+00 0.594D+00
 Gap=     0.195 Goal=   None    Shift=    0.000
 RMSDP=1.85D-07 MaxDP=7.61D-06 DE=-2.54D-08 OVMax= 1.24D-05

 Cycle  11  Pass 1  IDiag  1:
 E= -1116.53894556330     Delta-E=       -0.000000001053 Rises=F Damp=F
 DIIS: error= 6.23D-07 at cycle  11 NSaved=  11.
 NSaved=11 IEnMin=11 EnMin= -1116.53894556330     IErMin=11 ErrMin= 6.23D-07
 ErrMax= 6.23D-07  0.00D+00 EMaxC= 1.00D-01 BMatC= 2.31D-10 BMatP= 1.36D-09
 IDIUse=1 WtCom= 1.00D+00 WtEn= 0.00D+00
 Coeff-Com:  0.187D-05-0.248D-05-0.101D-03-0.298D-03-0.729D-03-0.129D-02
 Coeff-Com:  0.120D-02 0.152D-01 0.541D-01 0.314D+00 0.618D+00
 Coeff:      0.187D-05-0.248D-05-0.101D-03-0.298D-03-0.729D-03-0.129D-02
 Coeff:      0.120D-02 0.152D-01 0.541D-01 0.314D+00 0.618D+00
 Gap=     0.195 Goal=   None    Shift=    0.000
 RMSDP=6.22D-08 MaxDP=3.04D-06 DE=-1.05D-09 OVMax= 5.56D-06

 Cycle  12  Pass 1  IDiag  1:
 E= -1116.53894556351     Delta-E=       -0.000000000207 Rises=F Damp=F
 DIIS: error= 2.03D-07 at cycle  12 NSaved=  12.
 NSaved=12 IEnMin=12 EnMin= -1116.53894556351     IErMin=12 ErrMin= 2.03D-07
 ErrMax= 2.03D-07  0.00D+00 EMaxC= 1.00D-01 BMatC= 2.73D-11 BMatP= 2.31D-10
 IDIUse=1 WtCom= 1.00D+00 WtEn= 0.00D+00
 Coeff-Com:  0.108D-05 0.158D-05-0.414D-04-0.123D-03-0.386D-03-0.973D-03
 Coeff-Com: -0.135D-02 0.418D-03 0.790D-02 0.140D+00 0.357D+00 0.497D+00
 Coeff:      0.108D-05 0.158D-05-0.414D-04-0.123D-03-0.386D-03-0.973D-03
 Coeff:     -0.135D-02 0.418D-03 0.790D-02 0.140D+00 0.357D+00 0.497D+00
 Gap=     0.195 Goal=   None    Shift=    0.000
 RMSDP=2.18D-08 MaxDP=1.24D-06 DE=-2.07D-10 OVMax= 1.32D-06

 Cycle  13  Pass 1  IDiag  1:
 E= -1116.53894556354     Delta-E=       -0.000000000031 Rises=F Damp=F
 DIIS: error= 7.30D-08 at cycle  13 NSaved=  13.
 NSaved=13 IEnMin=13 EnMin= -1116.53894556354     IErMin=13 ErrMin= 7.30D-08
 ErrMax= 7.30D-08  0.00D+00 EMaxC= 1.00D-01 BMatC= 2.28D-12 BMatP= 2.73D-11
 IDIUse=1 WtCom= 1.00D+00 WtEn= 0.00D+00
 Coeff-Com:  0.239D-06 0.104D-05-0.660D-05-0.182D-04-0.861D-04-0.288D-03
 Coeff-Com: -0.763D-03-0.179D-02-0.404D-02 0.261D-01 0.856D-01 0.250D+00
 Coeff-Com:  0.645D+00
 Coeff:      0.239D-06 0.104D-05-0.660D-05-0.182D-04-0.861D-04-0.288D-03
 Coeff:     -0.763D-03-0.179D-02-0.404D-02 0.261D-01 0.856D-01 0.250D+00
 Coeff:      0.645D+00
 Gap=     0.195 Goal=   None    Shift=    0.000
 RMSDP=7.06D-09 MaxDP=4.05D-07 DE=-3.14D-11 OVMax= 5.16D-07

 Error on total polarization charges =  0.01953
 SCF Done:  E(RB3LYP) =  -1116.53894556     A.U. after   13 cycles
            NFock= 13  Conv=0.71D-08     -V/T= 2.0074
 KE= 1.108363803075D+03 PE=-4.984399892346D+03 EE= 1.575898302023D+03
 Leave Link  502 at Wed Sep 23 05:19:19 2020, MaxMem=  2147483648 cpu:             121.6 elap:              38.3
 (Enter /prod/apps/gaussian/g16b1/l601.exe)
 Copying SCF densities to generalized density rwf, IOpCl= 0 IROHF=0.

 **********************************************************************

            Population analysis using the SCF Density.

 **********************************************************************

 Alpha  occ. eigenvalues --  -89.12588 -19.15766 -19.15749 -14.44666 -14.40487
 Alpha  occ. eigenvalues --  -14.38382 -14.37149 -10.26549 -10.25102 -10.24273
 Alpha  occ. eigenvalues --  -10.22323 -10.20646 -10.20407 -10.20193 -10.20118
 Alpha  occ. eigenvalues --  -10.19875  -8.15190  -6.11706  -6.11615  -6.11438
 Alpha  occ. eigenvalues --   -1.12317  -1.11400  -1.01256  -0.95854  -0.92909
 Alpha  occ. eigenvalues --   -0.86095  -0.81310  -0.77741  -0.76447  -0.75845
 Alpha  occ. eigenvalues --   -0.66878  -0.66330  -0.63137  -0.60943  -0.58569
 Alpha  occ. eigenvalues --   -0.56421  -0.53233  -0.52621  -0.49857  -0.49431
 Alpha  occ. eigenvalues --   -0.48922  -0.48056  -0.47246  -0.45452  -0.44427
 Alpha  occ. eigenvalues --   -0.43766  -0.43339  -0.43235  -0.38979  -0.37410
 Alpha  occ. eigenvalues --   -0.36488  -0.36080  -0.35569  -0.34734  -0.32917
 Alpha  occ. eigenvalues --   -0.32572  -0.31624  -0.31073  -0.29340  -0.26494
 Alpha  occ. eigenvalues --   -0.26186  -0.23963
 Alpha virt. eigenvalues --   -0.04448  -0.01474   0.01235   0.02399   0.06385
 Alpha virt. eigenvalues --    0.07434   0.08880   0.09304   0.10540   0.11724
 Alpha virt. eigenvalues --    0.12018   0.13088   0.15021   0.15173   0.15490
 Alpha virt. eigenvalues --    0.15973   0.16698   0.18482   0.19233   0.20314
 Alpha virt. eigenvalues --    0.21643   0.23422   0.24854   0.29447   0.30666
 Alpha virt. eigenvalues --    0.31514   0.33218   0.34105   0.35273   0.36879
 Alpha virt. eigenvalues --    0.40728   0.41675   0.42597   0.44593   0.47921
 Alpha virt. eigenvalues --    0.49127   0.49486   0.51484   0.51565   0.52502
 Alpha virt. eigenvalues --    0.53971   0.54222   0.55757   0.57158   0.57629
 Alpha virt. eigenvalues --    0.58190   0.58647   0.59814   0.60653   0.60732
 Alpha virt. eigenvalues --    0.61188   0.62025   0.63202   0.64106   0.66503
 Alpha virt. eigenvalues --    0.67892   0.69112   0.69758   0.71264   0.72834
 Alpha virt. eigenvalues --    0.74656   0.77512   0.77873   0.78834   0.79663
 Alpha virt. eigenvalues --    0.80469   0.82327   0.83779   0.83914   0.84087
 Alpha virt. eigenvalues --    0.85474   0.86058   0.87130   0.87791   0.88815
 Alpha virt. eigenvalues --    0.89196   0.90413   0.92573   0.93778   0.94540
 Alpha virt. eigenvalues --    0.96310   0.96677   0.97435   1.00098   1.00531
 Alpha virt. eigenvalues --    1.01281   1.01803   1.04585   1.05742   1.06342
 Alpha virt. eigenvalues --    1.09144   1.11190   1.12638   1.13587   1.15113
 Alpha virt. eigenvalues --    1.16077   1.18170   1.18752   1.19940   1.21535
 Alpha virt. eigenvalues --    1.25289   1.27124   1.31185   1.33873   1.36057
 Alpha virt. eigenvalues --    1.37739   1.41418   1.41811   1.43109   1.43915
 Alpha virt. eigenvalues --    1.45582   1.47101   1.47988   1.49820   1.50884
 Alpha virt. eigenvalues --    1.52323   1.57198   1.59063   1.61506   1.65051
 Alpha virt. eigenvalues --    1.68316   1.69935   1.73383   1.77724   1.78797
 Alpha virt. eigenvalues --    1.79294   1.79579   1.80476   1.82432   1.82541
 Alpha virt. eigenvalues --    1.83785   1.85067   1.87817   1.88483   1.91395
 Alpha virt. eigenvalues --    1.94286   1.96102   1.96741   2.01978   2.04090
 Alpha virt. eigenvalues --    2.05954   2.07171   2.07820   2.09547   2.10776
 Alpha virt. eigenvalues --    2.11392   2.13381   2.13749   2.14605   2.16977
 Alpha virt. eigenvalues --    2.18939   2.20795   2.23113   2.23491   2.24808
 Alpha virt. eigenvalues --    2.26537   2.27840   2.28969   2.29730   2.31456
 Alpha virt. eigenvalues --    2.32443   2.37715   2.38106   2.48112   2.51011
 Alpha virt. eigenvalues --    2.53890   2.56365   2.58022   2.58899   2.63472
 Alpha virt. eigenvalues --    2.64143   2.67111   2.69759   2.70964   2.72268
 Alpha virt. eigenvalues --    2.73995   2.76778   2.78435   2.80843   2.85758
 Alpha virt. eigenvalues --    2.88875   3.00811   3.06041   3.13177   3.25486
 Alpha virt. eigenvalues --    3.42206   3.60812   3.77084   3.87260   3.95988
 Alpha virt. eigenvalues --    4.00496   4.03732   4.07820   4.09464   4.10601
 Alpha virt. eigenvalues --    4.14753   4.19497   4.22728   4.31717   4.38664
 Alpha virt. eigenvalues --    4.46738   4.70951
          Condensed to atoms (all electrons):
               1          2          3          4          5          6
     1  O    8.275834   0.432795  -0.057680   0.012209  -0.001946  -0.000058
     2  S    0.432795  13.628921   0.116291  -0.006162  -0.002506  -0.000094
     3  N   -0.057680   0.116291   7.410864   0.251558  -0.058388   0.005872
     4  C    0.012209  -0.006162   0.251558   4.607575   0.358456  -0.075658
     5  N   -0.001946  -0.002506  -0.058388   0.358456   6.917029   0.289184
     6  N   -0.000058  -0.000094   0.005872  -0.075658   0.289184   6.782592
     7  C    0.000396  -0.000485  -0.072115   0.525429  -0.063514  -0.104307
     8  N   -0.000023   0.000089   0.003228  -0.036246  -0.093623   0.228180
     9  C   -0.000000  -0.000022  -0.000117   0.004433   0.006365  -0.043027
    10  C   -0.000000   0.000001   0.000004   0.001011  -0.000314   0.002945
    11  C   -0.000000   0.000000   0.000000  -0.000008   0.000002  -0.000068
    12  C    0.000000  -0.000000  -0.000000   0.000000  -0.000000   0.000017
    13  C   -0.000000  -0.000000  -0.000000   0.000006  -0.000004   0.000285
    14  C   -0.000000   0.000000   0.000000  -0.000428   0.000332  -0.000143
    15  C   -0.058105   0.242059  -0.053282  -0.008933  -0.003901   0.000157
    16  O   -0.044282   0.451797  -0.049468   0.001290  -0.000031   0.000000
    17  H   -0.000228  -0.010702   0.302104  -0.021649   0.002277  -0.000095
    18  H    0.000015   0.000011  -0.000854  -0.025058   0.003993   0.003529
    19  H   -0.000000  -0.000000  -0.000000   0.000048  -0.000007  -0.000089
    20  H   -0.000000   0.000000   0.000000   0.000000  -0.000000   0.000001
    21  H    0.000000  -0.000000  -0.000000  -0.000000   0.000000   0.000000
    22  H   -0.000000   0.000000   0.000000  -0.000000   0.000000  -0.000008
    23  H   -0.000000  -0.000000  -0.000000   0.000040  -0.000333   0.015637
    24  H   -0.000700  -0.001945  -0.001798  -0.000574   0.013871  -0.000311
    25  H    0.001846  -0.007126   0.000745   0.000302  -0.000044  -0.000001
    26  H    0.000184  -0.017619   0.002442   0.000131   0.000110  -0.000001
               7          8          9         10         11         12
     1  O    0.000396  -0.000023  -0.000000  -0.000000  -0.000000   0.000000
     2  S   -0.000485   0.000089  -0.000022   0.000001   0.000000  -0.000000
     3  N   -0.072115   0.003228  -0.000117   0.000004   0.000000  -0.000000
     4  C    0.525429  -0.036246   0.004433   0.001011  -0.000008   0.000000
     5  N   -0.063514  -0.093623   0.006365  -0.000314   0.000002  -0.000000
     6  N   -0.104307   0.228180  -0.043027   0.002945  -0.000068   0.000017
     7  C    5.006358   0.331435  -0.031826  -0.006697   0.000008   0.000019
     8  N    0.331435   6.876568   0.199429  -0.050508   0.004706   0.000335
     9  C   -0.031826   0.199429   4.626561   0.529345  -0.009908  -0.038287
    10  C   -0.006697  -0.050508   0.529345   4.991807   0.526086  -0.040942
    11  C    0.000008   0.004706  -0.009908   0.526086   4.866529   0.543285
    12  C    0.000019   0.000335  -0.038287  -0.040942   0.543285   4.871400
    13  C   -0.000086   0.004546  -0.010669  -0.042125  -0.024781   0.539595
    14  C    0.007183  -0.059183   0.512595  -0.070903  -0.041413  -0.039444
    15  C   -0.000201  -0.000008   0.000000  -0.000000  -0.000000   0.000000
    16  O   -0.000008  -0.000000  -0.000000   0.000000   0.000000  -0.000000
    17  H   -0.002206  -0.000003   0.000001   0.000000   0.000000  -0.000000
    18  H    0.362823  -0.034628  -0.001826   0.002080   0.000165  -0.000001
    19  H    0.005902  -0.009202  -0.039288   0.354281  -0.035021   0.004293
    20  H   -0.000004  -0.000109   0.003437  -0.037665   0.363575  -0.039581
    21  H   -0.000000   0.000003   0.000472   0.004870  -0.041384   0.365973
    22  H    0.000001  -0.000104   0.003550   0.000707   0.004482  -0.040113
    23  H    0.000219  -0.013329  -0.039949   0.005492   0.000088   0.004529
    24  H    0.000168   0.000033  -0.000001   0.000000  -0.000000  -0.000000
    25  H   -0.000000   0.000000   0.000000  -0.000000  -0.000000   0.000000
    26  H    0.000005   0.000000   0.000000   0.000000  -0.000000  -0.000000
              13         14         15         16         17         18
     1  O   -0.000000  -0.000000  -0.058105  -0.044282  -0.000228   0.000015
     2  S   -0.000000   0.000000   0.242059   0.451797  -0.010702   0.000011
     3  N   -0.000000   0.000000  -0.053282  -0.049468   0.302104  -0.000854
     4  C    0.000006  -0.000428  -0.008933   0.001290  -0.021649  -0.025058
     5  N   -0.000004   0.000332  -0.003901  -0.000031   0.002277   0.003993
     6  N    0.000285  -0.000143   0.000157   0.000000  -0.000095   0.003529
     7  C   -0.000086   0.007183  -0.000201  -0.000008  -0.002206   0.362823
     8  N    0.004546  -0.059183  -0.000008  -0.000000  -0.000003  -0.034628
     9  C   -0.010669   0.512595   0.000000  -0.000000   0.000001  -0.001826
    10  C   -0.042125  -0.070903  -0.000000   0.000000   0.000000   0.002080
    11  C   -0.024781  -0.041413  -0.000000   0.000000   0.000000   0.000165
    12  C    0.539595  -0.039444   0.000000  -0.000000  -0.000000  -0.000001
    13  C    4.879559   0.519063   0.000000  -0.000000  -0.000000  -0.000004
    14  C    0.519063   4.997786   0.000000  -0.000000   0.000000  -0.000097
    15  C    0.000000   0.000000   5.535882  -0.057520   0.002365  -0.000000
    16  O   -0.000000  -0.000000  -0.057520   8.263747   0.004149  -0.000002
    17  H   -0.000000   0.000000   0.002365   0.004149   0.298895   0.000941
    18  H   -0.000004  -0.000097  -0.000000  -0.000002   0.000941   0.459974
    19  H    0.000202   0.005272   0.000000  -0.000000   0.000001   0.001457
    20  H    0.004431   0.000725  -0.000000  -0.000000   0.000000  -0.000001
    21  H   -0.041535   0.004681   0.000000  -0.000000   0.000000  -0.000000
    22  H    0.363985  -0.037986  -0.000000   0.000000   0.000000   0.000000
    23  H   -0.037904   0.357137   0.000000  -0.000000   0.000000  -0.000010
    24  H   -0.000000  -0.000000   0.328299   0.001624  -0.000057  -0.000001
    25  H   -0.000000  -0.000000   0.343192  -0.000102  -0.000026  -0.000000
    26  H   -0.000000  -0.000000   0.353519  -0.000388  -0.000047  -0.000000
              19         20         21         22         23         24
     1  O   -0.000000  -0.000000   0.000000  -0.000000  -0.000000  -0.000700
     2  S   -0.000000   0.000000  -0.000000   0.000000  -0.000000  -0.001945
     3  N   -0.000000   0.000000  -0.000000   0.000000  -0.000000  -0.001798
     4  C    0.000048   0.000000  -0.000000  -0.000000   0.000040  -0.000574
     5  N   -0.000007  -0.000000   0.000000   0.000000  -0.000333   0.013871
     6  N   -0.000089   0.000001   0.000000  -0.000008   0.015637  -0.000311
     7  C    0.005902  -0.000004  -0.000000   0.000001   0.000219   0.000168
     8  N   -0.009202  -0.000109   0.000003  -0.000104  -0.013329   0.000033
     9  C   -0.039288   0.003437   0.000472   0.003550  -0.039949  -0.000001
    10  C    0.354281  -0.037665   0.004870   0.000707   0.005492   0.000000
    11  C   -0.035021   0.363575  -0.041384   0.004482   0.000088  -0.000000
    12  C    0.004293  -0.039581   0.365973  -0.040113   0.004529  -0.000000
    13  C    0.000202   0.004431  -0.041535   0.363985  -0.037904  -0.000000
    14  C    0.005272   0.000725   0.004681  -0.037986   0.357137  -0.000000
    15  C    0.000000  -0.000000   0.000000  -0.000000   0.000000   0.328299
    16  O   -0.000000  -0.000000  -0.000000   0.000000  -0.000000   0.001624
    17  H    0.000001   0.000000   0.000000   0.000000   0.000000  -0.000057
    18  H    0.001457  -0.000001  -0.000000   0.000000  -0.000010  -0.000001
    19  H    0.541678  -0.005085  -0.000143   0.000013  -0.000129   0.000000
    20  H   -0.005085   0.551087  -0.005073  -0.000164   0.000013   0.000000
    21  H   -0.000143  -0.005073   0.557505  -0.005140  -0.000134  -0.000000
    22  H    0.000013  -0.000164  -0.005140   0.552282  -0.005137   0.000000
    23  H   -0.000129   0.000013  -0.000134  -0.005137   0.539647  -0.000000
    24  H    0.000000   0.000000  -0.000000   0.000000  -0.000000   0.462354
    25  H    0.000000   0.000000   0.000000   0.000000  -0.000000  -0.020202
    26  H   -0.000000   0.000000  -0.000000  -0.000000  -0.000000  -0.015165
              25         26
     1  O    0.001846   0.000184
     2  S   -0.007126  -0.017619
     3  N    0.000745   0.002442
     4  C    0.000302   0.000131
     5  N   -0.000044   0.000110
     6  N   -0.000001  -0.000001
     7  C   -0.000000   0.000005
     8  N    0.000000   0.000000
     9  C    0.000000   0.000000
    10  C   -0.000000   0.000000
    11  C   -0.000000  -0.000000
    12  C    0.000000  -0.000000
    13  C   -0.000000  -0.000000
    14  C   -0.000000  -0.000000
    15  C    0.343192   0.353519
    16  O   -0.000102  -0.000388
    17  H   -0.000026  -0.000047
    18  H   -0.000000  -0.000000
    19  H    0.000000  -0.000000
    20  H    0.000000   0.000000
    21  H    0.000000  -0.000000
    22  H    0.000000  -0.000000
    23  H   -0.000000  -0.000000
    24  H   -0.020202  -0.015165
    25  H    0.469119  -0.017300
    26  H   -0.017300   0.461188
 Mulliken charges:
               1
     1  O   -0.560257
     2  S    1.174696
     3  N   -0.799406
     4  C    0.412227
     5  N   -0.367010
     6  N   -0.104542
     7  C    0.041503
     8  N   -0.351590
     9  C    0.328733
    10  C   -0.169473
    11  C   -0.156342
    12  C   -0.131078
    13  C   -0.154564
    14  C   -0.155179
    15  C   -0.623523
    16  O   -0.570806
    17  H    0.424279
    18  H    0.227494
    19  H    0.175816
    20  H    0.164415
    21  H    0.159906
    22  H    0.163633
    23  H    0.174124
    24  H    0.234405
    25  H    0.229597
    26  H    0.232941
 Sum of Mulliken charges =  -0.00000
 Mulliken charges with hydrogens summed into heavy atoms:
               1
     1  O   -0.560257
     2  S    1.174696
     3  N   -0.375127
     4  C    0.412227
     5  N   -0.367010
     6  N   -0.104542
     7  C    0.268997
     8  N   -0.351590
     9  C    0.328733
    10  C    0.006343
    11  C    0.008073
    12  C    0.028828
    13  C    0.009070
    14  C    0.018945
    15  C    0.073420
    16  O   -0.570806
 Electronic spatial extent (au):  <R**2>=           5582.6322
 Charge=              0.0000 electrons
 Dipole moment (field-independent basis, Debye):
    X=             -5.3208    Y=             -2.9721    Z=             -2.3565  Tot=              6.5343
 Quadrupole moment (field-independent basis, Debye-Ang):
   XX=            -87.8378   YY=            -90.8434   ZZ=           -106.5872
   XY=             13.3014   XZ=            -13.3546   YZ=              5.0433
 Traceless Quadrupole moment (field-independent basis, Debye-Ang):
   XX=              7.2517   YY=              4.2461   ZZ=            -11.4977
   XY=             13.3014   XZ=            -13.3546   YZ=              5.0433
 Octapole moment (field-independent basis, Debye-Ang**2):
  XXX=           -106.9198  YYY=            -21.5725  ZZZ=             -5.0458  XYY=             -2.3227
  XXY=             58.8038  XXZ=            -23.4967  XZZ=              9.5971  YZZ=             -3.1025
  YYZ=              1.4608  XYZ=             -7.2105
 Hexadecapole moment (field-independent basis, Debye-Ang**3):
 XXXX=          -5879.3332 YYYY=           -588.1046 ZZZZ=           -326.8904 XXXY=            347.1730
 XXXZ=           -210.2869 YYYX=             11.0956 YYYZ=             26.9630 ZZZX=             -7.8200
 ZZZY=             -0.6516 XXYY=          -1077.9522 XXZZ=          -1186.6519 YYZZ=           -159.8376
 XXYZ=             45.0824 YYXZ=            -11.4574 ZZXY=            -11.0952
 N-N= 1.183598841685D+03 E-N=-4.984399890643D+03  KE= 1.108363803075D+03
 No NMR shielding tensors so no spin-rotation constants.
 Leave Link  601 at Wed Sep 23 05:19:19 2020, MaxMem=  2147483648 cpu:               0.3 elap:               0.1
 (Enter /prod/apps/gaussian/g16b1/l701.exe)
 ... and contract with generalized density number  0.
 Compute integral first derivatives.
 D1PCM: PCM CHGder 1st derivatives, ID1Alg=3 FixD1E=F DoIter=F DoCFld=F I1PDM=0.
 GePol: Maximum number of non-zero 1st derivatives   =     181
 Leave Link  701 at Wed Sep 23 05:19:21 2020, MaxMem=  2147483648 cpu:               5.8 elap:               1.5
 (Enter /prod/apps/gaussian/g16b1/l702.exe)
 L702 exits ... SP integral derivatives will be done elsewhere.
 Leave Link  702 at Wed Sep 23 05:19:21 2020, MaxMem=  2147483648 cpu:               0.1 elap:               0.0
 (Enter /prod/apps/gaussian/g16b1/l703.exe)
 Integral derivatives from FoFJK, PRISM(SPDF).
 Compute integral first derivatives, UseDBF=F ICtDFT=           0.
 Calling FoFJK, ICntrl=      2127 FMM=F ISym2X=0 I1Cent= 0 IOpClX= 0 NMat=1 NMatS=1 NMatT=0.
 FoFJK:  IHMeth= 1 ICntrl=    2127 DoSepK=F KAlg= 0 I1Cent=           0 FoldK=F
 IRaf=         0 NMat=       1 IRICut=       1 DoRegI=T DoRafI=F ISym2E= 0 IDoP0=0 IntGTp=1.
 FoFCou: FMM=F IPFlag=           0 FMFlag=      100000 FMFlg1=         800
         NFxFlg=           0 DoJE=F BraDBF=F KetDBF=F FulRan=T
         wScrn=  0.000000 ICntrl=      2127 IOpCl=  0 I1Cent=           0 NGrid=           0
         NMat0=    1 NMatS0=      1 NMatT0=    0 NMatD0=    1 NMtDS0=    0 NMtDT0=    0
 Symmetry not used in FoFCou.
 Leave Link  703 at Wed Sep 23 05:19:29 2020, MaxMem=  2147483648 cpu:              32.1 elap:               8.0
 (Enter /prod/apps/gaussian/g16b1/l716.exe)
 Dipole        =-2.09335579D+00-1.16930353D+00-9.27118419D-01
 -------------------------------------------------------------------
 Center     Atomic                   Forces (Hartrees/Bohr)
 Number     Number              X              Y              Z
 -------------------------------------------------------------------
      1        8           0.000253659   -0.000117876   -0.000458800
      2       16          -0.000778638   -0.000716038   -0.000484244
      3        7          -0.000162551   -0.000053419    0.000809930
      4        6           0.001787065    0.000429776   -0.000251674
      5        7           0.001001576    0.000355824   -0.000442207
      6        7          -0.000655633   -0.000541943    0.000513920
      7        6          -0.000758082   -0.001167257    0.000353834
      8        7           0.000200699   -0.000008448   -0.000196335
      9        6           0.000275486    0.001783573    0.000419934
     10        6          -0.000931059   -0.000774542   -0.000283753
     11        6           0.000040205   -0.000589015    0.000000064
     12        6          -0.001240172   -0.000666674    0.000086137
     13        6           0.001330411    0.001511874    0.000125527
     14        6          -0.001054684   -0.002111741   -0.000430419
     15        6           0.000051300    0.000396871   -0.000758878
     16        8          -0.000560916    0.000717406    0.000075862
     17        1          -0.000072181    0.001030480    0.000069062
     18        1           0.000328682    0.000119240   -0.000091469
     19        1          -0.000127506    0.000137913    0.000077800
     20        1           0.000201025    0.000312640    0.000010518
     21        1           0.000527493   -0.000025482   -0.000128798
     22        1           0.000005960   -0.000177134   -0.000021779
     23        1           0.000442110    0.000818855    0.000153895
     24        1           0.000329514   -0.000451727    0.000145333
     25        1          -0.000331099   -0.000056025    0.000535449
     26        1          -0.000102664   -0.000157131    0.000171091
 -------------------------------------------------------------------
 Cartesian Forces:  Max     0.002111741 RMS     0.000643897
 Leave Link  716 at Wed Sep 23 05:19:29 2020, MaxMem=  2147483648 cpu:               0.1 elap:               0.0
 (Enter /prod/apps/gaussian/g16b1/l103.exe)

 GradGradGradGradGradGradGradGradGradGradGradGradGradGradGradGradGradGrad
 Berny optimization.
 FormGI is forming the generalized inverse of G from B-inverse, IUseBI=4.
 Internal  Forces:  Max     0.001479575 RMS     0.000402524
 Search for a local minimum.
 Step number   1 out of a maximum of  141
 All quantities printed in internal units (Hartrees-Bohrs-Radians)
 RMS Force = .40252D-03 SwitMx=.10000D-02 MixMth= 2
 Mixed Optimization -- En-DIIS/RFO-DIIS
 Second derivative matrix not updated -- first step.
 ITU=  0
     Eigenvalues ---    0.00520   0.01190   0.01364   0.01612   0.01838
     Eigenvalues ---    0.01905   0.02047   0.02135   0.02147   0.02148
     Eigenvalues ---    0.02152   0.02153   0.02154   0.02158   0.02160
     Eigenvalues ---    0.02162   0.02305   0.02335   0.02681   0.06129
     Eigenvalues ---    0.06252   0.08375   0.09020   0.12216   0.13236
     Eigenvalues ---    0.15997   0.15998   0.15999   0.15999   0.16000
     Eigenvalues ---    0.16000   0.16000   0.16000   0.16000   0.17791
     Eigenvalues ---    0.22000   0.22000   0.22964   0.23494   0.23790
     Eigenvalues ---    0.24979   0.24996   0.25000   0.25000   0.25000
     Eigenvalues ---    0.27029   0.34741   0.34769   0.34816   0.34939
     Eigenvalues ---    0.35379   0.35421   0.35458   0.35594   0.35925
     Eigenvalues ---    0.36409   0.41750   0.42098   0.42225   0.44159
     Eigenvalues ---    0.44640   0.45964   0.46150   0.46410   0.46429
     Eigenvalues ---    0.46621   0.47681   0.52639   0.53673   0.62477
     Eigenvalues ---    0.86988   0.87396
 RFO step:  Lambda=-7.14659819D-05 EMin= 5.20051312D-03
 Linear search not attempted -- first point.
 Iteration  1 RMS(Cart)=  0.01133848 RMS(Int)=  0.00003213
 Iteration  2 RMS(Cart)=  0.00007364 RMS(Int)=  0.00000308
 Iteration  3 RMS(Cart)=  0.00000000 RMS(Int)=  0.00000308
 ITry= 1 IFail=0 DXMaxC= 3.52D-02 DCOld= 1.00D+10 DXMaxT= 3.00D-01 DXLimC= 3.00D+00 Rises=F
 Variable       Old X    -DE/DX   Delta X   Delta X   Delta X     New X
                                 (Linear)    (Quad)   (Total)
    R1        2.78053  -0.00053   0.00000  -0.00061  -0.00061   2.77992
    R2        3.22774  -0.00142   0.00000  -0.00407  -0.00407   3.22367
    R3        3.38011  -0.00030   0.00000  -0.00111  -0.00111   3.37900
    R4        2.77857  -0.00091   0.00000  -0.00104  -0.00104   2.77753
    R5        2.65696  -0.00148   0.00000  -0.00331  -0.00331   2.65365
    R6        1.92964  -0.00103   0.00000  -0.00233  -0.00233   1.92731
    R7        2.57126  -0.00014   0.00000  -0.00025  -0.00025   2.57101
    R8        2.60196   0.00122   0.00000   0.00255   0.00255   2.60451
    R9        2.47179   0.00051   0.00000   0.00072   0.00072   2.47251
   R10        2.55397  -0.00019   0.00000  -0.00041  -0.00041   2.55356
   R11        2.56683   0.00041   0.00000   0.00081   0.00081   2.56764
   R12        2.03447  -0.00020   0.00000  -0.00056  -0.00056   2.03391
   R13        2.69243   0.00050   0.00000   0.00121   0.00121   2.69364
   R14        2.63669   0.00111   0.00000   0.00236   0.00236   2.63905
   R15        2.64105  -0.00079   0.00000  -0.00184  -0.00184   2.63921
   R16        2.63498  -0.00008   0.00000  -0.00007  -0.00007   2.63490
   R17        2.04722  -0.00020   0.00000  -0.00057  -0.00057   2.04664
   R18        2.63767   0.00022   0.00000   0.00059   0.00059   2.63826
   R19        2.04997  -0.00037   0.00000  -0.00105  -0.00105   2.04892
   R20        2.63674   0.00101   0.00000   0.00221   0.00221   2.63895
   R21        2.05065  -0.00054   0.00000  -0.00152  -0.00152   2.04913
   R22        2.63387  -0.00080   0.00000  -0.00180  -0.00180   2.63207
   R23        2.04937  -0.00015   0.00000  -0.00042  -0.00042   2.04895
   R24        2.04199   0.00095   0.00000   0.00263   0.00263   2.04462
   R25        2.06051  -0.00056   0.00000  -0.00161  -0.00161   2.05890
   R26        2.05974  -0.00058   0.00000  -0.00166  -0.00166   2.05808
   R27        2.06097  -0.00004   0.00000  -0.00012  -0.00012   2.06086
    A1        1.93698   0.00005   0.00000   0.00059   0.00059   1.93757
    A2        1.89150   0.00005   0.00000   0.00015   0.00015   1.89164
    A3        2.08115  -0.00003   0.00000  -0.00026  -0.00026   2.08089
    A4        1.78196  -0.00007   0.00000  -0.00016  -0.00016   1.78180
    A5        1.82723   0.00010   0.00000   0.00062   0.00062   1.82785
    A6        1.92142  -0.00011   0.00000  -0.00092  -0.00092   1.92050
    A7        2.07722  -0.00034   0.00000  -0.00185  -0.00185   2.07537
    A8        1.89789   0.00017   0.00000   0.00013   0.00013   1.89801
    A9        1.99171   0.00003   0.00000  -0.00099  -0.00099   1.99073
   A10        2.11649  -0.00011   0.00000  -0.00056  -0.00056   2.11593
   A11        2.26623  -0.00029   0.00000  -0.00127  -0.00127   2.26495
   A12        1.89976   0.00040   0.00000   0.00192   0.00191   1.90167
   A13        1.90049  -0.00063   0.00000  -0.00262  -0.00263   1.89786
   A14        1.87640   0.00075   0.00000   0.00260   0.00260   1.87900
   A15        1.81494  -0.00036   0.00000  -0.00130  -0.00130   1.81364
   A16        2.31509  -0.00012   0.00000  -0.00125  -0.00125   2.31383
   A17        2.15306   0.00048   0.00000   0.00250   0.00250   2.15556
   A18        1.93300  -0.00016   0.00000  -0.00066  -0.00066   1.93234
   A19        2.11047  -0.00104   0.00000  -0.00414  -0.00415   2.10632
   A20        2.23970   0.00120   0.00000   0.00483   0.00483   2.24453
   A21        2.08570   0.00091   0.00000   0.00376   0.00376   2.08946
   A22        2.08216  -0.00056   0.00000  -0.00208  -0.00208   2.08008
   A23        2.11533  -0.00035   0.00000  -0.00168  -0.00168   2.11365
   A24        2.07927   0.00008   0.00000   0.00047   0.00047   2.07974
   A25        2.10003  -0.00001   0.00000  -0.00002  -0.00002   2.10002
   A26        2.10378  -0.00007   0.00000  -0.00043  -0.00043   2.10336
   A27        2.10044  -0.00008   0.00000   0.00005   0.00004   2.10048
   A28        2.08337  -0.00000   0.00000  -0.00027  -0.00027   2.08310
   A29        2.09934   0.00008   0.00000   0.00021   0.00021   2.09955
   A30        2.09178  -0.00020   0.00000  -0.00066  -0.00066   2.09112
   A31        2.09627   0.00003   0.00000  -0.00009  -0.00009   2.09618
   A32        2.09513   0.00017   0.00000   0.00075   0.00075   2.09589
   A33        2.10372  -0.00010   0.00000  -0.00063  -0.00063   2.10308
   A34        2.09845  -0.00004   0.00000  -0.00023  -0.00023   2.09822
   A35        2.08097   0.00014   0.00000   0.00086   0.00086   2.08183
   A36        2.07576   0.00064   0.00000   0.00244   0.00244   2.07820
   A37        2.08942  -0.00031   0.00000  -0.00114  -0.00114   2.08828
   A38        2.11800  -0.00033   0.00000  -0.00130  -0.00130   2.11669
   A39        1.88475  -0.00016   0.00000  -0.00108  -0.00109   1.88366
   A40        1.89374  -0.00028   0.00000  -0.00171  -0.00171   1.89203
   A41        1.87080  -0.00028   0.00000  -0.00172  -0.00172   1.86908
   A42        1.93781   0.00020   0.00000   0.00113   0.00113   1.93894
   A43        1.93700   0.00019   0.00000   0.00110   0.00110   1.93810
   A44        1.93719   0.00029   0.00000   0.00200   0.00200   1.93919
    D1        0.49159  -0.00013   0.00000  -0.00706  -0.00706   0.48452
    D2       -1.82915  -0.00002   0.00000  -0.00391  -0.00391  -1.83306
    D3       -1.52092  -0.00017   0.00000  -0.00740  -0.00740  -1.52832
    D4        2.44152  -0.00006   0.00000  -0.00424  -0.00424   2.43729
    D5        2.75871  -0.00006   0.00000  -0.00655  -0.00655   2.75216
    D6        0.43798   0.00005   0.00000  -0.00339  -0.00339   0.43458
    D7       -1.02924  -0.00004   0.00000   0.00002   0.00002  -1.02922
    D8       -3.13115  -0.00003   0.00000   0.00027   0.00027  -3.13088
    D9        1.05883  -0.00006   0.00000  -0.00021  -0.00021   1.05863
   D10        1.01625   0.00001   0.00000   0.00068   0.00068   1.01693
   D11       -1.08566   0.00002   0.00000   0.00092   0.00092  -1.08474
   D12        3.10432  -0.00001   0.00000   0.00045   0.00045   3.10477
   D13        2.94953   0.00004   0.00000   0.00096   0.00096   2.95050
   D14        0.84762   0.00006   0.00000   0.00121   0.00121   0.84883
   D15       -1.24558   0.00003   0.00000   0.00074   0.00074  -1.24485
   D16        1.12653  -0.00004   0.00000  -0.00284  -0.00284   1.12368
   D17       -2.06034   0.00001   0.00000  -0.00012  -0.00012  -2.06046
   D18       -2.87715  -0.00011   0.00000  -0.00571  -0.00571  -2.88286
   D19        0.21917  -0.00005   0.00000  -0.00299  -0.00299   0.21618
   D20        3.10839   0.00016   0.00000   0.00760   0.00759   3.11599
   D21        0.00352   0.00013   0.00000   0.00545   0.00545   0.00897
   D22       -3.09281  -0.00013   0.00000  -0.00559  -0.00559  -3.09839
   D23        0.06370  -0.00004   0.00000  -0.00179  -0.00179   0.06191
   D24        0.00790  -0.00009   0.00000  -0.00317  -0.00317   0.00473
   D25       -3.11878   0.00000   0.00000   0.00063   0.00063  -3.11815
   D26       -0.01366  -0.00012   0.00000  -0.00541  -0.00541  -0.01907
   D27        0.01929   0.00007   0.00000   0.00349   0.00349   0.02277
   D28       -3.11715  -0.00004   0.00000  -0.00217  -0.00215  -3.11930
   D29       -0.01651   0.00002   0.00000  -0.00010  -0.00010  -0.01661
   D30        3.11945   0.00013   0.00000   0.00605   0.00606   3.12551
   D31        3.11195  -0.00007   0.00000  -0.00348  -0.00349   3.10846
   D32       -0.03528   0.00004   0.00000   0.00267   0.00268  -0.03260
   D33        2.69970   0.00001   0.00000   0.00029   0.00029   2.70000
   D34       -0.44282   0.00006   0.00000   0.00243   0.00243  -0.44039
   D35       -0.43575  -0.00011   0.00000  -0.00642  -0.00642  -0.44217
   D36        2.70491  -0.00007   0.00000  -0.00429  -0.00429   2.70063
   D37        3.13526  -0.00002   0.00000  -0.00055  -0.00055   3.13472
   D38       -0.02131   0.00002   0.00000   0.00129   0.00129  -0.02002
   D39       -0.00538  -0.00006   0.00000  -0.00272  -0.00272  -0.00811
   D40        3.12123  -0.00002   0.00000  -0.00089  -0.00089   3.12034
   D41        3.13733  -0.00001   0.00000  -0.00070  -0.00070   3.13664
   D42       -0.00803  -0.00002   0.00000  -0.00098  -0.00098  -0.00901
   D43       -0.00521   0.00003   0.00000   0.00147   0.00147  -0.00373
   D44        3.13261   0.00002   0.00000   0.00120   0.00119   3.13381
   D45        0.01022   0.00005   0.00000   0.00230   0.00230   0.01252
   D46       -3.14076   0.00001   0.00000   0.00035   0.00035  -3.14041
   D47       -3.11636   0.00001   0.00000   0.00045   0.00045  -3.11591
   D48        0.01585  -0.00003   0.00000  -0.00150  -0.00150   0.01436
   D49       -0.00445  -0.00001   0.00000  -0.00067  -0.00067  -0.00512
   D50        3.13778  -0.00004   0.00000  -0.00167  -0.00167   3.13611
   D51       -3.13658   0.00003   0.00000   0.00130   0.00130  -3.13528
   D52        0.00565   0.00001   0.00000   0.00030   0.00030   0.00595
   D53       -0.00637  -0.00001   0.00000  -0.00058  -0.00058  -0.00695
   D54       -3.13804   0.00000   0.00000  -0.00006  -0.00006  -3.13810
   D55        3.13459   0.00001   0.00000   0.00042   0.00042   3.13501
   D56        0.00292   0.00002   0.00000   0.00094   0.00094   0.00385
   D57        0.01109   0.00001   0.00000   0.00020   0.00020   0.01128
   D58       -3.12667   0.00001   0.00000   0.00048   0.00048  -3.12619
   D59       -3.14033  -0.00001   0.00000  -0.00033  -0.00033  -3.14065
   D60        0.00511  -0.00000   0.00000  -0.00004  -0.00004   0.00506
         Item               Value     Threshold  Converged?
 Maximum Force            0.001480     0.000450     NO 
 RMS     Force            0.000403     0.000300     NO 
 Maximum Displacement     0.035151     0.001800     NO 
 RMS     Displacement     0.011333     0.001200     NO 
 Predicted change in Energy=-3.575940D-05
 Lowest energy point so far.  Saving SCF results.
 GradGradGradGradGradGradGradGradGradGradGradGradGradGradGradGradGradGrad

 Leave Link  103 at Wed Sep 23 05:19:29 2020, MaxMem=  2147483648 cpu:               0.1 elap:               0.0
 (Enter /prod/apps/gaussian/g16b1/l202.exe)
                          Input orientation:                          
 ---------------------------------------------------------------------
 Center     Atomic      Atomic             Coordinates (Angstroms)
 Number     Number       Type             X           Y           Z
 ---------------------------------------------------------------------
      1          8           0        2.894195    0.242403    1.634634
      2         16           0        3.454148   -0.179449    0.341368
      3          7           0        2.225862   -0.729525   -0.706872
      4          6           0        0.926838   -0.217293   -0.558302
      5          7           0        0.658693    1.099084   -0.773372
      6          7           0       -0.622092    1.301224   -0.598356
      7          6           0       -0.247019   -0.867956   -0.244824
      8          7           0       -1.186937    0.111995   -0.293966
      9          6           0       -2.591285    0.009200   -0.072521
     10          6           0       -3.237910   -1.210528   -0.283286
     11          6           0       -4.610531   -1.300134   -0.055153
     12          6           0       -5.330535   -0.179900    0.364107
     13          6           0       -4.671184    1.035128    0.561845
     14          6           0       -3.298009    1.136557    0.351888
     15          6           0        4.054077    1.271826   -0.513711
     16          8           0        4.472842   -1.238557    0.311601
     17          1           0        2.268380   -1.747340   -0.756045
     18          1           0       -0.467376   -1.890336    0.009342
     19          1           0       -2.680941   -2.071695   -0.631347
     20          1           0       -5.115533   -2.245885   -0.216730
     21          1           0       -6.398779   -0.252834    0.535435
[...]
 Alpha virt. eigenvalues --    0.11134   0.11846   0.12647   0.12790   0.12893
 Alpha virt. eigenvalues --    0.13114   0.13562   0.13911   0.14417   0.14639
 Alpha virt. eigenvalues --    0.14731   0.15265   0.15452   0.15855   0.16213
 Alpha virt. eigenvalues --    0.16683   0.16848   0.17155   0.17304   0.17794
 Alpha virt. eigenvalues --    0.18444   0.18747   0.19016   0.19282   0.19379
 Alpha virt. eigenvalues --    0.20043   0.20451   0.21644   0.22384   0.22710
 Alpha virt. eigenvalues --    0.22977   0.23503   0.23842   0.24231   0.25350
 Alpha virt. eigenvalues --    0.26386   0.26745   0.26821   0.27362   0.27684
 Alpha virt. eigenvalues --    0.28296   0.29072   0.29355   0.29434   0.30386
 Alpha virt. eigenvalues --    0.30795   0.31240   0.31550   0.31770   0.32011
 Alpha virt. eigenvalues --    0.32690   0.32856   0.33259   0.33638   0.33906
 Alpha virt. eigenvalues --    0.34752   0.34930   0.35004   0.35450   0.35989
 Alpha virt. eigenvalues --    0.36594   0.36648   0.36797   0.37588   0.38269
 Alpha virt. eigenvalues --    0.38318   0.38649   0.39341   0.39447   0.39949
 Alpha virt. eigenvalues --    0.40196   0.40473   0.41234   0.41680   0.41994
 Alpha virt. eigenvalues --    0.42361   0.43317   0.43783   0.44299   0.44342
 Alpha virt. eigenvalues --    0.45273   0.45601   0.45850   0.46709   0.46965
 Alpha virt. eigenvalues --    0.47356   0.48201   0.49024   0.49775   0.50186
 Alpha virt. eigenvalues --    0.50888   0.51426   0.52306   0.53373   0.54002
 Alpha virt. eigenvalues --    0.54965   0.55562   0.55929   0.56580   0.57070
 Alpha virt. eigenvalues --    0.57277   0.58137   0.58375   0.58910   0.59660
 Alpha virt. eigenvalues --    0.60247   0.60363   0.60834   0.61603   0.61823
 Alpha virt. eigenvalues --    0.62803   0.62936   0.63117   0.64202   0.64787
 Alpha virt. eigenvalues --    0.65024   0.65263   0.66158   0.66614   0.67084
 Alpha virt. eigenvalues --    0.67308   0.67736   0.68338   0.68708   0.69225
 Alpha virt. eigenvalues --    0.70257   0.70725   0.71537   0.72079   0.72679
 Alpha virt. eigenvalues --    0.73432   0.74284   0.74605   0.74723   0.75377
 Alpha virt. eigenvalues --    0.75803   0.76410   0.76884   0.77403   0.77813
 Alpha virt. eigenvalues --    0.79222   0.79389   0.81575   0.82383   0.83237
 Alpha virt. eigenvalues --    0.83318   0.84185   0.84388   0.84782   0.86065
 Alpha virt. eigenvalues --    0.86411   0.87326   0.88080   0.88540   0.88831
 Alpha virt. eigenvalues --    0.90404   0.90537   0.91003   0.91192   0.92174
 Alpha virt. eigenvalues --    0.92828   0.93011   0.93434   0.93605   0.93998
 Alpha virt. eigenvalues --    0.94684   0.96444   0.96652   0.97602   0.98478
 Alpha virt. eigenvalues --    0.99252   0.99634   1.00727   1.01430   1.01788
 Alpha virt. eigenvalues --    1.02226   1.02956   1.03947   1.05573   1.06342
 Alpha virt. eigenvalues --    1.07100   1.07825   1.08925   1.09831   1.10904
 Alpha virt. eigenvalues --    1.11632   1.12652   1.13096   1.13828   1.14175
 Alpha virt. eigenvalues --    1.14723   1.15787   1.16131   1.17511   1.17614
 Alpha virt. eigenvalues --    1.19010   1.20704   1.21054   1.22762   1.23314
 Alpha virt. eigenvalues --    1.24587   1.25334   1.25988   1.27571   1.28675
 Alpha virt. eigenvalues --    1.30145   1.31649   1.32836   1.33519   1.33954
 Alpha virt. eigenvalues --    1.35590   1.37319   1.38260   1.39904   1.40214
 Alpha virt. eigenvalues --    1.42051   1.43017   1.44520   1.45535   1.45690
 Alpha virt. eigenvalues --    1.46151   1.47178   1.48220   1.49909   1.50241
 Alpha virt. eigenvalues --    1.51075   1.52019   1.53565   1.55277   1.56540
 Alpha virt. eigenvalues --    1.57356   1.58199   1.58739   1.59236   1.60661
 Alpha virt. eigenvalues --    1.61481   1.62090   1.62613   1.64054   1.64506
 Alpha virt. eigenvalues --    1.65213   1.65611   1.67199   1.67657   1.69221
 Alpha virt. eigenvalues --    1.70557   1.71045   1.71591   1.72367   1.73421
 Alpha virt. eigenvalues --    1.74274   1.75622   1.77548   1.77756   1.79353
 Alpha virt. eigenvalues --    1.81184   1.81619   1.82322   1.83502   1.85101
 Alpha virt. eigenvalues --    1.86023   1.87672   1.88239   1.89866   1.90427
 Alpha virt. eigenvalues --    1.90950   1.92125   1.92661   1.94067   1.94696
 Alpha virt. eigenvalues --    1.95570   1.96009   1.96875   1.97348   1.97955
 Alpha virt. eigenvalues --    1.98576   2.00701   2.01770   2.03339   2.04983
 Alpha virt. eigenvalues --    2.07181   2.08606   2.09514   2.10978   2.11726
 Alpha virt. eigenvalues --    2.12010   2.13107   2.15556   2.15943   2.17435
 Alpha virt. eigenvalues --    2.18550   2.19415   2.20832   2.21144   2.22164
 Alpha virt. eigenvalues --    2.23637   2.23846   2.24428   2.26577   2.28159
 Alpha virt. eigenvalues --    2.30499   2.31179   2.31749   2.32073   2.33482
 Alpha virt. eigenvalues --    2.34418   2.35335   2.36092   2.36632   2.38336
 Alpha virt. eigenvalues --    2.38857   2.41013   2.42376   2.42500   2.45893
 Alpha virt. eigenvalues --    2.46615   2.47420   2.48426   2.50305   2.53907
 Alpha virt. eigenvalues --    2.55372   2.55551   2.57230   2.60003   2.61131
 Alpha virt. eigenvalues --    2.62519   2.63503   2.63753   2.67918   2.68637
 Alpha virt. eigenvalues --    2.73140   2.73445   2.75176   2.75618   2.79737
 Alpha virt. eigenvalues --    2.80909   2.81533   2.83562   2.85658   2.87170
 Alpha virt. eigenvalues --    2.89027   2.89878   2.91662   2.93885   2.94520
 Alpha virt. eigenvalues --    2.97205   2.97926   3.00639   3.02027   3.03859
 Alpha virt. eigenvalues --    3.05694   3.08452   3.11209   3.13304   3.14397
 Alpha virt. eigenvalues --    3.15568   3.18975   3.22308   3.24529   3.30884
 Alpha virt. eigenvalues --    3.33104   3.37859   3.39385   3.40271   3.45779
 Alpha virt. eigenvalues --    3.54950   3.59286   3.61775   3.64923   3.71300
 Alpha virt. eigenvalues --    3.72477   3.73672   3.74250   3.76845   3.79343
 Alpha virt. eigenvalues --    3.80038   3.80676   3.83695   3.85394   3.89129
 Alpha virt. eigenvalues --    3.93986   4.01029   4.30030   4.38805   4.87444
          Condensed to atoms (all electrons):
               1          2          3          4          5          6
     1  O    9.160865  -0.186793   0.054661   0.066294  -0.010393   0.014355
     2  S   -0.186793  13.670436   0.047624  -0.615616   0.129364  -0.087161
     3  N    0.054661   0.047624   8.268408  -1.396430   0.196525  -0.152668
     4  C    0.066294  -0.615616  -1.396430  13.016867  -1.586250   1.130495
     5  N   -0.010393   0.129364   0.196525  -1.586250   9.094551  -1.239458
     6  N    0.014355  -0.087161  -0.152668   1.130495  -1.239458   9.366946
     7  C   -0.043984   0.258309   0.836886  -6.099572   1.361038  -1.193976
     8  N    0.017163   0.019173  -0.053888   0.000282  -0.032997  -0.378402
     9  C    0.005392   0.012846  -0.007565   0.323436  -0.145659  -0.330259
    10  C   -0.001159  -0.002781  -0.015895  -0.094482   0.104629  -0.093884
    11  C    0.000230   0.001183  -0.003108   0.130631  -0.001615  -0.000005
    12  C   -0.000207  -0.000597  -0.001511   0.001370   0.004896   0.021014
    13  C    0.000304  -0.000367   0.001096  -0.015204  -0.054575  -0.022906
    14  C   -0.001340  -0.009909   0.002525  -0.061018  -0.073602   0.519485
    15  C    0.008602   0.420698  -0.114000   0.101071  -0.019138  -0.016517
    16  O    0.034779  -0.098350   0.018370  -0.032445   0.003430   0.002849
    17  H   -0.000995  -0.101286   0.396056   0.237838  -0.041722   0.011808
    18  H   -0.003640   0.015968  -0.128790   0.542815  -0.090821  -0.049607
    19  H    0.000331  -0.002043   0.006542  -0.063086   0.007591  -0.028930
    20  H    0.000015   0.000056  -0.000084   0.002809  -0.001547   0.001602
    21  H   -0.000008  -0.000020  -0.000034  -0.000352   0.000247   0.001257
    22  H    0.000033  -0.000001  -0.000060  -0.000723  -0.000684  -0.000294
    23  H   -0.000588  -0.000487  -0.001518   0.020120  -0.022898   0.006092
    24  H    0.031981  -0.041642  -0.045131  -0.041381   0.005018  -0.013207
    25  H    0.015015  -0.052425   0.021120  -0.034448   0.007004   0.000795
    26  H    0.000769  -0.033532   0.019643   0.010383   0.005300   0.004116
               7          8          9         10         11         12
     1  O   -0.043984   0.017163   0.005392  -0.001159   0.000230  -0.000207
     2  S    0.258309   0.019173   0.012846  -0.002781   0.001183  -0.000597
     3  N    0.836886  -0.053888  -0.007565  -0.015895  -0.003108  -0.001511
     4  C   -6.099572   0.000282   0.323436  -0.094482   0.130631   0.001370
     5  N    1.361038  -0.032997  -0.145659   0.104629  -0.001615   0.004896
     6  N   -1.193976  -0.378402  -0.330259  -0.093884  -0.000005   0.021014
     7  C   11.752323  -0.143882  -1.103509   0.335280  -0.386181   0.005148
     8  N   -0.143882   9.028614  -0.813919   0.538458  -0.356435   0.340048
     9  C   -1.103509  -0.813919  13.910815  -5.309176   2.825822  -3.456075
    10  C    0.335280   0.538458  -5.309176  12.562222  -3.567190   2.977421
    11  C   -0.386181  -0.356435   2.825822  -3.567190  10.047831  -2.912632
    12  C    0.005148   0.340048  -3.456075   2.977421  -2.912632   8.844208
    13  C    0.098346  -0.209055   2.607108  -3.244584   2.888150  -2.836521
    14  C   -0.029742  -0.015381  -5.058989   2.249789  -3.181118   2.859543
    15  C   -0.068529   0.003439  -0.001664  -0.001735  -0.000220  -0.000019
    16  O    0.014461   0.000735   0.001503   0.000011  -0.000056   0.000007
    17  H   -0.257186   0.023360   0.007441  -0.001592   0.000779   0.000013
    18  H   -0.885357   0.161013   0.194509   0.009461   0.089602  -0.009400
    19  H    0.130349  -0.219829   0.903419  -1.022142   0.166660  -0.186482
    20  H    0.002642   0.000589  -0.120884   0.637867  -0.762381   0.295037
    21  H   -0.000731  -0.000929   0.106245  -0.167034   0.360751  -0.617036
    22  H   -0.000707  -0.009520  -0.090909   0.113985  -0.208325   0.265290
    23  H   -0.030577  -0.197502   0.671453  -0.113477   0.115879  -0.166746
    24  H    0.007243   0.008087   0.003120   0.000209   0.000112  -0.000134
    25  H    0.001633  -0.001546  -0.000792  -0.000403  -0.000109   0.000006
    26  H   -0.004857  -0.000229  -0.000123  -0.000112   0.000014  -0.000003
              13         14         15         16         17         18
     1  O    0.000304  -0.001340   0.008602   0.034779  -0.000995  -0.003640
     2  S   -0.000367  -0.009909   0.420698  -0.098350  -0.101286   0.015968
     3  N    0.001096   0.002525  -0.114000   0.018370   0.396056  -0.128790
     4  C   -0.015204  -0.061018   0.101071  -0.032445   0.237838   0.542815
     5  N   -0.054575  -0.073602  -0.019138   0.003430  -0.041722  -0.090821
     6  N   -0.022906   0.519485  -0.016517   0.002849   0.011808  -0.049607
     7  C    0.098346  -0.029742  -0.068529   0.014461  -0.257186  -0.885357
     8  N   -0.209055  -0.015381   0.003439   0.000735   0.023360   0.161013
     9  C    2.607108  -5.058989  -0.001664   0.001503   0.007441   0.194509
    10  C   -3.244584   2.249789  -0.001735   0.000011  -0.001592   0.009461
    11  C    2.888150  -3.181118  -0.000220  -0.000056   0.000779   0.089602
    12  C   -2.836521   2.859543  -0.000019   0.000007   0.000013  -0.009400
    13  C    9.731531  -3.465118   0.000515   0.000011  -0.000381   0.002236
    14  C   -3.465118  12.479588   0.000898   0.000407  -0.001731  -0.145140
    15  C    0.000515   0.000898   4.571483  -0.017000   0.013360   0.001049
    16  O    0.000011   0.000407  -0.017000   9.161960   0.034177  -0.003177
    17  H   -0.000381  -0.001731   0.013360   0.034177   0.717711   0.003742
    18  H    0.002236  -0.145140   0.001049  -0.003177   0.003742   1.834196
    19  H    0.122769  -0.134153  -0.000021   0.000232   0.001116  -0.075951
    20  H   -0.225141   0.109400   0.000001  -0.000001  -0.000033   0.003830
    21  H    0.384687  -0.114886  -0.000002   0.000000  -0.000003   0.000115
    22  H   -0.708521   0.593958   0.000000   0.000001  -0.000001   0.000184
    23  H    0.335606  -0.894256  -0.000178   0.000027  -0.000175  -0.003037
    24  H    0.000502  -0.000574   0.383946   0.008041   0.003307  -0.000096
    25  H    0.000093   0.000606   0.337649   0.019065  -0.004549  -0.000503
    26  H   -0.000010   0.000023   0.297965   0.004058   0.001182   0.000317
              19         20         21         22         23         24
     1  O    0.000331   0.000015  -0.000008   0.000033  -0.000588   0.031981
     2  S   -0.002043   0.000056  -0.000020  -0.000001  -0.000487  -0.041642
     3  N    0.006542  -0.000084  -0.000034  -0.000060  -0.001518  -0.045131
     4  C   -0.063086   0.002809  -0.000352  -0.000723   0.020120  -0.041381
     5  N    0.007591  -0.001547   0.000247  -0.000684  -0.022898   0.005018
     6  N   -0.028930   0.001602   0.001257  -0.000294   0.006092  -0.013207
     7  C    0.130349   0.002642  -0.000731  -0.000707  -0.030577   0.007243
     8  N   -0.219829   0.000589  -0.000929  -0.009520  -0.197502   0.008087
     9  C    0.903419  -0.120884   0.106245  -0.090909   0.671453   0.003120
    10  C   -1.022142   0.637867  -0.167034   0.113985  -0.113477   0.000209
    11  C    0.166660  -0.762381   0.360751  -0.208325   0.115879   0.000112
    12  C   -0.186482   0.295037  -0.617036   0.265290  -0.166746  -0.000134
    13  C    0.122769  -0.225141   0.384687  -0.708521   0.335606   0.000502
    14  C   -0.134153   0.109400  -0.114886   0.593958  -0.894256  -0.000574
    15  C   -0.000021   0.000001  -0.000002   0.000000  -0.000178   0.383946
    16  O    0.000232  -0.000001   0.000000   0.000001   0.000027   0.008041
    17  H    0.001116  -0.000033  -0.000003  -0.000001  -0.000175   0.003307
    18  H   -0.075951   0.003830   0.000115   0.000184  -0.003037  -0.000096
    19  H    2.153490  -0.082163  -0.015312   0.010221  -0.018271   0.000089
    20  H   -0.082163   1.636120  -0.054812  -0.017881   0.009576   0.000001
    21  H   -0.015312  -0.054812   1.630244  -0.059307  -0.010754  -0.000001
    22  H    0.010221  -0.017881  -0.059307   1.623721  -0.080398   0.000031
    23  H   -0.018271   0.009576  -0.010754  -0.080398   1.899693  -0.000157
    24  H    0.000089   0.000001  -0.000001   0.000031  -0.000157   0.809819
    25  H    0.000005   0.000001  -0.000000  -0.000003   0.000066  -0.060423
    26  H   -0.000041   0.000000  -0.000000  -0.000001  -0.000013  -0.089765
              25         26
     1  O    0.015015   0.000769
     2  S   -0.052425  -0.033532
     3  N    0.021120   0.019643
     4  C   -0.034448   0.010383
     5  N    0.007004   0.005300
     6  N    0.000795   0.004116
     7  C    0.001633  -0.004857
     8  N   -0.001546  -0.000229
     9  C   -0.000792  -0.000123
    10  C   -0.000403  -0.000112
    11  C   -0.000109   0.000014
    12  C    0.000006  -0.000003
    13  C    0.000093  -0.000010
    14  C    0.000606   0.000023
    15  C    0.337649   0.297965
    16  O    0.019065   0.004058
    17  H   -0.004549   0.001182
    18  H   -0.000503   0.000317
    19  H    0.000005  -0.000041
    20  H    0.000001   0.000000
    21  H   -0.000000  -0.000000
    22  H   -0.000003  -0.000001
    23  H    0.000066  -0.000013
    24  H   -0.060423  -0.089765
    25  H    0.831131  -0.092257
    26  H   -0.092257   0.829445
 Mulliken charges:
               1
     1  O   -1.161680
     2  S    2.657352
     3  N   -0.948776
     4  C    0.456595
     5  N   -0.598232
     6  N   -0.473542
     7  C    1.445134
     8  N   -0.707445
     9  C    0.866416
    10  C    0.106316
    11  C    0.751731
    12  C    0.573360
    13  C    0.609431
    14  C    0.370736
    15  C    0.098347
    16  O   -1.153095
    17  H   -0.042235
    18  H   -0.463515
    19  H   -0.654388
    20  H   -0.434619
    21  H   -0.442324
    22  H   -0.430090
    23  H   -0.517480
    24  H    0.031006
    25  H    0.013269
    26  H    0.047729
 Sum of Mulliken charges =  -0.00000
 Mulliken charges with hydrogens summed into heavy atoms:
               1
     1  O   -1.161680
     2  S    2.657352
     3  N   -0.991010
     4  C    0.456595
     5  N   -0.598232
     6  N   -0.473542
     7  C    0.981618
     8  N   -0.707445
     9  C    0.866416
    10  C   -0.548073
    11  C    0.317112
    12  C    0.131037
    13  C    0.179341
    14  C   -0.146744
    15  C    0.190351
    16  O   -1.153095
 Electronic spatial extent (au):  <R**2>=           5598.1950
 Charge=              0.0000 electrons
 Dipole moment (field-independent basis, Debye):
    X=             -4.4995    Y=             -1.3614    Z=             -2.3813  Tot=              5.2697
 Quadrupole moment (field-independent basis, Debye-Ang):
   XX=            -92.8968   YY=            -94.0967   ZZ=           -110.5465
   XY=             12.6271   XZ=            -13.4308   YZ=              3.9563
 Traceless Quadrupole moment (field-independent basis, Debye-Ang):
   XX=              6.2832   YY=              5.0833   ZZ=            -11.3665
   XY=             12.6271   XZ=            -13.4308   YZ=              3.9563
 Octapole moment (field-independent basis, Debye-Ang**2):
  XXX=            -82.7582  YYY=            -14.2833  ZZZ=             -4.9762  XYY=             -2.6866
  XXY=             66.0466  XXZ=            -23.2096  XZZ=             16.5833  YZZ=             -1.7525
  YYZ=              1.3716  XYZ=             -9.7390
 Hexadecapole moment (field-independent basis, Debye-Ang**3):
 XXXX=          -6169.2617 YYYY=           -607.7752 ZZZZ=           -349.7253 XXXY=            340.5089
 XXXZ=           -215.4715 YYYX=              9.4581 YYYZ=             25.1825 ZZZX=             -4.0660
 ZZZY=             -2.8617 XXYY=          -1131.0571 XXZZ=          -1244.6961 YYZZ=           -169.3374
 XXYZ=             47.5831 YYXZ=            -11.7386 ZZXY=            -13.3597
 N-N= 1.183768691174D+03 E-N=-4.982960236298D+03  KE= 1.110261419081D+03
 Leave Link  601 at Wed Sep 23 05:46:04 2020, MaxMem=   262144000 cpu:               1.4 elap:               0.5
 (Enter /prod/apps/gaussian/g16b1/l9999.exe)
 1\1\GINC-PIRINEUS8\SP\RMP2-FC\Aug-CC-pVDZ\C9H10N4O2S1\UBAFAR01\23-Sep-
 2020\0\\#p mp2/aug-cc-pVDZ scf=(MaxCycle=2000,NoVarAcc,NoIncFock) maxd
 isk=120GB geom=allcheck\\SM44_m0.n.7.pdb.xyz\\0,1\O,0,2.9037590795,0.2
 912140426,1.6294020594\S,0,3.4577224044,-0.1652830569,0.3457357826\N,0
 ,2.2216507579,-0.7230710496,-0.6859304637\C,0,0.9231725272,-0.21078976
 47,-0.5375534083\N,0,0.6553317615,1.1073294883,-0.7396214678\N,0,-0.62
 74152555,1.3073074777,-0.57185406\C,0,-0.2518582644,-0.8649815474,-0.2
 358874825\N,0,-1.1918688965,0.1151860906,-0.2810402515\C,0,-2.59713267
 07,0.0097588552,-0.0673574263\C,0,-3.2417255169,-1.2078387827,-0.29567
 13092\C,0,-4.6154484308,-1.3006724493,-0.0760113059\C,0,-5.3385490617,
 -0.1862539303,0.3533415398\C,0,-4.6808002742,1.0265448405,0.5700008884
 \C,0,-3.3068221736,1.1309451568,0.3680924172\C,0,4.0771609424,1.259077
 0216,-0.5404327967\O,0,4.4641833839,-1.2361061779,0.3375970189\H,0,2.2
 675649601,-1.7404039718,-0.7385064203\H,0,-0.4728328791,-1.8904676977,
 0.0049986879\H,0,-2.6820668275,-2.0647513715,-0.6503217714\H,0,-5.1189
 141678,-2.2447644825,-0.2517048958\H,0,-6.4075846659,-0.2621146838,0.5
 183110691\H,0,-5.2353004539,1.8950810598,0.9071803511\H,0,-2.782182230
 1,2.0603829465,0.5456505086\H,0,3.2507684358,1.9557059692,-0.676942549
 1\H,0,4.4697482437,0.9230999458,-1.499137558\H,0,4.8634392724,1.700866
 0715,0.0726628436\\Version=ES64L-G16RevB.01\State=1-A\HF=-1111.6408635
 \MP2=-1114.1182804\RMSD=5.576e-09\PG=C01 [X(C9H10N4O2S1)]\\@


 IF MATHEMATICALLY YOU END UP WITH THE INCORRECT ANSWER,
 TRY MULTIPLYING BY THE PAGE NUMBER.
 Job cpu time:       0 days  0 hours 55 minutes 42.8 seconds.
 Elapsed time:       0 days  0 hours 15 minutes 13.5 seconds.
 File lengths (MBytes):  RWF=  35088 Int=      0 D2E=      0 Chk=     19 Scr=      1
 Normal termination of Gaussian 16 at Wed Sep 23 05:46:07 2020.
