 Entering Gaussian System, Link 0=g16
 Initial command:
 /prod/apps/gaussian/g16b1/l1.exe "/tmp/ubafar01/1460625/Gau-223909.inp" -scrdir="/tmp/ubafar01/1460625/"
 Entering Link 1 = /prod/apps/gaussian/g16b1/l1.exe PID=    223910.
  
 Copyright (c) 1988-2017, Gaussian, Inc.  All Rights Reserved.
  
 This is part of the Gaussian(R) 16 program.  It is based on
 the Gaussian(R) 09 system (copyright 2009, Gaussian, Inc.),
 the Gaussian(R) 03 system (copyright 2003, Gaussian, Inc.),
 the Gaussian(R) 98 system (copyright 1998, Gaussian, Inc.),
 the Gaussian(R) 94 system (copyright 1995, Gaussian, Inc.),
 the Gaussian 92(TM) system (copyright 1992, Gaussian, Inc.),
 the Gaussian 90(TM) system (copyright 1990, Gaussian, Inc.),
 the Gaussian 88(TM) system (copyright 1988, Gaussian, Inc.),
 the Gaussian 86(TM) system (copyright 1986, Carnegie Mellon
 University), and the Gaussian 82(TM) system (copyright 1983,
 Carnegie Mellon University). Gaussian is a federally registered
 trademark of Gaussian, Inc.
  
 This software contains proprietary and confidential information,
 including trade secrets, belonging to Gaussian, Inc.
  
 This software is provided under written license and may be
 used, copied, transmitted, or stored only in accord with that
 written license.
  
 The following legend is applicable only to US Government
 contracts under FAR:
  
                    RESTRICTED RIGHTS LEGEND
  
 Use, reproduction and disclosure by the US Government is
 subject to restrictions as set forth in subparagraphs (a)
 and (c) of the Commercial Computer Software - Restricted
 Rights clause in FAR 52.227-19.
  
 Gaussian, Inc.
 340 Quinnipiac St., Bldg. 40, Wallingford CT 06492
  
  
 ---------------------------------------------------------------
 Warning -- This program may not be used in any manner that
 competes with the business of Gaussian, Inc. or will provide
 assistance to any competitor of Gaussian, Inc.  The licensee
 of this program is prohibited from giving any competitor of
 Gaussian, Inc. access to this program.  By using this program,
 the user acknowledges that Gaussian, Inc. is engaged in the
 business of creating and licensing software in the field of
 computational chemistry and represents and warrants to the
 licensee that it is not a competitor of Gaussian, Inc. and that
 it will not use this program in any manner prohibited above.
 ---------------------------------------------------------------
  

 Cite this work as:
 Gaussian 16, Revision B.01,
 M. J. Frisch, G. W. Trucks, H. B. Schlegel, G. E. Scuseria, 
 M. A. Robb, J. R. Cheeseman, G. Scalmani, V. Barone, 
 G. A. Petersson, H. Nakatsuji, X. Li, M. Caricato, A. V. Marenich, 
 J. Bloino, B. G. Janesko, R. Gomperts, B. Mennucci, H. P. Hratchian, 
 J. V. Ortiz, A. F. Izmaylov, J. L. Sonnenberg, D. Williams-Young, 
 F. Ding, F. Lipparini, F. Egidi, J. Goings, B. Peng, A. Petrone, 
 T. Henderson, D. Ranasinghe, V. G. Zakrzewski, J. Gao, N. Rega, 
 G. Zheng, W. Liang, M. Hada, M. Ehara, K. Toyota, R. Fukuda, 
 J. Hasegawa, M. Ishida, T. Nakajima, Y. Honda, O. Kitao, H. Nakai, 
 T. Vreven, K. Throssell, J. A. Montgomery, Jr., J. E. Peralta, 
 F. Ogliaro, M. J. Bearpark, J. J. Heyd, E. N. Brothers, K. N. Kudin, 
 V. N. Staroverov, T. A. Keith, R. Kobayashi, J. Normand, 
 K. Raghavachari, A. P. Rendell, J. C. Burant, S. S. Iyengar, 
 J. Tomasi, M. Cossi, J. M. Millam, M. Klene, C. Adamo, R. Cammi, 
 J. W. Ochterski, R. L. Martin, K. Morokuma, O. Farkas, 
 J. B. Foresman, and D. J. Fox, Gaussian, Inc., Wallingford CT, 2016.
 
 ******************************************
 Gaussian 16:  ES64L-G16RevB.01 20-Dec-2017
                23-Sep-2020 
 ******************************************
 %nproc=4
 Will use up to    4 processors via shared memory.
 %Chk=SM44_m0.n.9.pdb.xyz.mst.n.w.chk
 %mem=16GB
 ----------------------------------------------------------------------
 #p b3lyp/6-31G(d) opt freq NoSymm scf=(MaxCycle=2000,NoVarAcc,NoIncFoc
 k) scrf=(iefpcm,read,solvent=water)
 ----------------------------------------------------------------------
 1/18=20,19=15,26=3,38=1,40=2/1,3;
 2/9=110,12=2,15=1,17=6,18=5,40=1/2;
 3/5=1,6=6,7=1,11=2,25=1,30=1,70=2203,71=1,72=1,74=-5/1,2,3;
 4//1;
 5/5=100002,7=2000,38=1,53=1/2;
 6/7=2,8=2,9=2,10=2,28=1/1;
 7/30=1/1,2,3,16;
 1/18=20,19=15,26=3/3(2);
 2/9=110,15=1/2;
 99//99;
 2/9=110,15=1/2;
 3/5=1,6=6,7=1,11=2,25=1,30=1,70=2205,71=1,72=1,74=-5/1,2,3;
 4/5=5,16=3,69=1/1;
 5/5=100002,7=2000,38=1,53=1/2;
 7/30=1/1,2,3,16;
 1/18=20,19=15,26=3/3(-5);
 2/9=110,15=1/2;
 6/7=2,8=2,9=2,10=2,19=2,28=1/1;
 99/9=1/99;
 Leave Link    1 at Wed Sep 23 05:18:49 2020, MaxMem=  2147483648 cpu:               0.1 elap:               0.0
 (Enter /prod/apps/gaussian/g16b1/l101.exe)
 -------------------
 SM44_m0.n.9.pdb.xyz
 -------------------
 Symbolic Z-matrix:
 Charge =  0 Multiplicity = 1
 O                    -4.706     0.285    -0.689 
 S                    -3.487     0.143     0.115 
 N                    -2.271    -0.238    -1.004 
 C                    -0.951    -0.455    -0.561 
 N                    -0.581    -1.618     0.044 
 N                     0.699    -1.568     0.3 
 C                     0.16      0.35     -0.695 
 N                     1.167    -0.382    -0.161 
 C                     2.548    -0.051    -0.049 
 C                     3.488    -1.079     0.055 
 C                     4.838    -0.754     0.17 
 C                     5.247     0.581     0.167 
 C                     4.296     1.598     0.057 
 C                     2.94      1.289    -0.045 
 C                    -3.072     1.737     0.825 
 O                    -3.427    -0.865     1.178 
 H                    -2.342     0.37     -1.823 
 H                     0.301     1.323    -1.136 
 H                     3.157    -2.109     0.043 
 H                     5.571    -1.548     0.252 
 H                     6.299     0.829     0.25 
 H                     4.605     2.636     0.059 
 H                     2.201     2.078    -0.109 
 H                    -3.071     2.482     0.032 
 H                    -2.093     1.667     1.3 
 H                    -3.839     1.965     1.567 
 
 ITRead=  0  0  0  0  0  0  0  0  0  0  0  0  0  0  0  0  0  0  0  0
 ITRead=  0  0  0  0  0  0
 MicOpt= -1 -1 -1 -1 -1 -1 -1 -1 -1 -1 -1 -1 -1 -1 -1 -1 -1 -1 -1 -1
 MicOpt= -1 -1 -1 -1 -1 -1
 NAtoms=     26 NQM=       26 NQMF=       0 NMMI=      0 NMMIF=      0
                NMic=       0 NMicF=      0.
                    Isotopes and Nuclear Properties:
 (Nuclear quadrupole moments (NQMom) in fm**2, nuclear magnetic moments (NMagM)
  in nuclear magnetons)

  Atom         1           2           3           4           5           6           7           8           9          10
 IAtWgt=          16          32          14          12          14          14          12          14          12          12
 AtmWgt=  15.9949146  31.9720718  14.0030740  12.0000000  14.0030740  14.0030740  12.0000000  14.0030740  12.0000000  12.0000000
 NucSpn=           0           0           2           0           2           2           0           2           0           0
 AtZEff=  -0.0000000  -0.0000000  -0.0000000  -0.0000000  -0.0000000  -0.0000000  -0.0000000  -0.0000000  -0.0000000  -0.0000000
 NQMom=    0.0000000   0.0000000   2.0440000   0.0000000   2.0440000   2.0440000   0.0000000   2.0440000   0.0000000   0.0000000
 NMagM=    0.0000000   0.0000000   0.4037610   0.0000000   0.4037610   0.4037610   0.0000000   0.4037610   0.0000000   0.0000000
 AtZNuc=   8.0000000  16.0000000   7.0000000   6.0000000   7.0000000   7.0000000   6.0000000   7.0000000   6.0000000   6.0000000

  Atom        11          12          13          14          15          16          17          18          19          20
 IAtWgt=          12          12          12          12          12          16           1           1           1           1
 AtmWgt=  12.0000000  12.0000000  12.0000000  12.0000000  12.0000000  15.9949146   1.0078250   1.0078250   1.0078250   1.0078250
 NucSpn=           0           0           0           0           0           0           1           1           1           1
 AtZEff=  -0.0000000  -0.0000000  -0.0000000  -0.0000000  -0.0000000  -0.0000000  -0.0000000  -0.0000000  -0.0000000  -0.0000000
 NQMom=    0.0000000   0.0000000   0.0000000   0.0000000   0.0000000   0.0000000   0.0000000   0.0000000   0.0000000   0.0000000
 NMagM=    0.0000000   0.0000000   0.0000000   0.0000000   0.0000000   0.0000000   2.7928460   2.7928460   2.7928460   2.7928460
 AtZNuc=   6.0000000   6.0000000   6.0000000   6.0000000   6.0000000   8.0000000   1.0000000   1.0000000   1.0000000   1.0000000

  Atom        21          22          23          24          25          26
 IAtWgt=           1           1           1           1           1           1
 AtmWgt=   1.0078250   1.0078250   1.0078250   1.0078250   1.0078250   1.0078250
 NucSpn=           1           1           1           1           1           1
 AtZEff=  -0.0000000  -0.0000000  -0.0000000  -0.0000000  -0.0000000  -0.0000000
 NQMom=    0.0000000   0.0000000   0.0000000   0.0000000   0.0000000   0.0000000
 NMagM=    2.7928460   2.7928460   2.7928460   2.7928460   2.7928460   2.7928460
 AtZNuc=   1.0000000   1.0000000   1.0000000   1.0000000   1.0000000   1.0000000
 Leave Link  101 at Wed Sep 23 05:18:50 2020, MaxMem=  2147483648 cpu:               1.2 elap:               0.3
 (Enter /prod/apps/gaussian/g16b1/l103.exe)

 GradGradGradGradGradGradGradGradGradGradGradGradGradGradGradGradGradGrad
 Berny optimization.
 Initialization pass.
                           ----------------------------
                           !    Initial Parameters    !
                           ! (Angstroms and Degrees)  !
 --------------------------                            --------------------------
 ! Name  Definition              Value          Derivative Info.                !
 --------------------------------------------------------------------------------
 ! R1    R(1,2)                  1.4672         estimate D2E/DX2                !
 ! R2    R(2,3)                  1.6959         estimate D2E/DX2                !
 ! R3    R(2,15)                 1.7936         estimate D2E/DX2                !
 ! R4    R(2,16)                 1.4662         estimate D2E/DX2                !
 ! R5    R(3,4)                  1.4092         estimate D2E/DX2                !
 ! R6    R(3,17)                 1.0225         estimate D2E/DX2                !
 ! R7    R(4,5)                  1.3622         estimate D2E/DX2                !
 ! R8    R(4,7)                  1.3785         estimate D2E/DX2                !
 ! R9    R(5,6)                  1.3063         estimate D2E/DX2                !
 ! R10   R(6,8)                  1.3558         estimate D2E/DX2                !
 ! R11   R(7,8)                  1.3546         estimate D2E/DX2                !
 ! R12   R(7,18)                 1.0775         estimate D2E/DX2                !
 ! R13   R(8,9)                  1.4245         estimate D2E/DX2                !
 ! R14   R(9,10)                 1.3969         estimate D2E/DX2                !
 ! R15   R(9,14)                 1.3962         estimate D2E/DX2                !
 ! R16   R(10,11)                1.3933         estimate D2E/DX2                !
 ! R17   R(10,19)                1.0819         estimate D2E/DX2                !
 ! R18   R(11,12)                1.3963         estimate D2E/DX2                !
 ! R19   R(11,20)                1.0837         estimate D2E/DX2                !
 ! R20   R(12,13)                1.3967         estimate D2E/DX2                !
 ! R21   R(12,21)                1.084          estimate D2E/DX2                !
 ! R22   R(13,14)                1.3945         estimate D2E/DX2                !
 ! R23   R(13,22)                1.083          estimate D2E/DX2                !
 ! R24   R(14,23)                1.0829         estimate D2E/DX2                !
 ! R25   R(15,24)                1.0881         estimate D2E/DX2                !
 ! R26   R(15,25)                1.0904         estimate D2E/DX2                !
 ! R27   R(15,26)                1.0913         estimate D2E/DX2                !
 ! A1    A(1,2,3)              104.8275         estimate D2E/DX2                !
 ! A2    A(1,2,15)             108.8533         estimate D2E/DX2                !
 ! A3    A(1,2,16)             119.8582         estimate D2E/DX2                !
 ! A4    A(3,2,15)             107.1543         estimate D2E/DX2                !
 ! A5    A(3,2,16)             107.1333         estimate D2E/DX2                !
 ! A6    A(15,2,16)            108.332          estimate D2E/DX2                !
 ! A7    A(2,3,4)              119.9226         estimate D2E/DX2                !
 ! A8    A(2,3,17)             110.1906         estimate D2E/DX2                !
 ! A9    A(4,3,17)             114.1058         estimate D2E/DX2                !
 ! A10   A(3,4,5)              121.7048         estimate D2E/DX2                !
 ! A11   A(3,4,7)              129.38           estimate D2E/DX2                !
 ! A12   A(5,4,7)              108.8347         estimate D2E/DX2                !
 ! A13   A(4,5,6)              108.6942         estimate D2E/DX2                !
 ! A14   A(5,6,8)              107.7632         estimate D2E/DX2                !
 ! A15   A(4,7,8)              104.1962         estimate D2E/DX2                !
 ! A16   A(4,7,18)             132.2643         estimate D2E/DX2                !
 ! A17   A(8,7,18)             123.5046         estimate D2E/DX2                !
 ! A18   A(6,8,7)              110.4955         estimate D2E/DX2                !
 ! A19   A(6,8,9)              120.7417         estimate D2E/DX2                !
 ! A20   A(7,8,9)              128.7628         estimate D2E/DX2                !
 ! A21   A(8,9,10)             119.1589         estimate D2E/DX2                !
 ! A22   A(8,9,14)             119.6979         estimate D2E/DX2                !
 ! A23   A(10,9,14)            121.1432         estimate D2E/DX2                !
 ! A24   A(9,10,11)            119.1108         estimate D2E/DX2                !
 ! A25   A(9,10,19)            119.5977         estimate D2E/DX2                !
 ! A26   A(11,10,19)           121.2913         estimate D2E/DX2                !
 ! A27   A(10,11,12)           120.4419         estimate D2E/DX2                !
 ! A28   A(10,11,20)           119.386          estimate D2E/DX2                !
 ! A29   A(12,11,20)           120.1692         estimate D2E/DX2                !
 ! A30   A(11,12,13)           119.7963         estimate D2E/DX2                !
 ! A31   A(11,12,21)           120.1889         estimate D2E/DX2                !
 ! A32   A(13,12,21)           120.0148         estimate D2E/DX2                !
 ! A33   A(12,13,14)           120.4314         estimate D2E/DX2                !
 ! A34   A(12,13,22)           120.2293         estimate D2E/DX2                !
 ! A35   A(14,13,22)           119.3371         estimate D2E/DX2                !
 ! A36   A(9,14,13)            119.0714         estimate D2E/DX2                !
 ! A37   A(9,14,23)            120.4975         estimate D2E/DX2                !
 ! A38   A(13,14,23)           120.4276         estimate D2E/DX2                !
 ! A39   A(2,15,24)            108.6755         estimate D2E/DX2                !
 ! A40   A(2,15,25)            108.8518         estimate D2E/DX2                !
 ! A41   A(2,15,26)            106.9902         estimate D2E/DX2                !
 ! A42   A(24,15,25)           111.1383         estimate D2E/DX2                !
 ! A43   A(24,15,26)           110.6801         estimate D2E/DX2                !
 ! A44   A(25,15,26)           110.3813         estimate D2E/DX2                !
 ! D1    D(1,2,3,4)           -179.5453         estimate D2E/DX2                !
 ! D2    D(1,2,3,17)            44.9142         estimate D2E/DX2                !
 ! D3    D(15,2,3,4)            64.8884         estimate D2E/DX2                !
 ! D4    D(15,2,3,17)          -70.6521         estimate D2E/DX2                !
 ! D5    D(16,2,3,4)           -51.1905         estimate D2E/DX2                !
 ! D6    D(16,2,3,17)          173.2689         estimate D2E/DX2                !
 ! D7    D(1,2,15,24)          -50.6559         estimate D2E/DX2                !
 ! D8    D(1,2,15,25)         -171.8304         estimate D2E/DX2                !
 ! D9    D(1,2,15,26)           68.8864         estimate D2E/DX2                !
 ! D10   D(3,2,15,24)           62.1998         estimate D2E/DX2                !
 ! D11   D(3,2,15,25)          -58.9748         estimate D2E/DX2                !
 ! D12   D(3,2,15,26)         -178.2579         estimate D2E/DX2                !
 ! D13   D(16,2,15,24)         177.4816         estimate D2E/DX2                !
 ! D14   D(16,2,15,25)          56.307          estimate D2E/DX2                !
 ! D15   D(16,2,15,26)         -62.9761         estimate D2E/DX2                !
 ! D16   D(2,3,4,5)             76.779          estimate D2E/DX2                !
 ! D17   D(2,3,4,7)           -106.8641         estimate D2E/DX2                !
 ! D18   D(17,3,4,5)          -149.2894         estimate D2E/DX2                !
 ! D19   D(17,3,4,7)            27.0675         estimate D2E/DX2                !
 ! D20   D(3,4,5,6)            177.5256         estimate D2E/DX2                !
 ! D21   D(7,4,5,6)              0.5002         estimate D2E/DX2                !
 ! D22   D(3,4,7,8)           -176.4119         estimate D2E/DX2                !
 ! D23   D(3,4,7,18)             1.43           estimate D2E/DX2                !
 ! D24   D(5,4,7,8)              0.3138         estimate D2E/DX2                !
 ! D25   D(5,4,7,18)           178.1556         estimate D2E/DX2                !
 ! D26   D(4,5,6,8)             -1.1107         estimate D2E/DX2                !
 ! D27   D(5,6,8,7)              1.3503         estimate D2E/DX2                !
 ! D28   D(5,6,8,9)           -178.6473         estimate D2E/DX2                !
 ! D29   D(4,7,8,6)             -1.0025         estimate D2E/DX2                !
 ! D30   D(4,7,8,9)            178.9948         estimate D2E/DX2                !
 ! D31   D(18,7,8,6)          -179.0872         estimate D2E/DX2                !
 ! D32   D(18,7,8,9)             0.9101         estimate D2E/DX2                !
 ! D33   D(6,8,9,10)            23.9639         estimate D2E/DX2                !
 ! D34   D(6,8,9,14)          -156.0449         estimate D2E/DX2                !
 ! D35   D(7,8,9,10)          -156.0332         estimate D2E/DX2                !
 ! D36   D(7,8,9,14)            23.958          estimate D2E/DX2                !
 ! D37   D(8,9,10,11)         -179.74           estimate D2E/DX2                !
 ! D38   D(8,9,10,19)            0.3771         estimate D2E/DX2                !
 ! D39   D(14,9,10,11)           0.2689         estimate D2E/DX2                !
 ! D40   D(14,9,10,19)        -179.614          estimate D2E/DX2                !
 ! D41   D(8,9,14,13)         -179.61           estimate D2E/DX2                !
 ! D42   D(8,9,14,23)            1.0692         estimate D2E/DX2                !
 ! D43   D(10,9,14,13)           0.381          estimate D2E/DX2                !
 ! D44   D(10,9,14,23)        -178.9397         estimate D2E/DX2                !
 ! D45   D(9,10,11,12)          -0.6756         estimate D2E/DX2                !
 ! D46   D(9,10,11,20)         179.9367         estimate D2E/DX2                !
 ! D47   D(19,10,11,12)        179.2052         estimate D2E/DX2                !
 ! D48   D(19,10,11,20)         -0.1825         estimate D2E/DX2                !
 ! D49   D(10,11,12,13)          0.43           estimate D2E/DX2                !
 ! D50   D(10,11,12,21)       -179.5876         estimate D2E/DX2                !
 ! D51   D(20,11,12,13)        179.8129         estimate D2E/DX2                !
 ! D52   D(20,11,12,21)         -0.2047         estimate D2E/DX2                !
 ! D53   D(11,12,13,14)          0.2332         estimate D2E/DX2                !
 ! D54   D(11,12,13,22)        179.6889         estimate D2E/DX2                !
 ! D55   D(21,12,13,14)       -179.7492         estimate D2E/DX2                !
 ! D56   D(21,12,13,22)         -0.2935         estimate D2E/DX2                !
 ! D57   D(12,13,14,9)          -0.6318         estimate D2E/DX2                !
 ! D58   D(12,13,14,23)        178.6895         estimate D2E/DX2                !
 ! D59   D(22,13,14,9)         179.9077         estimate D2E/DX2                !
 ! D60   D(22,13,14,23)         -0.771          estimate D2E/DX2                !
 --------------------------------------------------------------------------------
 Trust Radius=3.00D-01 FncErr=1.00D-07 GrdErr=1.00D-06 EigMax=2.50D+02 EigMin=1.00D-04
 Number of steps in this run=    141 maximum allowed number of steps=    156.
 GradGradGradGradGradGradGradGradGradGradGradGradGradGradGradGradGradGrad

 Leave Link  103 at Wed Sep 23 05:18:50 2020, MaxMem=  2147483648 cpu:               0.1 elap:               0.0
 (Enter /prod/apps/gaussian/g16b1/l202.exe)
                          Input orientation:                          
 ---------------------------------------------------------------------
 Center     Atomic      Atomic             Coordinates (Angstroms)
 Number     Number       Type             X           Y           Z
 ---------------------------------------------------------------------
      1          8           0       -4.706000    0.285000   -0.689000
      2         16           0       -3.487000    0.143000    0.115000
      3          7           0       -2.271000   -0.238000   -1.004000
      4          6           0       -0.951000   -0.455000   -0.561000
      5          7           0       -0.581000   -1.618000    0.044000
      6          7           0        0.699000   -1.568000    0.300000
      7          6           0        0.160000    0.350000   -0.695000
      8          7           0        1.167000   -0.382000   -0.161000
      9          6           0        2.548000   -0.051000   -0.049000
     10          6           0        3.488000   -1.079000    0.055000
     11          6           0        4.838000   -0.754000    0.170000
     12          6           0        5.247000    0.581000    0.167000
     13          6           0        4.296000    1.598000    0.057000
     14          6           0        2.940000    1.289000   -0.045000
     15          6           0       -3.072000    1.737000    0.825000
     16          8           0       -3.427000   -0.865000    1.178000
     17          1           0       -2.342000    0.370000   -1.823000
     18          1           0        0.301000    1.323000   -1.136000
     19          1           0        3.157000   -2.109000    0.043000
     20          1           0        5.571000   -1.548000    0.252000
     21          1           0        6.299000    0.829000    0.250000
     22          1           0        4.605000    2.636000    0.059000
     23          1           0        2.201000    2.078000   -0.109000
     24          1           0       -3.071000    2.482000    0.032000
     25          1           0       -2.093000    1.667000    1.300000
     26          1           0       -3.839000    1.965000    1.567000
 ---------------------------------------------------------------------
                    Distance matrix (angstroms):
                    1          2          3          4          5
     1  O    0.000000
     2  S    1.467154   0.000000
     3  N    2.510374   1.695871   0.000000
     4  C    3.829361   2.691816   1.409162   0.000000
     5  N    4.601557   3.398676   2.420497   1.362165   0.000000
     6  N    5.798772   4.525963   3.505740   2.168546   1.306306
     7  C    4.866438   3.741598   2.520116   1.378514   2.228952
     8  N    5.934290   4.691643   3.542771   2.156676   2.150634
     9  C    7.289925   6.040344   4.916275   3.559264   3.500683
    10  C    8.340004   7.081491   5.915644   4.524771   4.104559
    11  C    9.638742   8.373366   7.223740   5.842626   5.488892
    12  C    9.994126   8.745130   7.652603   6.326016   6.230274
    13  C    9.127787   7.918048   6.900877   5.668134   5.841914
    14  C    7.738480   6.530333   5.514157   4.295075   4.566838
    15  C    2.659033   1.793645   2.808463   3.350299   4.251008
    16  O    2.538509   1.466163   2.547663   3.053326   3.154787
    17  H    2.623295   2.262388   1.022480   2.051378   3.246376
    18  H    5.132962   4.160090   3.011533   2.249314   3.289347
    19  H    8.251899   7.015656   5.836097   4.469474   3.770110
    20  H   10.481512   9.215509   8.049261   6.662740   6.155913
    21  H   11.058376   9.810944   8.726735   7.407353   7.305111
    22  H    9.632312   8.467505   7.527896   6.388100   6.707558
    23  H    7.159462   6.012299   5.115043   4.068845   4.628536
    24  H    2.831938   2.377155   3.018559   3.670425   4.796899
    25  H    3.562838   2.381184   2.994850   3.044728   3.828173
    26  H    2.943404   2.356245   3.731203   4.327277   5.076611
                    6          7          8          9         10
     6  N    0.000000
     7  C    2.226942   0.000000
     8  N    1.355781   1.354632   0.000000
     9  C    2.417000   2.506125   1.424523   0.000000
    10  C    2.842124   3.698665   2.433003   1.396854   0.000000
    11  C    4.220286   4.883720   3.704617   2.405467   1.393323
    12  C    5.031918   5.164685   4.204920   2.780410   2.421203
    13  C    4.798022   4.385146   3.709254   2.405398   2.796283
    14  C    3.647404   3.005432   2.439104   1.396166   2.432638
    15  C    5.041735   3.831448   4.840607   5.961981   7.180275
    16  O    4.276560   4.225035   4.809475   6.153759   7.008862
    17  H    4.184573   2.744593   3.954849   5.218852   6.294075
    18  H    3.252442   1.077539   2.146533   2.849290   4.164739
    19  H    2.529920   3.946306   2.642772   2.148187   1.081945
    20  H    4.872277   5.811896   4.574422   3.386759   2.144215
    21  H    6.091643   6.229750   5.288938   3.864428   3.402971
    22  H    5.743564   5.054932   4.580018   3.385688   3.879295
    23  H    3.964417   2.737711   2.668981   2.157927   3.413197
    24  H    5.539605   3.938694   5.118632   6.164074   7.463359
    25  H    4.388677   3.284893   4.118315   5.129348   6.343351
    26  H    5.889043   4.869997   5.792618   6.889810   8.076943
                   11         12         13         14         15
    11  C    0.000000
    12  C    1.396250   0.000000
    13  C    2.416286   1.396707   0.000000
    14  C    2.796869   2.422490   1.394497   0.000000
    15  C    8.318786   8.424670   7.409222   6.091120   0.000000
    16  O    8.326981   8.851628   8.183382   6.831847   2.649724
    17  H    7.535770   7.848410   7.007527   5.648484   3.068142
    18  H    5.157900   5.168297   4.178385   2.855829   3.923525
    19  H    2.162849   3.408750   3.878062   3.406059   7.362315
    20  H    1.083720   2.155190   3.400142   3.880585   9.263963
    21  H    2.155646   1.084019   2.154210   3.403161   9.432430
    22  H    3.399810   2.155656   1.083018   2.144167   7.767322
    23  H    3.879669   3.405187   2.155686   1.082930   5.365926
    24  H    8.546521   8.533531   7.419890   6.128727   1.088060
    25  H    7.428116   7.505910   6.509157   5.223313   1.090397
    26  H    9.199723   9.296819   8.282090   7.000740   1.091255
                   16         17         18         19         20
    16  O    0.000000
    17  H    3.421761   0.000000
    18  H    4.903053   2.892339   0.000000
    19  H    6.795941   6.313984   4.617943   0.000000
    20  H    9.071272   8.402376   6.159715   2.487126   0.000000
    21  H    9.915942   8.898027   6.175843   4.306606   2.485984
    22  H    8.833017   7.545693   4.655793   4.961047   4.298402
    23  H    6.480124   5.147223   2.287958   4.297442   4.963376
    24  H    3.555624   2.903965   3.752051   7.737273   9.538001
    25  H    2.864518   3.390773   3.432735   6.587923   8.376839
    26  H    2.886168   4.034493   4.985777   8.237965  10.130079
                   21         22         23         24         25
    21  H    0.000000
    22  H    2.484223   0.000000
    23  H    4.299126   2.473622   0.000000
    24  H    9.517186   7.677592   5.289337   0.000000
    25  H    8.498847   6.880570   4.537911   1.796812   0.000000
    26  H   10.286109   8.603804   6.269238   1.792579   1.791259
                   26
    26  H    0.000000
 Symmetry turned off by external request.
 Stoichiometry    C9H10N4O2S
 Framework group  C1[X(C9H10N4O2S)]
 Deg. of freedom    72
 Full point group                 C1      NOp   1
 Rotational constants (GHZ):           1.6289223           0.1994832           0.1873999
 Leave Link  202 at Wed Sep 23 05:18:50 2020, MaxMem=  2147483648 cpu:               0.0 elap:               0.0
 (Enter /prod/apps/gaussian/g16b1/l301.exe)
 Standard basis: 6-31G(d) (6D, 7F)
 Ernie: Thresh=  0.10000D-02 Tol=  0.10000D-05 Strict=F.
   264 basis functions,   512 primitive gaussians,   264 cartesian basis functions
    62 alpha electrons       62 beta electrons
       nuclear repulsion energy      1184.9992977703 Hartrees.
 IExCor=  402 DFT=T Ex+Corr=B3LYP ExCW=0 ScaHFX=  0.200000
 ScaDFX=  0.800000  0.720000  1.000000  0.810000 ScalE2=  1.000000  1.000000
 IRadAn=      5 IRanWt=     -1 IRanGd=            0 ICorTp=0 IEmpDi=  4
 NAtoms=   26 NActive=   26 NUniq=   26 SFac= 1.00D+00 NAtFMM=   60 NAOKFM=F Big=F
 Integral buffers will be    131072 words long.
 Raffenetti 2 integral format.
 Two-electron integral symmetry is turned off.
 Using the following non-standard input for PCM:
 MSTModel=DFT cav
 --- end of non-standard input.
 MST model for solvation energy: B3LYP parametrization.
 MST cavity parameters:
 ISph   IAn     Re0     Alpha   Atom Type   QCorr
 ------------------------------------------------
   1      8     1.40     1.25      O          F
   2     16     1.75     1.25      S          F
   3      7     1.50     1.25      NH         F
   4      6     1.50     1.25      C          F
   5      7     1.40     1.25      N          F
   6      7     1.40     1.25      N          F
   7      6     1.50     1.25      CH         F
   8      7     1.40     1.25      N          F
   9      6     1.50     1.25      C          F
  10      6     1.50     1.25      CH         F
  11      6     1.50     1.25      CH         F
  12      6     1.50     1.25      CH         F
  13      6     1.50     1.25      CH         F
  14      6     1.50     1.25      CH         F
  15      6     1.50     1.25      CH3        F
  16      8     1.40     1.25      O          F
  17      1     0.90     1.25      NH         F
  18      1     1.20     1.25      CH         F
  19      1     1.20     1.25      CH         F
  20      1     1.20     1.25      CH         F
  21      1     1.20     1.25      CH         F
  22      1     1.20     1.25      CH         F
  23      1     1.20     1.25      CH         F
  24      1     1.20     1.25      CH3        F
  25      1     1.20     1.25      CH3        F
  26      1     1.20     1.25      CH3        F
 ------------------------------------------------------------------------------
 Polarizable Continuum Model (PCM)
 =================================
 Model                : PCM.
 Atomic radii         : MST.
 Polarization charges : Total charges.
 Charge compensation  : None.
 Solution method      : On-the-fly selection.
 Cavity type          : Scaled VdW (van der Waals Surface) (Alpha=1.250).
 Cavity algorithm     : GePol (No added spheres)
                        Default sphere list used, NSphG=   26.
                        Lebedev-Laikov grids with approx.  5.0 points / Ang**2.
                        Smoothing algorithm: York/Karplus (Gamma=1.0000).
                        Polarization charges: spherical gaussians, with
                                              point-specific exponents (IZeta= 3).
                        Self-potential: point-specific (ISelfS= 7).
                        Self-field    : sphere-specific E.n sum rule (ISelfD= 2).
 1st derivatives      : Analytical E(r).r(x)/FMM algorithm (CHGder, D1EAlg=3).
                        Cavity 1st derivative terms included.
 Solvent              : Water, Eps=  78.355300 Eps(inf)=   1.777849
 ------------------------------------------------------------------------------
 GePol: Number of generator spheres                  =      26
 GePol: Total number of spheres                      =      26
 GePol: Number of exposed spheres                    =      26 (100.00%)
 GePol: Number of points                             =    2106
 GePol: Average weight of points                     =       0.13
 GePol: Minimum weight of points                     =   0.21D-10
 GePol: Maximum weight of points                     =    0.22001
 GePol: Number of points with low weight             =     130
 GePol: Fraction of low-weight points (<1% of avg)   =       6.17%
 GePol: Cavity surface area                          =    275.200 Ang**2
 GePol: Cavity volume                                =    254.834 Ang**3
 PCM non-electrostatic energy =         0.0029638193 Hartrees.
 Nuclear repulsion after PCM non-electrostatic terms =     1185.0022615896 Hartrees.
 Leave Link  301 at Wed Sep 23 05:18:50 2020, MaxMem=  2147483648 cpu:               0.3 elap:               0.1
 (Enter /prod/apps/gaussian/g16b1/l302.exe)
 NPDir=0 NMtPBC=     1 NCelOv=     1 NCel=       1 NClECP=     1 NCelD=      1
         NCelK=      1 NCelE2=     1 NClLst=     1 CellRange=     0.0.
 One-electron integrals computed using PRISM.
 NBasis=   264 RedAO= T EigKep=  4.68D-04  NBF=   264
 NBsUse=   264 1.00D-06 EigRej= -1.00D+00 NBFU=   264
 Precomputing XC quadrature grid using
 IXCGrd= 4 IRadAn=           5 IRanWt=          -1 IRanGd=           0 AccXCQ= 0.00D+00.
 Generated NRdTot=       0 NPtTot=           0 NUsed=           0 NTot=          32
 NSgBfM=   262   262   262   262   262 MxSgAt=    26 MxSgA2=    26.
 Leave Link  302 at Wed Sep 23 05:18:50 2020, MaxMem=  2147483648 cpu:               1.1 elap:               0.3
 (Enter /prod/apps/gaussian/g16b1/l303.exe)
 DipDrv:  MaxL=1.
 Leave Link  303 at Wed Sep 23 05:18:50 2020, MaxMem=  2147483648 cpu:               0.1 elap:               0.0
 (Enter /prod/apps/gaussian/g16b1/l401.exe)
 ExpMin= 1.17D-01 ExpMax= 2.19D+04 ExpMxC= 3.30D+03 IAcc=3 IRadAn=         5 AccDes= 0.00D+00
 Harris functional with IExCor=  402 and IRadAn=       5 diagonalized for initial guess.
 HarFok:  IExCor=  402 AccDes= 0.00D+00 IRadAn=         5 IDoV= 1 UseB2=F ITyADJ=14
 ICtDFT=  3500011 ScaDFX=  1.000000  1.000000  1.000000  1.000000
 FoFCou: FMM=F IPFlag=           0 FMFlag=      100000 FMFlg1=           0
         NFxFlg=           0 DoJE=T BraDBF=F KetDBF=T FulRan=T
         wScrn=  0.000000 ICntrl=       500 IOpCl=  0 I1Cent=   200000004 NGrid=           0
         NMat0=    1 NMatS0=      1 NMatT0=    0 NMatD0=    1 NMtDS0=    0 NMtDT0=    0
 Symmetry not used in FoFCou.
 Harris En= -1116.51847395891    
 JPrj=0 DoOrth=F DoCkMO=F.
 Leave Link  401 at Wed Sep 23 05:18:51 2020, MaxMem=  2147483648 cpu:               5.2 elap:               1.3
 (Enter /prod/apps/gaussian/g16b1/l502.exe)
 Keep R1 ints in memory in canonical form, NReq=621123487.
 FoFCou: FMM=F IPFlag=           0 FMFlag=           0 FMFlg1=           0
         NFxFlg=           0 DoJE=F BraDBF=F KetDBF=F FulRan=T
         wScrn=  0.000000 ICntrl=       600 IOpCl=  0 I1Cent=           0 NGrid=           0
         NMat0=    1 NMatS0=  34980 NMatT0=    0 NMatD0=    1 NMtDS0=    0 NMtDT0=    0
 Symmetry not used in FoFCou.
 Two-electron integral symmetry not used.
 Closed shell SCF:
 Using DIIS extrapolation, IDIIS=  1040.
 NGot=  2147483648 LenX=  1535522690 LenY=  1535452553
 Requested convergence on RMS density matrix=1.00D-08 within2000 cycles.
 Requested convergence on MAX density matrix=1.00D-06.
 Requested convergence on             energy=1.00D-06.
 No special actions if energy rises.

 Cycle   1  Pass 1  IDiag  1:
 Inv3:  Mode=1 IEnd=    13305708.
 Iteration    1 A*A^-1 deviation from unit magnitude is 2.89D-15 for   1650.
 Iteration    1 A*A^-1 deviation from orthogonality  is 1.87D-15 for   1485    309.
 Iteration    1 A^-1*A deviation from unit magnitude is 2.89D-15 for    995.
 Iteration    1 A^-1*A deviation from orthogonality  is 4.57D-15 for   1200   1188.
 E= -1116.05595925077    
 DIIS: error= 3.14D-02 at cycle   1 NSaved=   1.
 NSaved= 1 IEnMin= 1 EnMin= -1116.05595925077     IErMin= 1 ErrMin= 3.14D-02
 ErrMax= 3.14D-02  0.00D+00 EMaxC= 1.00D-01 BMatC= 5.66D-01 BMatP= 5.66D-01
 IDIUse=3 WtCom= 6.86D-01 WtEn= 3.14D-01
 Coeff-Com:  0.100D+01
 Coeff-En:   0.100D+01
 Coeff:      0.100D+01
 Gap=     0.291 Goal=   None    Shift=    0.000
 GapD=    0.291 DampG=1.000 DampE=0.500 DampFc=0.5000 IDamp=-1.
 Damping current iteration by 5.00D-01
 RMSDP=6.74D-03 MaxDP=5.48D-01              OVMax= 2.29D-01

 Cycle   2  Pass 1  IDiag  1:
 E= -1116.19167539180     Delta-E=       -0.135716141027 Rises=F Damp=T
 DIIS: error= 1.43D-02 at cycle   2 NSaved=   2.
 NSaved= 2 IEnMin= 2 EnMin= -1116.19167539180     IErMin= 2 ErrMin= 1.43D-02
 ErrMax= 1.43D-02  0.00D+00 EMaxC= 1.00D-01 BMatC= 7.59D-02 BMatP= 5.66D-01
 IDIUse=3 WtCom= 8.57D-01 WtEn= 1.43D-01
 Coeff-Com:  0.211D+00 0.789D+00
 Coeff-En:   0.341D+00 0.659D+00
 Coeff:      0.230D+00 0.770D+00
 Gap=     0.217 Goal=   None    Shift=    0.000
 RMSDP=1.80D-03 MaxDP=1.13D-01 DE=-1.36D-01 OVMax= 1.64D-01

 Cycle   3  Pass 1  IDiag  1:
 E= -1116.50840069565     Delta-E=       -0.316725303849 Rises=F Damp=F
 DIIS: error= 9.00D-03 at cycle   3 NSaved=   3.
 NSaved= 3 IEnMin= 3 EnMin= -1116.50840069565     IErMin= 3 ErrMin= 9.00D-03
 ErrMax= 9.00D-03  0.00D+00 EMaxC= 1.00D-01 BMatC= 3.35D-02 BMatP= 7.59D-02
 IDIUse=3 WtCom= 9.10D-01 WtEn= 9.00D-02
 Coeff-Com:  0.615D-01 0.401D+00 0.537D+00
 Coeff-En:   0.000D+00 0.000D+00 0.100D+01
 Coeff:      0.560D-01 0.365D+00 0.579D+00
 Gap=     0.201 Goal=   None    Shift=    0.000
 RMSDP=8.76D-04 MaxDP=2.83D-02 DE=-3.17D-01 OVMax= 4.62D-02

 Cycle   4  Pass 1  IDiag  1:
 E= -1116.53394500566     Delta-E=       -0.025544310010 Rises=F Damp=F
 DIIS: error= 3.40D-03 at cycle   4 NSaved=   4.
 NSaved= 4 IEnMin= 4 EnMin= -1116.53394500566     IErMin= 4 ErrMin= 3.40D-03
 ErrMax= 3.40D-03  0.00D+00 EMaxC= 1.00D-01 BMatC= 5.14D-03 BMatP= 3.35D-02
 IDIUse=3 WtCom= 9.66D-01 WtEn= 3.40D-02
 Coeff-Com:  0.287D-02 0.733D-01 0.300D+00 0.624D+00
 Coeff-En:   0.000D+00 0.000D+00 0.111D+00 0.889D+00
 Coeff:      0.277D-02 0.709D-01 0.293D+00 0.633D+00
 Gap=     0.199 Goal=   None    Shift=    0.000
 RMSDP=2.83D-04 MaxDP=1.09D-02 DE=-2.55D-02 OVMax= 1.40D-02

 Cycle   5  Pass 1  IDiag  1:
 E= -1116.53806514567     Delta-E=       -0.004120140015 Rises=F Damp=F
 DIIS: error= 5.85D-04 at cycle   5 NSaved=   5.
 NSaved= 5 IEnMin= 5 EnMin= -1116.53806514567     IErMin= 5 ErrMin= 5.85D-04
 ErrMax= 5.85D-04  0.00D+00 EMaxC= 1.00D-01 BMatC= 3.78D-04 BMatP= 5.14D-03
 IDIUse=3 WtCom= 9.94D-01 WtEn= 5.85D-03
 Coeff-Com: -0.210D-02 0.156D-01 0.118D+00 0.329D+00 0.539D+00
 Coeff-En:   0.000D+00 0.000D+00 0.000D+00 0.000D+00 0.100D+01
 Coeff:     -0.209D-02 0.155D-01 0.117D+00 0.327D+00 0.542D+00
 Gap=     0.199 Goal=   None    Shift=    0.000
 RMSDP=8.59D-05 MaxDP=4.80D-03 DE=-4.12D-03 OVMax= 5.46D-03

 Cycle   6  Pass 1  IDiag  1:
 E= -1116.53836509897     Delta-E=       -0.000299953296 Rises=F Damp=F
 DIIS: error= 2.12D-04 at cycle   6 NSaved=   6.
 NSaved= 6 IEnMin= 6 EnMin= -1116.53836509897     IErMin= 6 ErrMin= 2.12D-04
 ErrMax= 2.12D-04  0.00D+00 EMaxC= 1.00D-01 BMatC= 3.50D-05 BMatP= 3.78D-04
 IDIUse=3 WtCom= 9.98D-01 WtEn= 2.12D-03
 Coeff-Com: -0.147D-02 0.254D-02 0.399D-01 0.127D+00 0.300D+00 0.531D+00
 Coeff-En:   0.000D+00 0.000D+00 0.000D+00 0.000D+00 0.000D+00 0.100D+01
 Coeff:     -0.147D-02 0.253D-02 0.398D-01 0.127D+00 0.300D+00 0.532D+00
 Gap=     0.199 Goal=   None    Shift=    0.000
 RMSDP=2.37D-05 MaxDP=1.20D-03 DE=-3.00D-04 OVMax= 1.48D-03

 Cycle   7  Pass 1  IDiag  1:
 E= -1116.53839327623     Delta-E=       -0.000028177265 Rises=F Damp=F
 DIIS: error= 5.48D-05 at cycle   7 NSaved=   7.
 NSaved= 7 IEnMin= 7 EnMin= -1116.53839327623     IErMin= 7 ErrMin= 5.48D-05
 ErrMax= 5.48D-05  0.00D+00 EMaxC= 1.00D-01 BMatC= 2.42D-06 BMatP= 3.50D-05
 IDIUse=1 WtCom= 1.00D+00 WtEn= 0.00D+00
 Coeff-Com: -0.592D-03 0.252D-03 0.115D-01 0.397D-01 0.113D+00 0.281D+00
 Coeff-Com:  0.555D+00
 Coeff:     -0.592D-03 0.252D-03 0.115D-01 0.397D-01 0.113D+00 0.281D+00
 Coeff:      0.555D+00
 Gap=     0.199 Goal=   None    Shift=    0.000
 RMSDP=7.05D-06 MaxDP=3.32D-04 DE=-2.82D-05 OVMax= 4.79D-04

 Cycle   8  Pass 1  IDiag  1:
 E= -1116.53839517577     Delta-E=       -0.000001899533 Rises=F Damp=F
 DIIS: error= 2.28D-05 at cycle   8 NSaved=   8.
 NSaved= 8 IEnMin= 8 EnMin= -1116.53839517577     IErMin= 8 ErrMin= 2.28D-05
 ErrMax= 2.28D-05  0.00D+00 EMaxC= 1.00D-01 BMatC= 3.53D-07 BMatP= 2.42D-06
 IDIUse=1 WtCom= 1.00D+00 WtEn= 0.00D+00
 Coeff-Com: -0.216D-03-0.209D-03 0.273D-02 0.107D-01 0.372D-01 0.112D+00
 Coeff-Com:  0.329D+00 0.509D+00
 Coeff:     -0.216D-03-0.209D-03 0.273D-02 0.107D-01 0.372D-01 0.112D+00
 Coeff:      0.329D+00 0.509D+00
 Gap=     0.199 Goal=   None    Shift=    0.000
 RMSDP=2.63D-06 MaxDP=1.22D-04 DE=-1.90D-06 OVMax= 1.72D-04

 Cycle   9  Pass 1  IDiag  1:
 E= -1116.53839546471     Delta-E=       -0.000000288941 Rises=F Damp=F
 DIIS: error= 6.56D-06 at cycle   9 NSaved=   9.
 NSaved= 9 IEnMin= 9 EnMin= -1116.53839546471     IErMin= 9 ErrMin= 6.56D-06
 ErrMax= 6.56D-06  0.00D+00 EMaxC= 1.00D-01 BMatC= 3.04D-08 BMatP= 3.53D-07
 IDIUse=1 WtCom= 1.00D+00 WtEn= 0.00D+00
 Coeff-Com: -0.145D-04-0.127D-03-0.405D-03-0.842D-03 0.127D-02 0.137D-01
 Coeff-Com:  0.864D-01 0.268D+00 0.632D+00
 Coeff:     -0.145D-04-0.127D-03-0.405D-03-0.842D-03 0.127D-02 0.137D-01
 Coeff:      0.864D-01 0.268D+00 0.632D+00
 Gap=     0.199 Goal=   None    Shift=    0.000
 RMSDP=7.62D-07 MaxDP=2.86D-05 DE=-2.89D-07 OVMax= 4.33D-05

 Cycle  10  Pass 1  IDiag  1:
 E= -1116.53839549236     Delta-E=       -0.000000027646 Rises=F Damp=F
 DIIS: error= 1.98D-06 at cycle  10 NSaved=  10.
 NSaved=10 IEnMin=10 EnMin= -1116.53839549236     IErMin=10 ErrMin= 1.98D-06
 ErrMax= 1.98D-06  0.00D+00 EMaxC= 1.00D-01 BMatC= 1.50D-09 BMatP= 3.04D-08
 IDIUse=1 WtCom= 1.00D+00 WtEn= 0.00D+00
 Coeff-Com:  0.742D-06-0.448D-04-0.274D-03-0.757D-03-0.871D-03 0.146D-02
 Coeff-Com:  0.274D-01 0.981D-01 0.289D+00 0.586D+00
 Coeff:      0.742D-06-0.448D-04-0.274D-03-0.757D-03-0.871D-03 0.146D-02
 Coeff:      0.274D-01 0.981D-01 0.289D+00 0.586D+00
 Gap=     0.199 Goal=   None    Shift=    0.000
 RMSDP=1.95D-07 MaxDP=8.95D-06 DE=-2.76D-08 OVMax= 1.26D-05

 Cycle  11  Pass 1  IDiag  1:
 E= -1116.53839549354     Delta-E=       -0.000000001186 Rises=F Damp=F
 DIIS: error= 7.06D-07 at cycle  11 NSaved=  11.
 NSaved=11 IEnMin=11 EnMin= -1116.53839549354     IErMin=11 ErrMin= 7.06D-07
 ErrMax= 7.06D-07  0.00D+00 EMaxC= 1.00D-01 BMatC= 3.11D-10 BMatP= 1.50D-09
 IDIUse=1 WtCom= 1.00D+00 WtEn= 0.00D+00
 Coeff-Com:  0.265D-05-0.523D-05-0.105D-03-0.329D-03-0.750D-03-0.141D-02
 Coeff-Com:  0.327D-02 0.148D-01 0.695D-01 0.338D+00 0.577D+00
 Coeff:      0.265D-05-0.523D-05-0.105D-03-0.329D-03-0.750D-03-0.141D-02
 Coeff:      0.327D-02 0.148D-01 0.695D-01 0.338D+00 0.577D+00
 Gap=     0.199 Goal=   None    Shift=    0.000
 RMSDP=6.96D-08 MaxDP=4.78D-06 DE=-1.19D-09 OVMax= 5.25D-06

 Cycle  12  Pass 1  IDiag  1:
 E= -1116.53839549379     Delta-E=       -0.000000000253 Rises=F Damp=F
 DIIS: error= 2.03D-07 at cycle  12 NSaved=  12.
 NSaved=12 IEnMin=12 EnMin= -1116.53839549379     IErMin=12 ErrMin= 2.03D-07
 ErrMax= 2.03D-07  0.00D+00 EMaxC= 1.00D-01 BMatC= 3.60D-11 BMatP= 3.11D-10
 IDIUse=1 WtCom= 1.00D+00 WtEn= 0.00D+00
 Coeff-Com:  0.160D-05 0.874D-06-0.421D-04-0.138D-03-0.414D-03-0.115D-02
 Coeff-Com: -0.904D-03-0.158D-02 0.120D-01 0.150D+00 0.344D+00 0.497D+00
 Coeff:      0.160D-05 0.874D-06-0.421D-04-0.138D-03-0.414D-03-0.115D-02
 Coeff:     -0.904D-03-0.158D-02 0.120D-01 0.150D+00 0.344D+00 0.497D+00
 Gap=     0.199 Goal=   None    Shift=    0.000
 RMSDP=2.26D-08 MaxDP=1.29D-06 DE=-2.53D-10 OVMax= 1.17D-06

 Cycle  13  Pass 1  IDiag  1:
 E= -1116.53839549383     Delta-E=       -0.000000000030 Rises=F Damp=F
 DIIS: error= 6.07D-08 at cycle  13 NSaved=  13.
 NSaved=13 IEnMin=13 EnMin= -1116.53839549383     IErMin=13 ErrMin= 6.07D-08
 ErrMax= 6.07D-08  0.00D+00 EMaxC= 1.00D-01 BMatC= 1.62D-12 BMatP= 3.60D-11
 IDIUse=1 WtCom= 1.00D+00 WtEn= 0.00D+00
 Coeff-Com:  0.332D-06 0.830D-06-0.569D-05-0.183D-04-0.816D-04-0.307D-03
 Coeff-Com: -0.604D-03-0.228D-02-0.294D-02 0.257D-01 0.758D-01 0.206D+00
 Coeff-Com:  0.699D+00
 Coeff:      0.332D-06 0.830D-06-0.569D-05-0.183D-04-0.816D-04-0.307D-03
 Coeff:     -0.604D-03-0.228D-02-0.294D-02 0.257D-01 0.758D-01 0.206D+00
 Coeff:      0.699D+00
 Gap=     0.199 Goal=   None    Shift=    0.000
 RMSDP=6.63D-09 MaxDP=2.52D-07 DE=-3.05D-11 OVMax= 5.26D-07

 Error on total polarization charges =  0.01962
 SCF Done:  E(RB3LYP) =  -1116.53839549     A.U. after   13 cycles
            NFock= 13  Conv=0.66D-08     -V/T= 2.0074
 KE= 1.108369089221D+03 PE=-4.986822028551D+03 EE= 1.576912282246D+03
 Leave Link  502 at Wed Sep 23 05:19:32 2020, MaxMem=  2147483648 cpu:             130.0 elap:              40.3
 (Enter /prod/apps/gaussian/g16b1/l601.exe)
 Copying SCF densities to generalized density rwf, IOpCl= 0 IROHF=0.

 **********************************************************************

            Population analysis using the SCF Density.

 **********************************************************************

 Alpha  occ. eigenvalues --  -89.12480 -19.15584 -19.15547 -14.44691 -14.40462
 Alpha  occ. eigenvalues --  -14.38411 -14.37164 -10.26452 -10.25146 -10.24512
 Alpha  occ. eigenvalues --  -10.22389 -10.20698 -10.20422 -10.20201 -10.20139
 Alpha  occ. eigenvalues --  -10.19908  -8.15063  -6.11562  -6.11489  -6.11333
 Alpha  occ. eigenvalues --   -1.12392  -1.11367  -1.01317  -0.95769  -0.93042
 Alpha  occ. eigenvalues --   -0.86137  -0.81239  -0.77513  -0.76391  -0.75823
 Alpha  occ. eigenvalues --   -0.66851  -0.66428  -0.63033  -0.60919  -0.58728
 Alpha  occ. eigenvalues --   -0.56465  -0.53838  -0.52574  -0.49887  -0.49777
 Alpha  occ. eigenvalues --   -0.48746  -0.48175  -0.46957  -0.45456  -0.44551
 Alpha  occ. eigenvalues --   -0.43744  -0.43354  -0.43322  -0.38977  -0.37317
 Alpha  occ. eigenvalues --   -0.36536  -0.35794  -0.34964  -0.34056  -0.33081
 Alpha  occ. eigenvalues --   -0.32030  -0.31988  -0.31461  -0.28895  -0.26678
 Alpha  occ. eigenvalues --   -0.26306  -0.24434
 Alpha virt. eigenvalues --   -0.04524  -0.01492   0.01065   0.02177   0.06905
 Alpha virt. eigenvalues --    0.07364   0.08977   0.09877   0.10407   0.11038
 Alpha virt. eigenvalues --    0.12473   0.13824   0.15045   0.15157   0.15613
 Alpha virt. eigenvalues --    0.16132   0.16519   0.18367   0.19045   0.19838
 Alpha virt. eigenvalues --    0.21362   0.23343   0.24741   0.29386   0.30230
 Alpha virt. eigenvalues --    0.31220   0.32729   0.33569   0.35458   0.36548
 Alpha virt. eigenvalues --    0.39100   0.42452   0.43000   0.43429   0.48183
 Alpha virt. eigenvalues --    0.48725   0.50597   0.51951   0.52047   0.52692
 Alpha virt. eigenvalues --    0.54091   0.54801   0.56182   0.56907   0.57607
 Alpha virt. eigenvalues --    0.58075   0.58579   0.60000   0.60453   0.60886
 Alpha virt. eigenvalues --    0.61540   0.62395   0.63448   0.64458   0.66696
 Alpha virt. eigenvalues --    0.67610   0.68645   0.69895   0.70741   0.72685
 Alpha virt. eigenvalues --    0.74488   0.76795   0.77917   0.78753   0.79157
 Alpha virt. eigenvalues --    0.81214   0.81556   0.83627   0.84003   0.84149
 Alpha virt. eigenvalues --    0.85137   0.86314   0.87152   0.87604   0.88693
 Alpha virt. eigenvalues --    0.89262   0.90560   0.91817   0.93316   0.94129
 Alpha virt. eigenvalues --    0.95276   0.95964   0.97510   0.99018   1.00630
 Alpha virt. eigenvalues --    1.00982   1.02153   1.04410   1.05320   1.06117
 Alpha virt. eigenvalues --    1.07608   1.11469   1.13808   1.14818   1.15549
 Alpha virt. eigenvalues --    1.16636   1.18748   1.18841   1.19692   1.24468
 Alpha virt. eigenvalues --    1.24964   1.25926   1.30029   1.32176   1.34912
 Alpha virt. eigenvalues --    1.36762   1.39679   1.41755   1.42655   1.44404
 Alpha virt. eigenvalues --    1.46060   1.47072   1.47909   1.49767   1.51073
 Alpha virt. eigenvalues --    1.53215   1.55529   1.57807   1.61222   1.64446
 Alpha virt. eigenvalues --    1.68657   1.71891   1.74600   1.77808   1.78495
 Alpha virt. eigenvalues --    1.79059   1.79718   1.81053   1.81412   1.83616
 Alpha virt. eigenvalues --    1.85344   1.86210   1.87949   1.89747   1.91002
 Alpha virt. eigenvalues --    1.94360   1.96189   1.96701   2.00474   2.03211
 Alpha virt. eigenvalues --    2.05319   2.06081   2.07510   2.09249   2.10359
 Alpha virt. eigenvalues --    2.11421   2.13216   2.13414   2.14678   2.16153
 Alpha virt. eigenvalues --    2.19640   2.20006   2.21853   2.23346   2.24566
 Alpha virt. eigenvalues --    2.25844   2.28629   2.29061   2.29335   2.31711
 Alpha virt. eigenvalues --    2.34690   2.36783   2.38540   2.48537   2.50429
 Alpha virt. eigenvalues --    2.54069   2.56363   2.58020   2.58770   2.63014
 Alpha virt. eigenvalues --    2.64475   2.66947   2.69475   2.71471   2.73129
 Alpha virt. eigenvalues --    2.73972   2.76021   2.76592   2.81822   2.86403
 Alpha virt. eigenvalues --    2.88738   3.00220   3.06047   3.13100   3.25443
 Alpha virt. eigenvalues --    3.42199   3.60590   3.75791   3.87770   3.93596
 Alpha virt. eigenvalues --    3.96912   4.06454   4.08004   4.10118   4.10695
 Alpha virt. eigenvalues --    4.15312   4.19145   4.23660   4.31661   4.39018
 Alpha virt. eigenvalues --    4.48582   4.70975
          Condensed to atoms (all electrons):
               1          2          3          4          5          6
     1  O    8.267857   0.449427  -0.051468   0.001491  -0.000018   0.000000
     2  S    0.449427  13.624793   0.135839  -0.016181   0.002390   0.000112
     3  N   -0.051468   0.135839   7.371455   0.257327  -0.058829   0.005689
     4  C    0.001491  -0.016181   0.257327   4.649349   0.367616  -0.082558
     5  N   -0.000018   0.002390  -0.058829   0.367616   6.894892   0.300411
     6  N    0.000000   0.000112   0.005689  -0.082558   0.300411   6.775643
     7  C   -0.000035  -0.004568  -0.070938   0.522689  -0.070462  -0.099599
     8  N    0.000000   0.000300   0.003287  -0.035621  -0.095443   0.229372
     9  C   -0.000000  -0.000011  -0.000104   0.004326   0.006623  -0.043369
    10  C    0.000000  -0.000000   0.000000  -0.000444   0.000365  -0.000610
    11  C   -0.000000  -0.000000  -0.000000   0.000005  -0.000005   0.000274
    12  C   -0.000000  -0.000000  -0.000000   0.000000  -0.000000   0.000018
    13  C    0.000000   0.000000   0.000000  -0.000009   0.000003  -0.000065
    14  C    0.000000   0.000001   0.000002   0.000990  -0.000349   0.002924
    15  C   -0.058414   0.235704  -0.060759  -0.001738  -0.000040   0.000005
    16  O   -0.043925   0.443264  -0.052171  -0.000874   0.000957   0.000050
    17  H    0.001026  -0.004566   0.299953  -0.027299   0.001801  -0.000061
    18  H   -0.000001  -0.000004  -0.000384  -0.025666   0.004092   0.003476
    19  H   -0.000000  -0.000000  -0.000000   0.000039  -0.000344   0.016218
    20  H    0.000000   0.000000   0.000000  -0.000000   0.000000  -0.000008
    21  H   -0.000000  -0.000000  -0.000000  -0.000000   0.000000   0.000000
    22  H   -0.000000   0.000000   0.000000   0.000000  -0.000000   0.000001
    23  H    0.000000   0.000000  -0.000002   0.000070  -0.000008  -0.000084
    24  H    0.000037  -0.008508   0.000090   0.000233  -0.000004  -0.000001
    25  H    0.001775  -0.008237  -0.002297   0.002434  -0.000020  -0.000038
    26  H   -0.000436  -0.012976   0.002226   0.000027  -0.000002  -0.000000
               7          8          9         10         11         12
     1  O   -0.000035   0.000000  -0.000000   0.000000  -0.000000  -0.000000
     2  S   -0.004568   0.000300  -0.000011  -0.000000  -0.000000  -0.000000
     3  N   -0.070938   0.003287  -0.000104   0.000000  -0.000000  -0.000000
     4  C    0.522689  -0.035621   0.004326  -0.000444   0.000005   0.000000
     5  N   -0.070462  -0.095443   0.006623   0.000365  -0.000005  -0.000000
     6  N   -0.099599   0.229372  -0.043369  -0.000610   0.000274   0.000018
     7  C    4.995731   0.333184  -0.032252   0.007365  -0.000082   0.000020
     8  N    0.333184   6.874221   0.201898  -0.059142   0.004564   0.000332
     9  C   -0.032252   0.201898   4.621700   0.513019  -0.010642  -0.038273
    10  C    0.007365  -0.059142   0.513019   4.999233   0.518895  -0.039294
    11  C   -0.000082   0.004564  -0.010642   0.518895   4.880105   0.539030
    12  C    0.000020   0.000332  -0.038273  -0.039294   0.539030   4.871941
    13  C   -0.000016   0.004653  -0.009498  -0.041396  -0.024776   0.543098
    14  C   -0.006818  -0.050931   0.529635  -0.072095  -0.041995  -0.040798
    15  C    0.000064  -0.000026   0.000001   0.000000  -0.000000   0.000000
    16  O   -0.000103   0.000002   0.000000  -0.000000  -0.000000   0.000000
    17  H   -0.001377   0.000007  -0.000002   0.000000   0.000000   0.000000
    18  H    0.362339  -0.034093  -0.001745  -0.000099  -0.000004  -0.000001
    19  H    0.000252  -0.013710  -0.039506   0.356976  -0.037998   0.004510
    20  H    0.000001  -0.000103   0.003554  -0.037817   0.364117  -0.040226
    21  H   -0.000000   0.000003   0.000470   0.004682  -0.041585   0.366074
    22  H   -0.000003  -0.000109   0.003443   0.000728   0.004448  -0.039652
    23  H    0.005656  -0.009231  -0.039082   0.005215   0.000204   0.004295
    24  H    0.000204   0.000000   0.000000  -0.000000   0.000000  -0.000000
    25  H    0.002878  -0.000100  -0.000001   0.000000   0.000000   0.000000
    26  H   -0.000022   0.000001  -0.000000  -0.000000  -0.000000   0.000000
              13         14         15         16         17         18
     1  O    0.000000   0.000000  -0.058414  -0.043925   0.001026  -0.000001
     2  S    0.000000   0.000001   0.235704   0.443264  -0.004566  -0.000004
     3  N    0.000000   0.000002  -0.060759  -0.052171   0.299953  -0.000384
     4  C   -0.000009   0.000990  -0.001738  -0.000874  -0.027299  -0.025666
     5  N    0.000003  -0.000349  -0.000040   0.000957   0.001801   0.004092
     6  N   -0.000065   0.002924   0.000005   0.000050  -0.000061   0.003476
     7  C   -0.000016  -0.006818   0.000064  -0.000103  -0.001377   0.362339
     8  N    0.004653  -0.050931  -0.000026   0.000002   0.000007  -0.034093
     9  C   -0.009498   0.529635   0.000001   0.000000  -0.000002  -0.001745
    10  C   -0.041396  -0.072095   0.000000  -0.000000   0.000000  -0.000099
    11  C   -0.024776  -0.041995  -0.000000  -0.000000   0.000000  -0.000004
    12  C    0.543098  -0.040798   0.000000   0.000000   0.000000  -0.000001
    13  C    4.865527   0.526467  -0.000000   0.000000  -0.000000   0.000163
    14  C    0.526467   4.992826  -0.000001   0.000000   0.000000   0.002093
    15  C   -0.000000  -0.000001   5.529524  -0.058813   0.000080   0.000063
    16  O    0.000000   0.000000  -0.058813   8.275598   0.001289  -0.000000
    17  H   -0.000000   0.000000   0.000080   0.001289   0.303415   0.000682
    18  H    0.000163   0.002093   0.000063  -0.000000   0.000682   0.458965
    19  H    0.000087   0.005463   0.000000   0.000000   0.000000  -0.000010
    20  H    0.004478   0.000701  -0.000000   0.000000  -0.000000   0.000000
    21  H   -0.041307   0.004878   0.000000   0.000000   0.000000  -0.000000
    22  H    0.363838  -0.037771   0.000000  -0.000000   0.000000  -0.000001
    23  H   -0.035195   0.354462  -0.000001   0.000000   0.000000   0.001475
    24  H    0.000000   0.000000   0.343969   0.001862  -0.000003   0.000017
    25  H   -0.000000   0.000001   0.342111  -0.000245   0.000144   0.000041
    26  H    0.000000  -0.000000   0.355190  -0.000082  -0.000008   0.000001
              19         20         21         22         23         24
     1  O   -0.000000   0.000000  -0.000000  -0.000000   0.000000   0.000037
     2  S   -0.000000   0.000000  -0.000000   0.000000   0.000000  -0.008508
     3  N   -0.000000   0.000000  -0.000000   0.000000  -0.000002   0.000090
     4  C    0.000039  -0.000000  -0.000000   0.000000   0.000070   0.000233
     5  N   -0.000344   0.000000   0.000000  -0.000000  -0.000008  -0.000004
     6  N    0.016218  -0.000008   0.000000   0.000001  -0.000084  -0.000001
     7  C    0.000252   0.000001  -0.000000  -0.000003   0.005656   0.000204
     8  N   -0.013710  -0.000103   0.000003  -0.000109  -0.009231   0.000000
     9  C   -0.039506   0.003554   0.000470   0.003443  -0.039082   0.000000
    10  C    0.356976  -0.037817   0.004682   0.000728   0.005215  -0.000000
    11  C   -0.037998   0.364117  -0.041585   0.004448   0.000204   0.000000
    12  C    0.004510  -0.040226   0.366074  -0.039652   0.004295  -0.000000
    13  C    0.000087   0.004478  -0.041307   0.363838  -0.035195   0.000000
    14  C    0.005463   0.000701   0.004878  -0.037771   0.354462   0.000000
    15  C    0.000000  -0.000000   0.000000   0.000000  -0.000001   0.343969
    16  O    0.000000   0.000000   0.000000  -0.000000   0.000000   0.001862
    17  H    0.000000  -0.000000   0.000000   0.000000   0.000000  -0.000003
    18  H   -0.000010   0.000000  -0.000000  -0.000001   0.001475   0.000017
    19  H    0.538406  -0.005127  -0.000134   0.000013  -0.000129   0.000000
    20  H   -0.005127   0.551711  -0.005094  -0.000165   0.000013  -0.000000
    21  H   -0.000134  -0.005094   0.557016  -0.005092  -0.000144   0.000000
    22  H    0.000013  -0.000165  -0.005092   0.550916  -0.005113   0.000000
    23  H   -0.000129   0.000013  -0.000144  -0.005113   0.541498  -0.000000
    24  H    0.000000  -0.000000   0.000000   0.000000  -0.000000   0.471377
    25  H    0.000000  -0.000000  -0.000000  -0.000000   0.000007  -0.020550
    26  H   -0.000000   0.000000   0.000000   0.000000  -0.000000  -0.018082
              25         26
     1  O    0.001775  -0.000436
     2  S   -0.008237  -0.012976
     3  N   -0.002297   0.002226
     4  C    0.002434   0.000027
     5  N   -0.000020  -0.000002
     6  N   -0.000038  -0.000000
     7  C    0.002878  -0.000022
     8  N   -0.000100   0.000001
     9  C   -0.000001  -0.000000
    10  C    0.000000  -0.000000
    11  C    0.000000  -0.000000
    12  C    0.000000   0.000000
    13  C   -0.000000   0.000000
    14  C    0.000001  -0.000000
    15  C    0.342111   0.355190
    16  O   -0.000245  -0.000082
    17  H    0.000144  -0.000008
    18  H    0.000041   0.000001
    19  H    0.000000  -0.000000
    20  H   -0.000000   0.000000
    21  H   -0.000000   0.000000
    22  H   -0.000000   0.000000
    23  H    0.000007  -0.000000
    24  H   -0.020550  -0.018082
    25  H    0.472445  -0.019554
    26  H   -0.019554   0.456674
 Mulliken charges:
               1
     1  O   -0.567315
     2  S    1.163219
     3  N   -0.778917
     4  C    0.383794
     5  N   -0.353627
     6  N   -0.107799
     7  C    0.055890
     8  N   -0.353316
     9  C    0.329814
    10  C   -0.155583
    11  C   -0.154555
    12  C   -0.131073
    13  C   -0.156052
    14  C   -0.169685
    15  C   -0.626920
    16  O   -0.566809
    17  H    0.424918
    18  H    0.228602
    19  H    0.174994
    20  H    0.163965
    21  H    0.160232
    22  H    0.164519
    23  H    0.176094
    24  H    0.229358
    25  H    0.229208
    26  H    0.237044
 Sum of Mulliken charges =  -0.00000
 Mulliken charges with hydrogens summed into heavy atoms:
               1
     1  O   -0.567315
     2  S    1.163219
     3  N   -0.353999
     4  C    0.383794
     5  N   -0.353627
     6  N   -0.107799
     7  C    0.284492
     8  N   -0.353316
     9  C    0.329814
    10  C    0.019410
    11  C    0.009410
    12  C    0.029159
    13  C    0.008468
    14  C    0.006409
    15  C    0.068690
    16  O   -0.566809
 Electronic spatial extent (au):  <R**2>=           5498.5928
 Charge=              0.0000 electrons
 Dipole moment (field-independent basis, Debye):
    X=              7.9220    Y=              9.9842    Z=             -2.6135  Tot=             13.0105
 Quadrupole moment (field-independent basis, Debye-Ang):
   XX=           -108.9877   YY=            -95.3049   ZZ=            -98.6064
   XY=            -14.2532   XZ=              0.1203   YZ=              2.8778
 Traceless Quadrupole moment (field-independent basis, Debye-Ang):
   XX=             -8.0214   YY=              5.6614   ZZ=              2.3600
   XY=            -14.2532   XZ=              0.1203   YZ=              2.8778
 Octapole moment (field-independent basis, Debye-Ang**2):
  XXX=            224.2133  YYY=             36.7826  ZZZ=             -9.8509  XYY=              1.8052
  XXY=             51.0246  XXZ=             21.0499  XZZ=            -26.5010  YZZ=             10.7397
  YYZ=             -3.5617  XYZ=            -11.8191
 Hexadecapole moment (field-independent basis, Debye-Ang**3):
 XXXX=          -6290.4805 YYYY=           -706.3544 ZZZZ=           -261.3518 XXXY=           -107.4037
 XXXZ=            -67.6260 YYYX=            -27.3608 YYYZ=              3.3534 ZZZX=             12.9730
 ZZZY=             -2.5487 XXYY=          -1029.8093 XXZZ=          -1146.4310 YYZZ=           -167.9957
 XXYZ=             48.0093 YYXZ=             -5.3050 ZZXY=            -33.6410
 N-N= 1.185002261590D+03 E-N=-4.986822028515D+03  KE= 1.108369089221D+03
 No NMR shielding tensors so no spin-rotation constants.
 Leave Link  601 at Wed Sep 23 05:19:32 2020, MaxMem=  2147483648 cpu:               0.4 elap:               0.1
 (Enter /prod/apps/gaussian/g16b1/l701.exe)
 ... and contract with generalized density number  0.
 Compute integral first derivatives.
 D1PCM: PCM CHGder 1st derivatives, ID1Alg=3 FixD1E=F DoIter=F DoCFld=F I1PDM=0.
 GePol: Maximum number of non-zero 1st derivatives   =     182
 Leave Link  701 at Wed Sep 23 05:19:34 2020, MaxMem=  2147483648 cpu:               6.6 elap:               1.7
 (Enter /prod/apps/gaussian/g16b1/l702.exe)
 L702 exits ... SP integral derivatives will be done elsewhere.
 Leave Link  702 at Wed Sep 23 05:19:34 2020, MaxMem=  2147483648 cpu:               0.1 elap:               0.0
 (Enter /prod/apps/gaussian/g16b1/l703.exe)
 Integral derivatives from FoFJK, PRISM(SPDF).
 Compute integral first derivatives, UseDBF=F ICtDFT=           0.
 Calling FoFJK, ICntrl=      2127 FMM=F ISym2X=0 I1Cent= 0 IOpClX= 0 NMat=1 NMatS=1 NMatT=0.
 FoFJK:  IHMeth= 1 ICntrl=    2127 DoSepK=F KAlg= 0 I1Cent=           0 FoldK=F
 IRaf=         0 NMat=       1 IRICut=       1 DoRegI=T DoRafI=F ISym2E= 0 IDoP0=0 IntGTp=1.
 FoFCou: FMM=F IPFlag=           0 FMFlag=      100000 FMFlg1=         800
         NFxFlg=           0 DoJE=F BraDBF=F KetDBF=F FulRan=T
         wScrn=  0.000000 ICntrl=      2127 IOpCl=  0 I1Cent=           0 NGrid=           0
         NMat0=    1 NMatS0=      1 NMatT0=    0 NMatD0=    1 NMtDS0=    0 NMtDT0=    0
 Symmetry not used in FoFCou.
 Leave Link  703 at Wed Sep 23 05:19:43 2020, MaxMem=  2147483648 cpu:              37.3 elap:               9.3
 (Enter /prod/apps/gaussian/g16b1/l716.exe)
 Dipole        = 3.11674561D+00 3.92809863D+00-1.02823026D+00
 -------------------------------------------------------------------
 Center     Atomic                   Forces (Hartrees/Bohr)
 Number     Number              X              Y              Z
 -------------------------------------------------------------------
      1        8          -0.001026661    0.000134928   -0.000693217
      2       16           0.000360784    0.000323094   -0.000122475
      3        7           0.000044940   -0.000093543   -0.000119643
      4        6          -0.001490442   -0.000634830   -0.000245645
      5        7           0.000705108   -0.000071987   -0.000035682
      6        7          -0.000128068   -0.000336870    0.000327910
      7        6           0.000554208    0.002741654   -0.001233089
      8        7          -0.000239554   -0.000895128    0.000183725
      9        6           0.000548296   -0.000530872    0.000136481
     10        6           0.000215597    0.000332004    0.000178685
     11        6          -0.000365677    0.000084376   -0.000112336
     12        6          -0.000585951    0.000586654   -0.000011233
     13        6           0.000153030   -0.000820728   -0.000096249
     14        6           0.000552131    0.000004113    0.000061090
     15        6           0.000268567   -0.000283921    0.001467466
     16        8          -0.000019545   -0.000588764    0.000753836
     17        1           0.000220971   -0.000139582    0.000152236
     18        1           0.000054800   -0.001048649    0.000567031
     19        1           0.000091837   -0.000241638   -0.000054796
     20        1           0.000282331   -0.000528263    0.000018587
     21        1           0.000295410    0.000000934    0.000053604
     22        1           0.000263677    0.000929112    0.000011055
     23        1          -0.000541766    0.000238992    0.000023338
     24        1           0.000058448    0.000666027   -0.000674155
     25        1          -0.000611227    0.000143764   -0.000239345
     26        1           0.000338757    0.000029123   -0.000297179
 -------------------------------------------------------------------
 Cartesian Forces:  Max     0.002741654 RMS     0.000579931
 Leave Link  716 at Wed Sep 23 05:19:43 2020, MaxMem=  2147483648 cpu:               0.1 elap:               0.0
 (Enter /prod/apps/gaussian/g16b1/l103.exe)

 GradGradGradGradGradGradGradGradGradGradGradGradGradGradGradGradGradGrad
 Berny optimization.
 FormGI is forming the generalized inverse of G from B-inverse, IUseBI=4.
 GSVD:  received Info=                   1 from GESDD.
 Internal  Forces:  Max     0.001346750 RMS     0.000381054
 Search for a local minimum.
 Step number   1 out of a maximum of  141
 All quantities printed in internal units (Hartrees-Bohrs-Radians)
 RMS Force = .38105D-03 SwitMx=.10000D-02 MixMth= 2
 Mixed Optimization -- En-DIIS/RFO-DIIS
 Second derivative matrix not updated -- first step.
 ITU=  0
     Eigenvalues ---    0.00454   0.01351   0.01367   0.01571   0.01847
     Eigenvalues ---    0.01905   0.02027   0.02135   0.02135   0.02144
     Eigenvalues ---    0.02145   0.02145   0.02151   0.02153   0.02156
     Eigenvalues ---    0.02162   0.02301   0.02340   0.02565   0.05987
     Eigenvalues ---    0.06205   0.08152   0.08348   0.13319   0.13538
     Eigenvalues ---    0.15982   0.15999   0.15999   0.15999   0.16000
     Eigenvalues ---    0.16000   0.16000   0.16000   0.16000   0.18731
     Eigenvalues ---    0.22000   0.22000   0.22846   0.23494   0.23785
     Eigenvalues ---    0.24959   0.24994   0.25000   0.25000   0.25000
     Eigenvalues ---    0.26624   0.34668   0.34767   0.35038   0.35513
     Eigenvalues ---    0.35549   0.35632   0.35643   0.35760   0.36293
     Eigenvalues ---    0.36392   0.41786   0.42060   0.42188   0.43945
     Eigenvalues ---    0.44135   0.45644   0.46158   0.46255   0.46348
     Eigenvalues ---    0.46658   0.47757   0.52699   0.53187   0.62901
     Eigenvalues ---    0.88670   0.89070
 RFO step:  Lambda=-7.12443186D-05 EMin= 4.54371070D-03
 Linear search not attempted -- first point.
 Iteration  1 RMS(Cart)=  0.01623605 RMS(Int)=  0.00006161
 Iteration  2 RMS(Cart)=  0.00012094 RMS(Int)=  0.00000198
 Iteration  3 RMS(Cart)=  0.00000000 RMS(Int)=  0.00000198
 ITry= 1 IFail=0 DXMaxC= 5.09D-02 DCOld= 1.00D+10 DXMaxT= 3.00D-01 DXLimC= 3.00D+00 Rises=F
 Variable       Old X    -DE/DX   Delta X   Delta X   Delta X     New X
                                 (Linear)    (Quad)   (Total)
    R1        2.77252   0.00124   0.00000   0.00140   0.00140   2.77392
    R2        3.20473   0.00072   0.00000   0.00197   0.00197   3.20670
    R3        3.38950   0.00060   0.00000   0.00225   0.00225   3.39175
    R4        2.77065   0.00096   0.00000   0.00108   0.00108   2.77172
    R5        2.66293   0.00027   0.00000   0.00060   0.00060   2.66353
    R6        1.93221  -0.00022   0.00000  -0.00051  -0.00051   1.93170
    R7        2.57412   0.00055   0.00000   0.00105   0.00105   2.57517
    R8        2.60501   0.00135   0.00000   0.00287   0.00287   2.60789
    R9        2.46856   0.00012   0.00000   0.00007   0.00007   2.46863
   R10        2.56205   0.00021   0.00000   0.00030   0.00030   2.56235
   R11        2.55988   0.00099   0.00000   0.00191   0.00191   2.56180
   R12        2.03625  -0.00117   0.00000  -0.00322  -0.00322   2.03303
   R13        2.69196   0.00092   0.00000   0.00219   0.00219   2.69415
   R14        2.63967   0.00006   0.00000   0.00014   0.00014   2.63981
   R15        2.63837   0.00046   0.00000   0.00099   0.00099   2.63937
   R16        2.63300  -0.00002   0.00000  -0.00004  -0.00004   2.63296
   R17        2.04458   0.00020   0.00000   0.00056   0.00056   2.04514
   R18        2.63853   0.00051   0.00000   0.00108   0.00108   2.63961
   R19        2.04793   0.00058   0.00000   0.00162   0.00162   2.04955
   R20        2.63939  -0.00029   0.00000  -0.00064  -0.00064   2.63875
   R21        2.04850   0.00029   0.00000   0.00082   0.00082   2.04932
   R22        2.63522   0.00011   0.00000   0.00024   0.00024   2.63545
   R23        2.04661   0.00097   0.00000   0.00272   0.00272   2.04933
   R24        2.04644   0.00055   0.00000   0.00153   0.00153   2.04797
   R25        2.05614   0.00093   0.00000   0.00266   0.00266   2.05880
   R26        2.06055  -0.00066   0.00000  -0.00189  -0.00189   2.05867
   R27        2.06217  -0.00043   0.00000  -0.00123  -0.00123   2.06094
    A1        1.82958  -0.00010   0.00000  -0.00056  -0.00056   1.82902
    A2        1.89985  -0.00004   0.00000  -0.00048  -0.00048   1.89936
    A3        2.09192   0.00002   0.00000  -0.00019  -0.00019   2.09173
    A4        1.87020   0.00016   0.00000   0.00082   0.00082   1.87102
    A5        1.86983   0.00009   0.00000   0.00102   0.00102   1.87085
    A6        1.89075  -0.00011   0.00000  -0.00042  -0.00042   1.89033
    A7        2.09304   0.00102   0.00000   0.00405   0.00405   2.09709
    A8        1.92319  -0.00032   0.00000  -0.00189  -0.00189   1.92130
    A9        1.99152  -0.00052   0.00000  -0.00345  -0.00345   1.98807
   A10        2.12415   0.00059   0.00000   0.00216   0.00216   2.12631
   A11        2.25811  -0.00011   0.00000  -0.00066  -0.00067   2.25744
   A12        1.89952  -0.00048   0.00000  -0.00164  -0.00164   1.89789
   A13        1.89707   0.00060   0.00000   0.00211   0.00211   1.89918
   A14        1.88082  -0.00012   0.00000  -0.00101  -0.00101   1.87982
   A15        1.81857  -0.00020   0.00000  -0.00035  -0.00035   1.81821
   A16        2.30845   0.00033   0.00000   0.00162   0.00162   2.31007
   A17        2.15556  -0.00012   0.00000  -0.00119  -0.00119   2.15437
   A18        1.92851   0.00021   0.00000   0.00087   0.00087   1.92938
   A19        2.10734   0.00067   0.00000   0.00265   0.00264   2.10999
   A20        2.24733  -0.00087   0.00000  -0.00352  -0.00352   2.24381
   A21        2.07971   0.00101   0.00000   0.00403   0.00403   2.08374
   A22        2.08912  -0.00087   0.00000  -0.00352  -0.00352   2.08560
   A23        2.11435  -0.00014   0.00000  -0.00051  -0.00051   2.11384
   A24        2.07888  -0.00009   0.00000  -0.00036  -0.00036   2.07851
   A25        2.08737   0.00020   0.00000   0.00118   0.00117   2.08855
   A26        2.11693  -0.00012   0.00000  -0.00082  -0.00083   2.11611
   A27        2.10211   0.00008   0.00000   0.00035   0.00035   2.10246
   A28        2.08368  -0.00019   0.00000  -0.00111  -0.00111   2.08257
   A29        2.09735   0.00011   0.00000   0.00076   0.00076   2.09811
   A30        2.09084   0.00012   0.00000   0.00050   0.00050   2.09134
   A31        2.09769  -0.00013   0.00000  -0.00065  -0.00065   2.09705
   A32        2.09465   0.00000   0.00000   0.00014   0.00014   2.09479
   A33        2.10192  -0.00024   0.00000  -0.00112  -0.00112   2.10080
   A34        2.09840   0.00013   0.00000   0.00066   0.00066   2.09906
   A35        2.08283   0.00010   0.00000   0.00046   0.00046   2.08328
   A36        2.07819   0.00025   0.00000   0.00116   0.00116   2.07934
   A37        2.10308  -0.00036   0.00000  -0.00205  -0.00205   2.10103
   A38        2.10186   0.00011   0.00000   0.00089   0.00089   2.10275
   A39        1.89674   0.00002   0.00000   0.00006   0.00006   1.89680
   A40        1.89982   0.00013   0.00000   0.00078   0.00078   1.90060
   A41        1.86733   0.00014   0.00000   0.00094   0.00094   1.86827
   A42        1.93973  -0.00008   0.00000  -0.00062  -0.00062   1.93911
   A43        1.93173  -0.00007   0.00000  -0.00044  -0.00044   1.93130
   A44        1.92652  -0.00011   0.00000  -0.00063  -0.00063   1.92589
    D1       -3.13366  -0.00005   0.00000  -0.00133  -0.00133  -3.13498
    D2        0.78390   0.00004   0.00000   0.00196   0.00196   0.78586
    D3        1.13252  -0.00003   0.00000  -0.00087  -0.00087   1.13164
    D4       -1.23311   0.00006   0.00000   0.00241   0.00241  -1.23070
    D5       -0.89344  -0.00003   0.00000  -0.00130  -0.00130  -0.89475
    D6        3.02411   0.00006   0.00000   0.00199   0.00199   3.02610
    D7       -0.88411  -0.00004   0.00000  -0.00492  -0.00492  -0.88904
    D8       -2.99901  -0.00002   0.00000  -0.00467  -0.00467  -3.00368
    D9        1.20229  -0.00004   0.00000  -0.00488  -0.00488   1.19741
   D10        1.08559  -0.00009   0.00000  -0.00540  -0.00540   1.08019
   D11       -1.02930  -0.00007   0.00000  -0.00515  -0.00515  -1.03445
   D12       -3.11119  -0.00009   0.00000  -0.00535  -0.00535  -3.11654
   D13        3.09764   0.00004   0.00000  -0.00399  -0.00399   3.09364
   D14        0.98274   0.00006   0.00000  -0.00374  -0.00374   0.97900
   D15       -1.09914   0.00005   0.00000  -0.00395  -0.00395  -1.10309
   D16        1.34005   0.00020   0.00000   0.01363   0.01363   1.35368
   D17       -1.86513   0.00012   0.00000   0.01042   0.01041  -1.85472
   D18       -2.60559   0.00022   0.00000   0.01103   0.01103  -2.59456
   D19        0.47242   0.00014   0.00000   0.00782   0.00782   0.48023
   D20        3.09841  -0.00003   0.00000  -0.00069  -0.00069   3.09772
   D21        0.00873   0.00004   0.00000   0.00193   0.00194   0.01067
   D22       -3.07897   0.00001   0.00000   0.00133   0.00132  -3.07764
   D23        0.02496   0.00006   0.00000   0.00366   0.00366   0.02861
   D24        0.00548  -0.00003   0.00000  -0.00145  -0.00145   0.00403
   D25        3.10940   0.00002   0.00000   0.00088   0.00088   3.11028
   D26       -0.01939  -0.00003   0.00000  -0.00159  -0.00159  -0.02097
   D27        0.02357   0.00001   0.00000   0.00066   0.00066   0.02423
   D28       -3.11798  -0.00008   0.00000  -0.00384  -0.00385  -3.12184
   D29       -0.01750   0.00001   0.00000   0.00049   0.00049  -0.01701
   D30        3.12405   0.00011   0.00000   0.00546   0.00545   3.12950
   D31       -3.12566  -0.00004   0.00000  -0.00165  -0.00165  -3.12731
   D32        0.01588   0.00005   0.00000   0.00331   0.00331   0.01919
   D33        0.41825   0.00019   0.00000   0.01208   0.01208   0.43033
   D34       -2.72350   0.00013   0.00000   0.00879   0.00879  -2.71471
   D35       -2.72329   0.00009   0.00000   0.00667   0.00667  -2.71663
   D36        0.41815   0.00002   0.00000   0.00338   0.00338   0.42153
   D37       -3.13705  -0.00010   0.00000  -0.00486  -0.00487   3.14126
   D38        0.00658  -0.00001   0.00000  -0.00063  -0.00063   0.00595
   D39        0.00469  -0.00004   0.00000  -0.00152  -0.00152   0.00317
   D40       -3.13486   0.00006   0.00000   0.00271   0.00271  -3.13214
   D41       -3.13479   0.00009   0.00000   0.00418   0.00417  -3.13061
   D42        0.01866   0.00009   0.00000   0.00428   0.00427   0.02294
   D43        0.00665   0.00002   0.00000   0.00082   0.00082   0.00748
   D44       -3.12309   0.00002   0.00000   0.00093   0.00093  -3.12216
   D45       -0.01179   0.00004   0.00000   0.00190   0.00189  -0.00990
   D46        3.14049   0.00005   0.00000   0.00215   0.00215  -3.14055
   D47        3.12772  -0.00005   0.00000  -0.00241  -0.00241   3.12531
   D48       -0.00318  -0.00005   0.00000  -0.00215  -0.00215  -0.00534
   D49        0.00751  -0.00003   0.00000  -0.00158  -0.00157   0.00593
   D50       -3.13440  -0.00002   0.00000  -0.00086  -0.00086  -3.13525
   D51        3.13833  -0.00004   0.00000  -0.00185  -0.00185   3.13648
   D52       -0.00357  -0.00002   0.00000  -0.00113  -0.00113  -0.00470
   D53        0.00407   0.00002   0.00000   0.00085   0.00085   0.00493
   D54        3.13616   0.00000   0.00000   0.00009   0.00009   3.13626
   D55       -3.13721   0.00000   0.00000   0.00014   0.00014  -3.13707
   D56       -0.00512  -0.00001   0.00000  -0.00062  -0.00062  -0.00574
   D57       -0.01103  -0.00001   0.00000  -0.00048  -0.00048  -0.01151
   D58        3.11872  -0.00001   0.00000  -0.00060  -0.00060   3.11812
   D59        3.13998   0.00001   0.00000   0.00028   0.00027   3.14026
   D60       -0.01346   0.00000   0.00000   0.00015   0.00015  -0.01331
         Item               Value     Threshold  Converged?
 Maximum Force            0.001347     0.000450     NO 
 RMS     Force            0.000381     0.000300     NO 
 Maximum Displacement     0.050928     0.001800     NO 
 RMS     Displacement     0.016282     0.001200     NO 
 Predicted change in Energy=-3.566968D-05
 Lowest energy point so far.  Saving SCF results.
 GradGradGradGradGradGradGradGradGradGradGradGradGradGradGradGradGradGrad

 Leave Link  103 at Wed Sep 23 05:19:43 2020, MaxMem=  2147483648 cpu:               0.1 elap:               0.0
 (Enter /prod/apps/gaussian/g16b1/l202.exe)
                          Input orientation:                          
 ---------------------------------------------------------------------
 Center     Atomic      Atomic             Coordinates (Angstroms)
 Number     Number       Type             X           Y           Z
 ---------------------------------------------------------------------
      1          8           0       -4.706233    0.293565   -0.691378
      2         16           0       -3.489354    0.151514    0.117164
      3          7           0       -2.272709   -0.245824   -0.997021
      4          6           0       -0.952504   -0.466050   -0.555213
      5          7           0       -0.580560   -1.631469    0.045171
      6          7           0        0.699748   -1.584062    0.300304
      7          6           0        0.160695    0.338456   -0.689588
      8          7           0        1.168005   -0.397165   -0.158585
      9          6           0        2.548997   -0.061760   -0.044839
     10          6           0        3.497422   -1.083409    0.045290
     11          6           0        4.845360   -0.748553    0.155841
     12          6           0        5.244070    0.590130    0.164409
     13          6           0        4.285430    1.600916    0.068687
     14          6           0        2.931445    1.281463   -0.029534
     15          6           0       -3.068035    1.750369    0.815444
     16          8           0       -3.438085   -0.847635    1.189721
     17          1           0       -2.339125    0.357728   -1.819352
     18          1           0        0.303457    1.311418   -1.125914
     19          1           0        3.175709   -2.116471    0.022337
     20          1           0        5.585003   -1.538770    0.225073
[...]
 Alpha virt. eigenvalues --    0.11072   0.11521   0.11952   0.12216   0.12703
 Alpha virt. eigenvalues --    0.12710   0.13221   0.14050   0.14138   0.14237
 Alpha virt. eigenvalues --    0.14940   0.14946   0.15058   0.15640   0.15898
 Alpha virt. eigenvalues --    0.16627   0.16786   0.16835   0.17195   0.17375
 Alpha virt. eigenvalues --    0.17870   0.18178   0.18699   0.18997   0.19398
 Alpha virt. eigenvalues --    0.19825   0.20044   0.20586   0.21786   0.22720
 Alpha virt. eigenvalues --    0.22956   0.23597   0.24340   0.24664   0.25279
 Alpha virt. eigenvalues --    0.25580   0.26169   0.26568   0.26928   0.27262
 Alpha virt. eigenvalues --    0.28242   0.28387   0.29554   0.29773   0.29874
 Alpha virt. eigenvalues --    0.30657   0.30857   0.31194   0.31529   0.31692
 Alpha virt. eigenvalues --    0.31858   0.32449   0.33049   0.33342   0.33706
 Alpha virt. eigenvalues --    0.34391   0.34624   0.34836   0.35546   0.35905
 Alpha virt. eigenvalues --    0.36025   0.36473   0.36653   0.37321   0.37638
 Alpha virt. eigenvalues --    0.37928   0.38667   0.39290   0.39417   0.39901
 Alpha virt. eigenvalues --    0.40475   0.40910   0.41048   0.41527   0.41654
 Alpha virt. eigenvalues --    0.42134   0.42594   0.42993   0.43657   0.44025
 Alpha virt. eigenvalues --    0.44801   0.45036   0.45575   0.45857   0.46697
 Alpha virt. eigenvalues --    0.46977   0.47702   0.48328   0.48897   0.49970
 Alpha virt. eigenvalues --    0.50695   0.50998   0.51492   0.51984   0.53592
 Alpha virt. eigenvalues --    0.54054   0.54734   0.55007   0.55444   0.55606
 Alpha virt. eigenvalues --    0.56830   0.57142   0.57441   0.58275   0.58860
 Alpha virt. eigenvalues --    0.59536   0.60220   0.60571   0.60991   0.61705
 Alpha virt. eigenvalues --    0.62278   0.62723   0.63290   0.63554   0.64421
 Alpha virt. eigenvalues --    0.64715   0.65102   0.65921   0.66156   0.67272
 Alpha virt. eigenvalues --    0.67404   0.67556   0.67846   0.68381   0.69237
 Alpha virt. eigenvalues --    0.69549   0.70328   0.71135   0.71828   0.72806
 Alpha virt. eigenvalues --    0.73236   0.73973   0.74448   0.74745   0.75277
 Alpha virt. eigenvalues --    0.75690   0.76234   0.76568   0.77420   0.77810
 Alpha virt. eigenvalues --    0.78749   0.78941   0.81413   0.81636   0.82258
 Alpha virt. eigenvalues --    0.83403   0.83865   0.84466   0.84770   0.86155
 Alpha virt. eigenvalues --    0.86596   0.86676   0.87985   0.88277   0.88683
 Alpha virt. eigenvalues --    0.89574   0.90218   0.91299   0.91698   0.91909
 Alpha virt. eigenvalues --    0.92380   0.92705   0.92937   0.93648   0.94063
 Alpha virt. eigenvalues --    0.95310   0.95404   0.96500   0.97622   0.98843
 Alpha virt. eigenvalues --    0.99369   0.99440   1.00777   1.01285   1.01861
 Alpha virt. eigenvalues --    1.02288   1.03397   1.03542   1.04515   1.05842
 Alpha virt. eigenvalues --    1.06403   1.06604   1.07718   1.08564   1.09782
 Alpha virt. eigenvalues --    1.10578   1.11010   1.11943   1.13184   1.13641
 Alpha virt. eigenvalues --    1.14512   1.15720   1.16066   1.17007   1.17811
 Alpha virt. eigenvalues --    1.18815   1.20358   1.21086   1.21685   1.22307
 Alpha virt. eigenvalues --    1.22936   1.24367   1.25362   1.27372   1.29618
 Alpha virt. eigenvalues --    1.30360   1.30739   1.31784   1.33447   1.35186
 Alpha virt. eigenvalues --    1.36440   1.37525   1.38234   1.39095   1.40373
 Alpha virt. eigenvalues --    1.42510   1.43598   1.44068   1.45182   1.45700
 Alpha virt. eigenvalues --    1.46301   1.46940   1.48168   1.49561   1.50466
 Alpha virt. eigenvalues --    1.51227   1.52029   1.53242   1.54493   1.55389
 Alpha virt. eigenvalues --    1.56384   1.57158   1.58092   1.59758   1.60027
 Alpha virt. eigenvalues --    1.61159   1.61745   1.62080   1.63570   1.64250
 Alpha virt. eigenvalues --    1.64812   1.65486   1.67797   1.68303   1.68872
 Alpha virt. eigenvalues --    1.69997   1.70441   1.71690   1.71942   1.72810
 Alpha virt. eigenvalues --    1.72949   1.75652   1.76496   1.77133   1.78452
 Alpha virt. eigenvalues --    1.80415   1.81069   1.82107   1.82957   1.84101
 Alpha virt. eigenvalues --    1.85333   1.86150   1.86713   1.87896   1.90044
 Alpha virt. eigenvalues --    1.90889   1.91412   1.91909   1.93607   1.94380
 Alpha virt. eigenvalues --    1.95319   1.96688   1.96965   1.97431   1.98506
 Alpha virt. eigenvalues --    1.99348   2.01595   2.02236   2.03469   2.04393
 Alpha virt. eigenvalues --    2.06705   2.08031   2.09084   2.10656   2.11433
 Alpha virt. eigenvalues --    2.12596   2.14292   2.15534   2.15637   2.17251
 Alpha virt. eigenvalues --    2.17800   2.18645   2.19746   2.20689   2.21787
 Alpha virt. eigenvalues --    2.22631   2.23206   2.24820   2.26165   2.27865
 Alpha virt. eigenvalues --    2.29436   2.31052   2.32189   2.33081   2.33335
 Alpha virt. eigenvalues --    2.34433   2.35538   2.36042   2.36674   2.37141
 Alpha virt. eigenvalues --    2.39037   2.40177   2.41534   2.41899   2.42671
 Alpha virt. eigenvalues --    2.45401   2.46968   2.48537   2.50182   2.51306
 Alpha virt. eigenvalues --    2.54445   2.55757   2.56440   2.57354   2.60964
 Alpha virt. eigenvalues --    2.61755   2.62508   2.65554   2.67317   2.69185
 Alpha virt. eigenvalues --    2.72256   2.72390   2.75823   2.77176   2.79236
 Alpha virt. eigenvalues --    2.80497   2.82018   2.83251   2.85217   2.87131
 Alpha virt. eigenvalues --    2.87721   2.88581   2.89941   2.92512   2.95191
 Alpha virt. eigenvalues --    2.96997   2.97845   2.99936   3.02120   3.02289
 Alpha virt. eigenvalues --    3.04431   3.06662   3.11298   3.11920   3.13229
 Alpha virt. eigenvalues --    3.14029   3.16661   3.20178   3.23750   3.29142
 Alpha virt. eigenvalues --    3.31336   3.34706   3.37175   3.40019   3.45117
 Alpha virt. eigenvalues --    3.53925   3.57064   3.60859   3.64419   3.71153
 Alpha virt. eigenvalues --    3.72381   3.73385   3.74995   3.76567   3.79056
 Alpha virt. eigenvalues --    3.80327   3.80924   3.82895   3.85603   3.88926
 Alpha virt. eigenvalues --    3.92887   4.01203   4.24193   4.32194   4.86939
          Condensed to atoms (all electrons):
               1          2          3          4          5          6
     1  O    9.145015  -0.083323  -0.086924   0.151749  -0.024129   0.000255
     2  S   -0.083323  13.407805   0.494963  -1.176537   0.198073  -0.035187
     3  N   -0.086924   0.494963   8.077114  -1.389032   0.092090  -0.129952
     4  C    0.151749  -1.176537  -1.389032  12.871132  -1.331853   1.155992
     5  N   -0.024129   0.198073   0.092090  -1.331853   8.460331  -0.691197
     6  N    0.000255  -0.035187  -0.129952   1.155992  -0.691197   8.782431
     7  C   -0.025253   0.320372   0.588325  -4.803336   1.071166  -1.219640
     8  N    0.000294   0.044659  -0.021081  -0.280997  -0.031192  -0.305423
     9  C    0.001356   0.021682   0.022944   0.065478  -0.131367  -0.357685
    10  C    0.000219  -0.006744   0.000187   0.129820  -0.075253   0.416342
    11  C    0.000019  -0.002582  -0.004562   0.078299   0.011705   0.004195
    12  C    0.000001   0.000742   0.001174  -0.014019  -0.006736   0.020695
    13  C   -0.000047  -0.000462  -0.005350   0.029743   0.016052  -0.013016
    14  C    0.000020   0.002550  -0.003659  -0.243450   0.082995  -0.033577
    15  C   -0.028097   0.421829   0.004983   0.062248  -0.032086   0.002736
    16  O    0.022752  -0.063424  -0.086240   0.233573  -0.073960   0.002077
    17  H    0.026475  -0.087283   0.424805  -0.082033   0.019148   0.006931
    18  H   -0.003077  -0.003923  -0.121907   0.130196  -0.060075  -0.087310
    19  H   -0.000024   0.000805  -0.000392  -0.011886   0.008624  -0.006001
    20  H    0.000001  -0.000078  -0.000145   0.001248   0.000737  -0.002958
    21  H    0.000000   0.000010   0.000026  -0.000290  -0.000012   0.001472
    22  H    0.000001  -0.000270  -0.000354   0.005306  -0.001158   0.000575
    23  H    0.000242   0.002583   0.004661   0.007587   0.004531  -0.020047
    24  H    0.022280   0.042050  -0.048768  -0.074322   0.003700   0.001862
    25  H    0.013522  -0.112516  -0.011564   0.056745  -0.011014   0.002610
    26  H   -0.001449   0.002212   0.017580  -0.011420   0.005398  -0.000429
               7          8          9         10         11         12
     1  O   -0.025253   0.000294   0.001356   0.000219   0.000019   0.000001
     2  S    0.320372   0.044659   0.021682  -0.006744  -0.002582   0.000742
     3  N    0.588325  -0.021081   0.022944   0.000187  -0.004562   0.001174
     4  C   -4.803336  -0.280997   0.065478   0.129820   0.078299  -0.014019
     5  N    1.071166  -0.031192  -0.131367  -0.075253   0.011705  -0.006736
     6  N   -1.219640  -0.305423  -0.357685   0.416342   0.004195   0.020695
     7  C   10.634210  -0.011238  -1.218040  -0.231709   0.023373   0.015285
     8  N   -0.011238   9.055317  -0.829219  -0.045144  -0.195992   0.301080
     9  C   -1.218040  -0.829219  14.423913  -4.852666   2.638773  -3.455828
    10  C   -0.231709  -0.045144  -4.852666  12.358302  -3.642391   2.917911
    11  C    0.023373  -0.195992   2.638773  -3.642391   9.797944  -2.902253
    12  C    0.015285   0.301080  -3.455828   2.917911  -2.902253   8.855834
    13  C   -0.314668  -0.320336   2.876363  -3.253990   3.054254  -3.057018
    14  C    0.570045   0.561771  -5.880778   2.439434  -3.345898   3.157156
    15  C   -0.051298   0.009866   0.001658   0.004193  -0.000840   0.000605
    16  O   -0.049575   0.006281  -0.002549   0.000293   0.000058  -0.000008
    17  H   -0.055082   0.009903   0.005952  -0.002312  -0.000470   0.000191
    18  H   -0.515610   0.154873   0.231998  -0.133074  -0.002026  -0.007334
    19  H   -0.021343  -0.244083   0.736362  -0.905682   0.365453  -0.169835
    20  H   -0.000942  -0.006675  -0.097800   0.575742  -0.696610   0.277221
    21  H   -0.000112  -0.001386   0.107939  -0.117243   0.373386  -0.610658
    22  H    0.002246  -0.001239  -0.092262   0.095382  -0.231403   0.271022
    23  H    0.034958  -0.189759   0.800045  -0.054200   0.093925  -0.148510
    24  H    0.006754   0.008629   0.004251   0.000903  -0.000053   0.000048
    25  H   -0.042511   0.001759   0.016653  -0.007609   0.002582  -0.002029
    26  H    0.013575  -0.002893  -0.001753  -0.000002  -0.000310   0.000201
              13         14         15         16         17         18
     1  O   -0.000047   0.000020  -0.028097   0.022752   0.026475  -0.003077
     2  S   -0.000462   0.002550   0.421829  -0.063424  -0.087283  -0.003923
     3  N   -0.005350  -0.003659   0.004983  -0.086240   0.424805  -0.121907
     4  C    0.029743  -0.243450   0.062248   0.233573  -0.082033   0.130196
     5  N    0.016052   0.082995  -0.032086  -0.073960   0.019148  -0.060075
     6  N   -0.013016  -0.033577   0.002736   0.002077   0.006931  -0.087310
     7  C   -0.314668   0.570045  -0.051298  -0.049575  -0.055082  -0.515610
     8  N   -0.320336   0.561771   0.009866   0.006281   0.009903   0.154873
     9  C    2.876363  -5.880778   0.001658  -0.002549   0.005952   0.231998
    10  C   -3.253990   2.439434   0.004193   0.000293  -0.002312  -0.133074
    11  C    3.054254  -3.345898  -0.000840   0.000058  -0.000470  -0.002026
    12  C   -3.057018   3.157156   0.000605  -0.000008   0.000191  -0.007334
    13  C   10.460005  -3.880041  -0.000837   0.000150  -0.000168   0.098956
    14  C   -3.880041  12.976838  -0.002764   0.000959   0.002991  -0.011634
    15  C   -0.000837  -0.002764   4.634079  -0.026311  -0.024735  -0.002154
    16  O    0.000150   0.000959  -0.026311   9.103212   0.004447   0.002329
    17  H   -0.000168   0.002991  -0.024735   0.004447   0.780385   0.011851
    18  H    0.098956  -0.011634  -0.002154   0.002329   0.011851   1.894865
    19  H    0.120500  -0.165757   0.000071  -0.000218  -0.000001  -0.000607
    20  H   -0.209647   0.118027  -0.000037   0.000010   0.000004   0.000244
    21  H    0.356579  -0.154494   0.000019  -0.000001  -0.000002   0.000341
    22  H   -0.808983   0.695208  -0.000144   0.000018  -0.000018   0.004149
    23  H    0.145020  -0.993496   0.002370  -0.000531   0.000303  -0.091257
    24  H   -0.000368  -0.000322   0.295778   0.005721   0.014190   0.001702
    25  H    0.001379  -0.010707   0.339670   0.046201   0.000001   0.002450
    26  H    0.000039   0.000980   0.324657   0.000767  -0.001350   0.001140
              19         20         21         22         23         24
     1  O   -0.000024   0.000001   0.000000   0.000001   0.000242   0.022280
     2  S    0.000805  -0.000078   0.000010  -0.000270   0.002583   0.042050
     3  N   -0.000392  -0.000145   0.000026  -0.000354   0.004661  -0.048768
     4  C   -0.011886   0.001248  -0.000290   0.005306   0.007587  -0.074322
     5  N    0.008624   0.000737  -0.000012  -0.001158   0.004531   0.003700
     6  N   -0.006001  -0.002958   0.001472   0.000575  -0.020047   0.001862
     7  C   -0.021343  -0.000942  -0.000112   0.002246   0.034958   0.006754
     8  N   -0.244083  -0.006675  -0.001386  -0.001239  -0.189759   0.008629
     9  C    0.736362  -0.097800   0.107939  -0.092262   0.800045   0.004251
    10  C   -0.905682   0.575742  -0.117243   0.095382  -0.054200   0.000903
    11  C    0.365453  -0.696610   0.373386  -0.231403   0.093925  -0.000053
    12  C   -0.169835   0.277221  -0.610658   0.271022  -0.148510   0.000048
    13  C    0.120500  -0.209647   0.356579  -0.808983   0.145020  -0.000368
    14  C   -0.165757   0.118027  -0.154494   0.695208  -0.993496  -0.000322
    15  C    0.000071  -0.000037   0.000019  -0.000144   0.002370   0.295778
    16  O   -0.000218   0.000010  -0.000001   0.000018  -0.000531   0.005721
    17  H   -0.000001   0.000004  -0.000002  -0.000018   0.000303   0.014190
    18  H   -0.000607   0.000244   0.000341   0.004149  -0.091257   0.001702
    19  H    1.922943  -0.082751  -0.011154   0.009958  -0.021071   0.000039
    20  H   -0.082751   1.620565  -0.059888  -0.018044   0.009748  -0.000007
    21  H   -0.011154  -0.059888   1.627962  -0.053788  -0.016370   0.000002
    22  H    0.009958  -0.018044  -0.053788   1.646512  -0.084049  -0.000031
    23  H   -0.021071   0.009748  -0.016370  -0.084049   2.173242   0.000752
    24  H    0.000039  -0.000007   0.000002  -0.000031   0.000752   0.863534
    25  H   -0.000173   0.000099  -0.000035   0.000384  -0.003308  -0.071148
    26  H    0.000047  -0.000010   0.000005  -0.000055   0.000577  -0.106845
              25         26
     1  O    0.013522  -0.001449
     2  S   -0.112516   0.002212
     3  N   -0.011564   0.017580
     4  C    0.056745  -0.011420
     5  N   -0.011014   0.005398
     6  N    0.002610  -0.000429
     7  C   -0.042511   0.013575
     8  N    0.001759  -0.002893
     9  C    0.016653  -0.001753
    10  C   -0.007609  -0.000002
    11  C    0.002582  -0.000310
    12  C   -0.002029   0.000201
    13  C    0.001379   0.000039
    14  C   -0.010707   0.000980
    15  C    0.339670   0.324657
    16  O    0.046201   0.000767
    17  H    0.000001  -0.001350
    18  H    0.002450   0.001140
    19  H   -0.000173   0.000047
    20  H    0.000099  -0.000010
    21  H   -0.000035   0.000005
    22  H    0.000384  -0.000055
    23  H   -0.003308   0.000577
    24  H   -0.071148  -0.106845
    25  H    0.851748  -0.095817
    26  H   -0.095817   0.842733
 Mulliken charges:
               1
     1  O   -1.131879
     2  S    2.611992
     3  N   -0.818922
     4  C    0.440061
     5  N   -0.504519
     6  N   -0.495750
     7  C    1.280049
     8  N   -0.667776
     9  C    0.964582
    10  C    0.389291
    11  C    0.581421
    12  C    0.555062
    13  C    0.705892
    14  C    0.117601
    15  C    0.064539
    16  O   -1.126033
    17  H   -0.054125
    18  H   -0.495104
    19  H   -0.523825
    20  H   -0.428056
    21  H   -0.442308
    22  H   -0.438966
    23  H   -0.657946
    24  H    0.029669
    25  H    0.032626
    26  H    0.012423
 Sum of Mulliken charges =  -0.00000
 Mulliken charges with hydrogens summed into heavy atoms:
               1
     1  O   -1.131879
     2  S    2.611992
     3  N   -0.873046
     4  C    0.440061
     5  N   -0.504519
     6  N   -0.495750
     7  C    0.784945
     8  N   -0.667776
     9  C    0.964582
    10  C   -0.134534
    11  C    0.153366
    12  C    0.112754
    13  C    0.266926
    14  C   -0.540345
    15  C    0.139257
    16  O   -1.126033
 Electronic spatial extent (au):  <R**2>=           5505.4169
 Charge=              0.0000 electrons
 Dipole moment (field-independent basis, Debye):
    X=              6.8206    Y=              7.2956    Z=             -2.0439  Tot=             10.1943
 Quadrupole moment (field-independent basis, Debye-Ang):
   XX=           -111.5447   YY=            -96.5691   ZZ=           -104.1809
   XY=            -13.3342   XZ=              0.1968   YZ=              3.3632
 Traceless Quadrupole moment (field-independent basis, Debye-Ang):
   XX=             -7.4464   YY=              7.5291   ZZ=             -0.0827
   XY=            -13.3342   XZ=              0.1968   YZ=              3.3632
 Octapole moment (field-independent basis, Debye-Ang**2):
  XXX=            196.4492  YYY=             26.5483  ZZZ=             -8.9489  XYY=             -2.5247
  XXY=             37.5795  XXZ=             24.0058  XZZ=            -29.9776  YZZ=              8.1486
  YYZ=             -1.8424  XYZ=            -11.4675
 Hexadecapole moment (field-independent basis, Debye-Ang**3):
 XXXX=          -6492.1610 YYYY=           -736.7131 ZZZZ=           -285.6470 XXXY=           -118.5869
 XXXZ=            -78.9123 YYYX=            -29.9675 YYYZ=              4.6955 ZZZX=             14.1935
 ZZZY=             -1.3146 XXYY=          -1060.7326 XXZZ=          -1213.0844 YYZZ=           -179.4419
 XXYZ=             53.3924 YYXZ=             -6.1304 ZZXY=            -33.0652
 N-N= 1.184294342598D+03 E-N=-4.983661237427D+03  KE= 1.110225466099D+03
 Leave Link  601 at Wed Sep 23 05:52:40 2020, MaxMem=   262144000 cpu:               0.8 elap:               0.3
 (Enter /prod/apps/gaussian/g16b1/l9999.exe)
 1\1\GINC-PIRINEUS9\SP\RMP2-FC\Aug-CC-pVDZ\C9H10N4O2S1\UBAFAR01\23-Sep-
 2020\0\\#p mp2/aug-cc-pVDZ scf=(MaxCycle=2000,NoVarAcc,NoIncFock) maxd
 isk=120GB geom=allcheck\\SM44_m0.n.9.pdb.xyz\\0,1\O,0,-4.7111918871,0.
 2500086968,-0.659362747\S,0,-3.481272636,0.1540653759,0.1367157177\N,0
 ,-2.2750976928,-0.2740025657,-0.9772482018\C,0,-0.9517252218,-0.483147
 7371,-0.5401227829\N,0,-0.5748781838,-1.6408731128,0.071711424\N,0,0.7
 05528894,-1.5866958757,0.3230929349\C,0,0.158389826,0.3245083519,-0.68
 47248194\N,0,1.1688387767,-0.4025691796,-0.1482544438\C,0,2.5496173836
 ,-0.0636303635,-0.0388723671\C,0,3.5025523801,-1.0840741105,-0.0048101
 449\C,0,4.850591784,-0.7485414294,0.10341218\C,0,5.2438311393,0.590360
 58,0.1637222539\C,0,4.2804088618,1.6003840321,0.1244123225\C,0,2.92638
 64999,1.279549845,0.0308633554\C,0,-3.0736556866,1.7850064691,0.766876
 8145\O,0,-3.4010434712,-0.8020326058,1.2465412218\H,0,-2.3510106664,0.
 3011245575,-1.8190773507\H,0,0.2983358904,1.2919121281,-1.1346517801\H
 ,0,3.1847457598,-2.1168813586,-0.0676293114\H,0,5.5942263706,-1.537546
 2527,0.1295485383\H,0,6.2949551884,0.8456144619,0.2411808357\H,0,4.578
 0268309,2.6418243019,0.1770191557\H,0,2.1745319731,2.0600544626,0.0244
 152721\H,0,-3.0775633833,2.4909074432,-0.0629112318\H,0,-2.095000645,1
 .7456153974,1.2437613838\H,0,-3.8415280845,2.045058488,1.4963917706\\V
 ersion=ES64L-G16RevB.01\State=1-A\HF=-1111.631367\MP2=-1114.1085988\RM
 SD=5.232e-09\PG=C01 [X(C9H10N4O2S1)]\\@


 PATIENCE IS THE ABILITY TO IDLE YOUR MOTOR WHEN
 YOU FEEL LIKE STRIPPING YOUR GEARS.
 Job cpu time:       0 days  1 hours 11 minutes  2.0 seconds.
 Elapsed time:       0 days  0 hours 19 minutes 31.3 seconds.
 File lengths (MBytes):  RWF=  35452 Int=      0 D2E=      0 Chk=     19 Scr=      1
 Normal termination of Gaussian 16 at Wed Sep 23 05:52:42 2020.
