 Entering Gaussian System, Link 0=g16
 Initial command:
 /prod/apps/gaussian/g16b1/l1.exe "/tmp/ubafar01/1461373/Gau-31326.inp" -scrdir="/tmp/ubafar01/1461373/"
 Entering Link 1 = /prod/apps/gaussian/g16b1/l1.exe PID=     31334.
  
 Copyright (c) 1988-2017, Gaussian, Inc.  All Rights Reserved.
  
 This is part of the Gaussian(R) 16 program.  It is based on
 the Gaussian(R) 09 system (copyright 2009, Gaussian, Inc.),
 the Gaussian(R) 03 system (copyright 2003, Gaussian, Inc.),
 the Gaussian(R) 98 system (copyright 1998, Gaussian, Inc.),
 the Gaussian(R) 94 system (copyright 1995, Gaussian, Inc.),
 the Gaussian 92(TM) system (copyright 1992, Gaussian, Inc.),
 the Gaussian 90(TM) system (copyright 1990, Gaussian, Inc.),
 the Gaussian 88(TM) system (copyright 1988, Gaussian, Inc.),
 the Gaussian 86(TM) system (copyright 1986, Carnegie Mellon
 University), and the Gaussian 82(TM) system (copyright 1983,
 Carnegie Mellon University). Gaussian is a federally registered
 trademark of Gaussian, Inc.
  
 This software contains proprietary and confidential information,
 including trade secrets, belonging to Gaussian, Inc.
  
 This software is provided under written license and may be
 used, copied, transmitted, or stored only in accord with that
 written license.
  
 The following legend is applicable only to US Government
 contracts under FAR:
  
                    RESTRICTED RIGHTS LEGEND
  
 Use, reproduction and disclosure by the US Government is
 subject to restrictions as set forth in subparagraphs (a)
 and (c) of the Commercial Computer Software - Restricted
 Rights clause in FAR 52.227-19.
  
 Gaussian, Inc.
 340 Quinnipiac St., Bldg. 40, Wallingford CT 06492
  
  
 ---------------------------------------------------------------
 Warning -- This program may not be used in any manner that
 competes with the business of Gaussian, Inc. or will provide
 assistance to any competitor of Gaussian, Inc.  The licensee
 of this program is prohibited from giving any competitor of
 Gaussian, Inc. access to this program.  By using this program,
 the user acknowledges that Gaussian, Inc. is engaged in the
 business of creating and licensing software in the field of
 computational chemistry and represents and warrants to the
 licensee that it is not a competitor of Gaussian, Inc. and that
 it will not use this program in any manner prohibited above.
 ---------------------------------------------------------------
  

 Cite this work as:
 Gaussian 16, Revision B.01,
 M. J. Frisch, G. W. Trucks, H. B. Schlegel, G. E. Scuseria, 
 M. A. Robb, J. R. Cheeseman, G. Scalmani, V. Barone, 
 G. A. Petersson, H. Nakatsuji, X. Li, M. Caricato, A. V. Marenich, 
 J. Bloino, B. G. Janesko, R. Gomperts, B. Mennucci, H. P. Hratchian, 
 J. V. Ortiz, A. F. Izmaylov, J. L. Sonnenberg, D. Williams-Young, 
 F. Ding, F. Lipparini, F. Egidi, J. Goings, B. Peng, A. Petrone, 
 T. Henderson, D. Ranasinghe, V. G. Zakrzewski, J. Gao, N. Rega, 
 G. Zheng, W. Liang, M. Hada, M. Ehara, K. Toyota, R. Fukuda, 
 J. Hasegawa, M. Ishida, T. Nakajima, Y. Honda, O. Kitao, H. Nakai, 
 T. Vreven, K. Throssell, J. A. Montgomery, Jr., J. E. Peralta, 
 F. Ogliaro, M. J. Bearpark, J. J. Heyd, E. N. Brothers, K. N. Kudin, 
 V. N. Staroverov, T. A. Keith, R. Kobayashi, J. Normand, 
 K. Raghavachari, A. P. Rendell, J. C. Burant, S. S. Iyengar, 
 J. Tomasi, M. Cossi, J. M. Millam, M. Klene, C. Adamo, R. Cammi, 
 J. W. Ochterski, R. L. Martin, K. Morokuma, O. Farkas, 
 J. B. Foresman, and D. J. Fox, Gaussian, Inc., Wallingford CT, 2016.
 
 ******************************************
 Gaussian 16:  ES64L-G16RevB.01 20-Dec-2017
                24-Sep-2020 
 ******************************************
 %nproc=4
 Will use up to    4 processors via shared memory.
 %Chk=SM45_m2.b.5.pdb.xyz.mst.b.w.chk
 %mem=16GB
 ----------------------------------------------------------------------
 #p b3lyp/6-31G(d) opt freq NoSymm scf=(MaxCycle=2000,NoVarAcc,NoIncFoc
 k) scrf=(iefpcm,read,solvent=water)
 ----------------------------------------------------------------------
 1/18=20,19=15,26=3,38=1,40=2/1,3;
 2/9=110,12=2,15=1,17=6,18=5,40=1/2;
 3/5=1,6=6,7=1,11=2,25=1,30=1,70=2203,71=1,72=1,74=-5/1,2,3;
 4//1;
 5/5=100002,7=2000,38=1,53=1/2;
 6/7=2,8=2,9=2,10=2,28=1/1;
 7/30=1/1,2,3,16;
 1/18=20,19=15,26=3/3(2);
 2/9=110,15=1/2;
 99//99;
 2/9=110,15=1/2;
 3/5=1,6=6,7=1,11=2,25=1,30=1,70=2205,71=1,72=1,74=-5/1,2,3;
 4/5=5,16=3,69=1/1;
 5/5=100002,7=2000,38=1,53=1/2;
 7/30=1/1,2,3,16;
 1/18=20,19=15,26=3/3(-5);
 2/9=110,15=1/2;
 6/7=2,8=2,9=2,10=2,19=2,28=1/1;
 99/9=1/99;
 Leave Link    1 at Thu Sep 24 14:39:41 2020, MaxMem=  2147483648 cpu:               0.1 elap:               0.0
 (Enter /prod/apps/gaussian/g16b1/l101.exe)
 -------------------
 SM45_m2.b.5.pdb.xyz
 -------------------
 Symbolic Z-matrix:
 Charge =  1 Multiplicity = 1
 O                    -3.928    -1.528    -0.82 
 S                    -2.759    -1.169    -0.008 
 N                    -1.428    -1.663    -0.95 
 C                    -0.123    -1.446    -0.468 
 N                     0.427    -2.244     0.49 
 N                     1.65     -1.845     0.717 
 C                     0.811    -0.509    -0.857 
 N                     1.901    -0.797    -0.106 
 C                     3.175    -0.158    -0.105 
 C                     3.624     0.486    -1.259 
 C                     4.868     1.115    -1.244 
 C                     5.659     1.088    -0.094 
 C                     5.2       0.432     1.049 
 C                     3.952    -0.189     1.055 
 C                    -2.703     0.606     0.15 
 C                    -3.32      1.388    -0.828 
 C                    -3.255     2.777    -0.717 
 C                    -2.578     3.362     0.356 
 C                    -1.966     2.565     1.327 
 C                    -2.024     1.175     1.23 
 O                    -2.566    -1.754     1.323 
 H                    -1.564    -1.363    -1.917 
 H                     0.775     0.301    -1.565 
 H                     3.018     0.484    -2.158 
 H                     5.22      1.617    -2.139 
 H                     6.628     1.574    -0.09 
 H                     5.808     0.411     1.946 
 H                     3.577    -0.688     1.939 
 H                    -3.849     0.916    -1.646 
 H                    -3.734     3.397    -1.465 
 H                    -2.531     4.441     0.438 
 H                    -1.449     3.024     2.162 
 H                    -1.57      0.542     1.981 
 H                    -0.03     -3.009     0.944 
 
 ITRead=  0  0  0  0  0  0  0  0  0  0  0  0  0  0  0  0  0  0  0  0
 ITRead=  0  0  0  0  0  0  0  0  0  0  0  0  0  0
 MicOpt= -1 -1 -1 -1 -1 -1 -1 -1 -1 -1 -1 -1 -1 -1 -1 -1 -1 -1 -1 -1
 MicOpt= -1 -1 -1 -1 -1 -1 -1 -1 -1 -1 -1 -1 -1 -1
 NAtoms=     34 NQM=       34 NQMF=       0 NMMI=      0 NMMIF=      0
                NMic=       0 NMicF=      0.
                    Isotopes and Nuclear Properties:
 (Nuclear quadrupole moments (NQMom) in fm**2, nuclear magnetic moments (NMagM)
  in nuclear magnetons)

  Atom         1           2           3           4           5           6           7           8           9          10
 IAtWgt=          16          32          14          12          14          14          12          14          12          12
 AtmWgt=  15.9949146  31.9720718  14.0030740  12.0000000  14.0030740  14.0030740  12.0000000  14.0030740  12.0000000  12.0000000
 NucSpn=           0           0           2           0           2           2           0           2           0           0
 AtZEff=  -0.0000000  -0.0000000  -0.0000000  -0.0000000  -0.0000000  -0.0000000  -0.0000000  -0.0000000  -0.0000000  -0.0000000
 NQMom=    0.0000000   0.0000000   2.0440000   0.0000000   2.0440000   2.0440000   0.0000000   2.0440000   0.0000000   0.0000000
 NMagM=    0.0000000   0.0000000   0.4037610   0.0000000   0.4037610   0.4037610   0.0000000   0.4037610   0.0000000   0.0000000
 AtZNuc=   8.0000000  16.0000000   7.0000000   6.0000000   7.0000000   7.0000000   6.0000000   7.0000000   6.0000000   6.0000000

  Atom        11          12          13          14          15          16          17          18          19          20
 IAtWgt=          12          12          12          12          12          12          12          12          12          12
 AtmWgt=  12.0000000  12.0000000  12.0000000  12.0000000  12.0000000  12.0000000  12.0000000  12.0000000  12.0000000  12.0000000
 NucSpn=           0           0           0           0           0           0           0           0           0           0
 AtZEff=  -0.0000000  -0.0000000  -0.0000000  -0.0000000  -0.0000000  -0.0000000  -0.0000000  -0.0000000  -0.0000000  -0.0000000
 NQMom=    0.0000000   0.0000000   0.0000000   0.0000000   0.0000000   0.0000000   0.0000000   0.0000000   0.0000000   0.0000000
 NMagM=    0.0000000   0.0000000   0.0000000   0.0000000   0.0000000   0.0000000   0.0000000   0.0000000   0.0000000   0.0000000
 AtZNuc=   6.0000000   6.0000000   6.0000000   6.0000000   6.0000000   6.0000000   6.0000000   6.0000000   6.0000000   6.0000000

  Atom        21          22          23          24          25          26          27          28          29          30
 IAtWgt=          16           1           1           1           1           1           1           1           1           1
 AtmWgt=  15.9949146   1.0078250   1.0078250   1.0078250   1.0078250   1.0078250   1.0078250   1.0078250   1.0078250   1.0078250
 NucSpn=           0           1           1           1           1           1           1           1           1           1
 AtZEff=  -0.0000000  -0.0000000  -0.0000000  -0.0000000  -0.0000000  -0.0000000  -0.0000000  -0.0000000  -0.0000000  -0.0000000
 NQMom=    0.0000000   0.0000000   0.0000000   0.0000000   0.0000000   0.0000000   0.0000000   0.0000000   0.0000000   0.0000000
 NMagM=    0.0000000   2.7928460   2.7928460   2.7928460   2.7928460   2.7928460   2.7928460   2.7928460   2.7928460   2.7928460
 AtZNuc=   8.0000000   1.0000000   1.0000000   1.0000000   1.0000000   1.0000000   1.0000000   1.0000000   1.0000000   1.0000000

  Atom        31          32          33          34
 IAtWgt=           1           1           1           1
 AtmWgt=   1.0078250   1.0078250   1.0078250   1.0078250
 NucSpn=           1           1           1           1
 AtZEff=  -0.0000000  -0.0000000  -0.0000000  -0.0000000
 NQMom=    0.0000000   0.0000000   0.0000000   0.0000000
 NMagM=    2.7928460   2.7928460   2.7928460   2.7928460
 AtZNuc=   1.0000000   1.0000000   1.0000000   1.0000000
 Leave Link  101 at Thu Sep 24 14:39:41 2020, MaxMem=  2147483648 cpu:               1.3 elap:               0.3
 (Enter /prod/apps/gaussian/g16b1/l103.exe)

 GradGradGradGradGradGradGradGradGradGradGradGradGradGradGradGradGradGrad
 Berny optimization.
 Initialization pass.
                           ----------------------------
                           !    Initial Parameters    !
                           ! (Angstroms and Degrees)  !
 --------------------------                            --------------------------
 ! Name  Definition              Value          Derivative Info.                !
 --------------------------------------------------------------------------------
 ! R1    R(1,2)                  1.4679         estimate D2E/DX2                !
 ! R2    R(2,3)                  1.7038         estimate D2E/DX2                !
 ! R3    R(2,15)                 1.7829         estimate D2E/DX2                !
 ! R4    R(2,21)                 1.4666         estimate D2E/DX2                !
 ! R5    R(3,4)                  1.408          estimate D2E/DX2                !
 ! R6    R(3,22)                 1.0216         estimate D2E/DX2                !
 ! R7    R(4,5)                  1.3627         estimate D2E/DX2                !
 ! R8    R(4,7)                  1.379          estimate D2E/DX2                !
 ! R9    R(5,6)                  1.3063         estimate D2E/DX2                !
 ! R10   R(5,34)                 1.0001         estimate D2E/DX2                !
 ! R11   R(6,8)                  1.356          estimate D2E/DX2                !
 ! R12   R(7,8)                  1.3546         estimate D2E/DX2                !
 ! R13   R(7,23)                 1.0764         estimate D2E/DX2                !
 ! R14   R(8,9)                  1.4253         estimate D2E/DX2                !
 ! R15   R(9,10)                 1.3957         estimate D2E/DX2                !
 ! R16   R(9,14)                 1.3965         estimate D2E/DX2                !
 ! R17   R(10,11)                1.3941         estimate D2E/DX2                !
 ! R18   R(10,24)                1.0842         estimate D2E/DX2                !
 ! R19   R(11,12)                1.396          estimate D2E/DX2                !
 ! R20   R(11,25)                1.0849         estimate D2E/DX2                !
 ! R21   R(12,13)                1.3955         estimate D2E/DX2                !
 ! R22   R(12,26)                1.0841         estimate D2E/DX2                !
 ! R23   R(13,14)                1.394          estimate D2E/DX2                !
 ! R24   R(13,27)                1.0838         estimate D2E/DX2                !
 ! R25   R(14,28)                1.0822         estimate D2E/DX2                !
 ! R26   R(15,16)                1.396          estimate D2E/DX2                !
 ! R27   R(15,20)                1.3969         estimate D2E/DX2                !
 ! R28   R(16,17)                1.3949         estimate D2E/DX2                !
 ! R29   R(16,29)                1.0825         estimate D2E/DX2                !
 ! R30   R(17,18)                1.3971         estimate D2E/DX2                !
 ! R31   R(17,30)                1.0832         estimate D2E/DX2                !
 ! R32   R(18,19)                1.3974         estimate D2E/DX2                !
 ! R33   R(18,31)                1.0831         estimate D2E/DX2                !
 ! R34   R(19,20)                1.3946         estimate D2E/DX2                !
 ! R35   R(19,32)                1.0841         estimate D2E/DX2                !
 ! R36   R(20,33)                1.082          estimate D2E/DX2                !
 ! A1    A(1,2,3)              104.2038         estimate D2E/DX2                !
 ! A2    A(1,2,15)             108.5127         estimate D2E/DX2                !
 ! A3    A(1,2,21)             120.614          estimate D2E/DX2                !
 ! A4    A(3,2,15)             108.247          estimate D2E/DX2                !
 ! A5    A(3,2,21)             106.4572         estimate D2E/DX2                !
 ! A6    A(15,2,21)            108.2128         estimate D2E/DX2                !
 ! A7    A(2,3,4)              119.3469         estimate D2E/DX2                !
 ! A8    A(2,3,22)             109.5242         estimate D2E/DX2                !
 ! A9    A(4,3,22)             113.7145         estimate D2E/DX2                !
 ! A10   A(3,4,5)              121.6334         estimate D2E/DX2                !
 ! A11   A(3,4,7)              129.4877         estimate D2E/DX2                !
 ! A12   A(5,4,7)              108.8347         estimate D2E/DX2                !
 ! A13   A(4,5,6)              108.7329         estimate D2E/DX2                !
 ! A14   A(4,5,34)             125.6358         estimate D2E/DX2                !
 ! A15   A(6,5,34)             125.6313         estimate D2E/DX2                !
 ! A16   A(5,6,8)              107.6921         estimate D2E/DX2                !
 ! A17   A(4,7,8)              104.131          estimate D2E/DX2                !
 ! A18   A(4,7,23)             132.3918         estimate D2E/DX2                !
 ! A19   A(8,7,23)             123.4728         estimate D2E/DX2                !
 ! A20   A(6,8,7)              110.601          estimate D2E/DX2                !
 ! A21   A(6,8,9)              120.7669         estimate D2E/DX2                !
 ! A22   A(7,8,9)              128.6318         estimate D2E/DX2                !
 ! A23   A(8,9,10)             119.5932         estimate D2E/DX2                !
 ! A24   A(8,9,14)             119.2065         estimate D2E/DX2                !
 ! A25   A(10,9,14)            121.2003         estimate D2E/DX2                !
 ! A26   A(9,10,11)            119.1016         estimate D2E/DX2                !
 ! A27   A(9,10,24)            120.3265         estimate D2E/DX2                !
 ! A28   A(11,10,24)           120.5664         estimate D2E/DX2                !
 ! A29   A(10,11,12)           120.3813         estimate D2E/DX2                !
 ! A30   A(10,11,25)           119.3041         estimate D2E/DX2                !
 ! A31   A(12,11,25)           120.3114         estimate D2E/DX2                !
 ! A32   A(11,12,13)           119.8303         estimate D2E/DX2                !
 ! A33   A(11,12,26)           120.0555         estimate D2E/DX2                !
 ! A34   A(13,12,26)           120.1141         estimate D2E/DX2                !
 ! A35   A(12,13,14)           120.4911         estimate D2E/DX2                !
 ! A36   A(12,13,27)           120.1626         estimate D2E/DX2                !
 ! A37   A(14,13,27)           119.3424         estimate D2E/DX2                !
 ! A38   A(9,14,13)            118.9896         estimate D2E/DX2                !
 ! A39   A(9,14,28)            119.7332         estimate D2E/DX2                !
 ! A40   A(13,14,28)           121.2769         estimate D2E/DX2                !
 ! A41   A(2,15,16)            118.799          estimate D2E/DX2                !
 ! A42   A(2,15,20)            119.2962         estimate D2E/DX2                !
 ! A43   A(16,15,20)           121.893          estimate D2E/DX2                !
 ! A44   A(15,16,17)           118.7807         estimate D2E/DX2                !
 ! A45   A(15,16,29)           120.0766         estimate D2E/DX2                !
 ! A46   A(17,16,29)           121.1368         estimate D2E/DX2                !
 ! A47   A(16,17,18)           120.042          estimate D2E/DX2                !
 ! A48   A(16,17,30)           119.6289         estimate D2E/DX2                !
 ! A49   A(18,17,30)           120.3289         estimate D2E/DX2                !
 ! A50   A(17,18,19)           120.4702         estimate D2E/DX2                !
 ! A51   A(17,18,31)           119.7554         estimate D2E/DX2                !
 ! A52   A(19,18,31)           119.7738         estimate D2E/DX2                !
 ! A53   A(18,19,20)           120.1285         estimate D2E/DX2                !
 ! A54   A(18,19,32)           120.1729         estimate D2E/DX2                !
 ! A55   A(20,19,32)           119.6976         estimate D2E/DX2                !
 ! A56   A(15,20,19)           118.6852         estimate D2E/DX2                !
 ! A57   A(15,20,33)           120.1509         estimate D2E/DX2                !
 ! A58   A(19,20,33)           121.1552         estimate D2E/DX2                !
 ! D1    D(1,2,3,4)            179.0955         estimate D2E/DX2                !
 ! D2    D(1,2,3,22)            45.5516         estimate D2E/DX2                !
 ! D3    D(15,2,3,4)            63.7346         estimate D2E/DX2                !
 ! D4    D(15,2,3,22)          -69.8092         estimate D2E/DX2                !
 ! D5    D(21,2,3,4)           -52.404          estimate D2E/DX2                !
 ! D6    D(21,2,3,22)          174.0521         estimate D2E/DX2                !
 ! D7    D(1,2,15,16)          -24.6099         estimate D2E/DX2                !
 ! D8    D(1,2,15,20)          156.6157         estimate D2E/DX2                !
 ! D9    D(3,2,15,16)           87.9009         estimate D2E/DX2                !
 ! D10   D(3,2,15,20)          -90.8735         estimate D2E/DX2                !
 ! D11   D(21,2,15,16)        -157.1059         estimate D2E/DX2                !
 ! D12   D(21,2,15,20)          24.1196         estimate D2E/DX2                !
 ! D13   D(2,3,4,5)             77.4988         estimate D2E/DX2                !
 ! D14   D(2,3,4,7)           -105.2016         estimate D2E/DX2                !
 ! D15   D(22,3,4,5)          -150.7613         estimate D2E/DX2                !
 ! D16   D(22,3,4,7)            26.5382         estimate D2E/DX2                !
 ! D17   D(3,4,5,6)            178.0686         estimate D2E/DX2                !
 ! D18   D(3,4,5,34)            -1.906          estimate D2E/DX2                !
 ! D19   D(7,4,5,6)              0.2703         estimate D2E/DX2                !
 ! D20   D(7,4,5,34)          -179.7043         estimate D2E/DX2                !
 ! D21   D(3,4,7,8)           -177.2615         estimate D2E/DX2                !
 ! D22   D(3,4,7,23)             3.5088         estimate D2E/DX2                !
 ! D23   D(5,4,7,8)              0.3093         estimate D2E/DX2                !
 ! D24   D(5,4,7,23)          -178.9204         estimate D2E/DX2                !
 ! D25   D(4,5,6,8)             -0.7419         estimate D2E/DX2                !
 ! D26   D(34,5,6,8)           179.2327         estimate D2E/DX2                !
 ! D27   D(5,6,8,7)              0.9688         estimate D2E/DX2                !
 ! D28   D(5,6,8,9)           -178.8724         estimate D2E/DX2                !
 ! D29   D(4,7,8,6)             -0.7719         estimate D2E/DX2                !
 ! D30   D(4,7,8,9)            179.0534         estimate D2E/DX2                !
 ! D31   D(23,7,8,6)           178.5461         estimate D2E/DX2                !
 ! D32   D(23,7,8,9)            -1.6286         estimate D2E/DX2                !
 ! D33   D(6,8,9,10)           152.9394         estimate D2E/DX2                !
 ! D34   D(6,8,9,14)           -27.0567         estimate D2E/DX2                !
 ! D35   D(7,8,9,10)           -26.8703         estimate D2E/DX2                !
 ! D36   D(7,8,9,14)           153.1335         estimate D2E/DX2                !
 ! D37   D(8,9,10,11)          179.5947         estimate D2E/DX2                !
 ! D38   D(8,9,10,24)           -1.2509         estimate D2E/DX2                !
 ! D39   D(14,9,10,11)          -0.4093         estimate D2E/DX2                !
 ! D40   D(14,9,10,24)         178.7451         estimate D2E/DX2                !
 ! D41   D(8,9,14,13)          179.7007         estimate D2E/DX2                !
 ! D42   D(8,9,14,28)           -0.5174         estimate D2E/DX2                !
 ! D43   D(10,9,14,13)          -0.2954         estimate D2E/DX2                !
 ! D44   D(10,9,14,28)         179.4865         estimate D2E/DX2                !
 ! D45   D(9,10,11,12)           0.6778         estimate D2E/DX2                !
 ! D46   D(9,10,11,25)        -179.9685         estimate D2E/DX2                !
 ! D47   D(24,10,11,12)       -178.4745         estimate D2E/DX2                !
 ! D48   D(24,10,11,25)          0.8792         estimate D2E/DX2                !
 ! D49   D(10,11,12,13)         -0.2422         estimate D2E/DX2                !
 ! D50   D(10,11,12,26)        179.6476         estimate D2E/DX2                !
 ! D51   D(25,11,12,13)       -179.5894         estimate D2E/DX2                !
 ! D52   D(25,11,12,26)          0.3004         estimate D2E/DX2                !
 ! D53   D(11,12,13,14)         -0.4774         estimate D2E/DX2                !
 ! D54   D(11,12,13,27)       -179.7618         estimate D2E/DX2                !
 ! D55   D(26,12,13,14)        179.6329         estimate D2E/DX2                !
 ! D56   D(26,12,13,27)          0.3484         estimate D2E/DX2                !
 ! D57   D(12,13,14,9)           0.7398         estimate D2E/DX2                !
 ! D58   D(12,13,14,28)       -179.0386         estimate D2E/DX2                !
 ! D59   D(27,13,14,9)        -179.9699         estimate D2E/DX2                !
 ! D60   D(27,13,14,28)          0.2517         estimate D2E/DX2                !
 ! D61   D(2,15,16,17)        -178.8444         estimate D2E/DX2                !
 ! D62   D(2,15,16,29)           2.0243         estimate D2E/DX2                !
 ! D63   D(20,15,16,17)         -0.1033         estimate D2E/DX2                !
 ! D64   D(20,15,16,29)       -179.2345         estimate D2E/DX2                !
 ! D65   D(2,15,20,19)         178.7663         estimate D2E/DX2                !
 ! D66   D(2,15,20,33)          -2.2933         estimate D2E/DX2                !
 ! D67   D(16,15,20,19)          0.0312         estimate D2E/DX2                !
 ! D68   D(16,15,20,33)        178.9716         estimate D2E/DX2                !
 ! D69   D(15,16,17,18)          0.1996         estimate D2E/DX2                !
 ! D70   D(15,16,17,30)       -179.6379         estimate D2E/DX2                !
 ! D71   D(29,16,17,18)        179.3213         estimate D2E/DX2                !
 ! D72   D(29,16,17,30)         -0.5162         estimate D2E/DX2                !
 ! D73   D(16,17,18,19)         -0.2279         estimate D2E/DX2                !
 ! D74   D(16,17,18,31)       -179.9579         estimate D2E/DX2                !
 ! D75   D(30,17,18,19)        179.6084         estimate D2E/DX2                !
 ! D76   D(30,17,18,31)         -0.1216         estimate D2E/DX2                !
 ! D77   D(17,18,19,20)          0.1547         estimate D2E/DX2                !
 ! D78   D(17,18,19,32)       -179.4913         estimate D2E/DX2                !
 ! D79   D(31,18,19,20)        179.8846         estimate D2E/DX2                !
 ! D80   D(31,18,19,32)          0.2386         estimate D2E/DX2                !
 ! D81   D(18,19,20,15)         -0.0557         estimate D2E/DX2                !
 ! D82   D(18,19,20,33)       -178.985          estimate D2E/DX2                !
 ! D83   D(32,19,20,15)        179.592          estimate D2E/DX2                !
 ! D84   D(32,19,20,33)          0.6627         estimate D2E/DX2                !
 --------------------------------------------------------------------------------
 Trust Radius=3.00D-01 FncErr=1.00D-07 GrdErr=1.00D-06 EigMax=2.50D+02 EigMin=1.00D-04
 Number of steps in this run=    188 maximum allowed number of steps=    204.
 GradGradGradGradGradGradGradGradGradGradGradGradGradGradGradGradGradGrad

 Leave Link  103 at Thu Sep 24 14:39:41 2020, MaxMem=  2147483648 cpu:               0.1 elap:               0.0
 (Enter /prod/apps/gaussian/g16b1/l202.exe)
                          Input orientation:                          
 ---------------------------------------------------------------------
 Center     Atomic      Atomic             Coordinates (Angstroms)
 Number     Number       Type             X           Y           Z
 ---------------------------------------------------------------------
      1          8           0       -3.928000   -1.528000   -0.820000
      2         16           0       -2.759000   -1.169000   -0.008000
      3          7           0       -1.428000   -1.663000   -0.950000
      4          6           0       -0.123000   -1.446000   -0.468000
      5          7           0        0.427000   -2.244000    0.490000
      6          7           0        1.650000   -1.845000    0.717000
      7          6           0        0.811000   -0.509000   -0.857000
      8          7           0        1.901000   -0.797000   -0.106000
      9          6           0        3.175000   -0.158000   -0.105000
     10          6           0        3.624000    0.486000   -1.259000
     11          6           0        4.868000    1.115000   -1.244000
     12          6           0        5.659000    1.088000   -0.094000
     13          6           0        5.200000    0.432000    1.049000
     14          6           0        3.952000   -0.189000    1.055000
     15          6           0       -2.703000    0.606000    0.150000
     16          6           0       -3.320000    1.388000   -0.828000
     17          6           0       -3.255000    2.777000   -0.717000
     18          6           0       -2.578000    3.362000    0.356000
     19          6           0       -1.966000    2.565000    1.327000
     20          6           0       -2.024000    1.175000    1.230000
     21          8           0       -2.566000   -1.754000    1.323000
     22          1           0       -1.564000   -1.363000   -1.917000
     23          1           0        0.775000    0.301000   -1.565000
     24          1           0        3.018000    0.484000   -2.158000
     25          1           0        5.220000    1.617000   -2.139000
     26          1           0        6.628000    1.574000   -0.090000
     27          1           0        5.808000    0.411000    1.946000
     28          1           0        3.577000   -0.688000    1.939000
     29          1           0       -3.849000    0.916000   -1.646000
     30          1           0       -3.734000    3.397000   -1.465000
     31          1           0       -2.531000    4.441000    0.438000
     32          1           0       -1.449000    3.024000    2.162000
     33          1           0       -1.570000    0.542000    1.981000
     34          1           0       -0.030000   -3.009000    0.944000
 ---------------------------------------------------------------------
                    Distance matrix (angstroms):
                    1          2          3          4          5
     1  O    0.000000
     2  S    1.467919   0.000000
     3  N    2.507015   1.703808   0.000000
     4  C    3.822127   2.690135   1.407991   0.000000
     5  N    4.603779   3.399151   2.419129   1.362743   0.000000
     6  N    5.794561   4.519058   3.505153   2.169552   1.306315
     7  C    4.847458   3.728445   2.520612   1.379002   2.229818
     8  N    5.917888   4.675852   3.541826   2.156112   2.149814
     9  C    7.269163   6.020290   4.915960   3.559146   3.500989
    10  C    7.828258   6.711685   5.498762   4.289326   4.553319
    11  C    9.194283   8.057014   6.887912   5.663124   5.831991
    12  C    9.963990   8.715743   7.650249   6.323967   6.230337
    13  C    9.521300   8.186949   7.232939   5.844870   5.500453
    14  C    8.209930   6.864976   5.927656   4.528267   4.119208
    15  C    2.644897   1.782898   2.825595   3.353957   4.246763
    16  C    2.978722   2.743241   3.592095   4.287419   5.382245
    17  C    4.358505   4.039754   4.806851   5.263569   6.342272
    18  C    5.207454   4.549200   5.317778   5.461031   6.362014
    19  C    5.021126   4.043987   4.832200   4.765165   5.436313
    20  C    3.890235   2.750855   3.627928   3.656042   4.271365
    21  O    2.549229   1.466641   2.543591   3.044798   3.145161
    22  H    2.611346   2.260518   1.021560   2.045231   3.245596
    23  H    5.100831   4.132107   3.014752   2.249849   3.289552
    24  H    7.354271   6.381899   5.082892   4.055475   4.600779
    25  H    9.763027   8.715928   7.507864   6.381368   6.692668
    26  H   11.026533   9.779905   8.724500   7.405355   7.305198
    27  H   10.305347   8.927934   8.065233   6.667279   6.174473
    28  H    8.040069   6.645831   5.860629   4.478640   3.800426
    29  H    2.581018   2.866770   3.605121   4.566159   5.729945
    30  H    4.970844   4.890995   5.584484   6.122743   7.277144
    31  H    6.258046   5.632317   6.356254   6.424645   7.310383
    32  H    5.979839   4.899617   5.626096   5.353137   5.836676
    33  H    4.206027   2.880514   3.670552   3.470382   3.738032
    34  H    4.527633   3.426273   2.711707   2.108403   1.000095
                    6          7          8          9         10
     6  N    0.000000
     7  C    2.228518   0.000000
     8  N    1.355962   1.354638   0.000000
     9  C    2.418115   2.505434   1.425271   0.000000
    10  C    3.637968   3.010747   2.438079   1.395727   0.000000
    11  C    4.791935   4.387071   3.708622   2.405015   1.394060
    12  C    5.033119   5.160977   4.204276   2.779009   2.420920
    13  C    4.230538   4.876642   3.705114   2.404255   2.795274
    14  C    2.855833   3.691074   2.433965   1.396528   2.432654
    15  C    5.027673   3.821710   4.819830   5.932926   6.483102
    16  C    6.127007   4.545834   5.705642   6.715495   7.015590
    17  C    6.890447   5.229699   6.303264   7.094623   7.270701
    18  C    6.717079   5.285956   6.129614   6.760172   7.024557
    19  C    5.735473   4.683061   5.320735   5.991263   6.500595
    20  C    4.783497   3.902390   4.591220   5.530707   6.210455
    21  O    4.260302   4.207916   4.786646   6.127437   7.071098
    22  H    4.183309   2.737433   3.950481   5.214738   5.546811
    23  H    3.252455   1.076411   2.145265   2.846451   2.871352
    24  H    3.944780   2.747635   2.664461   2.156762   1.084178
    25  H    5.734726   5.059909   4.579983   3.386710   2.144942
    26  H    6.092725   6.226128   5.288329   3.863063   3.402105
    27  H    4.887631   5.802863   4.575436   3.385713   3.879111
    28  H    2.558371   3.937056   2.646296   2.149521   3.407006
    29  H    6.591350   4.936471   6.194229   7.270814   7.495358
    30  H    7.824778   6.023581   7.154701   7.888086   7.915587
    31  H    7.554628   6.111341   6.882965   7.348747   7.510383
    32  H    5.949705   5.167596   5.564743   6.053577   6.624199
    33  H    4.202840   3.850715   4.265716   5.230337   6.121958
    34  H    2.056411   3.193882   3.118366   4.415951   5.515428
                   11         12         13         14         15
    11  C    0.000000
    12  C    1.396034   0.000000
    13  C    2.415484   1.395516   0.000000
    14  C    2.797297   2.421731   1.393980   0.000000
    15  C    7.715073   8.379433   7.955871   6.763141   0.000000
    16  C    8.203105   9.013945   8.776529   7.675585   1.395957
    17  C    8.308014   9.093968   8.950129   7.992371   2.402006
    18  C    7.940524   8.556971   8.340410   7.465862   2.766514
    19  C    7.444199   7.895657   7.481880   6.533087   2.401287
    20  C    7.322837   7.796732   7.264364   6.132185   1.396854
    21  O    8.371679   8.816773   8.072449   6.708604   2.638996
    22  H    6.925607   7.842350   7.600716   6.374740   3.073560
    23  H    4.185485   5.161072   5.141088   4.147027   3.889824
    24  H    2.157790   3.405847   3.879262   3.413012   6.170218
    25  H    1.084865   2.157449   3.401172   3.882151   8.308765
    26  H    2.154065   1.084054   2.154221   3.402965   9.384145
    27  H    3.399311   2.154560   1.083842   2.144439   8.700618
    28  H    3.879301   3.409104   2.163476   1.082165   6.656828
    29  H    8.728533   9.635370   9.454189   8.328987   2.152912
    30  H    8.902290   9.769318   9.743089   8.847847   3.385390
    31  H    8.284721   8.865762   8.730049   7.990424   3.849643
    32  H    7.426278   7.704628   7.222633   6.381193   3.386353
    33  H    7.223351   7.540702   6.834737   5.646620   2.154146
    34  H    6.766471   7.087141   6.261342   4.880681   4.565478
                   16         17         18         19         20
    16  C    0.000000
    17  C    1.394943   0.000000
    18  C    2.418490   1.397098   0.000000
    19  C    2.804045   2.425778   1.397352   0.000000
    20  C    2.441383   2.805811   2.419455   1.394587   0.000000
    21  O    3.881685   5.016601   5.206601   4.360479   2.980177
    22  H    3.440561   4.630236   5.340445   5.110218   4.068987
    23  H    4.300438   4.805266   4.929764   4.582842   4.050963
    24  H    6.538835   6.832632   6.776304   6.427756   6.113738
    25  H    8.643076   8.671408   8.371311   8.034330   8.001316
    26  H    9.977071   9.975672   9.388626   8.766231   8.761205
    27  H    9.590098   9.737941   9.031140   8.090609   7.901682
    28  H    7.715872   8.107822   7.536074   6.456114   5.945137
    29  H    1.082474   2.163145   3.406811   3.886337   3.416004
    30  H    2.147847   1.083211   2.157221   3.407831   3.889011
    31  H    3.397953   2.151069   1.083132   2.151493   3.398686
    32  H    3.888089   3.407534   2.156507   1.084064   2.148965
    33  H    3.415947   3.887628   3.407211   2.162651   1.082038
    34  H    5.770415   6.829154   6.886776   5.913059   4.643672
                   21         22         23         24         25
    21  O    0.000000
    22  H    3.413867   0.000000
    23  H    4.870919   2.892010   0.000000
    24  H    6.950328   4.946131   2.327270   0.000000
    25  H    9.163563   7.412985   4.671119   2.476460   0.000000
    26  H    9.879362   8.892287   6.168773   4.300793   2.486506
    27  H    8.671749   8.509773   6.137614   4.963088   4.299698
    28  H    6.265162   6.461752   4.594273   4.297845   4.964127
    29  H    4.194037   3.238596   4.665422   6.899598   9.109402
    30  H    5.972434   5.250791   5.470493   7.386157   9.154059
    31  H    6.257993   6.337786   5.664031   7.293042   8.642564
    32  H    4.978041   5.991430   5.123615   6.713277   8.059393
    33  H    2.587778   4.338602   4.258077   6.179355   8.014619
    34  H    2.854814   3.639752   4.230745   5.577971   7.646389
                   26         27         28         29         30
    26  H    0.000000
    27  H    2.484002   0.000000
    28  H    4.306052   2.487008   0.000000
    29  H   10.612334  10.315771   8.400626   0.000000
    30  H   10.610608  10.564132   9.040197   2.490250   0.000000
    31  H    9.611751   9.383703   8.115868   4.301837   2.481643
    32  H    8.509520   7.716118   6.252148   4.970365   4.302962
    33  H    8.518290   7.379246   5.292095   4.299866   4.970798
    34  H    8.148743   6.839784   4.403126   6.057928   7.782013
                   31         32         33         34
    31  H    0.000000
    32  H    2.480078   0.000000
    33  H    4.301926   2.491531   0.000000
    34  H    7.874867   6.316183   4.007065   0.000000
 Symmetry turned off by external request.
 Stoichiometry    C14H13N4O2S(1+)
 Framework group  C1[X(C14H13N4O2S)]
 Deg. of freedom    96
 Full point group                 C1      NOp   1
 Rotational constants (GHZ):           0.5056818           0.1626784           0.1386942
 Leave Link  202 at Thu Sep 24 14:39:41 2020, MaxMem=  2147483648 cpu:               0.0 elap:               0.0
 (Enter /prod/apps/gaussian/g16b1/l301.exe)
 Standard basis: 6-31G(d) (6D, 7F)
 Ernie: Thresh=  0.10000D-02 Tol=  0.10000D-05 Strict=F.
   345 basis functions,   664 primitive gaussians,   345 cartesian basis functions
    78 alpha electrons       78 beta electrons
       nuclear repulsion energy      1760.4989049256 Hartrees.
 IExCor=  402 DFT=T Ex+Corr=B3LYP ExCW=0 ScaHFX=  0.200000
 ScaDFX=  0.800000  0.720000  1.000000  0.810000 ScalE2=  1.000000  1.000000
 IRadAn=      5 IRanWt=     -1 IRanGd=            0 ICorTp=0 IEmpDi=  4
 NAtoms=   34 NActive=   34 NUniq=   34 SFac= 1.00D+00 NAtFMM=   60 NAOKFM=F Big=F
 Integral buffers will be    131072 words long.
 Raffenetti 2 integral format.
 Two-electron integral symmetry is turned off.
 Using the following non-standard input for PCM:
 MSTModel=DFT cav MSTcharged
 --- end of non-standard input.
 MST model for solvation energy: B3LYP parametrization.
 MST cavity parameters:
 ISph   IAn     Re0     Alpha   Atom Type   QCorr
 ------------------------------------------------
   1      8     1.40     1.25      O          F
   2     16     1.75     1.25      S          F
   3      7     1.50     1.25      NH         F
   4      6     1.50     1.25      C          F
   5      7     1.50     1.15      NH         T
   6      7     1.40     1.25      N          F
   7      6     1.50     1.25      CH         F
   8      7     1.40     1.25      N          F
   9      6     1.50     1.25      C          F
  10      6     1.50     1.25      CH         F
  11      6     1.50     1.25      CH         F
  12      6     1.50     1.25      CH         F
  13      6     1.50     1.25      CH         F
  14      6     1.50     1.25      CH         F
  15      6     1.50     1.25      C          F
  16      6     1.50     1.25      CH         F
  17      6     1.50     1.25      CH         F
  18      6     1.50     1.25      CH         F
  19      6     1.50     1.25      CH         F
  20      6     1.50     1.25      CH         F
  21      8     1.40     1.25      O          F
  22      1     0.90     1.25      NH         F
  23      1     1.20     1.25      CH         F
  24      1     1.20     1.25      CH         F
  25      1     1.20     1.25      CH         F
  26      1     1.20     1.25      CH         F
  27      1     1.20     1.25      CH         F
  28      1     1.20     1.25      CH         F
  29      1     1.20     1.25      CH         F
  30      1     1.20     1.25      CH         F
  31      1     1.20     1.25      CH         F
  32      1     1.20     1.25      CH         F
  33      1     1.20     1.25      CH         F
  34      1     0.90     1.15      NH         T
 ------------------------------------------------------------------------------
 Polarizable Continuum Model (PCM)
 =================================
 Model                : PCM.
 Atomic radii         : MST.
 Polarization charges : Total charges.
 Charge compensation  : None.
 Solution method      : On-the-fly selection.
 Cavity type          : Scaled VdW (van der Waals Surface) (Alpha=1.250).
 Cavity algorithm     : GePol (No added spheres)
                        Default sphere list used, NSphG=   34.
                        Lebedev-Laikov grids with approx.  5.0 points / Ang**2.
                        Smoothing algorithm: York/Karplus (Gamma=1.0000).
                        Polarization charges: spherical gaussians, with
                                              point-specific exponents (IZeta= 3).
                        Self-potential: point-specific (ISelfS= 7).
                        Self-field    : sphere-specific E.n sum rule (ISelfD= 2).
 1st derivatives      : Analytical E(r).r(x)/FMM algorithm (CHGder, D1EAlg=3).
                        Cavity 1st derivative terms included.
 Solvent              : Water, Eps=  78.355300 Eps(inf)=   1.777849
 ------------------------------------------------------------------------------
 GePol: Number of generator spheres                  =      34
 GePol: Total number of spheres                      =      34
 GePol: Number of exposed spheres                    =      34 (100.00%)
 GePol: Number of points                             =    2679
 GePol: Average weight of points                     =       0.13
 GePol: Minimum weight of points                     =   0.10D-11
 GePol: Maximum weight of points                     =    0.22001
 GePol: Number of points with low weight             =     175
 GePol: Fraction of low-weight points (<1% of avg)   =       6.53%
 GePol: Cavity surface area                          =    341.129 Ang**2
 GePol: Cavity volume                                =    322.759 Ang**3
 PCM non-electrostatic energy =         0.0020272090 Hartrees.
 Nuclear repulsion after PCM non-electrostatic terms =     1760.5009321346 Hartrees.
 Leave Link  301 at Thu Sep 24 14:39:41 2020, MaxMem=  2147483648 cpu:               0.3 elap:               0.1
 (Enter /prod/apps/gaussian/g16b1/l302.exe)
 NPDir=0 NMtPBC=     1 NCelOv=     1 NCel=       1 NClECP=     1 NCelD=      1
         NCelK=      1 NCelE2=     1 NClLst=     1 CellRange=     0.0.
 One-electron integrals computed using PRISM.
 NBasis=   345 RedAO= T EigKep=  4.68D-04  NBF=   345
 NBsUse=   345 1.00D-06 EigRej= -1.00D+00 NBFU=   345
 Precomputing XC quadrature grid using
 IXCGrd= 4 IRadAn=           5 IRanWt=          -1 IRanGd=           0 AccXCQ= 0.00D+00.
 Generated NRdTot=       0 NPtTot=           0 NUsed=           0 NTot=          32
 NSgBfM=   343   343   343   343   343 MxSgAt=    34 MxSgA2=    34.
 Leave Link  302 at Thu Sep 24 14:39:41 2020, MaxMem=  2147483648 cpu:               1.7 elap:               0.4
 (Enter /prod/apps/gaussian/g16b1/l303.exe)
 DipDrv:  MaxL=1.
 Leave Link  303 at Thu Sep 24 14:39:42 2020, MaxMem=  2147483648 cpu:               0.1 elap:               0.1
 (Enter /prod/apps/gaussian/g16b1/l401.exe)
 ExpMin= 1.17D-01 ExpMax= 2.19D+04 ExpMxC= 3.30D+03 IAcc=3 IRadAn=         5 AccDes= 0.00D+00
 Harris functional with IExCor=  402 and IRadAn=       5 diagonalized for initial guess.
 HarFok:  IExCor=  402 AccDes= 0.00D+00 IRadAn=         5 IDoV= 1 UseB2=F ITyADJ=14
 ICtDFT=  3500011 ScaDFX=  1.000000  1.000000  1.000000  1.000000
 FoFCou: FMM=F IPFlag=           0 FMFlag=      100000 FMFlg1=           0
         NFxFlg=           0 DoJE=T BraDBF=F KetDBF=T FulRan=T
         wScrn=  0.000000 ICntrl=       500 IOpCl=  0 I1Cent=   200000004 NGrid=           0
         NMat0=    1 NMatS0=      1 NMatT0=    0 NMatD0=    1 NMtDS0=    0 NMtDT0=    0
 Symmetry not used in FoFCou.
 Harris En= -1308.64592567123    
 JPrj=0 DoOrth=F DoCkMO=F.
 Leave Link  401 at Thu Sep 24 14:39:44 2020, MaxMem=  2147483648 cpu:               9.8 elap:               2.5
 (Enter /prod/apps/gaussian/g16b1/l502.exe)
 Two-electron integral symmetry not used.
 Closed shell SCF:
 Using DIIS extrapolation, IDIIS=  1040.
 NGot=  2147483648 LenX=  2147240583 LenY=  2147121117
 Requested convergence on RMS density matrix=1.00D-08 within2000 cycles.
 Requested convergence on MAX density matrix=1.00D-06.
 Requested convergence on             energy=1.00D-06.
 No special actions if energy rises.

 Cycle   1  Pass 1  IDiag  1:
 FoFJK:  IHMeth= 1 ICntrl=       0 DoSepK=F KAlg= 0 I1Cent=           0 FoldK=F
 IRaf= 750000000 NMat=       1 IRICut=       1 DoRegI=T DoRafI=F ISym2E= 0 IDoP0=0 IntGTp=1.
 FoFCou: FMM=F IPFlag=           0 FMFlag=      100000 FMFlg1=           0
         NFxFlg=           0 DoJE=F BraDBF=F KetDBF=F FulRan=T
         wScrn=  0.000000 ICntrl=         0 IOpCl=  0 I1Cent=           0 NGrid=           0
         NMat0=    1 NMatS0=      1 NMatT0=    0 NMatD0=    1 NMtDS0=    0 NMtDT0=    0
 Symmetry not used in FoFCou.
 Inv3:  Mode=1 IEnd=    21531123.
 Iteration    1 A*A^-1 deviation from unit magnitude is 3.33D-15 for    629.
 Iteration    1 A*A^-1 deviation from orthogonality  is 2.75D-15 for   2100    235.
 Iteration    1 A^-1*A deviation from unit magnitude is 3.33D-15 for   1130.
 Iteration    1 A^-1*A deviation from orthogonality  is 1.50D-13 for   2395   2355.
 E= -1308.13517816045    
 DIIS: error= 3.02D-02 at cycle   1 NSaved=   1.
 NSaved= 1 IEnMin= 1 EnMin= -1308.13517816045     IErMin= 1 ErrMin= 3.02D-02
 ErrMax= 3.02D-02  0.00D+00 EMaxC= 1.00D-01 BMatC= 6.42D-01 BMatP= 6.42D-01
 IDIUse=3 WtCom= 6.98D-01 WtEn= 3.02D-01
 Coeff-Com:  0.100D+01
 Coeff-En:   0.100D+01
 Coeff:      0.100D+01
 Gap=     0.320 Goal=   None    Shift=    0.000
 GapD=    0.320 DampG=1.000 DampE=0.500 DampFc=0.5000 IDamp=-1.
 Damping current iteration by 5.00D-01
 RMSDP=5.91D-03 MaxDP=5.69D-01              OVMax= 3.09D-01

 Cycle   2  Pass 1  IDiag  1:
 E= -1308.27530276720     Delta-E=       -0.140124606753 Rises=F Damp=T
 DIIS: error= 1.37D-02 at cycle   2 NSaved=   2.
 NSaved= 2 IEnMin= 2 EnMin= -1308.27530276720     IErMin= 2 ErrMin= 1.37D-02
 ErrMax= 1.37D-02  0.00D+00 EMaxC= 1.00D-01 BMatC= 1.02D-01 BMatP= 6.42D-01
 IDIUse=3 WtCom= 8.63D-01 WtEn= 1.37D-01
 Coeff-Com:  0.229D+00 0.771D+00
 Coeff-En:   0.369D+00 0.631D+00
 Coeff:      0.248D+00 0.752D+00
 Gap=     0.175 Goal=   None    Shift=    0.000
 RMSDP=1.72D-03 MaxDP=1.30D-01 DE=-1.40D-01 OVMax= 1.91D-01

 Cycle   3  Pass 1  IDiag  1:
 E= -1308.67206823888     Delta-E=       -0.396765471678 Rises=F Damp=F
 DIIS: error= 7.81D-03 at cycle   3 NSaved=   3.
 NSaved= 3 IEnMin= 3 EnMin= -1308.67206823888     IErMin= 3 ErrMin= 7.81D-03
 ErrMax= 7.81D-03  0.00D+00 EMaxC= 1.00D-01 BMatC= 4.19D-02 BMatP= 1.02D-01
 IDIUse=3 WtCom= 9.22D-01 WtEn= 7.81D-02
 Coeff-Com:  0.614D-01 0.390D+00 0.549D+00
 Coeff-En:   0.000D+00 0.000D+00 0.100D+01
 Coeff:      0.566D-01 0.360D+00 0.584D+00
 Gap=     0.190 Goal=   None    Shift=    0.000
 RMSDP=8.28D-04 MaxDP=3.41D-02 DE=-3.97D-01 OVMax= 5.03D-02

 Cycle   4  Pass 1  IDiag  1:
 E= -1308.70347717408     Delta-E=       -0.031408935196 Rises=F Damp=F
 DIIS: error= 2.85D-03 at cycle   4 NSaved=   4.
 NSaved= 4 IEnMin= 4 EnMin= -1308.70347717408     IErMin= 4 ErrMin= 2.85D-03
 ErrMax= 2.85D-03  0.00D+00 EMaxC= 1.00D-01 BMatC= 7.63D-03 BMatP= 4.19D-02
 IDIUse=3 WtCom= 9.71D-01 WtEn= 2.85D-02
 Coeff-Com:  0.114D-02 0.869D-01 0.320D+00 0.592D+00
 Coeff-En:   0.000D+00 0.000D+00 0.143D+00 0.857D+00
 Coeff:      0.111D-02 0.844D-01 0.315D+00 0.600D+00
 Gap=     0.178 Goal=   None    Shift=    0.000
 RMSDP=2.85D-04 MaxDP=1.30D-02 DE=-3.14D-02 OVMax= 1.77D-02

 Cycle   5  Pass 1  IDiag  1:
 E= -1308.70972441957     Delta-E=       -0.006247245491 Rises=F Damp=F
 DIIS: error= 7.19D-04 at cycle   5 NSaved=   5.
 NSaved= 5 IEnMin= 5 EnMin= -1308.70972441957     IErMin= 5 ErrMin= 7.19D-04
 ErrMax= 7.19D-04  0.00D+00 EMaxC= 1.00D-01 BMatC= 5.84D-04 BMatP= 7.63D-03
 IDIUse=3 WtCom= 9.93D-01 WtEn= 7.19D-03
 Coeff-Com: -0.442D-02 0.175D-01 0.121D+00 0.314D+00 0.552D+00
 Coeff-En:   0.000D+00 0.000D+00 0.000D+00 0.000D+00 0.100D+01
 Coeff:     -0.439D-02 0.174D-01 0.120D+00 0.312D+00 0.555D+00
 Gap=     0.179 Goal=   None    Shift=    0.000
 RMSDP=8.51D-05 MaxDP=3.64D-03 DE=-6.25D-03 OVMax= 6.64D-03

 Cycle   6  Pass 1  IDiag  1:
 E= -1308.71021531167     Delta-E=       -0.000490892100 Rises=F Damp=F
 DIIS: error= 3.27D-04 at cycle   6 NSaved=   6.
 NSaved= 6 IEnMin= 6 EnMin= -1308.71021531167     IErMin= 6 ErrMin= 3.27D-04
 ErrMax= 3.27D-04  0.00D+00 EMaxC= 1.00D-01 BMatC= 6.59D-05 BMatP= 5.84D-04
 IDIUse=3 WtCom= 9.97D-01 WtEn= 3.27D-03
 Coeff-Com: -0.258D-02 0.399D-02 0.425D-01 0.125D+00 0.317D+00 0.515D+00
 Coeff-En:   0.000D+00 0.000D+00 0.000D+00 0.000D+00 0.533D-01 0.947D+00
 Coeff:     -0.257D-02 0.398D-02 0.424D-01 0.124D+00 0.316D+00 0.516D+00
 Gap=     0.179 Goal=   None    Shift=    0.000
 RMSDP=2.77D-05 MaxDP=1.15D-03 DE=-4.91D-04 OVMax= 2.40D-03

 Cycle   7  Pass 1  IDiag  1:
 E= -1308.71027694482     Delta-E=       -0.000061633153 Rises=F Damp=F
 DIIS: error= 8.22D-05 at cycle   7 NSaved=   7.
 NSaved= 7 IEnMin= 7 EnMin= -1308.71027694482     IErMin= 7 ErrMin= 8.22D-05
 ErrMax= 8.22D-05  0.00D+00 EMaxC= 1.00D-01 BMatC= 5.20D-06 BMatP= 6.59D-05
 IDIUse=1 WtCom= 1.00D+00 WtEn= 0.00D+00
 Coeff-Com: -0.116D-02 0.655D-03 0.135D-01 0.435D-01 0.132D+00 0.288D+00
 Coeff-Com:  0.523D+00
 Coeff:     -0.116D-02 0.655D-03 0.135D-01 0.435D-01 0.132D+00 0.288D+00
 Coeff:      0.523D+00
 Gap=     0.179 Goal=   None    Shift=    0.000
 RMSDP=7.07D-06 MaxDP=3.85D-04 DE=-6.16D-05 OVMax= 5.36D-04

 Cycle   8  Pass 1  IDiag  1:
 E= -1308.71028120592     Delta-E=       -0.000004261099 Rises=F Damp=F
 DIIS: error= 2.55D-05 at cycle   8 NSaved=   8.
 NSaved= 8 IEnMin= 8 EnMin= -1308.71028120592     IErMin= 8 ErrMin= 2.55D-05
 ErrMax= 2.55D-05  0.00D+00 EMaxC= 1.00D-01 BMatC= 5.26D-07 BMatP= 5.20D-06
 IDIUse=1 WtCom= 1.00D+00 WtEn= 0.00D+00
 Coeff-Com: -0.303D-03-0.161D-03 0.160D-02 0.698D-02 0.303D-01 0.910D-01
 Coeff-Com:  0.284D+00 0.587D+00
 Coeff:     -0.303D-03-0.161D-03 0.160D-02 0.698D-02 0.303D-01 0.910D-01
 Coeff:      0.284D+00 0.587D+00
 Gap=     0.179 Goal=   None    Shift=    0.000
 RMSDP=2.23D-06 MaxDP=1.33D-04 DE=-4.26D-06 OVMax= 1.54D-04

 Cycle   9  Pass 1  IDiag  1:
 E= -1308.71028163684     Delta-E=       -0.000000430925 Rises=F Damp=F
 DIIS: error= 6.66D-06 at cycle   9 NSaved=   9.
 NSaved= 9 IEnMin= 9 EnMin= -1308.71028163684     IErMin= 9 ErrMin= 6.66D-06
 ErrMax= 6.66D-06  0.00D+00 EMaxC= 1.00D-01 BMatC= 3.79D-08 BMatP= 5.26D-07
 IDIUse=1 WtCom= 1.00D+00 WtEn= 0.00D+00
 Coeff-Com: -0.744D-05-0.134D-03-0.792D-03-0.181D-02-0.126D-02 0.892D-02
 Coeff-Com:  0.694D-01 0.271D+00 0.654D+00
 Coeff:     -0.744D-05-0.134D-03-0.792D-03-0.181D-02-0.126D-02 0.892D-02
 Coeff:      0.694D-01 0.271D+00 0.654D+00
 Gap=     0.179 Goal=   None    Shift=    0.000
 RMSDP=6.00D-07 MaxDP=3.24D-05 DE=-4.31D-07 OVMax= 4.05D-05

 Cycle  10  Pass 1  IDiag  1:
 E= -1308.71028166810     Delta-E=       -0.000000031259 Rises=F Damp=F
 DIIS: error= 2.01D-06 at cycle  10 NSaved=  10.
 NSaved=10 IEnMin=10 EnMin= -1308.71028166810     IErMin=10 ErrMin= 2.01D-06
 ErrMax= 2.01D-06  0.00D+00 EMaxC= 1.00D-01 BMatC= 2.91D-09 BMatP= 3.79D-08
 IDIUse=1 WtCom= 1.00D+00 WtEn= 0.00D+00
 Coeff-Com:  0.796D-05-0.522D-04-0.439D-03-0.116D-02-0.197D-02 0.496D-03
 Coeff-Com:  0.208D-01 0.108D+00 0.317D+00 0.557D+00
 Coeff:      0.796D-05-0.522D-04-0.439D-03-0.116D-02-0.197D-02 0.496D-03
 Coeff:      0.208D-01 0.108D+00 0.317D+00 0.557D+00
 Gap=     0.179 Goal=   None    Shift=    0.000
 RMSDP=1.94D-07 MaxDP=8.54D-06 DE=-3.13D-08 OVMax= 1.89D-05

 Cycle  11  Pass 1  IDiag  1:
 E= -1308.71028167047     Delta-E=       -0.000000002363 Rises=F Damp=F
 DIIS: error= 7.87D-07 at cycle  11 NSaved=  11.
 NSaved=11 IEnMin=11 EnMin= -1308.71028167047     IErMin=11 ErrMin= 7.87D-07
 ErrMax= 7.87D-07  0.00D+00 EMaxC= 1.00D-01 BMatC= 4.16D-10 BMatP= 2.91D-09
 IDIUse=1 WtCom= 1.00D+00 WtEn= 0.00D+00
 Coeff-Com:  0.535D-05-0.548D-05-0.108D-03-0.320D-03-0.860D-03-0.112D-02
 Coeff-Com: -0.371D-03 0.128D-01 0.546D-01 0.293D+00 0.642D+00
 Coeff:      0.535D-05-0.548D-05-0.108D-03-0.320D-03-0.860D-03-0.112D-02
 Coeff:     -0.371D-03 0.128D-01 0.546D-01 0.293D+00 0.642D+00
 Gap=     0.179 Goal=   None    Shift=    0.000
 RMSDP=7.12D-08 MaxDP=3.96D-06 DE=-2.36D-09 OVMax= 5.38D-06

 Cycle  12  Pass 1  IDiag  1:
 E= -1308.71028167077     Delta-E=       -0.000000000306 Rises=F Damp=F
 DIIS: error= 3.61D-07 at cycle  12 NSaved=  12.
 NSaved=12 IEnMin=12 EnMin= -1308.71028167077     IErMin=12 ErrMin= 3.61D-07
 ErrMax= 3.61D-07  0.00D+00 EMaxC= 1.00D-01 BMatC= 7.80D-11 BMatP= 4.16D-10
 IDIUse=1 WtCom= 1.00D+00 WtEn= 0.00D+00
 Coeff-Com:  0.296D-05 0.711D-06-0.338D-04-0.112D-03-0.405D-03-0.819D-03
 Coeff-Com: -0.221D-02-0.135D-02 0.625D-02 0.142D+00 0.405D+00 0.451D+00
 Coeff:      0.296D-05 0.711D-06-0.338D-04-0.112D-03-0.405D-03-0.819D-03
 Coeff:     -0.221D-02-0.135D-02 0.625D-02 0.142D+00 0.405D+00 0.451D+00
 Gap=     0.179 Goal=   None    Shift=    0.000
 RMSDP=2.58D-08 MaxDP=1.32D-06 DE=-3.06D-10 OVMax= 2.09D-06

 Cycle  13  Pass 1  IDiag  1:
 E= -1308.71028167084     Delta-E=       -0.000000000066 Rises=F Damp=F
 DIIS: error= 6.33D-08 at cycle  13 NSaved=  13.
 NSaved=13 IEnMin=13 EnMin= -1308.71028167084     IErMin=13 ErrMin= 6.33D-08
 ErrMax= 6.33D-08  0.00D+00 EMaxC= 1.00D-01 BMatC= 2.42D-12 BMatP= 7.80D-11
 IDIUse=1 WtCom= 1.00D+00 WtEn= 0.00D+00
 Coeff-Com:  0.458D-06 0.775D-06 0.108D-05-0.247D-06-0.401D-04-0.170D-03
 Coeff-Com: -0.778D-03-0.213D-02-0.567D-02 0.158D-01 0.632D-01 0.173D+00
 Coeff-Com:  0.757D+00
 Coeff:      0.458D-06 0.775D-06 0.108D-05-0.247D-06-0.401D-04-0.170D-03
 Coeff:     -0.778D-03-0.213D-02-0.567D-02 0.158D-01 0.632D-01 0.173D+00
 Coeff:      0.757D+00
 Gap=     0.179 Goal=   None    Shift=    0.000
 RMSDP=6.43D-09 MaxDP=2.54D-07 DE=-6.59D-11 OVMax= 6.29D-07

 Error on total polarization charges =  0.02134
 SCF Done:  E(RB3LYP) =  -1308.71028167     A.U. after   13 cycles
            NFock= 13  Conv=0.64D-08     -V/T= 2.0079
 KE= 1.298448590333D+03 PE=-6.559038477108D+03 EE= 2.191378672970D+03
 Leave Link  502 at Thu Sep 24 14:41:07 2020, MaxMem=  2147483648 cpu:             329.8 elap:              82.5
 (Enter /prod/apps/gaussian/g16b1/l601.exe)
 Copying SCF densities to generalized density rwf, IOpCl= 0 IROHF=0.

 **********************************************************************

            Population analysis using the SCF Density.

 **********************************************************************

 Alpha  occ. eigenvalues --  -89.13823 -19.17000 -19.16833 -14.50137 -14.48481
 Alpha  occ. eigenvalues --  -14.46312 -14.40689 -10.32236 -10.28447 -10.26774
 Alpha  occ. eigenvalues --  -10.23993 -10.22030 -10.21890 -10.21845 -10.21731
 Alpha  occ. eigenvalues --  -10.21069 -10.21060 -10.20986 -10.20907 -10.20900
 Alpha  occ. eigenvalues --  -10.20886  -8.16368  -6.12886  -6.12791  -6.12634
 Alpha  occ. eigenvalues --   -1.17860  -1.13628  -1.02669  -1.01467  -0.96814
 Alpha  occ. eigenvalues --   -0.88136  -0.88111  -0.85688  -0.80242  -0.78668
 Alpha  occ. eigenvalues --   -0.77068  -0.76804  -0.72250  -0.71128  -0.68547
 Alpha  occ. eigenvalues --   -0.63846  -0.63036  -0.62792  -0.61883  -0.59393
 Alpha  occ. eigenvalues --   -0.56869  -0.56575  -0.55397  -0.54233  -0.52495
 Alpha  occ. eigenvalues --   -0.51140  -0.50936  -0.49566  -0.48229  -0.47092
 Alpha  occ. eigenvalues --   -0.46056  -0.45906  -0.45597  -0.44323  -0.44258
 Alpha  occ. eigenvalues --   -0.41942  -0.39578  -0.38863  -0.38426  -0.37989
 Alpha  occ. eigenvalues --   -0.37458  -0.37025  -0.36601  -0.36216  -0.35035
 Alpha  occ. eigenvalues --   -0.34380  -0.33394  -0.32847  -0.29597  -0.27625
 Alpha  occ. eigenvalues --   -0.27356  -0.27206  -0.26736
 Alpha virt. eigenvalues --   -0.08806  -0.05113  -0.02885  -0.02223  -0.02034
 Alpha virt. eigenvalues --   -0.00085   0.05064   0.07439   0.07618   0.08028
 Alpha virt. eigenvalues --    0.08674   0.09534   0.10481   0.11650   0.12105
 Alpha virt. eigenvalues --    0.13814   0.14124   0.14336   0.14932   0.15312
 Alpha virt. eigenvalues --    0.15837   0.16367   0.16906   0.18044   0.18632
 Alpha virt. eigenvalues --    0.18761   0.19364   0.20833   0.21897   0.26393
 Alpha virt. eigenvalues --    0.27375   0.28606   0.28752   0.29077   0.29327
 Alpha virt. eigenvalues --    0.30451   0.31157   0.32837   0.33554   0.33804
 Alpha virt. eigenvalues --    0.36334   0.38241   0.40271   0.42327   0.45599
 Alpha virt. eigenvalues --    0.47012   0.47627   0.49034   0.50427   0.50978
 Alpha virt. eigenvalues --    0.51228   0.52115   0.53043   0.53642   0.54316
 Alpha virt. eigenvalues --    0.55189   0.55910   0.56335   0.56735   0.57055
 Alpha virt. eigenvalues --    0.57164   0.57552   0.57741   0.59067   0.59358
 Alpha virt. eigenvalues --    0.59504   0.59831   0.59910   0.60189   0.60328
 Alpha virt. eigenvalues --    0.60962   0.62048   0.62559   0.63541   0.64381
 Alpha virt. eigenvalues --    0.65749   0.67468   0.69792   0.71118   0.72378
 Alpha virt. eigenvalues --    0.73453   0.74510   0.76343   0.76977   0.77219
 Alpha virt. eigenvalues --    0.77712   0.79013   0.79939   0.80784   0.81865
 Alpha virt. eigenvalues --    0.82633   0.82956   0.83358   0.83465   0.84222
 Alpha virt. eigenvalues --    0.84553   0.85237   0.85964   0.87750   0.88257
 Alpha virt. eigenvalues --    0.89289   0.89931   0.90825   0.91786   0.92465
 Alpha virt. eigenvalues --    0.93065   0.93772   0.94114   0.96478   0.97481
 Alpha virt. eigenvalues --    0.97928   1.00504   1.00822   1.02307   1.03185
 Alpha virt. eigenvalues --    1.04647   1.05883   1.07146   1.07708   1.10357
 Alpha virt. eigenvalues --    1.12011   1.12910   1.13502   1.14070   1.15188
 Alpha virt. eigenvalues --    1.15903   1.16883   1.17629   1.18458   1.19768
 Alpha virt. eigenvalues --    1.23018   1.23457   1.23846   1.24052   1.28821
 Alpha virt. eigenvalues --    1.29024   1.30987   1.33071   1.36521   1.36949
 Alpha virt. eigenvalues --    1.38991   1.40699   1.41280   1.42186   1.43024
 Alpha virt. eigenvalues --    1.43545   1.44419   1.45272   1.45424   1.46957
 Alpha virt. eigenvalues --    1.47169   1.48514   1.48729   1.49231   1.53770
 Alpha virt. eigenvalues --    1.56396   1.59321   1.61870   1.65848   1.68965
 Alpha virt. eigenvalues --    1.70842   1.73175   1.75126   1.76552   1.77651
 Alpha virt. eigenvalues --    1.78317   1.78879   1.79392   1.82166   1.82927
 Alpha virt. eigenvalues --    1.83660   1.84182   1.86500   1.86764   1.88202
 Alpha virt. eigenvalues --    1.88969   1.90853   1.93174   1.93412   1.95131
 Alpha virt. eigenvalues --    1.96059   1.96649   1.98380   2.00868   2.01822
 Alpha virt. eigenvalues --    2.03258   2.05629   2.06737   2.07261   2.08418
 Alpha virt. eigenvalues --    2.08907   2.11215   2.12378   2.12503   2.12834
 Alpha virt. eigenvalues --    2.13223   2.13811   2.14351   2.15487   2.16541
 Alpha virt. eigenvalues --    2.18692   2.20078   2.22577   2.24364   2.26994
 Alpha virt. eigenvalues --    2.27679   2.28048   2.28191   2.28943   2.30469
 Alpha virt. eigenvalues --    2.32332   2.33058   2.34668   2.43866   2.48735
 Alpha virt. eigenvalues --    2.49463   2.53445   2.54379   2.56225   2.56724
 Alpha virt. eigenvalues --    2.57274   2.60062   2.62328   2.62728   2.64726
 Alpha virt. eigenvalues --    2.65184   2.67552   2.69744   2.70100   2.70837
 Alpha virt. eigenvalues --    2.71375   2.72218   2.72745   2.74673   2.76281
 Alpha virt. eigenvalues --    2.77926   2.81782   2.83462   2.86353   2.94697
 Alpha virt. eigenvalues --    3.01484   3.05668   3.10483   3.22442   3.36568
 Alpha virt. eigenvalues --    3.40783   3.57138   3.76077   3.89967   3.94412
 Alpha virt. eigenvalues --    4.02577   4.05060   4.06771   4.07688   4.09411
 Alpha virt. eigenvalues --    4.09634   4.09897   4.13840   4.17219   4.18130
 Alpha virt. eigenvalues --    4.30710   4.31118   4.34209   4.37892   4.48249
 Alpha virt. eigenvalues --    4.65041   4.69596
          Condensed to atoms (all electrons):
               1          2          3          4          5          6
     1  O    8.251202   0.442407  -0.049962   0.001604  -0.000014   0.000000
     2  S    0.442407  13.684071   0.118771  -0.020300  -0.000814   0.000298
     3  N   -0.049962   0.118771   7.347245   0.290185  -0.060098   0.004723
     4  C    0.001604  -0.020300   0.290185   4.585969   0.294784  -0.069996
     5  N   -0.000014  -0.000814  -0.060098   0.294784   6.652683   0.252303
     6  N    0.000000   0.000298   0.004723  -0.069996   0.252303   6.683548
     7  C   -0.000023  -0.005975  -0.069837   0.515554  -0.049378  -0.096025
     8  N    0.000000   0.000173   0.003944  -0.008406  -0.071885   0.276560
     9  C   -0.000000  -0.000012  -0.000123   0.002125   0.005532  -0.049972
    10  C   -0.000000   0.000000   0.000006   0.001306  -0.000275   0.003083
    11  C   -0.000000   0.000000   0.000000  -0.000009   0.000002  -0.000059
    12  C   -0.000000  -0.000000  -0.000000   0.000000  -0.000000   0.000014
    13  C   -0.000000  -0.000000  -0.000000   0.000007  -0.000004   0.000235
    14  C    0.000000   0.000000   0.000000  -0.000588   0.000399  -0.000971
    15  C   -0.059309   0.200571  -0.060524  -0.001661  -0.000172  -0.000007
    16  C    0.002823  -0.024962  -0.001125  -0.000051  -0.000007  -0.000000
    17  C    0.000485   0.003024  -0.000096  -0.000017   0.000000  -0.000000
    18  C   -0.000005  -0.000276   0.000005   0.000006   0.000000   0.000000
    19  C   -0.000041   0.002400  -0.000104   0.000051   0.000003  -0.000000
    20  C    0.001381  -0.024392  -0.002415   0.000539  -0.000073  -0.000015
    21  O   -0.041056   0.425037  -0.053185   0.002399   0.000766   0.000013
    22  H    0.001132  -0.003182   0.297913  -0.025373   0.001893  -0.000022
    23  H   -0.000001   0.000136  -0.001388  -0.022727   0.002636   0.002952
    24  H   -0.000000  -0.000000   0.000000   0.000070  -0.000006  -0.000077
    25  H    0.000000   0.000000   0.000000   0.000000  -0.000000   0.000001
    26  H   -0.000000  -0.000000  -0.000000  -0.000000  -0.000000   0.000000
    27  H    0.000000   0.000000   0.000000  -0.000000   0.000000  -0.000007
    28  H   -0.000000  -0.000000  -0.000000   0.000015  -0.000292   0.011511
    29  H    0.008047  -0.002910   0.000046   0.000005  -0.000000   0.000000
    30  H    0.000001  -0.000068   0.000001  -0.000000  -0.000000   0.000000
    31  H   -0.000000   0.000007  -0.000000  -0.000000   0.000000  -0.000000
    32  H    0.000000  -0.000065   0.000001  -0.000001  -0.000000   0.000000
    33  H    0.000060  -0.003233  -0.000017   0.000208   0.000130   0.000044
    34  H   -0.000016   0.000852   0.001013  -0.023480   0.310095  -0.023597
               7          8          9         10         11         12
     1  O   -0.000023   0.000000  -0.000000  -0.000000  -0.000000  -0.000000
     2  S   -0.005975   0.000173  -0.000012   0.000000   0.000000  -0.000000
     3  N   -0.069837   0.003944  -0.000123   0.000006   0.000000  -0.000000
     4  C    0.515554  -0.008406   0.002125   0.001306  -0.000009   0.000000
     5  N   -0.049378  -0.071885   0.005532  -0.000275   0.000002  -0.000000
     6  N   -0.096025   0.276560  -0.049972   0.003083  -0.000059   0.000014
     7  C    4.954441   0.299589  -0.033760  -0.004726  -0.000001   0.000018
     8  N    0.299589   6.785946   0.201349  -0.048645   0.004474   0.000309
     9  C   -0.033760   0.201349   4.628709   0.529727  -0.010536  -0.037024
    10  C   -0.004726  -0.048645   0.529727   4.962562   0.531117  -0.040140
    11  C   -0.000001   0.004474  -0.010536   0.531117   4.854144   0.541092
    12  C    0.000018   0.000309  -0.037024  -0.040140   0.541092   4.856823
    13  C   -0.000078   0.004445  -0.011223  -0.041789  -0.024267   0.537720
    14  C    0.006569  -0.053291   0.515902  -0.067860  -0.041199  -0.038850
    15  C    0.001925  -0.000025  -0.000002   0.000000   0.000000   0.000000
    16  C    0.000245   0.000001  -0.000000   0.000000   0.000000  -0.000000
    17  C   -0.000001   0.000000  -0.000000   0.000000   0.000000  -0.000000
    18  C   -0.000017   0.000000   0.000000  -0.000000  -0.000000   0.000000
    19  C    0.000004  -0.000007   0.000001  -0.000000  -0.000000   0.000000
    20  C    0.001955  -0.000129   0.000001  -0.000000  -0.000000   0.000000
    21  O    0.000099   0.000002   0.000000  -0.000000  -0.000000   0.000000
    22  H   -0.001991  -0.000004   0.000002  -0.000000  -0.000000  -0.000000
    23  H    0.365886  -0.030973  -0.002194   0.002303   0.000117  -0.000001
    24  H    0.005314  -0.008829  -0.040321   0.355448  -0.031727   0.004152
    25  H   -0.000003  -0.000107   0.003374  -0.036749   0.364821  -0.038326
    26  H   -0.000000   0.000004   0.000497   0.004830  -0.040381   0.366643
    27  H    0.000001  -0.000104   0.003471   0.000710   0.004365  -0.038923
    28  H    0.000139  -0.012182  -0.039722   0.005084   0.000113   0.004309
    29  H    0.000003  -0.000000   0.000000   0.000000   0.000000  -0.000000
    30  H   -0.000000   0.000000  -0.000000   0.000000   0.000000   0.000000
    31  H    0.000000  -0.000000   0.000000  -0.000000  -0.000000  -0.000000
    32  H   -0.000004   0.000000  -0.000000   0.000000   0.000000   0.000000
    33  H    0.000032  -0.000015   0.000000   0.000000  -0.000000   0.000000
    34  H    0.004447   0.003174  -0.000012   0.000001  -0.000000  -0.000000
              13         14         15         16         17         18
     1  O   -0.000000   0.000000  -0.059309   0.002823   0.000485  -0.000005
     2  S   -0.000000   0.000000   0.200571  -0.024962   0.003024  -0.000276
     3  N   -0.000000   0.000000  -0.060524  -0.001125  -0.000096   0.000005
     4  C    0.000007  -0.000588  -0.001661  -0.000051  -0.000017   0.000006
     5  N   -0.000004   0.000399  -0.000172  -0.000007   0.000000   0.000000
     6  N    0.000235  -0.000971  -0.000007  -0.000000  -0.000000   0.000000
     7  C   -0.000078   0.006569   0.001925   0.000245  -0.000001  -0.000017
     8  N    0.004445  -0.053291  -0.000025   0.000001   0.000000   0.000000
     9  C   -0.011223   0.515902  -0.000002  -0.000000  -0.000000   0.000000
    10  C   -0.041789  -0.067860   0.000000   0.000000   0.000000  -0.000000
    11  C   -0.024267  -0.041199   0.000000   0.000000   0.000000  -0.000000
    12  C    0.537720  -0.038850   0.000000  -0.000000  -0.000000   0.000000
    13  C    4.865391   0.525453   0.000000   0.000000   0.000000   0.000000
    14  C    0.525453   4.964344  -0.000000  -0.000000   0.000000   0.000000
    15  C    0.000000  -0.000000   5.347838   0.480306  -0.028821  -0.038255
    16  C    0.000000  -0.000000   0.480306   4.936318   0.511701  -0.031261
    17  C    0.000000   0.000000  -0.028821   0.511701   4.882133   0.537138
    18  C    0.000000   0.000000  -0.038255  -0.031261   0.537138   4.855168
    19  C   -0.000000   0.000000  -0.030057  -0.037296  -0.030633   0.538396
    20  C   -0.000000  -0.000000   0.482335  -0.034707  -0.037270  -0.032187
    21  O    0.000000   0.000000  -0.057026   0.001535  -0.000045  -0.000003
    22  H   -0.000000   0.000000  -0.000501   0.000319   0.000026   0.000001
    23  H   -0.000004  -0.000054   0.000136   0.000028   0.000011   0.000002
    24  H    0.000210   0.004782  -0.000000  -0.000000  -0.000000   0.000000
    25  H    0.004291   0.000744  -0.000000   0.000000   0.000000   0.000000
    26  H   -0.040441   0.004635  -0.000000  -0.000000  -0.000000   0.000000
    27  H    0.365267  -0.037098   0.000000  -0.000000   0.000000  -0.000000
    28  H   -0.034785   0.358884  -0.000000  -0.000000  -0.000000   0.000000
    29  H    0.000000  -0.000000  -0.049887   0.364577  -0.032838   0.004189
    30  H   -0.000000   0.000000   0.004786  -0.040674   0.367626  -0.039901
    31  H    0.000000  -0.000000   0.000457   0.004805  -0.040712   0.365917
    32  H    0.000000  -0.000000   0.004745   0.000610   0.004231  -0.039778
    33  H    0.000000   0.000000  -0.048993   0.004342   0.000273   0.004181
    34  H   -0.000000  -0.000003   0.000046  -0.000001   0.000000   0.000000
              19         20         21         22         23         24
     1  O   -0.000041   0.001381  -0.041056   0.001132  -0.000001  -0.000000
     2  S    0.002400  -0.024392   0.425037  -0.003182   0.000136  -0.000000
     3  N   -0.000104  -0.002415  -0.053185   0.297913  -0.001388   0.000000
     4  C    0.000051   0.000539   0.002399  -0.025373  -0.022727   0.000070
     5  N    0.000003  -0.000073   0.000766   0.001893   0.002636  -0.000006
     6  N   -0.000000  -0.000015   0.000013  -0.000022   0.002952  -0.000077
     7  C    0.000004   0.001955   0.000099  -0.001991   0.365886   0.005314
     8  N   -0.000007  -0.000129   0.000002  -0.000004  -0.030973  -0.008829
     9  C    0.000001   0.000001   0.000000   0.000002  -0.002194  -0.040321
    10  C   -0.000000  -0.000000  -0.000000  -0.000000   0.002303   0.355448
    11  C   -0.000000  -0.000000  -0.000000  -0.000000   0.000117  -0.031727
    12  C    0.000000   0.000000   0.000000  -0.000000  -0.000001   0.004152
    13  C   -0.000000  -0.000000   0.000000  -0.000000  -0.000004   0.000210
    14  C    0.000000  -0.000000   0.000000   0.000000  -0.000054   0.004782
    15  C   -0.030057   0.482335  -0.057026  -0.000501   0.000136  -0.000000
    16  C   -0.037296  -0.034707   0.001535   0.000319   0.000028  -0.000000
    17  C   -0.030633  -0.037270  -0.000045   0.000026   0.000011  -0.000000
    18  C    0.538396  -0.032187  -0.000003   0.000001   0.000002   0.000000
    19  C    4.880671   0.513557   0.000455  -0.000003   0.000011   0.000000
    20  C    0.513557   4.933644   0.003114   0.000072   0.000095  -0.000000
    21  O    0.000455   0.003114   8.272424   0.001252   0.000000  -0.000000
    22  H   -0.000003   0.000072   0.001252   0.283277   0.000585   0.000000
    23  H    0.000011   0.000095   0.000000   0.000585   0.408777   0.001329
    24  H    0.000000  -0.000000  -0.000000   0.000000   0.001329   0.525750
    25  H   -0.000000  -0.000000   0.000000   0.000000  -0.000001  -0.004941
    26  H    0.000000  -0.000000   0.000000   0.000000  -0.000000  -0.000136
    27  H   -0.000000  -0.000000  -0.000000   0.000000   0.000000   0.000013
    28  H    0.000000  -0.000000   0.000000   0.000000  -0.000008  -0.000127
    29  H    0.000283   0.004314   0.000078   0.000121  -0.000001   0.000000
    30  H    0.004237   0.000607   0.000000  -0.000000  -0.000000   0.000000
    31  H   -0.040658   0.004819  -0.000000  -0.000000  -0.000000  -0.000000
    32  H    0.367458  -0.040546   0.000001   0.000000  -0.000000   0.000000
    33  H   -0.032211   0.363580   0.008279  -0.000006  -0.000004   0.000000
    34  H    0.000000  -0.000006   0.003713  -0.000024  -0.000034  -0.000000
              25         26         27         28         29         30
     1  O    0.000000  -0.000000   0.000000  -0.000000   0.008047   0.000001
     2  S    0.000000  -0.000000   0.000000  -0.000000  -0.002910  -0.000068
     3  N    0.000000  -0.000000   0.000000  -0.000000   0.000046   0.000001
     4  C    0.000000  -0.000000  -0.000000   0.000015   0.000005  -0.000000
     5  N   -0.000000  -0.000000   0.000000  -0.000292  -0.000000  -0.000000
     6  N    0.000001   0.000000  -0.000007   0.011511   0.000000   0.000000
     7  C   -0.000003  -0.000000   0.000001   0.000139   0.000003  -0.000000
     8  N   -0.000107   0.000004  -0.000104  -0.012182  -0.000000   0.000000
     9  C    0.003374   0.000497   0.003471  -0.039722   0.000000  -0.000000
    10  C   -0.036749   0.004830   0.000710   0.005084   0.000000   0.000000
    11  C    0.364821  -0.040381   0.004365   0.000113   0.000000   0.000000
    12  C   -0.038326   0.366643  -0.038923   0.004309  -0.000000   0.000000
    13  C    0.004291  -0.040441   0.365267  -0.034785   0.000000  -0.000000
    14  C    0.000744   0.004635  -0.037098   0.358884  -0.000000   0.000000
    15  C   -0.000000  -0.000000   0.000000  -0.000000  -0.049887   0.004786
    16  C    0.000000  -0.000000  -0.000000  -0.000000   0.364577  -0.040674
    17  C    0.000000  -0.000000   0.000000  -0.000000  -0.032838   0.367626
    18  C    0.000000   0.000000  -0.000000   0.000000   0.004189  -0.039901
    19  C   -0.000000   0.000000  -0.000000   0.000000   0.000283   0.004237
    20  C   -0.000000  -0.000000  -0.000000  -0.000000   0.004314   0.000607
    21  O    0.000000   0.000000  -0.000000   0.000000   0.000078   0.000000
    22  H    0.000000   0.000000   0.000000   0.000000   0.000121  -0.000000
    23  H   -0.000001  -0.000000   0.000000  -0.000008  -0.000001  -0.000000
    24  H   -0.004941  -0.000136   0.000013  -0.000127   0.000000   0.000000
    25  H    0.537193  -0.004893  -0.000158   0.000012  -0.000000  -0.000000
    26  H   -0.004893   0.543276  -0.004960  -0.000129   0.000000   0.000000
    27  H   -0.000158  -0.004960   0.538653  -0.004932  -0.000000   0.000000
    28  H    0.000012  -0.000129  -0.004932   0.523157   0.000000   0.000000
    29  H   -0.000000   0.000000  -0.000000   0.000000   0.521422  -0.005092
    30  H   -0.000000   0.000000   0.000000   0.000000  -0.005092   0.540793
    31  H    0.000000  -0.000000   0.000000  -0.000000  -0.000138  -0.005074
    32  H    0.000000   0.000000   0.000000   0.000000   0.000013  -0.000154
    33  H   -0.000000   0.000000  -0.000000   0.000000  -0.000140   0.000013
    34  H    0.000000  -0.000000   0.000000  -0.000003  -0.000000  -0.000000
              31         32         33         34
     1  O   -0.000000   0.000000   0.000060  -0.000016
     2  S    0.000007  -0.000065  -0.003233   0.000852
     3  N   -0.000000   0.000001  -0.000017   0.001013
     4  C   -0.000000  -0.000001   0.000208  -0.023480
     5  N    0.000000  -0.000000   0.000130   0.310095
     6  N   -0.000000   0.000000   0.000044  -0.023597
     7  C    0.000000  -0.000004   0.000032   0.004447
     8  N   -0.000000   0.000000  -0.000015   0.003174
     9  C    0.000000  -0.000000   0.000000  -0.000012
    10  C   -0.000000   0.000000   0.000000   0.000001
    11  C   -0.000000   0.000000  -0.000000  -0.000000
    12  C   -0.000000   0.000000   0.000000  -0.000000
    13  C    0.000000   0.000000   0.000000  -0.000000
    14  C   -0.000000  -0.000000   0.000000  -0.000003
    15  C    0.000457   0.004745  -0.048993   0.000046
    16  C    0.004805   0.000610   0.004342  -0.000001
    17  C   -0.040712   0.004231   0.000273   0.000000
    18  C    0.365917  -0.039778   0.004181   0.000000
    19  C   -0.040658   0.367458  -0.032211   0.000000
    20  C    0.004819  -0.040546   0.363580  -0.000006
    21  O   -0.000000   0.000001   0.008279   0.003713
    22  H   -0.000000   0.000000  -0.000006  -0.000024
    23  H   -0.000000  -0.000000  -0.000004  -0.000034
    24  H   -0.000000   0.000000   0.000000  -0.000000
    25  H    0.000000   0.000000  -0.000000   0.000000
    26  H   -0.000000   0.000000   0.000000  -0.000000
    27  H    0.000000   0.000000  -0.000000   0.000000
    28  H   -0.000000   0.000000   0.000000  -0.000003
    29  H   -0.000138   0.000013  -0.000140  -0.000000
    30  H   -0.005074  -0.000154   0.000013  -0.000000
    31  H    0.543904  -0.005094  -0.000138   0.000000
    32  H   -0.005094   0.540875  -0.005076  -0.000000
    33  H   -0.000138  -0.005076   0.520996   0.000003
    34  H    0.000000  -0.000000   0.000003   0.249976
 Mulliken charges:
               1
     1  O   -0.558715
     2  S    1.208441
     3  N   -0.764981
     4  C    0.477781
     5  N   -0.338210
     6  N    0.005463
     7  C    0.105600
     8  N   -0.345369
     9  C    0.334210
    10  C   -0.155992
    11  C   -0.152068
    12  C   -0.117817
    13  C   -0.150425
    14  C   -0.141800
    15  C   -0.147907
    16  C   -0.137525
    17  C   -0.136213
    18  C   -0.123321
    19  C   -0.136516
    20  C   -0.138271
    21  O   -0.567853
    22  H    0.444512
    23  H    0.272385
    24  H    0.189097
    25  H    0.174743
    26  H    0.171056
    27  H    0.173700
    28  H    0.188955
    29  H    0.187908
    30  H    0.172898
    31  H    0.171906
    32  H    0.172782
    33  H    0.187692
    34  H    0.473854
 Sum of Mulliken charges =   1.00000
 Mulliken charges with hydrogens summed into heavy atoms:
               1
     1  O   -0.558715
     2  S    1.208441
     3  N   -0.320469
     4  C    0.477781
     5  N    0.135645
     6  N    0.005463
     7  C    0.377985
     8  N   -0.345369
     9  C    0.334210
    10  C    0.033105
    11  C    0.022675
    12  C    0.053239
    13  C    0.023275
    14  C    0.047155
    15  C   -0.147907
    16  C    0.050383
    17  C    0.036685
    18  C    0.048585
    19  C    0.036266
    20  C    0.049421
    21  O   -0.567853
 Electronic spatial extent (au):  <R**2>=           7631.0433
 Charge=              1.0000 electrons
 Dipole moment (field-independent basis, Debye):
    X=              8.4614    Y=              1.7307    Z=             -3.3635  Tot=              9.2685
 Quadrupole moment (field-independent basis, Debye-Ang):
   XX=           -107.5037   YY=           -104.6543   ZZ=           -108.8985
   XY=            -11.8506   XZ=              4.6354   YZ=             -2.5588
 Traceless Quadrupole moment (field-independent basis, Debye-Ang):
   XX=             -0.4849   YY=              2.3645   ZZ=             -1.8796
   XY=            -11.8506   XZ=              4.6354   YZ=             -2.5588
 Octapole moment (field-independent basis, Debye-Ang**2):
  XXX=            226.8640  YYY=             -1.3040  ZZZ=            -18.9208  XYY=            -15.2943
  XXY=            110.0895  XXZ=            -14.2256  XZZ=             14.7755  YZZ=              4.6595
  YYZ=              8.8240  XYZ=             -5.4825
 Hexadecapole moment (field-independent basis, Debye-Ang**3):
 XXXX=          -6664.2722 YYYY=          -1714.2143 ZZZZ=           -652.5228 XXXY=            123.9307
 XXXZ=            106.7543 YYYX=           -125.0619 YYYZ=            -35.3746 ZZZX=             36.4019
 ZZZY=              5.5192 XXYY=          -1562.7085 XXZZ=          -1234.1716 YYZZ=           -427.7730
 XXYZ=            -95.0185 YYXZ=              2.3045 ZZXY=              5.1465
 N-N= 1.760500932135D+03 E-N=-6.559038470790D+03  KE= 1.298448590333D+03
 No NMR shielding tensors so no spin-rotation constants.
 Leave Link  601 at Thu Sep 24 14:41:07 2020, MaxMem=  2147483648 cpu:               0.4 elap:               0.1
 (Enter /prod/apps/gaussian/g16b1/l701.exe)
 ... and contract with generalized density number  0.
 Compute integral first derivatives.
 D1PCM: PCM CHGder 1st derivatives, ID1Alg=3 FixD1E=F DoIter=F DoCFld=F I1PDM=0.
 GePol: Maximum number of non-zero 1st derivatives   =     174
 Leave Link  701 at Thu Sep 24 14:41:09 2020, MaxMem=  2147483648 cpu:              11.1 elap:               2.8
 (Enter /prod/apps/gaussian/g16b1/l702.exe)
 L702 exits ... SP integral derivatives will be done elsewhere.
 Leave Link  702 at Thu Sep 24 14:41:09 2020, MaxMem=  2147483648 cpu:               0.1 elap:               0.0
[...]
      4          6           0        0.007707   -1.261666   -0.463077
      5          7           0        0.531326   -1.887209    0.626310
      6          7           0        1.765040   -1.518827    0.893386
      7          6           0        1.018442   -0.434349   -0.908486
      8          7           0        2.056487   -0.643807   -0.052936
      9          6           0        3.352189   -0.028092   -0.078815
     10          6           0        3.876890    0.384486   -1.302560
     11          6           0        5.135812    0.981301   -1.321153
     12          6           0        5.852753    1.149538   -0.135035
     13          6           0        5.309170    0.724569    1.079437
     14          6           0        4.048140    0.135391    1.118734
     15          6           0       -2.915424    0.490910    0.104822
     16          6           0       -3.689344    1.121064   -0.872498
     17          6           0       -3.870046    2.500766   -0.791056
     18          6           0       -3.282057    3.224110    0.249967
     19          6           0       -2.513897    2.576043    1.220393
     20          6           0       -2.322866    1.196888    1.154952
     21          8           0       -2.299797   -1.784486    1.319569
     22          1           0       -1.388255   -1.202570   -1.927408
     23          1           0        1.055432    0.261976   -1.727387
     24          1           0        3.326285    0.227131   -2.221934
     25          1           0        5.556762    1.303424   -2.266261
     26          1           0        6.833465    1.610994   -0.156726
     27          1           0        5.861860    0.858490    2.001976
     28          1           0        3.606391   -0.186841    2.052588
     29          1           0       -4.143756    0.541647   -1.666478
     30          1           0       -4.471845    3.007378   -1.536951
     31          1           0       -3.426845    4.297243    0.307636
     32          1           0       -2.067718    3.140941    2.030892
     33          1           0       -1.744652    0.675308    1.907252
     34          1           0        0.082624   -2.582232    1.226552
 ---------------------------------------------------------------------
 Rotational constants (GHZ):           0.5356168           0.1483677           0.1307305
 Leave Link  202 at Thu Sep 24 15:48:47 2020, MaxMem=   262144000 cpu:               0.1 elap:               0.0
 (Enter /prod/apps/gaussian/g16b1/l301.exe)
 Standard basis: Aug-CC-pVDZ (5D, 7F)
 Ernie: Thresh=  0.10000D-02 Tol=  0.10000D-05 Strict=F.
 Ernie:  50 primitive shells out of 644 were deleted.
 There are   646 symmetry adapted cartesian basis functions of A   symmetry.
 There are   604 symmetry adapted basis functions of A   symmetry.
   604 basis functions,  1084 primitive gaussians,   646 cartesian basis functions
    78 alpha electrons       78 beta electrons
       nuclear repulsion energy      1747.5703809465 Hartrees.
 IExCor=    0 DFT=F Ex=HF Corr=None ExCW=0 ScaHFX=  1.000000
 ScaDFX=  1.000000  1.000000  1.000000  1.000000 ScalE2=  1.000000  1.000000
 IRadAn=      5 IRanWt=     -1 IRanGd=            0 ICorTp=0 IEmpDi=  4
 NAtoms=   34 NActive=   34 NUniq=   34 SFac= 1.00D+00 NAtFMM=   60 NAOKFM=F Big=F
 Integral buffers will be    131072 words long.
 Raffenetti 1 integral format.
 Two-electron integral symmetry is turned on.
 Leave Link  301 at Thu Sep 24 15:48:47 2020, MaxMem=   262144000 cpu:               0.2 elap:               0.1
 (Enter /prod/apps/gaussian/g16b1/l302.exe)
 NPDir=0 NMtPBC=     1 NCelOv=     1 NCel=       1 NClECP=     1 NCelD=      1
         NCelK=      1 NCelE2=     1 NClLst=     1 CellRange=     0.0.
 One-electron integrals computed using PRISM.
 One-electron integral symmetry used in STVInt
 NBasis=   604 RedAO= T EigKep=  1.93D-06  NBF=   604
 NBsUse=   604 1.00D-06 EigRej= -1.00D+00 NBFU=   604
 Leave Link  302 at Thu Sep 24 15:48:47 2020, MaxMem=   262144000 cpu:               1.9 elap:               0.5
 (Enter /prod/apps/gaussian/g16b1/l303.exe)
 DipDrv:  MaxL=1.
 Leave Link  303 at Thu Sep 24 15:48:47 2020, MaxMem=   262144000 cpu:               0.4 elap:               0.1
 (Enter /prod/apps/gaussian/g16b1/l401.exe)
 ExpMin= 2.97D-02 ExpMax= 1.11D+05 ExpMxC= 1.07D+03 IAcc=3 IRadAn=         5 AccDes= 0.00D+00
 Harris functional with IExCor=  205 and IRadAn=       5 diagonalized for initial guess.
 HarFok:  IExCor=  205 AccDes= 0.00D+00 IRadAn=         5 IDoV= 1 UseB2=F ITyADJ=14
 ICtDFT=  3500011 ScaDFX=  1.000000  1.000000  1.000000  1.000000
 FoFCou: FMM=F IPFlag=           0 FMFlag=      100000 FMFlg1=           0
         NFxFlg=           0 DoJE=T BraDBF=F KetDBF=T FulRan=T
         wScrn=  0.000000 ICntrl=       500 IOpCl=  0 I1Cent=   200000004 NGrid=           0
         NMat0=    1 NMatS0=      1 NMatT0=    0 NMatD0=    1 NMtDS0=    0 NMtDT0=    0
 Petite list used in FoFCou.
 Harris En= -1303.15883802190    
 JPrj=0 DoOrth=F DoCkMO=F.
 Leave Link  401 at Thu Sep 24 15:48:51 2020, MaxMem=   262144000 cpu:              14.5 elap:               3.6
 (Enter /prod/apps/gaussian/g16b1/l502.exe)
 Integral symmetry usage will be decided dynamically.
 Closed shell SCF:
 Using DIIS extrapolation, IDIIS=  1040.
 NGot=   262144000 LenX=   261299536 LenY=   260881574
 Requested convergence on RMS density matrix=1.00D-08 within2000 cycles.
 Requested convergence on MAX density matrix=1.00D-06.
 Requested convergence on             energy=1.00D-06.
 No special actions if energy rises.

 Cycle   1  Pass 1  IDiag  1:
 FoFJK:  IHMeth= 1 ICntrl=       0 DoSepK=F KAlg= 0 I1Cent=           0 FoldK=F
 IRaf= 900000000 NMat=       1 IRICut=       1 DoRegI=T DoRafI=F ISym2E= 0 IDoP0=0 IntGTp=1.
 FoFCou: FMM=F IPFlag=           0 FMFlag=      100000 FMFlg1=           0
         NFxFlg=           0 DoJE=F BraDBF=F KetDBF=F FulRan=T
         wScrn=  0.000000 ICntrl=         0 IOpCl=  0 I1Cent=           0 NGrid=           0
         NMat0=    1 NMatS0=      1 NMatT0=    0 NMatD0=    1 NMtDS0=    0 NMtDT0=    0
 Symmetry not used in FoFCou.
 E= -1301.72337468447    
 DIIS: error= 1.75D-02 at cycle   1 NSaved=   1.
 NSaved= 1 IEnMin= 1 EnMin= -1301.72337468447     IErMin= 1 ErrMin= 1.75D-02
 ErrMax= 1.75D-02  0.00D+00 EMaxC= 1.00D-01 BMatC= 1.11D+00 BMatP= 1.11D+00
 IDIUse=3 WtCom= 8.25D-01 WtEn= 1.75D-01
 Coeff-Com:  0.100D+01
 Coeff-En:   0.100D+01
 Coeff:      0.100D+01
 Gap=     0.615 Goal=   None    Shift=    0.000
 GapD=    0.615 DampG=2.000 DampE=0.500 DampFc=1.0000 IDamp=-1.
 RMSDP=5.24D-02 MaxDP=4.40D+00              OVMax= 2.04D-01

 Cycle   2  Pass 1  IDiag  1:
 E= -1302.27956595282     Delta-E=       -0.556191268347 Rises=F Damp=F
 DIIS: error= 1.24D-02 at cycle   2 NSaved=   2.
 NSaved= 2 IEnMin= 2 EnMin= -1302.27956595282     IErMin= 2 ErrMin= 1.24D-02
 ErrMax= 1.24D-02  0.00D+00 EMaxC= 1.00D-01 BMatC= 2.92D-01 BMatP= 1.11D+00
 IDIUse=3 WtCom= 8.76D-01 WtEn= 1.24D-01
 Coeff-Com:  0.300D+00 0.700D+00
 Coeff-En:   0.000D+00 0.100D+01
 Coeff:      0.262D+00 0.738D+00
 Gap=     0.426 Goal=   None    Shift=    0.000
 RMSDP=5.33D-03 MaxDP=2.61D-01 DE=-5.56D-01 OVMax= 9.48D-02

 Cycle   3  Pass 1  IDiag  1:
 E= -1302.50690255123     Delta-E=       -0.227336598409 Rises=F Damp=F
 DIIS: error= 3.02D-03 at cycle   3 NSaved=   3.
 NSaved= 3 IEnMin= 3 EnMin= -1302.50690255123     IErMin= 3 ErrMin= 3.02D-03
 ErrMax= 3.02D-03  0.00D+00 EMaxC= 1.00D-01 BMatC= 3.19D-02 BMatP= 2.92D-01
 IDIUse=3 WtCom= 9.70D-01 WtEn= 3.02D-02
 Coeff-Com: -0.160D-01 0.223D+00 0.793D+00
 Coeff-En:   0.000D+00 0.000D+00 0.100D+01
 Coeff:     -0.156D-01 0.217D+00 0.799D+00
 Gap=     0.388 Goal=   None    Shift=    0.000
 RMSDP=1.84D-03 MaxDP=1.46D-01 DE=-2.27D-01 OVMax= 3.50D-02

 Cycle   4  Pass 1  IDiag  1:
 E= -1302.53295828154     Delta-E=       -0.026055730307 Rises=F Damp=F
 DIIS: error= 8.55D-04 at cycle   4 NSaved=   4.
 NSaved= 4 IEnMin= 4 EnMin= -1302.53295828154     IErMin= 4 ErrMin= 8.55D-04
 ErrMax= 8.55D-04  0.00D+00 EMaxC= 1.00D-01 BMatC= 1.32D-03 BMatP= 3.19D-02
 IDIUse=3 WtCom= 9.91D-01 WtEn= 8.55D-03
 Coeff-Com: -0.155D-01 0.365D-01 0.236D+00 0.743D+00
 Coeff-En:   0.000D+00 0.000D+00 0.000D+00 0.100D+01
 Coeff:     -0.154D-01 0.362D-01 0.234D+00 0.746D+00
 Gap=     0.374 Goal=   None    Shift=    0.000
 RMSDP=5.82D-04 MaxDP=4.21D-02 DE=-2.61D-02 OVMax= 8.94D-03

 Cycle   5  Pass 1  IDiag  1:
 E= -1302.53439027802     Delta-E=       -0.001431996489 Rises=F Damp=F
 DIIS: error= 2.52D-04 at cycle   5 NSaved=   5.
 NSaved= 5 IEnMin= 5 EnMin= -1302.53439027802     IErMin= 5 ErrMin= 2.52D-04
 ErrMax= 2.52D-04  0.00D+00 EMaxC= 1.00D-01 BMatC= 9.55D-05 BMatP= 1.32D-03
 IDIUse=3 WtCom= 9.97D-01 WtEn= 2.52D-03
 Coeff-Com: -0.189D-03-0.157D-01-0.526D-01 0.864D-01 0.982D+00
 Coeff-En:   0.000D+00 0.000D+00 0.000D+00 0.000D+00 0.100D+01
 Coeff:     -0.188D-03-0.156D-01-0.524D-01 0.862D-01 0.982D+00
 Gap=     0.376 Goal=   None    Shift=    0.000
 RMSDP=1.68D-04 MaxDP=1.60D-02 DE=-1.43D-03 OVMax= 4.98D-03

 Cycle   6  Pass 1  IDiag  1:
 E= -1302.53457743908     Delta-E=       -0.000187161053 Rises=F Damp=F
 DIIS: error= 7.54D-05 at cycle   6 NSaved=   6.
 NSaved= 6 IEnMin= 6 EnMin= -1302.53457743908     IErMin= 6 ErrMin= 7.54D-05
 ErrMax= 7.54D-05  0.00D+00 EMaxC= 1.00D-01 BMatC= 1.33D-05 BMatP= 9.55D-05
 IDIUse=1 WtCom= 1.00D+00 WtEn= 0.00D+00
 Coeff-Com:  0.145D-02-0.611D-02-0.310D-01-0.583D-01 0.130D+00 0.964D+00
 Coeff:      0.145D-02-0.611D-02-0.310D-01-0.583D-01 0.130D+00 0.964D+00
 Gap=     0.376 Goal=   None    Shift=    0.000
 RMSDP=7.01D-05 MaxDP=1.13D-02 DE=-1.87D-04 OVMax= 1.93D-03

 Cycle   7  Pass 1  IDiag  1:
 E= -1302.53461311639     Delta-E=       -0.000035677311 Rises=F Damp=F
 DIIS: error= 5.67D-05 at cycle   7 NSaved=   7.
 NSaved= 7 IEnMin= 7 EnMin= -1302.53461311639     IErMin= 7 ErrMin= 5.67D-05
 ErrMax= 5.67D-05  0.00D+00 EMaxC= 1.00D-01 BMatC= 2.99D-06 BMatP= 1.33D-05
 IDIUse=1 WtCom= 1.00D+00 WtEn= 0.00D+00
 Coeff-Com:  0.359D-03 0.825D-03 0.105D-02-0.256D-01-0.123D+00 0.170D+00
 Coeff-Com:  0.976D+00
 Coeff:      0.359D-03 0.825D-03 0.105D-02-0.256D-01-0.123D+00 0.170D+00
 Coeff:      0.976D+00
 Gap=     0.376 Goal=   None    Shift=    0.000
 RMSDP=3.71D-05 MaxDP=2.72D-03 DE=-3.57D-05 OVMax= 1.43D-03

 Cycle   8  Pass 1  IDiag  1:
 E= -1302.53462371658     Delta-E=       -0.000010600191 Rises=F Damp=F
 DIIS: error= 2.51D-05 at cycle   8 NSaved=   8.
 NSaved= 8 IEnMin= 8 EnMin= -1302.53462371658     IErMin= 8 ErrMin= 2.51D-05
 ErrMax= 2.51D-05  0.00D+00 EMaxC= 1.00D-01 BMatC= 8.36D-07 BMatP= 2.99D-06
 IDIUse=1 WtCom= 1.00D+00 WtEn= 0.00D+00
 Coeff-Com: -0.331D-03 0.154D-02 0.809D-02 0.143D-01-0.329D-01-0.252D+00
 Coeff-Com:  0.816D-01 0.118D+01
 Coeff:     -0.331D-03 0.154D-02 0.809D-02 0.143D-01-0.329D-01-0.252D+00
 Coeff:      0.816D-01 0.118D+01
 Gap=     0.377 Goal=   None    Shift=    0.000
 RMSDP=2.58D-05 MaxDP=2.07D-03 DE=-1.06D-05 OVMax= 9.69D-04

 Cycle   9  Pass 1  IDiag  1:
 E= -1302.53462733145     Delta-E=       -0.000003614870 Rises=F Damp=F
 DIIS: error= 1.06D-05 at cycle   9 NSaved=   9.
 NSaved= 9 IEnMin= 9 EnMin= -1302.53462733145     IErMin= 9 ErrMin= 1.06D-05
 ErrMax= 1.06D-05  0.00D+00 EMaxC= 1.00D-01 BMatC= 1.49D-07 BMatP= 8.36D-07
 IDIUse=1 WtCom= 1.00D+00 WtEn= 0.00D+00
 Coeff-Com: -0.159D-03 0.227D-03 0.191D-02 0.926D-02 0.173D-01-0.102D+00
 Coeff-Com: -0.169D+00 0.253D+00 0.990D+00
 Coeff:     -0.159D-03 0.227D-03 0.191D-02 0.926D-02 0.173D-01-0.102D+00
 Coeff:     -0.169D+00 0.253D+00 0.990D+00
 Gap=     0.377 Goal=   None    Shift=    0.000
 RMSDP=1.10D-05 MaxDP=7.40D-04 DE=-3.61D-06 OVMax= 4.66D-04

 Cycle  10  Pass 1  IDiag  1:
 E= -1302.53462801948     Delta-E=       -0.000000688031 Rises=F Damp=F
 DIIS: error= 4.49D-06 at cycle  10 NSaved=  10.
 NSaved=10 IEnMin=10 EnMin= -1302.53462801948     IErMin=10 ErrMin= 4.49D-06
 ErrMax= 4.49D-06  0.00D+00 EMaxC= 1.00D-01 BMatC= 2.60D-08 BMatP= 1.49D-07
 IDIUse=1 WtCom= 1.00D+00 WtEn= 0.00D+00
 Coeff-Com:  0.584D-04-0.293D-03-0.152D-02-0.263D-02 0.472D-02 0.507D-01
 Coeff-Com: -0.728D-02-0.247D+00-0.261D-01 0.123D+01
 Coeff:      0.584D-04-0.293D-03-0.152D-02-0.263D-02 0.472D-02 0.507D-01
 Coeff:     -0.728D-02-0.247D+00-0.261D-01 0.123D+01
 Gap=     0.377 Goal=   None    Shift=    0.000
 RMSDP=5.36D-06 MaxDP=6.68D-04 DE=-6.88D-07 OVMax= 2.22D-04

 Cycle  11  Pass 1  IDiag  1:
 E= -1302.53462814723     Delta-E=       -0.000000127750 Rises=F Damp=F
 DIIS: error= 1.39D-06 at cycle  11 NSaved=  11.
 NSaved=11 IEnMin=11 EnMin= -1302.53462814723     IErMin=11 ErrMin= 1.39D-06
 ErrMax= 1.39D-06  0.00D+00 EMaxC= 1.00D-01 BMatC= 3.77D-09 BMatP= 2.60D-08
 IDIUse=1 WtCom= 1.00D+00 WtEn= 0.00D+00
 Coeff-Com:  0.384D-04-0.103D-03-0.625D-03-0.206D-02-0.233D-02 0.275D-01
 Coeff-Com:  0.282D-01-0.879D-01-0.181D+00 0.244D+00 0.974D+00
 Coeff:      0.384D-04-0.103D-03-0.625D-03-0.206D-02-0.233D-02 0.275D-01
 Coeff:      0.282D-01-0.879D-01-0.181D+00 0.244D+00 0.974D+00
 Gap=     0.377 Goal=   None    Shift=    0.000
 RMSDP=1.68D-06 MaxDP=2.20D-04 DE=-1.28D-07 OVMax= 6.91D-05

 Cycle  12  Pass 1  IDiag  1:
 E= -1302.53462815968     Delta-E=       -0.000000012454 Rises=F Damp=F
 DIIS: error= 3.82D-07 at cycle  12 NSaved=  12.
 NSaved=12 IEnMin=12 EnMin= -1302.53462815968     IErMin=12 ErrMin= 3.82D-07
 ErrMax= 3.82D-07  0.00D+00 EMaxC= 1.00D-01 BMatC= 4.18D-10 BMatP= 3.77D-09
 IDIUse=1 WtCom= 1.00D+00 WtEn= 0.00D+00
 Coeff-Com: -0.183D-05 0.191D-04 0.103D-03 0.107D-03-0.772D-03-0.268D-02
 Coeff-Com:  0.243D-02 0.222D-01-0.235D-01-0.108D+00 0.108D+00 0.100D+01
 Coeff:     -0.183D-05 0.191D-04 0.103D-03 0.107D-03-0.772D-03-0.268D-02
 Coeff:      0.243D-02 0.222D-01-0.235D-01-0.108D+00 0.108D+00 0.100D+01
 Gap=     0.377 Goal=   None    Shift=    0.000
 RMSDP=4.37D-07 MaxDP=4.71D-05 DE=-1.25D-08 OVMax= 1.33D-05

 Cycle  13  Pass 1  IDiag  1:
 E= -1302.53462816084     Delta-E=       -0.000000001156 Rises=F Damp=F
 DIIS: error= 2.58D-07 at cycle  13 NSaved=  13.
 NSaved=13 IEnMin=13 EnMin= -1302.53462816084     IErMin=13 ErrMin= 2.58D-07
 ErrMax= 2.58D-07  0.00D+00 EMaxC= 1.00D-01 BMatC= 8.26D-11 BMatP= 4.18D-10
 IDIUse=1 WtCom= 1.00D+00 WtEn= 0.00D+00
 Coeff-Com: -0.607D-05 0.192D-04 0.120D-03 0.334D-03 0.118D-03-0.471D-02
 Coeff-Com: -0.427D-02 0.207D-01 0.165D-01-0.591D-01-0.109D+00 0.247D+00
 Coeff-Com:  0.892D+00
 Coeff:     -0.607D-05 0.192D-04 0.120D-03 0.334D-03 0.118D-03-0.471D-02
 Coeff:     -0.427D-02 0.207D-01 0.165D-01-0.591D-01-0.109D+00 0.247D+00
 Coeff:      0.892D+00
 Gap=     0.377 Goal=   None    Shift=    0.000
 RMSDP=1.50D-07 MaxDP=1.27D-05 DE=-1.16D-09 OVMax= 4.52D-06

 Cycle  14  Pass 1  IDiag  1:
 E= -1302.53462816103     Delta-E=       -0.000000000194 Rises=F Damp=F
 DIIS: error= 8.61D-08 at cycle  14 NSaved=  14.
 NSaved=14 IEnMin=14 EnMin= -1302.53462816103     IErMin=14 ErrMin= 8.61D-08
 ErrMax= 8.61D-08  0.00D+00 EMaxC= 1.00D-01 BMatC= 1.93D-11 BMatP= 8.26D-11
 IDIUse=1 WtCom= 1.00D+00 WtEn= 0.00D+00
 Coeff-Com:  0.566D-06-0.430D-05-0.210D-04-0.382D-04 0.122D-03 0.861D-03
 Coeff-Com: -0.791D-03-0.340D-02 0.597D-03 0.256D-01-0.177D-01-0.207D+00
 Coeff-Com:  0.691D-01 0.113D+01
 Coeff:      0.566D-06-0.430D-05-0.210D-04-0.382D-04 0.122D-03 0.861D-03
 Coeff:     -0.791D-03-0.340D-02 0.597D-03 0.256D-01-0.177D-01-0.207D+00
 Coeff:      0.691D-01 0.113D+01
 Gap=     0.377 Goal=   None    Shift=    0.000
 RMSDP=6.89D-08 MaxDP=8.19D-06 DE=-1.94D-10 OVMax= 3.69D-06

 Cycle  15  Pass 1  IDiag  1:
 E= -1302.53462816108     Delta-E=       -0.000000000046 Rises=F Damp=F
 DIIS: error= 3.82D-08 at cycle  15 NSaved=  15.
 NSaved=15 IEnMin=15 EnMin= -1302.53462816108     IErMin=15 ErrMin= 3.82D-08
 ErrMax= 3.82D-08  0.00D+00 EMaxC= 1.00D-01 BMatC= 3.85D-12 BMatP= 1.93D-11
 IDIUse=1 WtCom= 1.00D+00 WtEn= 0.00D+00
 Coeff-Com:  0.145D-05-0.536D-05-0.306D-04-0.840D-04-0.165D-05 0.131D-02
 Coeff-Com:  0.470D-03-0.491D-02-0.453D-02 0.211D-01 0.189D-01-0.110D+00
 Coeff-Com: -0.147D+00 0.209D+00 0.102D+01
 Coeff:      0.145D-05-0.536D-05-0.306D-04-0.840D-04-0.165D-05 0.131D-02
 Coeff:      0.470D-03-0.491D-02-0.453D-02 0.211D-01 0.189D-01-0.110D+00
 Coeff:     -0.147D+00 0.209D+00 0.102D+01
 Gap=     0.377 Goal=   None    Shift=    0.000
 RMSDP=3.45D-08 MaxDP=3.36D-06 DE=-4.59D-11 OVMax= 2.31D-06

 Cycle  16  Pass 1  IDiag  1:
 E= -1302.53462816102     Delta-E=        0.000000000058 Rises=F Damp=F
 DIIS: error= 1.46D-08 at cycle  16 NSaved=  16.
 NSaved=16 IEnMin=15 EnMin= -1302.53462816108     IErMin=16 ErrMin= 1.46D-08
 ErrMax= 1.46D-08  0.00D+00 EMaxC= 1.00D-01 BMatC= 8.29D-13 BMatP= 3.85D-12
 IDIUse=1 WtCom= 1.00D+00 WtEn= 0.00D+00
 Coeff-Com: -0.247D-08 0.450D-06 0.226D-05 0.542D-06-0.318D-04-0.446D-04
 Coeff-Com:  0.762D-04 0.601D-03-0.104D-02-0.311D-02 0.483D-02 0.327D-01
 Coeff-Com: -0.847D-02-0.273D+00 0.110D+00 0.114D+01
 Coeff:     -0.247D-08 0.450D-06 0.226D-05 0.542D-06-0.318D-04-0.446D-04
 Coeff:      0.762D-04 0.601D-03-0.104D-02-0.311D-02 0.483D-02 0.327D-01
 Coeff:     -0.847D-02-0.273D+00 0.110D+00 0.114D+01
 Gap=     0.377 Goal=   None    Shift=    0.000
 RMSDP=2.05D-08 MaxDP=3.37D-06 DE= 5.78D-11 OVMax= 1.11D-06

 Cycle  17  Pass 1  IDiag  1:
 E= -1302.53462816106     Delta-E=       -0.000000000035 Rises=F Damp=F
 DIIS: error= 5.40D-09 at cycle  17 NSaved=  17.
 NSaved=17 IEnMin=15 EnMin= -1302.53462816108     IErMin=17 ErrMin= 5.40D-09
 ErrMax= 5.40D-09  0.00D+00 EMaxC= 1.00D-01 BMatC= 9.48D-14 BMatP= 8.29D-13
 IDIUse=1 WtCom= 1.00D+00 WtEn= 0.00D+00
 Coeff-Com: -0.201D-06 0.784D-06 0.448D-05 0.124D-04-0.235D-05-0.182D-03
 Coeff-Com: -0.953D-04 0.826D-03 0.450D-03-0.293D-02-0.261D-02 0.161D-01
 Coeff-Com:  0.283D-01-0.557D-01-0.129D+00 0.400D-01 0.110D+01
 Coeff:     -0.201D-06 0.784D-06 0.448D-05 0.124D-04-0.235D-05-0.182D-03
 Coeff:     -0.953D-04 0.826D-03 0.450D-03-0.293D-02-0.261D-02 0.161D-01
 Coeff:      0.283D-01-0.557D-01-0.129D+00 0.400D-01 0.110D+01
 Gap=     0.377 Goal=   None    Shift=    0.000
 RMSDP=7.12D-09 MaxDP=7.74D-07 DE=-3.50D-11 OVMax= 3.82D-07

 SCF Done:  E(RHF) =  -1302.53462816     A.U. after   17 cycles
            NFock= 17  Conv=0.71D-08     -V/T= 2.0012
 KE= 1.301006168714D+03 PE=-6.532852720139D+03 EE= 2.181741542317D+03
 Leave Link  502 at Thu Sep 24 16:07:17 2020, MaxMem=   262144000 cpu:            4420.5 elap:            1105.8
 (Enter /prod/apps/gaussian/g16b1/l801.exe)
 ExpMin= 2.97D-02 ExpMax= 1.11D+05 ExpMxC= 1.07D+03 IAcc=3 IRadAn=         5 AccDes= 0.00D+00
 HarFok:  IExCor=  205 AccDes= 0.00D+00 IRadAn=         5 IDoV=-2 UseB2=F ITyADJ=14
 ICtDFT= 12500011 ScaDFX=  1.000000  1.000000  1.000000  1.000000
 GSVD:  LWork=        -825 too small for GESVD, short by        3500 words or        3500 for optimal perf.
 Largest valence mixing into a core orbital is  3.52D-04
 Largest core mixing into a valence orbital is  8.85D-05
 Range of M.O.s used for correlation:    26   604
 NBasis=   604 NAE=    78 NBE=    78 NFC=    25 NFV=     0
 NROrb=    579 NOA=    53 NOB=    53 NVA=   526 NVB=   526

 **** Warning!!: The largest alpha MO coefficient is  0.96568395D+02

 Leave Link  801 at Thu Sep 24 16:07:17 2020, MaxMem=   262144000 cpu:               1.0 elap:               0.3
 (Enter /prod/apps/gaussian/g16b1/l906.exe)
 FulOut=F Deriv=F AODrv=F NAtomX=    34
   MMem=           3  MDisk=          53 MDiskD=          53
  W3Min=    18009188 MinDsk=    18261337 NBas6D=         646
 NBas2D=      209881    NTT=      208981    LW2=     2000000
    MDV=   259706804 MDiskM=        5540 NBas2p=      182687
 Disk-based method using OVN memory for 53 occupieds at a time.
 Estimated scratch disk usage= 15537397978 words.
 IMap=   1   2   3   4   5   6   7   8   9  10  11  12  13  14  15  16  17  18  19  20
 IMap=  21  22  23  24  25  26  27  28  29  30  31  32  33  34  35  36  37  38  39  40
 IMap=  41  42  43  44  45  46  47  48  49  50  51  52  53
 Actual    scratch disk usage= 15318799066 words.
 JobTyp=1 Pass  1:  I=   1 to  53 NPSUse=  4 ParTrn=T ParDer=T DoDerP=F.
Erroneous write. Write -1 instead of 1203456.
fd = 4
orig len = 8384512 left = 1203456
g_write
