 Entering Gaussian System, Link 0=g16
 Initial command:
 /prod/apps/gaussian/g16b1/l1.exe "/tmp/ubafar01/1461365/Gau-196088.inp" -scrdir="/tmp/ubafar01/1461365/"
 Entering Link 1 = /prod/apps/gaussian/g16b1/l1.exe PID=    196089.
  
 Copyright (c) 1988-2017, Gaussian, Inc.  All Rights Reserved.
  
 This is part of the Gaussian(R) 16 program.  It is based on
 the Gaussian(R) 09 system (copyright 2009, Gaussian, Inc.),
 the Gaussian(R) 03 system (copyright 2003, Gaussian, Inc.),
 the Gaussian(R) 98 system (copyright 1998, Gaussian, Inc.),
 the Gaussian(R) 94 system (copyright 1995, Gaussian, Inc.),
 the Gaussian 92(TM) system (copyright 1992, Gaussian, Inc.),
 the Gaussian 90(TM) system (copyright 1990, Gaussian, Inc.),
 the Gaussian 88(TM) system (copyright 1988, Gaussian, Inc.),
 the Gaussian 86(TM) system (copyright 1986, Carnegie Mellon
 University), and the Gaussian 82(TM) system (copyright 1983,
 Carnegie Mellon University). Gaussian is a federally registered
 trademark of Gaussian, Inc.
  
 This software contains proprietary and confidential information,
 including trade secrets, belonging to Gaussian, Inc.
  
 This software is provided under written license and may be
 used, copied, transmitted, or stored only in accord with that
 written license.
  
 The following legend is applicable only to US Government
 contracts under FAR:
  
                    RESTRICTED RIGHTS LEGEND
  
 Use, reproduction and disclosure by the US Government is
 subject to restrictions as set forth in subparagraphs (a)
 and (c) of the Commercial Computer Software - Restricted
 Rights clause in FAR 52.227-19.
  
 Gaussian, Inc.
 340 Quinnipiac St., Bldg. 40, Wallingford CT 06492
  
  
 ---------------------------------------------------------------
 Warning -- This program may not be used in any manner that
 competes with the business of Gaussian, Inc. or will provide
 assistance to any competitor of Gaussian, Inc.  The licensee
 of this program is prohibited from giving any competitor of
 Gaussian, Inc. access to this program.  By using this program,
 the user acknowledges that Gaussian, Inc. is engaged in the
 business of creating and licensing software in the field of
 computational chemistry and represents and warrants to the
 licensee that it is not a competitor of Gaussian, Inc. and that
 it will not use this program in any manner prohibited above.
 ---------------------------------------------------------------
  

 Cite this work as:
 Gaussian 16, Revision B.01,
 M. J. Frisch, G. W. Trucks, H. B. Schlegel, G. E. Scuseria, 
 M. A. Robb, J. R. Cheeseman, G. Scalmani, V. Barone, 
 G. A. Petersson, H. Nakatsuji, X. Li, M. Caricato, A. V. Marenich, 
 J. Bloino, B. G. Janesko, R. Gomperts, B. Mennucci, H. P. Hratchian, 
 J. V. Ortiz, A. F. Izmaylov, J. L. Sonnenberg, D. Williams-Young, 
 F. Ding, F. Lipparini, F. Egidi, J. Goings, B. Peng, A. Petrone, 
 T. Henderson, D. Ranasinghe, V. G. Zakrzewski, J. Gao, N. Rega, 
 G. Zheng, W. Liang, M. Hada, M. Ehara, K. Toyota, R. Fukuda, 
 J. Hasegawa, M. Ishida, T. Nakajima, Y. Honda, O. Kitao, H. Nakai, 
 T. Vreven, K. Throssell, J. A. Montgomery, Jr., J. E. Peralta, 
 F. Ogliaro, M. J. Bearpark, J. J. Heyd, E. N. Brothers, K. N. Kudin, 
 V. N. Staroverov, T. A. Keith, R. Kobayashi, J. Normand, 
 K. Raghavachari, A. P. Rendell, J. C. Burant, S. S. Iyengar, 
 J. Tomasi, M. Cossi, J. M. Millam, M. Klene, C. Adamo, R. Cammi, 
 J. W. Ochterski, R. L. Martin, K. Morokuma, O. Farkas, 
 J. B. Foresman, and D. J. Fox, Gaussian, Inc., Wallingford CT, 2016.
 
 ******************************************
 Gaussian 16:  ES64L-G16RevB.01 20-Dec-2017
                24-Sep-2020 
 ******************************************
 %nproc=4
 Will use up to    4 processors via shared memory.
 %Chk=SM45_m1.a.5.pdb.xyz.mst.a.w.chk
 %mem=16GB
 ----------------------------------------------------------------------
 #p b3lyp/6-31G(d) opt freq NoSymm scf=(MaxCycle=2000,NoVarAcc,NoIncFoc
 k) scrf=(iefpcm,read,solvent=water)
 ----------------------------------------------------------------------
 1/18=20,19=15,26=3,38=1,40=2/1,3;
 2/9=110,12=2,15=1,17=6,18=5,40=1/2;
 3/5=1,6=6,7=1,11=2,25=1,30=1,70=2203,71=1,72=1,74=-5/1,2,3;
 4//1;
 5/5=100002,7=2000,38=1,53=1/2;
 6/7=2,8=2,9=2,10=2,28=1/1;
 7/30=1/1,2,3,16;
 1/18=20,19=15,26=3/3(2);
 2/9=110,15=1/2;
 99//99;
 2/9=110,15=1/2;
 3/5=1,6=6,7=1,11=2,25=1,30=1,70=2205,71=1,72=1,74=-5/1,2,3;
 4/5=5,16=3,69=1/1;
 5/5=100002,7=2000,38=1,53=1/2;
 7/30=1/1,2,3,16;
 1/18=20,19=15,26=3/3(-5);
 2/9=110,15=1/2;
 6/7=2,8=2,9=2,10=2,19=2,28=1/1;
 99/9=1/99;
 Leave Link    1 at Thu Sep 24 14:39:41 2020, MaxMem=  2147483648 cpu:               0.1 elap:               0.0
 (Enter /prod/apps/gaussian/g16b1/l101.exe)
 -------------------
 SM45_m1.a.5.pdb.xyz
 -------------------
 Symbolic Z-matrix:
 Charge = -1 Multiplicity = 1
 O                    -3.572    -1.256    -1.605 
 S                    -2.528    -1.014    -0.574 
 N                    -1.149    -0.847    -1.366 
 C                     0.026    -0.597    -0.687 
 N                     0.195    -0.416     0.668 
 N                     1.463    -0.173     0.927 
 C                     1.277    -0.455    -1.279 
 N                     2.127    -0.192    -0.246 
 C                     3.533     0.031    -0.287 
 C                     4.305    -0.581    -1.279 
 C                     5.68     -0.347    -1.317 
 C                     6.284     0.479    -0.366 
 C                     5.503     1.077     0.627 
 C                     4.126     0.864     0.668 
 C                    -2.959     0.572     0.185 
 C                    -3.192     1.676    -0.643 
 C                    -3.524     2.905    -0.074 
 C                    -3.624     3.031     1.315 
 C                    -3.391     1.926     2.136 
 C                    -3.056     0.691     1.572 
 O                    -2.508    -2.006     0.539 
 H                     1.593    -0.484    -2.308 
 H                     3.842    -1.244    -2.001 
 H                     6.279    -0.822    -2.088 
 H                     7.355     0.654    -0.397 
 H                     5.964     1.724     1.369 
 H                     3.51      1.338     1.423 
 H                    -3.116     1.574    -1.722 
 H                    -3.707     3.763    -0.715 
 H                    -3.883     3.99      1.755 
 H                    -3.469     2.021     3.215 
 H                    -2.874    -0.176     2.197 
 
 ITRead=  0  0  0  0  0  0  0  0  0  0  0  0  0  0  0  0  0  0  0  0
 ITRead=  0  0  0  0  0  0  0  0  0  0  0  0
 MicOpt= -1 -1 -1 -1 -1 -1 -1 -1 -1 -1 -1 -1 -1 -1 -1 -1 -1 -1 -1 -1
 MicOpt= -1 -1 -1 -1 -1 -1 -1 -1 -1 -1 -1 -1
 NAtoms=     32 NQM=       32 NQMF=       0 NMMI=      0 NMMIF=      0
                NMic=       0 NMicF=      0.
                    Isotopes and Nuclear Properties:
 (Nuclear quadrupole moments (NQMom) in fm**2, nuclear magnetic moments (NMagM)
  in nuclear magnetons)

  Atom         1           2           3           4           5           6           7           8           9          10
 IAtWgt=          16          32          14          12          14          14          12          14          12          12
 AtmWgt=  15.9949146  31.9720718  14.0030740  12.0000000  14.0030740  14.0030740  12.0000000  14.0030740  12.0000000  12.0000000
 NucSpn=           0           0           2           0           2           2           0           2           0           0
 AtZEff=  -0.0000000  -0.0000000  -0.0000000  -0.0000000  -0.0000000  -0.0000000  -0.0000000  -0.0000000  -0.0000000  -0.0000000
 NQMom=    0.0000000   0.0000000   2.0440000   0.0000000   2.0440000   2.0440000   0.0000000   2.0440000   0.0000000   0.0000000
 NMagM=    0.0000000   0.0000000   0.4037610   0.0000000   0.4037610   0.4037610   0.0000000   0.4037610   0.0000000   0.0000000
 AtZNuc=   8.0000000  16.0000000   7.0000000   6.0000000   7.0000000   7.0000000   6.0000000   7.0000000   6.0000000   6.0000000

  Atom        11          12          13          14          15          16          17          18          19          20
 IAtWgt=          12          12          12          12          12          12          12          12          12          12
 AtmWgt=  12.0000000  12.0000000  12.0000000  12.0000000  12.0000000  12.0000000  12.0000000  12.0000000  12.0000000  12.0000000
 NucSpn=           0           0           0           0           0           0           0           0           0           0
 AtZEff=  -0.0000000  -0.0000000  -0.0000000  -0.0000000  -0.0000000  -0.0000000  -0.0000000  -0.0000000  -0.0000000  -0.0000000
 NQMom=    0.0000000   0.0000000   0.0000000   0.0000000   0.0000000   0.0000000   0.0000000   0.0000000   0.0000000   0.0000000
 NMagM=    0.0000000   0.0000000   0.0000000   0.0000000   0.0000000   0.0000000   0.0000000   0.0000000   0.0000000   0.0000000
 AtZNuc=   6.0000000   6.0000000   6.0000000   6.0000000   6.0000000   6.0000000   6.0000000   6.0000000   6.0000000   6.0000000

  Atom        21          22          23          24          25          26          27          28          29          30
 IAtWgt=          16           1           1           1           1           1           1           1           1           1
 AtmWgt=  15.9949146   1.0078250   1.0078250   1.0078250   1.0078250   1.0078250   1.0078250   1.0078250   1.0078250   1.0078250
 NucSpn=           0           1           1           1           1           1           1           1           1           1
 AtZEff=  -0.0000000  -0.0000000  -0.0000000  -0.0000000  -0.0000000  -0.0000000  -0.0000000  -0.0000000  -0.0000000  -0.0000000
 NQMom=    0.0000000   0.0000000   0.0000000   0.0000000   0.0000000   0.0000000   0.0000000   0.0000000   0.0000000   0.0000000
 NMagM=    0.0000000   2.7928460   2.7928460   2.7928460   2.7928460   2.7928460   2.7928460   2.7928460   2.7928460   2.7928460
 AtZNuc=   8.0000000   1.0000000   1.0000000   1.0000000   1.0000000   1.0000000   1.0000000   1.0000000   1.0000000   1.0000000

  Atom        31          32
 IAtWgt=           1           1
 AtmWgt=   1.0078250   1.0078250
 NucSpn=           1           1
 AtZEff=  -0.0000000  -0.0000000
 NQMom=    0.0000000   0.0000000
 NMagM=    2.7928460   2.7928460
 AtZNuc=   1.0000000   1.0000000
 Leave Link  101 at Thu Sep 24 14:39:41 2020, MaxMem=  2147483648 cpu:               1.3 elap:               0.3
 (Enter /prod/apps/gaussian/g16b1/l103.exe)

 GradGradGradGradGradGradGradGradGradGradGradGradGradGradGradGradGradGrad
 Berny optimization.
 Initialization pass.
                           ----------------------------
                           !    Initial Parameters    !
                           ! (Angstroms and Degrees)  !
 --------------------------                            --------------------------
 ! Name  Definition              Value          Derivative Info.                !
 --------------------------------------------------------------------------------
 ! R1    R(1,2)                  1.4871         estimate D2E/DX2                !
 ! R2    R(2,3)                  1.599          estimate D2E/DX2                !
 ! R3    R(2,15)                 1.8103         estimate D2E/DX2                !
 ! R4    R(2,21)                 1.4911         estimate D2E/DX2                !
 ! R5    R(3,4)                  1.3799         estimate D2E/DX2                !
 ! R6    R(4,5)                  1.3774         estimate D2E/DX2                !
 ! R7    R(4,7)                  1.3913         estimate D2E/DX2                !
 ! R8    R(5,6)                  1.3168         estimate D2E/DX2                !
 ! R9    R(6,8)                  1.348          estimate D2E/DX2                !
 ! R10   R(7,8)                  1.3634         estimate D2E/DX2                !
 ! R11   R(7,22)                 1.0768         estimate D2E/DX2                !
 ! R12   R(8,9)                  1.4242         estimate D2E/DX2                !
 ! R13   R(9,10)                 1.3981         estimate D2E/DX2                !
 ! R14   R(9,14)                 1.3991         estimate D2E/DX2                !
 ! R15   R(10,11)                1.3953         estimate D2E/DX2                !
 ! R16   R(10,23)                1.0841         estimate D2E/DX2                !
 ! R17   R(11,12)                1.397          estimate D2E/DX2                !
 ! R18   R(11,24)                1.0858         estimate D2E/DX2                !
 ! R19   R(12,13)                1.3977         estimate D2E/DX2                !
 ! R20   R(12,25)                1.0856         estimate D2E/DX2                !
 ! R21   R(13,14)                1.394          estimate D2E/DX2                !
 ! R22   R(13,26)                1.0871         estimate D2E/DX2                !
 ! R23   R(14,27)                1.0836         estimate D2E/DX2                !
 ! R24   R(15,16)                1.3995         estimate D2E/DX2                !
 ! R25   R(15,20)                1.3955         estimate D2E/DX2                !
 ! R26   R(16,17)                1.3944         estimate D2E/DX2                !
 ! R27   R(16,28)                1.0865         estimate D2E/DX2                !
 ! R28   R(17,18)                1.3983         estimate D2E/DX2                !
 ! R29   R(17,29)                1.0865         estimate D2E/DX2                !
 ! R30   R(18,19)                1.3962         estimate D2E/DX2                !
 ! R31   R(18,30)                1.0864         estimate D2E/DX2                !
 ! R32   R(19,20)                1.3984         estimate D2E/DX2                !
 ! R33   R(19,31)                1.086          estimate D2E/DX2                !
 ! R34   R(20,32)                1.0842         estimate D2E/DX2                !
 ! A1    A(1,2,3)              106.2034         estimate D2E/DX2                !
 ! A2    A(1,2,15)             105.4324         estimate D2E/DX2                !
 ! A3    A(1,2,21)             114.7502         estimate D2E/DX2                !
 ! A4    A(3,2,15)             108.7531         estimate D2E/DX2                !
 ! A5    A(3,2,21)             115.318          estimate D2E/DX2                !
 ! A6    A(15,2,21)            105.8487         estimate D2E/DX2                !
 ! A7    A(2,3,4)              120.6337         estimate D2E/DX2                !
 ! A8    A(3,4,5)              127.7575         estimate D2E/DX2                !
 ! A9    A(3,4,7)              125.0833         estimate D2E/DX2                !
 ! A10   A(5,4,7)              107.1483         estimate D2E/DX2                !
 ! A11   A(4,5,6)              109.626          estimate D2E/DX2                !
 ! A12   A(5,6,8)              107.4916         estimate D2E/DX2                !
 ! A13   A(4,7,8)              104.9447         estimate D2E/DX2                !
 ! A14   A(4,7,22)             131.8926         estimate D2E/DX2                !
 ! A15   A(8,7,22)             123.1119         estimate D2E/DX2                !
 ! A16   A(6,8,7)              110.789          estimate D2E/DX2                !
 ! A17   A(6,8,9)              120.606          estimate D2E/DX2                !
 ! A18   A(7,8,9)              128.6014         estimate D2E/DX2                !
 ! A19   A(8,9,10)             119.8038         estimate D2E/DX2                !
 ! A20   A(8,9,14)             119.4724         estimate D2E/DX2                !
 ! A21   A(10,9,14)            120.7238         estimate D2E/DX2                !
 ! A22   A(9,10,11)            119.3454         estimate D2E/DX2                !
 ! A23   A(9,10,23)            120.2946         estimate D2E/DX2                !
 ! A24   A(11,10,23)           120.3519         estimate D2E/DX2                !
 ! A25   A(10,11,12)           120.4445         estimate D2E/DX2                !
 ! A26   A(10,11,24)           119.3168         estimate D2E/DX2                !
 ! A27   A(12,11,24)           120.2357         estimate D2E/DX2                !
 ! A28   A(11,12,13)           119.6715         estimate D2E/DX2                !
 ! A29   A(11,12,25)           120.1594         estimate D2E/DX2                !
 ! A30   A(13,12,25)           120.1689         estimate D2E/DX2                !
 ! A31   A(12,13,14)           120.4964         estimate D2E/DX2                !
 ! A32   A(12,13,26)           120.1731         estimate D2E/DX2                !
 ! A33   A(14,13,26)           119.3263         estimate D2E/DX2                !
 ! A34   A(9,14,13)            119.3123         estimate D2E/DX2                !
 ! A35   A(9,14,27)            119.675          estimate D2E/DX2                !
 ! A36   A(13,14,27)           121.0116         estimate D2E/DX2                !
 ! A37   A(2,15,16)            118.8606         estimate D2E/DX2                !
 ! A38   A(2,15,20)            120.5292         estimate D2E/DX2                !
 ! A39   A(16,15,20)           120.6102         estimate D2E/DX2                !
 ! A40   A(15,16,17)           119.5693         estimate D2E/DX2                !
 ! A41   A(15,16,28)           120.1228         estimate D2E/DX2                !
 ! A42   A(17,16,28)           120.3078         estimate D2E/DX2                !
 ! A43   A(16,17,18)           120.1186         estimate D2E/DX2                !
 ! A44   A(16,17,29)           119.6935         estimate D2E/DX2                !
 ! A45   A(18,17,29)           120.1877         estimate D2E/DX2                !
 ! A46   A(17,18,19)           120.0577         estimate D2E/DX2                !
 ! A47   A(17,18,30)           119.9267         estimate D2E/DX2                !
 ! A48   A(19,18,30)           120.0156         estimate D2E/DX2                !
 ! A49   A(18,19,20)           120.1174         estimate D2E/DX2                !
 ! A50   A(18,19,31)           120.2006         estimate D2E/DX2                !
 ! A51   A(20,19,31)           119.6821         estimate D2E/DX2                !
 ! A52   A(15,20,19)           119.5268         estimate D2E/DX2                !
 ! A53   A(15,20,32)           119.5454         estimate D2E/DX2                !
 ! A54   A(19,20,32)           120.9275         estimate D2E/DX2                !
 ! D1    D(1,2,3,4)            179.4416         estimate D2E/DX2                !
 ! D2    D(15,2,3,4)            66.4059         estimate D2E/DX2                !
 ! D3    D(21,2,3,4)           -52.2582         estimate D2E/DX2                !
 ! D4    D(1,2,15,16)          -51.3625         estimate D2E/DX2                !
 ! D5    D(1,2,15,20)          128.6863         estimate D2E/DX2                !
 ! D6    D(3,2,15,16)           62.1807         estimate D2E/DX2                !
 ! D7    D(3,2,15,20)         -117.7706         estimate D2E/DX2                !
 ! D8    D(21,2,15,16)        -173.3581         estimate D2E/DX2                !
 ! D9    D(21,2,15,20)           6.6906         estimate D2E/DX2                !
 ! D10   D(2,3,4,5)             -2.3295         estimate D2E/DX2                !
 ! D11   D(2,3,4,7)            179.0319         estimate D2E/DX2                !
 ! D12   D(3,4,5,6)           -178.7345         estimate D2E/DX2                !
 ! D13   D(7,4,5,6)              0.0996         estimate D2E/DX2                !
 ! D14   D(3,4,7,8)            178.6744         estimate D2E/DX2                !
 ! D15   D(3,4,7,22)             1.2781         estimate D2E/DX2                !
 ! D16   D(5,4,7,8)             -0.1992         estimate D2E/DX2                !
 ! D17   D(5,4,7,22)          -177.5955         estimate D2E/DX2                !
 ! D18   D(4,5,6,8)              0.045          estimate D2E/DX2                !
 ! D19   D(5,6,8,7)             -0.179          estimate D2E/DX2                !
 ! D20   D(5,6,8,9)           -179.5524         estimate D2E/DX2                !
 ! D21   D(4,7,8,6)              0.2346         estimate D2E/DX2                !
 ! D22   D(4,7,8,9)            179.5445         estimate D2E/DX2                !
 ! D23   D(22,7,8,6)           177.9208         estimate D2E/DX2                !
 ! D24   D(22,7,8,9)            -2.7693         estimate D2E/DX2                !
 ! D25   D(6,8,9,10)           149.3529         estimate D2E/DX2                !
 ! D26   D(6,8,9,14)           -30.7354         estimate D2E/DX2                !
 ! D27   D(7,8,9,10)           -29.8976         estimate D2E/DX2                !
 ! D28   D(7,8,9,14)           150.0142         estimate D2E/DX2                !
 ! D29   D(8,9,10,11)          179.4674         estimate D2E/DX2                !
 ! D30   D(8,9,10,23)           -1.5639         estimate D2E/DX2                !
 ! D31   D(14,9,10,11)          -0.4432         estimate D2E/DX2                !
 ! D32   D(14,9,10,23)         178.5255         estimate D2E/DX2                !
 ! D33   D(8,9,14,13)          179.8233         estimate D2E/DX2                !
 ! D34   D(8,9,14,27)           -0.5539         estimate D2E/DX2                !
 ! D35   D(10,9,14,13)          -0.2658         estimate D2E/DX2                !
 ! D36   D(10,9,14,27)         179.357          estimate D2E/DX2                !
 ! D37   D(9,10,11,12)           0.6682         estimate D2E/DX2                !
 ! D38   D(9,10,11,24)        -179.9596         estimate D2E/DX2                !
 ! D39   D(23,10,11,12)       -178.2998         estimate D2E/DX2                !
 ! D40   D(23,10,11,24)          1.0724         estimate D2E/DX2                !
 ! D41   D(10,11,12,13)         -0.1838         estimate D2E/DX2                !
 ! D42   D(10,11,12,25)        179.6995         estimate D2E/DX2                !
 ! D43   D(24,11,12,13)       -179.5502         estimate D2E/DX2                !
 ! D44   D(24,11,12,25)          0.3331         estimate D2E/DX2                !
 ! D45   D(11,12,13,14)         -0.5379         estimate D2E/DX2                !
 ! D46   D(11,12,13,26)       -179.7853         estimate D2E/DX2                !
 ! D47   D(25,12,13,14)        179.5788         estimate D2E/DX2                !
 ! D48   D(25,12,13,26)          0.3315         estimate D2E/DX2                !
 ! D49   D(12,13,14,9)           0.7586         estimate D2E/DX2                !
 ! D50   D(12,13,14,27)       -178.8591         estimate D2E/DX2                !
 ! D51   D(26,13,14,9)        -179.9878         estimate D2E/DX2                !
 ! D52   D(26,13,14,27)          0.3946         estimate D2E/DX2                !
 ! D53   D(2,15,16,17)        -179.9525         estimate D2E/DX2                !
 ! D54   D(2,15,16,28)           0.1548         estimate D2E/DX2                !
 ! D55   D(20,15,16,17)         -0.0013         estimate D2E/DX2                !
 ! D56   D(20,15,16,28)       -179.894          estimate D2E/DX2                !
 ! D57   D(2,15,20,19)        -179.9681         estimate D2E/DX2                !
 ! D58   D(2,15,20,32)          -0.1798         estimate D2E/DX2                !
 ! D59   D(16,15,20,19)          0.0815         estimate D2E/DX2                !
 ! D60   D(16,15,20,32)        179.8698         estimate D2E/DX2                !
 ! D61   D(15,16,17,18)         -0.0525         estimate D2E/DX2                !
 ! D62   D(15,16,17,29)       -179.8942         estimate D2E/DX2                !
 ! D63   D(28,16,17,18)        179.8401         estimate D2E/DX2                !
 ! D64   D(28,16,17,29)         -0.0017         estimate D2E/DX2                !
 ! D65   D(16,17,18,19)          0.0255         estimate D2E/DX2                !
 ! D66   D(16,17,18,30)       -179.992          estimate D2E/DX2                !
 ! D67   D(29,17,18,19)        179.8665         estimate D2E/DX2                !
 ! D68   D(29,17,18,30)         -0.151          estimate D2E/DX2                !
 ! D69   D(17,18,19,20)          0.0555         estimate D2E/DX2                !
 ! D70   D(17,18,19,31)       -179.939          estimate D2E/DX2                !
 ! D71   D(30,18,19,20)       -179.927          estimate D2E/DX2                !
 ! D72   D(30,18,19,31)          0.0786         estimate D2E/DX2                !
 ! D73   D(18,19,20,15)         -0.1084         estimate D2E/DX2                !
 ! D74   D(18,19,20,32)       -179.8937         estimate D2E/DX2                !
 ! D75   D(31,19,20,15)        179.886          estimate D2E/DX2                !
 ! D76   D(31,19,20,32)          0.1008         estimate D2E/DX2                !
 --------------------------------------------------------------------------------
 Trust Radius=3.00D-01 FncErr=1.00D-07 GrdErr=1.00D-06 EigMax=2.50D+02 EigMin=1.00D-04
 Number of steps in this run=    174 maximum allowed number of steps=    192.
 GradGradGradGradGradGradGradGradGradGradGradGradGradGradGradGradGradGrad

 Leave Link  103 at Thu Sep 24 14:39:41 2020, MaxMem=  2147483648 cpu:               0.0 elap:               0.0
 (Enter /prod/apps/gaussian/g16b1/l202.exe)
                          Input orientation:                          
 ---------------------------------------------------------------------
 Center     Atomic      Atomic             Coordinates (Angstroms)
 Number     Number       Type             X           Y           Z
 ---------------------------------------------------------------------
      1          8           0       -3.572000   -1.256000   -1.605000
      2         16           0       -2.528000   -1.014000   -0.574000
      3          7           0       -1.149000   -0.847000   -1.366000
      4          6           0        0.026000   -0.597000   -0.687000
      5          7           0        0.195000   -0.416000    0.668000
      6          7           0        1.463000   -0.173000    0.927000
      7          6           0        1.277000   -0.455000   -1.279000
      8          7           0        2.127000   -0.192000   -0.246000
      9          6           0        3.533000    0.031000   -0.287000
     10          6           0        4.305000   -0.581000   -1.279000
     11          6           0        5.680000   -0.347000   -1.317000
     12          6           0        6.284000    0.479000   -0.366000
     13          6           0        5.503000    1.077000    0.627000
     14          6           0        4.126000    0.864000    0.668000
     15          6           0       -2.959000    0.572000    0.185000
     16          6           0       -3.192000    1.676000   -0.643000
     17          6           0       -3.524000    2.905000   -0.074000
     18          6           0       -3.624000    3.031000    1.315000
     19          6           0       -3.391000    1.926000    2.136000
     20          6           0       -3.056000    0.691000    1.572000
     21          8           0       -2.508000   -2.006000    0.539000
     22          1           0        1.593000   -0.484000   -2.308000
     23          1           0        3.842000   -1.244000   -2.001000
     24          1           0        6.279000   -0.822000   -2.088000
     25          1           0        7.355000    0.654000   -0.397000
     26          1           0        5.964000    1.724000    1.369000
     27          1           0        3.510000    1.338000    1.423000
     28          1           0       -3.116000    1.574000   -1.722000
     29          1           0       -3.707000    3.763000   -0.715000
     30          1           0       -3.883000    3.990000    1.755000
     31          1           0       -3.469000    2.021000    3.215000
     32          1           0       -2.874000   -0.176000    2.197000
 ---------------------------------------------------------------------
                    Distance matrix (angstroms):
                    1          2          3          4          5
     1  O    0.000000
     2  S    1.487098   0.000000
     3  N    2.468872   1.598998   0.000000
     4  C    3.771287   2.590285   1.379915   0.000000
     5  N    4.479109   3.052032   2.475733   1.377442   0.000000
     6  N    5.738914   4.346074   3.540433   2.202213   1.316797
     7  C    4.925513   3.909927   2.459006   1.391269   2.227791
     8  N    5.954627   4.738385   3.523578   2.184653   2.148999
     9  C    7.339926   6.157119   4.884286   3.585168   3.500583
    10  C    7.912587   6.882907   5.461176   4.319787   4.550839
    11  C    9.301007   8.268507   6.847455   5.694481   5.833542
    12  C   10.083952   8.940003   7.616283   6.357938   6.240681
    13  C    9.632255   8.385204   7.205757   5.875917   5.514127
    14  C    8.301815   7.024611   5.906801   4.558568   4.134146
    15  C    2.630865   1.810314   2.774034   3.322224   3.340232
    16  C    3.109094   2.771598   3.325975   3.940049   4.191295
    17  C    4.433981   4.074381   4.624651   5.024169   5.040889
    18  C    5.187241   4.596908   5.324685   5.522037   5.185092
    19  C    4.914567   4.090534   4.998009   5.100073   4.527625
    20  C    3.761701   2.791259   3.825433   4.032462   3.551291
    21  O    2.508253   1.491051   2.611357   3.147938   3.138622
    22  H    5.269480   4.502255   2.921934   2.257410   3.288709
    23  H    7.424578   6.531931   5.046872   4.087427   4.594535
    24  H    9.872378   8.938250   7.463049   6.411976   6.691444
    25  H   11.158257  10.024332   8.689648   7.440655   7.317426
    26  H   10.424029   9.131591   8.042701   6.698807   6.192928
    27  H    8.127259   6.780661   5.853121   4.509388   3.825672
    28  H    2.868889   2.891607   3.139596   3.956846   4.542568
    29  H    5.099087   4.922362   5.312181   5.739832   5.882375
    30  H    6.237535   5.683334   6.372752   6.502631   6.101188
    31  H    5.829386   4.945020   5.881614   5.856155   5.084395
    32  H    4.013578   2.915545   4.015076   4.111532   3.437179
                    6          7          8          9         10
     6  N    0.000000
     7  C    2.231716   0.000000
     8  N    1.348030   1.363363   0.000000
     9  C    2.408384   2.511931   1.424165   0.000000
    10  C    3.620755   3.030620   2.441740   1.398067   0.000000
    11  C    4.780052   4.404488   3.714145   2.411098   1.395287
    12  C    5.033785   5.174551   4.212516   2.788359   2.423553
    13  C    4.239587   4.882513   3.710777   2.410480   2.795891
    14  C    2.869498   3.694235   2.438551   1.399129   2.431229
    15  C    4.545291   4.598013   5.161090   6.531579   7.499227
    16  C    5.249069   4.991755   5.651442   6.932416   7.855161
    17  C    5.945272   5.982577   6.446301   7.622762   8.654332
    18  C    6.024428   6.549873   6.774840   7.923954   9.090898
    19  C    5.424832   6.254727   6.372454   7.576525   8.784970
    20  C    4.645846   5.311912   5.563120   6.877965   7.995655
    21  O    4.390817   4.476265   5.038854   6.428478   7.193936
    22  H    3.252514   1.076818   2.149945   2.848380   2.902274
    23  H    3.921717   2.779034   2.669823   2.158449   1.084077
    24  H    5.718853   5.080273   4.585735   3.392893   2.146914
    25  H    6.095291   6.240985   5.298160   3.874005   3.406706
    26  H    4.904383   5.807574   4.582778   3.393869   3.882938
    27  H    2.592170   3.937251   2.653140   2.152412   3.408136
    28  H    5.571037   4.859171   5.725939   6.974903   7.740253
    29  H    6.702027   6.553615   7.063819   8.156507   9.131297
    30  H    6.826117   7.455788   7.590338   8.651040   9.856092
    31  H    5.862867   6.989358   6.941981   8.077878   9.348878
    32  H    4.519124   5.421367   5.565834   6.874791   7.986529
                   11         12         13         14         15
    11  C    0.000000
    12  C    1.396958   0.000000
    13  C    2.416245   1.397717   0.000000
    14  C    2.796723   2.423705   1.393980   0.000000
    15  C    8.816626   9.259876   8.488571   7.107445   0.000000
    16  C    9.124647   9.555319   8.807652   7.478716   1.399532
    17  C    9.840435  10.107799   9.236867   7.952279   2.414373
    18  C   10.242203  10.368555   9.359145   8.073227   2.786720
    19  C    9.968590  10.097497   9.060967   7.732280   2.413781
    20  C    9.259669   9.541299   8.619658   7.240737   1.395471
    21  O    8.558058   9.181150   8.584215   7.229350   2.640985
    22  H    4.207662   5.167612   5.132158   4.133977   5.296309
    23  H    2.156550   3.406658   3.879735   3.412899   7.370892
    24  H    1.085756   2.158219   3.402881   3.882466   9.615114
    25  H    2.157319   1.085646   2.158103   3.406577  10.330733
    26  H    3.403571   2.159317   1.087057   2.146915   9.074629
    27  H    3.880171   3.410788   2.161894   1.083585   6.630789
    28  H    9.012429   9.560218   8.947177   7.659162   2.159931
    29  H   10.265002  10.522668   9.687087   8.465978   3.398821
    30  H   10.940645  10.963287   9.892166   8.665883   3.873164
    31  H   10.480966  10.503444   9.385396   8.093818   3.397146
    32  H    9.249235   9.532416   8.614467   7.240127   2.148226
                   16         17         18         19         20
    16  C    0.000000
    17  C    1.394427   0.000000
    18  C    2.420003   1.398284   0.000000
    19  C    2.797310   2.420791   1.396193   0.000000
    20  C    2.427951   2.798238   2.421626   1.398408   0.000000
    21  O    3.927099   5.052321   5.217183   4.334827   2.939592
    22  H    5.507636   6.531444   7.259369   7.099119   6.168324
    23  H    7.736131   8.670956   9.220230   8.915153   8.005808
    24  H    9.900902  10.679210  11.157752  10.904246  10.140365
    25  H   10.599255  11.114134  11.363077  11.113532  10.595624
    26  H    9.374582   9.669496   9.676823   9.388563   9.081228
    27  H    7.021353   7.360275   7.332930   6.962608   6.599482
    28  H    1.086472   2.157297   3.406506   3.883773   3.410825
    29  H    2.150809   1.086524   2.159540   3.406263   3.884759
    30  H    3.403304   2.156698   1.086445   2.155765   3.405998
    31  H    3.883287   3.406171   2.157342   1.085979   2.153815
    32  H    3.405382   3.882332   3.409585   2.165505   1.084176
                   21         22         23         24         25
    21  O    0.000000
    22  H    5.219204   0.000000
    23  H    6.881478   2.393711   0.000000
    24  H    9.247397   4.703322   2.474797   0.000000
    25  H   10.258190   6.176375   4.303067   2.489143   0.000000
    26  H    9.293900   6.123825   4.966770   4.304903   2.489686
    27  H    6.941190   4.573285   4.301247   4.965892   4.308629
    28  H    4.277638   5.172373   7.512172   9.702618  10.594521
    29  H    6.024241   6.976006   9.149385  11.073732  11.494992
    30  H    6.270670   8.155441  10.058723  11.882350  11.918584
    31  H    4.929627   7.899519   9.556024  11.455477  11.492354
    32  H    2.496361   6.351691   7.991776  10.126991  10.585376
                   26         27         28         29         30
    26  H    0.000000
    27  H    2.484759   0.000000
    28  H    9.592871   7.338297   0.000000
    29  H   10.100932   7.908019   2.480938   0.000000
    30  H   10.111734   7.861283   4.302891   2.486645   0.000000
    31  H    9.616518   7.237693   4.969747   4.305358   2.485952
    32  H    9.077766   6.606567   4.298793   4.968838   4.309176
                   31         32
    31  H    0.000000
    32  H    2.493423   0.000000
 Symmetry turned off by external request.
 Stoichiometry    C14H11N4O2S(1-)
 Framework group  C1[X(C14H11N4O2S)]
 Deg. of freedom    90
 Full point group                 C1      NOp   1
 Rotational constants (GHZ):           0.6172816           0.1379509           0.1236169
 Leave Link  202 at Thu Sep 24 14:39:41 2020, MaxMem=  2147483648 cpu:               0.0 elap:               0.0
 (Enter /prod/apps/gaussian/g16b1/l301.exe)
 Standard basis: 6-31G(d) (6D, 7F)
 Ernie: Thresh=  0.10000D-02 Tol=  0.10000D-05 Strict=F.
   341 basis functions,   656 primitive gaussians,   341 cartesian basis functions
    78 alpha electrons       78 beta electrons
       nuclear repulsion energy      1694.0497261299 Hartrees.
 IExCor=  402 DFT=T Ex+Corr=B3LYP ExCW=0 ScaHFX=  0.200000
 ScaDFX=  0.800000  0.720000  1.000000  0.810000 ScalE2=  1.000000  1.000000
 IRadAn=      5 IRanWt=     -1 IRanGd=            0 ICorTp=0 IEmpDi=  4
 NAtoms=   32 NActive=   32 NUniq=   32 SFac= 1.00D+00 NAtFMM=   60 NAOKFM=F Big=F
 Integral buffers will be    131072 words long.
 Raffenetti 2 integral format.
 Two-electron integral symmetry is turned off.
 Using the following non-standard input for PCM:
 MSTModel=DFT cav MSTcharged
 --- end of non-standard input.
 MST model for solvation energy: B3LYP parametrization.
 MST cavity parameters:
 ISph   IAn     Re0     Alpha   Atom Type   QCorr
 ------------------------------------------------
   1      8     1.40     1.25      O          F
   2     16     1.75     1.25      S          F
   3      7     1.40     1.15      N          T
   4      6     1.50     1.25      C          F
   5      7     1.40     1.25      N          F
   6      7     1.40     1.25      N          F
   7      6     1.50     1.25      CH         F
   8      7     1.40     1.25      N          F
   9      6     1.50     1.25      C          F
  10      6     1.50     1.25      CH         F
  11      6     1.50     1.25      CH         F
  12      6     1.50     1.25      CH         F
  13      6     1.50     1.25      CH         F
  14      6     1.50     1.25      CH         F
  15      6     1.50     1.25      C          F
  16      6     1.50     1.25      CH         F
  17      6     1.50     1.25      CH         F
  18      6     1.50     1.25      CH         F
  19      6     1.50     1.25      CH         F
  20      6     1.50     1.25      CH         F
  21      8     1.40     1.25      O          F
  22      1     1.20     1.25      CH         F
  23      1     1.20     1.25      CH         F
  24      1     1.20     1.25      CH         F
  25      1     1.20     1.25      CH         F
  26      1     1.20     1.25      CH         F
  27      1     1.20     1.25      CH         F
  28      1     1.20     1.25      CH         F
  29      1     1.20     1.25      CH         F
  30      1     1.20     1.25      CH         F
  31      1     1.20     1.25      CH         F
  32      1     1.20     1.25      CH         F
 ------------------------------------------------------------------------------
 Polarizable Continuum Model (PCM)
 =================================
 Model                : PCM.
 Atomic radii         : MST.
 Polarization charges : Total charges.
 Charge compensation  : None.
 Solution method      : On-the-fly selection.
 Cavity type          : Scaled VdW (van der Waals Surface) (Alpha=1.250).
 Cavity algorithm     : GePol (No added spheres)
                        Default sphere list used, NSphG=   32.
                        Lebedev-Laikov grids with approx.  5.0 points / Ang**2.
                        Smoothing algorithm: York/Karplus (Gamma=1.0000).
                        Polarization charges: spherical gaussians, with
                                              point-specific exponents (IZeta= 3).
                        Self-potential: point-specific (ISelfS= 7).
                        Self-field    : sphere-specific E.n sum rule (ISelfD= 2).
 1st derivatives      : Analytical E(r).r(x)/FMM algorithm (CHGder, D1EAlg=3).
                        Cavity 1st derivative terms included.
 Solvent              : Water, Eps=  78.355300 Eps(inf)=   1.777849
 ------------------------------------------------------------------------------
 GePol: Number of generator spheres                  =      32
 GePol: Total number of spheres                      =      32
 GePol: Number of exposed spheres                    =      32 (100.00%)
 GePol: Number of points                             =    2610
 GePol: Average weight of points                     =       0.13
 GePol: Minimum weight of points                     =   0.22D-11
 GePol: Maximum weight of points                     =    0.22001
 GePol: Number of points with low weight             =     165
 GePol: Fraction of low-weight points (<1% of avg)   =       6.32%
 GePol: Cavity surface area                          =    337.712 Ang**2
 GePol: Cavity volume                                =    318.753 Ang**3
 PCM non-electrostatic energy =         0.0038922235 Hartrees.
 Nuclear repulsion after PCM non-electrostatic terms =     1694.0536183534 Hartrees.
 Leave Link  301 at Thu Sep 24 14:39:41 2020, MaxMem=  2147483648 cpu:               0.3 elap:               0.1
 (Enter /prod/apps/gaussian/g16b1/l302.exe)
 NPDir=0 NMtPBC=     1 NCelOv=     1 NCel=       1 NClECP=     1 NCelD=      1
         NCelK=      1 NCelE2=     1 NClLst=     1 CellRange=     0.0.
 One-electron integrals computed using PRISM.
 NBasis=   341 RedAO= T EigKep=  4.71D-04  NBF=   341
 NBsUse=   341 1.00D-06 EigRej= -1.00D+00 NBFU=   341
 Precomputing XC quadrature grid using
 IXCGrd= 4 IRadAn=           5 IRanWt=          -1 IRanGd=           0 AccXCQ= 0.00D+00.
 Generated NRdTot=       0 NPtTot=           0 NUsed=           0 NTot=          32
 NSgBfM=   336   336   336   336   336 MxSgAt=    32 MxSgA2=    32.
 Leave Link  302 at Thu Sep 24 14:39:42 2020, MaxMem=  2147483648 cpu:               1.5 elap:               0.4
 (Enter /prod/apps/gaussian/g16b1/l303.exe)
 DipDrv:  MaxL=1.
 Leave Link  303 at Thu Sep 24 14:39:42 2020, MaxMem=  2147483648 cpu:               0.2 elap:               0.1
 (Enter /prod/apps/gaussian/g16b1/l401.exe)
 ExpMin= 1.17D-01 ExpMax= 2.19D+04 ExpMxC= 3.30D+03 IAcc=3 IRadAn=         5 AccDes= 0.00D+00
 Harris functional with IExCor=  402 and IRadAn=       5 diagonalized for initial guess.
 HarFok:  IExCor=  402 AccDes= 0.00D+00 IRadAn=         5 IDoV= 1 UseB2=F ITyADJ=14
 ICtDFT=  3500011 ScaDFX=  1.000000  1.000000  1.000000  1.000000
 FoFCou: FMM=F IPFlag=           0 FMFlag=      100000 FMFlg1=           0
         NFxFlg=           0 DoJE=T BraDBF=F KetDBF=T FulRan=T
         wScrn=  0.000000 ICntrl=       500 IOpCl=  0 I1Cent=   200000004 NGrid=           0
         NMat0=    1 NMatS0=      1 NMatT0=    0 NMatD0=    1 NMtDS0=    0 NMtDT0=    0
 Symmetry not used in FoFCou.
 Harris En= -1307.83637418155    
 JPrj=0 DoOrth=F DoCkMO=F.
 Leave Link  401 at Thu Sep 24 14:39:44 2020, MaxMem=  2147483648 cpu:               8.3 elap:               2.1
 (Enter /prod/apps/gaussian/g16b1/l502.exe)
 Two-electron integral symmetry not used.
 Closed shell SCF:
 Using DIIS extrapolation, IDIIS=  1040.
 NGot=  2147483648 LenX=  2147246177 LenY=  2147129455
 Requested convergence on RMS density matrix=1.00D-08 within2000 cycles.
 Requested convergence on MAX density matrix=1.00D-06.
 Requested convergence on             energy=1.00D-06.
 No special actions if energy rises.

 Cycle   1  Pass 1  IDiag  1:
 FoFJK:  IHMeth= 1 ICntrl=       0 DoSepK=F KAlg= 0 I1Cent=           0 FoldK=F
 IRaf= 710000000 NMat=       1 IRICut=       1 DoRegI=T DoRafI=F ISym2E= 0 IDoP0=0 IntGTp=1.
 FoFCou: FMM=F IPFlag=           0 FMFlag=      100000 FMFlg1=           0
         NFxFlg=           0 DoJE=F BraDBF=F KetDBF=F FulRan=T
         wScrn=  0.000000 ICntrl=         0 IOpCl=  0 I1Cent=           0 NGrid=           0
         NMat0=    1 NMatS0=      1 NMatT0=    0 NMatD0=    1 NMtDS0=    0 NMtDT0=    0
 Symmetry not used in FoFCou.
 Inv3:  Mode=1 IEnd=    20436300.
 Iteration    1 A*A^-1 deviation from unit magnitude is 3.11D-15 for     90.
 Iteration    1 A*A^-1 deviation from orthogonality  is 3.20D-15 for   1638     10.
 Iteration    1 A^-1*A deviation from unit magnitude is 3.11D-15 for   2453.
 Iteration    1 A^-1*A deviation from orthogonality  is 2.67D-13 for   1401   1353.
 E= -1307.19818431607    
 DIIS: error= 2.63D-02 at cycle   1 NSaved=   1.
 NSaved= 1 IEnMin= 1 EnMin= -1307.19818431607     IErMin= 1 ErrMin= 2.63D-02
 ErrMax= 2.63D-02  0.00D+00 EMaxC= 1.00D-01 BMatC= 6.82D-01 BMatP= 6.82D-01
 IDIUse=3 WtCom= 7.37D-01 WtEn= 2.63D-01
 Coeff-Com:  0.100D+01
 Coeff-En:   0.100D+01
 Coeff:      0.100D+01
 Gap=     0.207 Goal=   None    Shift=    0.000
 GapD=    0.207 DampG=1.000 DampE=0.500 DampFc=0.5000 IDamp=-1.
 Damping current iteration by 5.00D-01
 RMSDP=5.90D-03 MaxDP=5.18D-01              OVMax= 1.97D-01

 Cycle   2  Pass 1  IDiag  1:
 E= -1307.38600649486     Delta-E=       -0.187822178785 Rises=F Damp=T
 DIIS: error= 1.02D-02 at cycle   2 NSaved=   2.
 NSaved= 2 IEnMin= 2 EnMin= -1307.38600649486     IErMin= 2 ErrMin= 1.02D-02
 ErrMax= 1.02D-02  0.00D+00 EMaxC= 1.00D-01 BMatC= 8.46D-02 BMatP= 6.82D-01
 IDIUse=3 WtCom= 8.98D-01 WtEn= 1.02D-01
 Coeff-Com:  0.192D+00 0.808D+00
 Coeff-En:   0.308D+00 0.692D+00
 Coeff:      0.204D+00 0.796D+00
 Gap=     0.193 Goal=   None    Shift=    0.000
 RMSDP=1.67D-03 MaxDP=1.26D-01 DE=-1.88D-01 OVMax= 1.66D-01

 Cycle   3  Pass 1  IDiag  1:
 E= -1307.75882996317     Delta-E=       -0.372823468313 Rises=F Damp=F
 DIIS: error= 6.49D-03 at cycle   3 NSaved=   3.
 NSaved= 3 IEnMin= 3 EnMin= -1307.75882996317     IErMin= 3 ErrMin= 6.49D-03
 ErrMax= 6.49D-03  0.00D+00 EMaxC= 1.00D-01 BMatC= 4.15D-02 BMatP= 8.46D-02
 IDIUse=3 WtCom= 9.35D-01 WtEn= 6.49D-02
 Coeff-Com:  0.409D-01 0.409D+00 0.550D+00
 Coeff-En:   0.000D+00 0.000D+00 0.100D+01
 Coeff:      0.382D-01 0.383D+00 0.579D+00
 Gap=     0.161 Goal=   None    Shift=    0.000
 RMSDP=8.69D-04 MaxDP=3.74D-02 DE=-3.73D-01 OVMax= 4.53D-02

 Cycle   4  Pass 1  IDiag  1:
 E= -1307.79213578475     Delta-E=       -0.033305821583 Rises=F Damp=F
 DIIS: error= 3.24D-03 at cycle   4 NSaved=   4.
 NSaved= 4 IEnMin= 4 EnMin= -1307.79213578475     IErMin= 4 ErrMin= 3.24D-03
 ErrMax= 3.24D-03  0.00D+00 EMaxC= 1.00D-01 BMatC= 6.57D-03 BMatP= 4.15D-02
 IDIUse=3 WtCom= 9.68D-01 WtEn= 3.24D-02
 Coeff-Com:  0.110D-02 0.985D-01 0.311D+00 0.589D+00
 Coeff-En:   0.000D+00 0.000D+00 0.117D+00 0.883D+00
 Coeff:      0.106D-02 0.953D-01 0.305D+00 0.599D+00
 Gap=     0.158 Goal=   None    Shift=    0.000
 RMSDP=2.95D-04 MaxDP=1.40D-02 DE=-3.33D-02 OVMax= 1.81D-02

 Cycle   5  Pass 1  IDiag  1:
 E= -1307.79761734279     Delta-E=       -0.005481558034 Rises=F Damp=F
 DIIS: error= 1.05D-03 at cycle   5 NSaved=   5.
 NSaved= 5 IEnMin= 5 EnMin= -1307.79761734279     IErMin= 5 ErrMin= 1.05D-03
 ErrMax= 1.05D-03  0.00D+00 EMaxC= 1.00D-01 BMatC= 7.13D-04 BMatP= 6.57D-03
 IDIUse=3 WtCom= 9.89D-01 WtEn= 1.05D-02
 Coeff-Com: -0.284D-02 0.188D-01 0.116D+00 0.331D+00 0.537D+00
 Coeff-En:   0.000D+00 0.000D+00 0.000D+00 0.310D-01 0.969D+00
 Coeff:     -0.281D-02 0.186D-01 0.115D+00 0.328D+00 0.541D+00
 Gap=     0.160 Goal=   None    Shift=    0.000
 RMSDP=9.30D-05 MaxDP=5.41D-03 DE=-5.48D-03 OVMax= 6.61D-03

 Cycle   6  Pass 1  IDiag  1:
 E= -1307.79822453924     Delta-E=       -0.000607196449 Rises=F Damp=F
 DIIS: error= 2.14D-04 at cycle   6 NSaved=   6.
 NSaved= 6 IEnMin= 6 EnMin= -1307.79822453924     IErMin= 6 ErrMin= 2.14D-04
 ErrMax= 2.14D-04  0.00D+00 EMaxC= 1.00D-01 BMatC= 5.01D-05 BMatP= 7.13D-04
 IDIUse=3 WtCom= 9.98D-01 WtEn= 2.14D-03
 Coeff-Com: -0.162D-02 0.369D-02 0.403D-01 0.132D+00 0.291D+00 0.535D+00
 Coeff-En:   0.000D+00 0.000D+00 0.000D+00 0.000D+00 0.000D+00 0.100D+01
 Coeff:     -0.162D-02 0.368D-02 0.402D-01 0.131D+00 0.290D+00 0.536D+00
 Gap=     0.159 Goal=   None    Shift=    0.000
 RMSDP=2.43D-05 MaxDP=1.29D-03 DE=-6.07D-04 OVMax= 1.93D-03

 Cycle   7  Pass 1  IDiag  1:
 E= -1307.79826561600     Delta-E=       -0.000041076757 Rises=F Damp=F
 DIIS: error= 7.08D-05 at cycle   7 NSaved=   7.
 NSaved= 7 IEnMin= 7 EnMin= -1307.79826561600     IErMin= 7 ErrMin= 7.08D-05
 ErrMax= 7.08D-05  0.00D+00 EMaxC= 1.00D-01 BMatC= 3.59D-06 BMatP= 5.01D-05
 IDIUse=1 WtCom= 1.00D+00 WtEn= 0.00D+00
 Coeff-Com: -0.673D-03 0.434D-03 0.124D-01 0.447D-01 0.115D+00 0.286D+00
 Coeff-Com:  0.542D+00
 Coeff:     -0.673D-03 0.434D-03 0.124D-01 0.447D-01 0.115D+00 0.286D+00
 Coeff:      0.542D+00
 Gap=     0.159 Goal=   None    Shift=    0.000
 RMSDP=6.75D-06 MaxDP=3.34D-04 DE=-4.11D-05 OVMax= 4.50D-04

 Cycle   8  Pass 1  IDiag  1:
 E= -1307.79826843480     Delta-E=       -0.000002818805 Rises=F Damp=F
 DIIS: error= 3.16D-05 at cycle   8 NSaved=   8.
 NSaved= 8 IEnMin= 8 EnMin= -1307.79826843480     IErMin= 8 ErrMin= 3.16D-05
 ErrMax= 3.16D-05  0.00D+00 EMaxC= 1.00D-01 BMatC= 4.21D-07 BMatP= 3.59D-06
 IDIUse=1 WtCom= 1.00D+00 WtEn= 0.00D+00
 Coeff-Com: -0.219D-03-0.182D-03 0.269D-02 0.113D-01 0.347D-01 0.105D+00
 Coeff-Com:  0.305D+00 0.542D+00
 Coeff:     -0.219D-03-0.182D-03 0.269D-02 0.113D-01 0.347D-01 0.105D+00
 Coeff:      0.305D+00 0.542D+00
 Gap=     0.159 Goal=   None    Shift=    0.000
 RMSDP=2.52D-06 MaxDP=1.09D-04 DE=-2.82D-06 OVMax= 1.98D-04

 Cycle   9  Pass 1  IDiag  1:
 E= -1307.79826879024     Delta-E=       -0.000000355435 Rises=F Damp=F
 DIIS: error= 8.99D-06 at cycle   9 NSaved=   9.
 NSaved= 9 IEnMin= 9 EnMin= -1307.79826879024     IErMin= 9 ErrMin= 8.99D-06
 ErrMax= 8.99D-06  0.00D+00 EMaxC= 1.00D-01 BMatC= 4.77D-08 BMatP= 4.21D-07
 IDIUse=1 WtCom= 1.00D+00 WtEn= 0.00D+00
 Coeff-Com: -0.183D-04-0.124D-03-0.330D-03-0.540D-03 0.184D-02 0.141D-01
 Coeff-Com:  0.835D-01 0.296D+00 0.605D+00
 Coeff:     -0.183D-04-0.124D-03-0.330D-03-0.540D-03 0.184D-02 0.141D-01
 Coeff:      0.835D-01 0.296D+00 0.605D+00
 Gap=     0.159 Goal=   None    Shift=    0.000
 RMSDP=8.09D-07 MaxDP=4.87D-05 DE=-3.55D-07 OVMax= 7.52D-05

 Cycle  10  Pass 1  IDiag  1:
 E= -1307.79826883071     Delta-E=       -0.000000040478 Rises=F Damp=F
 DIIS: error= 3.17D-06 at cycle  10 NSaved=  10.
 NSaved=10 IEnMin=10 EnMin= -1307.79826883071     IErMin=10 ErrMin= 3.17D-06
 ErrMax= 3.17D-06  0.00D+00 EMaxC= 1.00D-01 BMatC= 6.00D-09 BMatP= 4.77D-08
 IDIUse=1 WtCom= 1.00D+00 WtEn= 0.00D+00
 Coeff-Com:  0.578D-06-0.656D-04-0.364D-03-0.104D-02-0.104D-02 0.178D-02
 Coeff-Com:  0.310D-01 0.145D+00 0.369D+00 0.456D+00
 Coeff:      0.578D-06-0.656D-04-0.364D-03-0.104D-02-0.104D-02 0.178D-02
 Coeff:      0.310D-01 0.145D+00 0.369D+00 0.456D+00
 Gap=     0.159 Goal=   None    Shift=    0.000
 RMSDP=2.58D-07 MaxDP=1.51D-05 DE=-4.05D-08 OVMax= 2.12D-05

 Cycle  11  Pass 1  IDiag  1:
 E= -1307.79826883607     Delta-E=       -0.000000005359 Rises=F Damp=F
 DIIS: error= 5.68D-07 at cycle  11 NSaved=  11.
 NSaved=11 IEnMin=11 EnMin= -1307.79826883607     IErMin=11 ErrMin= 5.68D-07
 ErrMax= 5.68D-07  0.00D+00 EMaxC= 1.00D-01 BMatC= 2.66D-10 BMatP= 6.00D-09
 IDIUse=1 WtCom= 1.00D+00 WtEn= 0.00D+00
 Coeff-Com:  0.241D-05-0.105D-04-0.139D-03-0.471D-03-0.849D-03-0.135D-02
 Coeff-Com:  0.302D-02 0.284D-01 0.945D-01 0.200D+00 0.677D+00
 Coeff:      0.241D-05-0.105D-04-0.139D-03-0.471D-03-0.849D-03-0.135D-02
 Coeff:      0.302D-02 0.284D-01 0.945D-01 0.200D+00 0.677D+00
 Gap=     0.159 Goal=   None    Shift=    0.000
 RMSDP=7.13D-08 MaxDP=2.81D-06 DE=-5.36D-09 OVMax= 5.89D-06

 Cycle  12  Pass 1  IDiag  1:
 E= -1307.79826883626     Delta-E=       -0.000000000190 Rises=F Damp=F
 DIIS: error= 3.22D-07 at cycle  12 NSaved=  12.
 NSaved=12 IEnMin=12 EnMin= -1307.79826883626     IErMin=12 ErrMin= 3.22D-07
 ErrMax= 3.22D-07  0.00D+00 EMaxC= 1.00D-01 BMatC= 8.38D-11 BMatP= 2.66D-10
 IDIUse=1 WtCom= 1.00D+00 WtEn= 0.00D+00
 Coeff-Com:  0.109D-05 0.133D-05-0.411D-04-0.159D-03-0.370D-03-0.974D-03
 Coeff-Com: -0.158D-02 0.785D-03 0.145D-01 0.629D-01 0.413D+00 0.512D+00
 Coeff:      0.109D-05 0.133D-05-0.411D-04-0.159D-03-0.370D-03-0.974D-03
 Coeff:     -0.158D-02 0.785D-03 0.145D-01 0.629D-01 0.413D+00 0.512D+00
 Gap=     0.159 Goal=   None    Shift=    0.000
 RMSDP=3.00D-08 MaxDP=1.58D-06 DE=-1.90D-10 OVMax= 2.97D-06

 Cycle  13  Pass 1  IDiag  1:
 E= -1307.79826883636     Delta-E=       -0.000000000097 Rises=F Damp=F
 DIIS: error= 6.67D-08 at cycle  13 NSaved=  13.
 NSaved=13 IEnMin=13 EnMin= -1307.79826883636     IErMin=13 ErrMin= 6.67D-08
 ErrMax= 6.67D-08  0.00D+00 EMaxC= 1.00D-01 BMatC= 3.14D-12 BMatP= 8.38D-11
 IDIUse=1 WtCom= 1.00D+00 WtEn= 0.00D+00
 Coeff-Com:  0.266D-06 0.145D-05-0.709D-05-0.321D-04-0.965D-04-0.327D-03
 Coeff-Com: -0.945D-03-0.193D-02-0.198D-02 0.871D-02 0.121D+00 0.223D+00
 Coeff-Com:  0.653D+00
 Coeff:      0.266D-06 0.145D-05-0.709D-05-0.321D-04-0.965D-04-0.327D-03
 Coeff:     -0.945D-03-0.193D-02-0.198D-02 0.871D-02 0.121D+00 0.223D+00
 Coeff:      0.653D+00
 Gap=     0.159 Goal=   None    Shift=    0.000
 RMSDP=8.10D-09 MaxDP=3.60D-07 DE=-9.73D-11 OVMax= 5.19D-07

 Error on total polarization charges =  0.02469
 SCF Done:  E(RB3LYP) =  -1307.79826884     A.U. after   13 cycles
            NFock= 13  Conv=0.81D-08     -V/T= 2.0077
 KE= 1.297764604077D+03 PE=-6.472344429910D+03 EE= 2.172727938644D+03
 Leave Link  502 at Thu Sep 24 14:40:53 2020, MaxMem=  2147483648 cpu:             278.5 elap:              69.7
 (Enter /prod/apps/gaussian/g16b1/l601.exe)
 Copying SCF densities to generalized density rwf, IOpCl= 0 IROHF=0.

 **********************************************************************

            Population analysis using the SCF Density.

 **********************************************************************

 Alpha  occ. eigenvalues --  -89.08566 -19.11591 -19.11342 -14.42905 -14.38480
 Alpha  occ. eigenvalues --  -14.34557 -14.29840 -10.24512 -10.24071 -10.21423
 Alpha  occ. eigenvalues --  -10.21176 -10.20186 -10.20020 -10.20006 -10.19882
 Alpha  occ. eigenvalues --  -10.19847 -10.19820 -10.19640 -10.19581 -10.19576
 Alpha  occ. eigenvalues --  -10.19543  -8.10947  -6.07440  -6.07346  -6.07316
 Alpha  occ. eigenvalues --   -1.09087  -1.07639  -0.96322  -0.92639  -0.88349
 Alpha  occ. eigenvalues --   -0.86020  -0.85222  -0.78549  -0.75925  -0.75599
 Alpha  occ. eigenvalues --   -0.75110  -0.74969  -0.65829  -0.65153  -0.62424
 Alpha  occ. eigenvalues --   -0.60991  -0.60142  -0.58810  -0.56589  -0.54744
 Alpha  occ. eigenvalues --   -0.51853  -0.49890  -0.48364  -0.47810  -0.46885
 Alpha  occ. eigenvalues --   -0.46288  -0.45206  -0.44619  -0.44364  -0.43686
 Alpha  occ. eigenvalues --   -0.42933  -0.42568  -0.42411  -0.38298  -0.37583
 Alpha  occ. eigenvalues --   -0.36888  -0.36781  -0.35651  -0.35097  -0.34746
 Alpha  occ. eigenvalues --   -0.33165  -0.31697  -0.31252  -0.29690  -0.29104
 Alpha  occ. eigenvalues --   -0.28301  -0.27664  -0.26138  -0.25819  -0.25637
 Alpha  occ. eigenvalues --   -0.24668  -0.24474  -0.19227
 Alpha virt. eigenvalues --   -0.03305  -0.01964  -0.01090  -0.00691   0.02369
 Alpha virt. eigenvalues --    0.06410   0.08600   0.09463   0.11774   0.12518
 Alpha virt. eigenvalues --    0.13449   0.13693   0.14928   0.15253   0.15417
 Alpha virt. eigenvalues --    0.15716   0.16582   0.17334   0.18688   0.18927
 Alpha virt. eigenvalues --    0.19116   0.19309   0.20350   0.20889   0.22892
 Alpha virt. eigenvalues --    0.24111   0.25982   0.28512   0.29899   0.30239
 Alpha virt. eigenvalues --    0.30507   0.31400   0.31833   0.33348   0.34180
 Alpha virt. eigenvalues --    0.34478   0.37391   0.38876   0.39435   0.43179
 Alpha virt. eigenvalues --    0.43882   0.46354   0.48405   0.50458   0.51054
 Alpha virt. eigenvalues --    0.51904   0.52600   0.52932   0.53564   0.54555
 Alpha virt. eigenvalues --    0.55680   0.56291   0.56608   0.57039   0.57982
 Alpha virt. eigenvalues --    0.58157   0.58607   0.58718   0.59060   0.59206
 Alpha virt. eigenvalues --    0.59991   0.60453   0.60705   0.61046   0.61299
 Alpha virt. eigenvalues --    0.61347   0.62594   0.63285   0.63806   0.64223
 Alpha virt. eigenvalues --    0.64794   0.66245   0.68356   0.69132   0.71160
 Alpha virt. eigenvalues --    0.72688   0.73660   0.76101   0.76900   0.78834
 Alpha virt. eigenvalues --    0.78923   0.80523   0.80845   0.81696   0.82457
 Alpha virt. eigenvalues --    0.83292   0.83929   0.84106   0.84339   0.84505
 Alpha virt. eigenvalues --    0.85006   0.86453   0.87668   0.88008   0.90417
 Alpha virt. eigenvalues --    0.90545   0.91483   0.92133   0.92768   0.93327
 Alpha virt. eigenvalues --    0.93644   0.94535   0.95294   0.96564   0.98196
 Alpha virt. eigenvalues --    0.99999   1.00354   1.01190   1.02689   1.03555
 Alpha virt. eigenvalues --    1.05124   1.05571   1.06762   1.07241   1.09530
 Alpha virt. eigenvalues --    1.09932   1.11415   1.12979   1.13827   1.15902
 Alpha virt. eigenvalues --    1.16239   1.16997   1.17967   1.19057   1.21285
 Alpha virt. eigenvalues --    1.22378   1.23651   1.25974   1.26278   1.26617
 Alpha virt. eigenvalues --    1.28606   1.31646   1.33469   1.35383   1.38149
 Alpha virt. eigenvalues --    1.41095   1.41789   1.42148   1.42552   1.43519
 Alpha virt. eigenvalues --    1.44150   1.44997   1.46504   1.47073   1.48268
 Alpha virt. eigenvalues --    1.48580   1.49937   1.50328   1.50590   1.54653
 Alpha virt. eigenvalues --    1.56800   1.58971   1.60033   1.64366   1.67733
 Alpha virt. eigenvalues --    1.70475   1.73949   1.76521   1.78352   1.79216
 Alpha virt. eigenvalues --    1.80260   1.80703   1.81494   1.82655   1.83325
 Alpha virt. eigenvalues --    1.83738   1.86139   1.87282   1.88678   1.89141
 Alpha virt. eigenvalues --    1.89822   1.91963   1.93389   1.94720   1.95572
 Alpha virt. eigenvalues --    1.96621   1.97685   1.98903   2.01390   2.01688
 Alpha virt. eigenvalues --    2.02725   2.05765   2.07804   2.10189   2.10717
 Alpha virt. eigenvalues --    2.11413   2.11705   2.13322   2.13367   2.14260
 Alpha virt. eigenvalues --    2.14851   2.15384   2.16400   2.16447   2.18456
 Alpha virt. eigenvalues --    2.21048   2.23804   2.25206   2.26149   2.27901
 Alpha virt. eigenvalues --    2.29075   2.29807   2.30228   2.31443   2.32623
 Alpha virt. eigenvalues --    2.33372   2.34325   2.36535   2.48105   2.49342
 Alpha virt. eigenvalues --    2.51916   2.54214   2.55452   2.57996   2.58208
 Alpha virt. eigenvalues --    2.59129   2.61210   2.64332   2.64470   2.66059
 Alpha virt. eigenvalues --    2.67284   2.68269   2.70974   2.71172   2.72756
 Alpha virt. eigenvalues --    2.73018   2.73300   2.74105   2.76021   2.77925
 Alpha virt. eigenvalues --    2.81272   2.83045   2.85379   2.88495   2.90038
 Alpha virt. eigenvalues --    3.03745   3.04341   3.07611   3.16120   3.25968
 Alpha virt. eigenvalues --    3.37729   3.42134   3.64029   3.81558   3.96907
 Alpha virt. eigenvalues --    4.03781   4.06063   4.08055   4.09016   4.10653
 Alpha virt. eigenvalues --    4.10835   4.11822   4.14275   4.16124   4.22046
 Alpha virt. eigenvalues --    4.29117   4.32042   4.33138   4.36553   4.40442
 Alpha virt. eigenvalues --    4.49091   4.66332   4.71254
          Condensed to atoms (all electrons):
               1          2          3          4          5          6
     1  O    8.371246   0.448427  -0.070749   0.001132  -0.000040   0.000000
     2  S    0.448427  13.679988   0.290014  -0.022892   0.004374   0.000345
     3  N   -0.070749   0.290014   7.448329   0.355830  -0.074859   0.005812
     4  C    0.001132  -0.022892   0.355830   4.541362   0.338285  -0.079404
     5  N   -0.000040   0.004374  -0.074859   0.338285   7.055836   0.263997
     6  N    0.000000   0.000345   0.005812  -0.079404   0.263997   6.840810
     7  C   -0.000048  -0.000798  -0.065866   0.506311  -0.077832  -0.097807
     8  N    0.000000   0.000359   0.002334  -0.025495  -0.096229   0.227041
     9  C   -0.000000  -0.000015  -0.000098   0.003739   0.006783  -0.041062
    10  C    0.000000   0.000001   0.000002   0.000808  -0.000311   0.002532
    11  C   -0.000000  -0.000000   0.000000  -0.000006   0.000002  -0.000076
    12  C   -0.000000  -0.000000  -0.000000   0.000000  -0.000000   0.000019
    13  C   -0.000000   0.000000  -0.000000   0.000005  -0.000004   0.000254
    14  C   -0.000000  -0.000000   0.000000  -0.000415   0.000295   0.001008
    15  C   -0.065040   0.137603  -0.067105  -0.001315  -0.001883  -0.000037
    16  C    0.001403  -0.018908  -0.001822   0.000031  -0.000145  -0.000010
    17  C    0.000296   0.002556  -0.000009  -0.000019  -0.000012  -0.000000
    18  C   -0.000007  -0.000586  -0.000001   0.000006   0.000004   0.000000
    19  C   -0.000053   0.002012  -0.000099  -0.000028  -0.000083   0.000002
    20  C    0.000084  -0.021543  -0.000065  -0.000164   0.002570  -0.000058
    21  O   -0.052010   0.395467  -0.056551  -0.002346   0.000993   0.000052
    22  H   -0.000001  -0.000105  -0.000156  -0.028397   0.005279   0.003962
    23  H   -0.000000  -0.000000  -0.000003  -0.000013  -0.000005  -0.000100
    24  H   -0.000000   0.000000   0.000000   0.000000  -0.000000   0.000001
    25  H   -0.000000  -0.000000  -0.000000  -0.000000   0.000000   0.000000
    26  H    0.000000   0.000000   0.000000  -0.000000   0.000000  -0.000008
    27  H   -0.000000  -0.000000  -0.000000   0.000028  -0.000343   0.015061
    28  H    0.003082   0.002204   0.001953  -0.000006  -0.000019   0.000000
    29  H    0.000002  -0.000028   0.000003  -0.000000  -0.000000   0.000000
    30  H   -0.000000   0.000005  -0.000000  -0.000000   0.000000  -0.000000
    31  H    0.000000  -0.000020   0.000001   0.000000  -0.000005   0.000000
    32  H    0.000083  -0.003399   0.000221   0.000015   0.000635   0.000002
               7          8          9         10         11         12
     1  O   -0.000048   0.000000  -0.000000   0.000000  -0.000000  -0.000000
     2  S   -0.000798   0.000359  -0.000015   0.000001  -0.000000  -0.000000
     3  N   -0.065866   0.002334  -0.000098   0.000002   0.000000  -0.000000
     4  C    0.506311  -0.025495   0.003739   0.000808  -0.000006   0.000000
     5  N   -0.077832  -0.096229   0.006783  -0.000311   0.000002  -0.000000
     6  N   -0.097807   0.227041  -0.041062   0.002532  -0.000076   0.000019
     7  C    5.112383   0.311809  -0.029705  -0.006530  -0.000001   0.000017
     8  N    0.311809   6.876205   0.206812  -0.051823   0.004805   0.000305
     9  C   -0.029705   0.206812   4.633710   0.526378  -0.010773  -0.038112
    10  C   -0.006530  -0.051823   0.526378   4.998737   0.522814  -0.040920
    11  C   -0.000001   0.004805  -0.010773   0.522814   4.874732   0.543045
    12  C    0.000017   0.000305  -0.038112  -0.040920   0.543045   4.878328
    13  C   -0.000100   0.004728  -0.011489  -0.041424  -0.025641   0.538491
    14  C    0.006886  -0.062058   0.510446  -0.070250  -0.041405  -0.039429
    15  C   -0.000359  -0.000003   0.000000  -0.000000  -0.000000   0.000000
    16  C   -0.000060   0.000001   0.000000  -0.000000  -0.000000   0.000000
    17  C    0.000000   0.000000  -0.000000  -0.000000   0.000000  -0.000000
    18  C    0.000000  -0.000000  -0.000000   0.000000   0.000000  -0.000000
    19  C   -0.000001  -0.000000   0.000000  -0.000000  -0.000000   0.000000
    20  C   -0.000007   0.000004   0.000000  -0.000000  -0.000000   0.000000
    21  O   -0.000117  -0.000000   0.000000   0.000000   0.000000  -0.000000
    22  H    0.362780  -0.038302  -0.000735   0.001857   0.000124  -0.000001
    23  H    0.006168  -0.008695  -0.038993   0.354270  -0.036603   0.004379
    24  H   -0.000004  -0.000108   0.003445  -0.037696   0.362966  -0.040046
    25  H   -0.000000   0.000003   0.000483   0.004779  -0.041393   0.365465
    26  H    0.000001  -0.000103   0.003531   0.000685   0.004462  -0.040371
    27  H    0.000178  -0.012556  -0.040823   0.005670   0.000087   0.004610
    28  H   -0.000016   0.000000  -0.000000  -0.000000   0.000000   0.000000
    29  H    0.000000  -0.000000  -0.000000   0.000000   0.000000   0.000000
    30  H    0.000000  -0.000000  -0.000000  -0.000000   0.000000  -0.000000
    31  H   -0.000000  -0.000000   0.000000   0.000000   0.000000  -0.000000
    32  H    0.000002   0.000000   0.000000   0.000000  -0.000000   0.000000
              13         14         15         16         17         18
     1  O   -0.000000  -0.000000  -0.065040   0.001403   0.000296  -0.000007
     2  S    0.000000  -0.000000   0.137603  -0.018908   0.002556  -0.000586
     3  N   -0.000000   0.000000  -0.067105  -0.001822  -0.000009  -0.000001
     4  C    0.000005  -0.000415  -0.001315   0.000031  -0.000019   0.000006
     5  N   -0.000004   0.000295  -0.001883  -0.000145  -0.000012   0.000004
     6  N    0.000254   0.001008  -0.000037  -0.000010  -0.000000   0.000000
     7  C   -0.000100   0.006886  -0.000359  -0.000060   0.000000   0.000000
     8  N    0.004728  -0.062058  -0.000003   0.000001   0.000000  -0.000000
     9  C   -0.011489   0.510446   0.000000   0.000000  -0.000000  -0.000000
    10  C   -0.041424  -0.070250  -0.000000  -0.000000  -0.000000   0.000000
    11  C   -0.025641  -0.041405  -0.000000  -0.000000   0.000000   0.000000
    12  C    0.538491  -0.039429   0.000000   0.000000  -0.000000  -0.000000
    13  C    4.888034   0.516022  -0.000000  -0.000000  -0.000000   0.000000
    14  C    0.516022   5.007599  -0.000000  -0.000000   0.000000   0.000000
    15  C   -0.000000  -0.000000   5.414133   0.460300  -0.026291  -0.039655
    16  C   -0.000000  -0.000000   0.460300   4.985787   0.510647  -0.030479
    17  C   -0.000000   0.000000  -0.026291   0.510647   4.898631   0.537488
    18  C    0.000000   0.000000  -0.039655  -0.030479   0.537488   4.874996
    19  C    0.000000  -0.000000  -0.031315  -0.035631  -0.033896   0.542192
    20  C   -0.000000  -0.000000   0.508716  -0.041528  -0.038042  -0.031920
    21  O    0.000000  -0.000000  -0.059586   0.002198  -0.000050  -0.000004
    22  H   -0.000006  -0.000084   0.000001   0.000001   0.000000  -0.000000
    23  H    0.000191   0.005522  -0.000000  -0.000000  -0.000000   0.000000
    24  H    0.004445   0.000709  -0.000000  -0.000000   0.000000   0.000000
    25  H   -0.041534   0.004609   0.000000   0.000000  -0.000000  -0.000000
    26  H    0.363060  -0.037711   0.000000   0.000000   0.000000  -0.000000
    27  H   -0.038612   0.356368  -0.000000   0.000000  -0.000000   0.000000
    28  H    0.000000  -0.000000  -0.052551   0.362508  -0.036898   0.004323
    29  H    0.000000  -0.000000   0.005057  -0.041888   0.365059  -0.041879
    30  H    0.000000   0.000000   0.000424   0.004911  -0.041825   0.364115
    31  H    0.000000   0.000000   0.004801   0.000548   0.004464  -0.042242
    32  H   -0.000000  -0.000000  -0.046573   0.005151   0.000238   0.004423
              19         20         21         22         23         24
     1  O   -0.000053   0.000084  -0.052010  -0.000001  -0.000000  -0.000000
     2  S    0.002012  -0.021543   0.395467  -0.000105  -0.000000   0.000000
     3  N   -0.000099  -0.000065  -0.056551  -0.000156  -0.000003   0.000000
     4  C   -0.000028  -0.000164  -0.002346  -0.028397  -0.000013   0.000000
     5  N   -0.000083   0.002570   0.000993   0.005279  -0.000005  -0.000000
     6  N    0.000002  -0.000058   0.000052   0.003962  -0.000100   0.000001
     7  C   -0.000001  -0.000007  -0.000117   0.362780   0.006168  -0.000004
     8  N   -0.000000   0.000004  -0.000000  -0.038302  -0.008695  -0.000108
     9  C    0.000000   0.000000   0.000000  -0.000735  -0.038993   0.003445
    10  C   -0.000000  -0.000000   0.000000   0.001857   0.354270  -0.037696
    11  C   -0.000000  -0.000000   0.000000   0.000124  -0.036603   0.362966
    12  C    0.000000   0.000000  -0.000000  -0.000001   0.004379  -0.040046
    13  C    0.000000  -0.000000   0.000000  -0.000006   0.000191   0.004445
    14  C   -0.000000  -0.000000  -0.000000  -0.000084   0.005522   0.000709
    15  C   -0.031315   0.508716  -0.059586   0.000001  -0.000000  -0.000000
    16  C   -0.035631  -0.041528   0.002198   0.000001  -0.000000  -0.000000
    17  C   -0.033896  -0.038042  -0.000050   0.000000  -0.000000   0.000000
    18  C    0.542192  -0.031920  -0.000004  -0.000000   0.000000   0.000000
    19  C    4.913951   0.493362   0.000632   0.000000   0.000000  -0.000000
    20  C    0.493362   4.966721   0.000435  -0.000000  -0.000000   0.000000
    21  O    0.000632   0.000435   8.398052   0.000000   0.000000  -0.000000
    22  H    0.000000  -0.000000   0.000000   0.498460   0.001301  -0.000001
    23  H    0.000000  -0.000000   0.000000   0.001301   0.546744  -0.005197
    24  H   -0.000000   0.000000  -0.000000  -0.000001  -0.005197   0.555615
    25  H    0.000000  -0.000000   0.000000  -0.000000  -0.000144  -0.005068
    26  H   -0.000000   0.000000   0.000000   0.000000   0.000013  -0.000166
    27  H    0.000000  -0.000000   0.000000  -0.000012  -0.000127   0.000013
    28  H    0.000410   0.004533   0.000082   0.000000   0.000000  -0.000000
    29  H    0.004421   0.000575   0.000000  -0.000000   0.000000  -0.000000
    30  H   -0.041711   0.004665   0.000000   0.000000  -0.000000   0.000000
    31  H    0.365446  -0.041581   0.000002  -0.000000   0.000000  -0.000000
    32  H   -0.038211   0.357459   0.013706  -0.000000  -0.000000   0.000000
              25         26         27         28         29         30
     1  O   -0.000000   0.000000  -0.000000   0.003082   0.000002  -0.000000
     2  S   -0.000000   0.000000  -0.000000   0.002204  -0.000028   0.000005
     3  N   -0.000000   0.000000  -0.000000   0.001953   0.000003  -0.000000
     4  C   -0.000000  -0.000000   0.000028  -0.000006  -0.000000  -0.000000
     5  N    0.000000   0.000000  -0.000343  -0.000019  -0.000000   0.000000
     6  N    0.000000  -0.000008   0.015061   0.000000   0.000000  -0.000000
     7  C   -0.000000   0.000001   0.000178  -0.000016   0.000000   0.000000
     8  N    0.000003  -0.000103  -0.012556   0.000000  -0.000000  -0.000000
     9  C    0.000483   0.003531  -0.040823  -0.000000  -0.000000  -0.000000
    10  C    0.004779   0.000685   0.005670  -0.000000   0.000000  -0.000000
    11  C   -0.041393   0.004462   0.000087   0.000000   0.000000   0.000000
    12  C    0.365465  -0.040371   0.004610   0.000000   0.000000  -0.000000
    13  C   -0.041534   0.363060  -0.038612   0.000000   0.000000   0.000000
    14  C    0.004609  -0.037711   0.356368  -0.000000  -0.000000   0.000000
    15  C    0.000000   0.000000  -0.000000  -0.052551   0.005057   0.000424
    16  C    0.000000   0.000000   0.000000   0.362508  -0.041888   0.004911
    17  C   -0.000000   0.000000  -0.000000  -0.036898   0.365059  -0.041825
    18  C   -0.000000  -0.000000   0.000000   0.004323  -0.041879   0.364115
    19  C    0.000000  -0.000000   0.000000   0.000410   0.004421  -0.041711
    20  C   -0.000000   0.000000  -0.000000   0.004533   0.000575   0.004665
    21  O    0.000000   0.000000   0.000000   0.000082   0.000000   0.000000
    22  H   -0.000000   0.000000  -0.000012   0.000000  -0.000000   0.000000
    23  H   -0.000144   0.000013  -0.000127   0.000000   0.000000  -0.000000
    24  H   -0.005068  -0.000166   0.000013  -0.000000  -0.000000   0.000000
    25  H    0.561122  -0.005064  -0.000137   0.000000  -0.000000   0.000000
    26  H   -0.005064   0.556385  -0.005256  -0.000000  -0.000000   0.000000
    27  H   -0.000137  -0.005256   0.548178   0.000000  -0.000000   0.000000
    28  H    0.000000  -0.000000   0.000000   0.549531  -0.005474  -0.000152
    29  H   -0.000000  -0.000000  -0.000000  -0.005474   0.561667  -0.005205
    30  H    0.000000   0.000000   0.000000  -0.000152  -0.005205   0.562994
    31  H    0.000000  -0.000000   0.000000   0.000015  -0.000163  -0.005248
    32  H   -0.000000  -0.000000  -0.000000  -0.000160   0.000014  -0.000144
              31         32
     1  O    0.000000   0.000083
     2  S   -0.000020  -0.003399
     3  N    0.000001   0.000221
     4  C    0.000000   0.000015
     5  N   -0.000005   0.000635
     6  N    0.000000   0.000002
     7  C   -0.000000   0.000002
     8  N   -0.000000   0.000000
     9  C    0.000000   0.000000
    10  C    0.000000   0.000000
    11  C    0.000000  -0.000000
    12  C   -0.000000   0.000000
    13  C    0.000000  -0.000000
    14  C    0.000000  -0.000000
    15  C    0.004801  -0.046573
    16  C    0.000548   0.005151
    17  C    0.004464   0.000238
    18  C   -0.042242   0.004423
    19  C    0.365446  -0.038211
    20  C   -0.041581   0.357459
    21  O    0.000002   0.013706
    22  H   -0.000000  -0.000000
    23  H    0.000000  -0.000000
    24  H   -0.000000   0.000000
    25  H    0.000000  -0.000000
    26  H   -0.000000  -0.000000
    27  H    0.000000  -0.000000
    28  H    0.000015  -0.000160
    29  H   -0.000163   0.000014
    30  H   -0.005248  -0.000144
    31  H    0.562029  -0.005286
    32  H   -0.005286   0.546672
 Mulliken charges:
               1
     1  O   -0.637806
     2  S    1.104940
     3  N   -0.767116
     4  C    0.412946
     5  N   -0.427284
     6  N   -0.142334
     7  C   -0.027286
     8  N   -0.339031
     9  C    0.316478
    10  C   -0.169578
    11  C   -0.157139
    12  C   -0.135781
    13  C   -0.156422
    14  C   -0.158114
    15  C   -0.139323
    16  C   -0.163013
    17  C   -0.142335
    18  C   -0.140773
    19  C   -0.141400
    20  C   -0.164217
    21  O   -0.640957
    22  H    0.194035
    23  H    0.171292
    24  H    0.161092
    25  H    0.156878
    26  H    0.160540
    27  H    0.167674
    28  H    0.166634
    29  H    0.157839
    30  H    0.157171
    31  H    0.157236
    32  H    0.165152
 Sum of Mulliken charges =  -1.00000
 Mulliken charges with hydrogens summed into heavy atoms:
               1
     1  O   -0.637806
     2  S    1.104940
     3  N   -0.767116
     4  C    0.412946
     5  N   -0.427284
     6  N   -0.142334
     7  C    0.166749
     8  N   -0.339031
     9  C    0.316478
    10  C    0.001715
    11  C    0.003953
    12  C    0.021098
    13  C    0.004119
    14  C    0.009560
    15  C   -0.139323
    16  C    0.003621
    17  C    0.015504
    18  C    0.016398
    19  C    0.015837
    20  C    0.000935
    21  O   -0.640957
 Electronic spatial extent (au):  <R**2>=           8499.4112
 Charge=             -1.0000 electrons
 Dipole moment (field-independent basis, Debye):
    X=             12.9008    Y=              9.1158    Z=              1.1196  Tot=             15.8361
 Quadrupole moment (field-independent basis, Debye-Ang):
   XX=           -137.9411   YY=           -133.1541   ZZ=           -131.3261
   XY=            -24.1941   XZ=            -20.2000   YZ=              1.7664
 Traceless Quadrupole moment (field-independent basis, Debye-Ang):
   XX=             -3.8007   YY=              0.9864   ZZ=              2.8144
   XY=            -24.1941   XZ=            -20.2000   YZ=              1.7664
 Octapole moment (field-independent basis, Debye-Ang**2):
  XXX=            238.6875  YYY=            -22.3222  ZZZ=             49.1665  XYY=             -3.3696
  XXY=             66.7213  XXZ=             33.7307  XZZ=             15.0804  YZZ=             -3.7999
  YYZ=             18.8913  XYZ=             29.8278
 Hexadecapole moment (field-independent basis, Debye-Ang**3):
 XXXX=          -8507.7515 YYYY=          -1400.1108 ZZZZ=           -976.2418 XXXY=            124.7314
 XXXZ=             22.1563 YYYX=             64.4555 YYYZ=           -233.5927 ZZZX=            172.1150
 ZZZY=           -243.0487 XXYY=          -1747.7332 XXZZ=          -1641.3697 YYZZ=           -395.2573
 XXYZ=             -9.5839 YYXZ=             83.0925 ZZXY=             -6.1718
 N-N= 1.694053618353D+03 E-N=-6.472344421714D+03  KE= 1.297764604077D+03
 No NMR shielding tensors so no spin-rotation constants.
 Leave Link  601 at Thu Sep 24 14:40:54 2020, MaxMem=  2147483648 cpu:               0.4 elap:               0.1
 (Enter /prod/apps/gaussian/g16b1/l701.exe)
 ... and contract with generalized density number  0.
 Compute integral first derivatives.
 D1PCM: PCM CHGder 1st derivatives, ID1Alg=3 FixD1E=F DoIter=F DoCFld=F I1PDM=0.
 GePol: Maximum number of non-zero 1st derivatives   =     173
 Leave Link  701 at Thu Sep 24 14:40:56 2020, MaxMem=  2147483648 cpu:              10.3 elap:               2.6
 (Enter /prod/apps/gaussian/g16b1/l702.exe)
 L702 exits ... SP integral derivatives will be done elsewhere.
 Leave Link  702 at Thu Sep 24 14:40:56 2020, MaxMem=  2147483648 cpu:               0.1 elap:               0.0
 (Enter /prod/apps/gaussian/g16b1/l703.exe)
 Integral derivatives from FoFJK, PRISM(SPDF).
 Compute integral first derivatives, UseDBF=F ICtDFT=           0.
 Calling FoFJK, ICntrl=      2127 FMM=F ISym2X=0 I1Cent= 0 IOpClX= 0 NMat=1 NMatS=1 NMatT=0.
 FoFJK:  IHMeth= 1 ICntrl=    2127 DoSepK=F KAlg= 0 I1Cent=           0 FoldK=F
 IRaf=         0 NMat=       1 IRICut=       1 DoRegI=T DoRafI=F ISym2E= 0 IDoP0=0 IntGTp=1.
 FoFCou: FMM=F IPFlag=           0 FMFlag=      100000 FMFlg1=         800
         NFxFlg=           0 DoJE=F BraDBF=F KetDBF=F FulRan=T
         wScrn=  0.000000 ICntrl=      2127 IOpCl=  0 I1Cent=           0 NGrid=           0
         NMat0=    1 NMatS0=      1 NMatT0=    0 NMatD0=    1 NMtDS0=    0 NMtDT0=    0
 Symmetry not used in FoFCou.
 Leave Link  703 at Thu Sep 24 14:41:12 2020, MaxMem=  2147483648 cpu:              63.9 elap:              16.0
 (Enter /prod/apps/gaussian/g16b1/l716.exe)
 Dipole        = 5.07556385D+00 3.58643351D+00 4.40474829D-01
 -------------------------------------------------------------------
 Center     Atomic                   Forces (Hartrees/Bohr)
 Number     Number              X              Y              Z
 -------------------------------------------------------------------
      1        8           0.000254813    0.000054502    0.000273253
      2       16          -0.000169452    0.000842976    0.001162310
      3        7           0.000201125   -0.000001571    0.000252472
      4        6           0.000027301    0.000075216    0.000292659
      5        7           0.000141910   -0.000006733   -0.000564937
      6        7           0.000004462    0.000002482   -0.001117204
      7        6           0.000346138    0.000053201    0.000676251
      8        7           0.000458516    0.000117970    0.000015589
      9        6          -0.000893656    0.000037810    0.000100283
     10        6           0.000551218    0.000053429    0.000036386
     11        6           0.000142530    0.000114742   -0.000075110
     12        6           0.000017168   -0.000345787   -0.000128966
     13        6           0.000629404    0.000726033    0.000741762
     14        6          -0.000249414    0.000022831    0.000108472
     15        6           0.000004197    0.000078041    0.000118333
     16        6           0.000307814   -0.000813541   -0.000775474
     17        6          -0.000157057    0.000374210   -0.000559647
     18        6          -0.000009983    0.000191749    0.000566495
     19        6           0.000082665   -0.000403016   -0.000427790
     20        6          -0.000076761    0.000159913   -0.000045046
     21        8          -0.000078516    0.001422215   -0.000366697
     22        1           0.000249079   -0.000134892    0.000587980
     23        1          -0.000293622    0.000473077    0.000281837
     24        1          -0.000484624    0.000386887    0.000634862
     25        1          -0.000886681   -0.000119516   -0.000030291
     26        1          -0.000696599   -0.000981887   -0.001133867
     27        1           0.000171030   -0.000611468   -0.000636614
     28        1          -0.000093136    0.000009068    0.001495391
     29        1           0.000192774   -0.000837567    0.000797215
     30        1           0.000264572   -0.001023131   -0.000459062
     31        1           0.000040054   -0.000037644   -0.000699344
     32        1           0.000002732    0.000120403   -0.001121502
 -------------------------------------------------------------------
 Cartesian Forces:  Max     0.001495391 RMS     0.000511172
 Leave Link  716 at Thu Sep 24 14:41:12 2020, MaxMem=  2147483648 cpu:               0.1 elap:               0.0
 (Enter /prod/apps/gaussian/g16b1/l103.exe)

 GradGradGradGradGradGradGradGradGradGradGradGradGradGradGradGradGradGrad
 Berny optimization.
 FormGI is forming the generalized inverse of G from B-inverse, IUseBI=4.
 GSVD:  received Info=                   1 from GESDD.
 Internal  Forces:  Max     0.002499196 RMS     0.000582426
 Search for a local minimum.
 Step number   1 out of a maximum of  174
 All quantities printed in internal units (Hartrees-Bohrs-Radians)
 RMS Force = .58243D-03 SwitMx=.10000D-02 MixMth= 2
 Mixed Optimization -- En-DIIS/RFO-DIIS
 Second derivative matrix not updated -- first step.
 ITU=  0
[...]
 Alpha virt. eigenvalues --    2.94636   2.96036   2.97126   2.99550   3.02993
 Alpha virt. eigenvalues --    3.03884   3.05591   3.06720   3.07791   3.08085
 Alpha virt. eigenvalues --    3.09227   3.12169   3.14555   3.15225   3.15931
 Alpha virt. eigenvalues --    3.19857   3.21909   3.22192   3.23699   3.24920
 Alpha virt. eigenvalues --    3.26380   3.29329   3.32283   3.33594   3.35087
 Alpha virt. eigenvalues --    3.37082   3.39496   3.41510   3.46544   3.46909
 Alpha virt. eigenvalues --    3.49245   3.51845   3.59428   3.60176   3.65262
 Alpha virt. eigenvalues --    3.71454   3.74077   3.75175   3.78542   3.79247
 Alpha virt. eigenvalues --    3.83771   3.86565   3.93260   3.94405   3.96119
 Alpha virt. eigenvalues --    3.97086   3.99703   4.01944   4.02522   4.04359
 Alpha virt. eigenvalues --    4.05202   4.07472   4.12491   4.20165   4.43979
 Alpha virt. eigenvalues --    4.54542   4.88364   4.97016
          Condensed to atoms (all electrons):
               1          2          3          4          5          6
     1  O    9.395866  -0.498756   0.053195   0.029478   0.005338   0.007400
     2  S   -0.498756  16.938429  -0.427838   0.018495   0.102364  -0.296471
     3  N    0.053195  -0.427838   8.991117  -1.718352   0.094937   0.139233
     4  C    0.029478   0.018495  -1.718352  20.369768   0.382535  -0.551686
     5  N    0.005338   0.102364   0.094937   0.382535  11.625178  -3.205980
     6  N    0.007400  -0.296471   0.139233  -0.551686  -3.205980  11.273336
     7  C    0.064033  -0.507485   1.124440 -12.077048   0.283967  -0.327475
     8  N    0.000794  -0.053244   0.074909  -0.349612  -0.566808   0.040465
     9  C    0.005906  -0.111535   0.013131  -1.159270  -0.765746   0.106753
    10  C   -0.001695   0.015760  -0.007499  -0.281679   0.170870  -0.223393
    11  C   -0.000206   0.006213   0.002141   0.221063   0.070611   0.012842
    12  C    0.000003  -0.000996  -0.002394  -0.030284  -0.025409   0.007188
    13  C    0.000061  -0.001557   0.002980  -0.025136  -0.089660  -0.033371
    14  C    0.000897  -0.025900   0.018897  -0.455587  -0.330401   0.584183
    15  C    0.239348  -1.082248   0.061308   0.938909  -0.211398  -0.105828
    16  C   -0.125542   0.853983  -0.110434  -0.308475   0.099979  -0.081653
    17  C    0.040910  -0.469760  -0.119958   0.409125  -0.057225   0.008628
    18  C   -0.027379   0.259487   0.010779  -0.173673   0.019573   0.024620
    19  C    0.013382  -0.331496   0.024823   0.123059   0.023560  -0.018076
    20  C    0.009706  -0.523611   0.018156  -0.421238   0.096060   0.046500
    21  O   -0.003956  -0.804982   0.117521   0.262661   0.030128  -0.073440
    22  H   -0.005470   0.042555  -0.100293   0.977074  -0.112586  -0.033723
    23  H    0.000571  -0.010360   0.003650  -0.217253  -0.002545  -0.030338
    24  H   -0.000005   0.000225   0.000139   0.011105  -0.000742   0.001735
    25  H    0.000001  -0.000064  -0.000052  -0.003478  -0.000729   0.001132
    26  H   -0.000001   0.000102  -0.000071   0.001173   0.000462   0.002858
    27  H    0.000111  -0.002269   0.002574  -0.017120  -0.010292  -0.022560
    28  H    0.040987  -0.203875   0.006291   0.114127  -0.002012  -0.007423
    29  H    0.001490   0.007435  -0.002247   0.012002  -0.002721   0.001762
    30  H   -0.000899   0.007010   0.000443  -0.003493   0.000500  -0.000849
    31  H    0.001484  -0.012908   0.000428   0.004433   0.001379   0.002638
    32  H    0.001227  -0.001299  -0.010257   0.053664   0.006445  -0.018128
               7          8          9         10         11         12
     1  O    0.064033   0.000794   0.005906  -0.001695  -0.000206   0.000003
     2  S   -0.507485  -0.053244  -0.111535   0.015760   0.006213  -0.000996
     3  N    1.124440   0.074909   0.013131  -0.007499   0.002141  -0.002394
     4  C  -12.077048  -0.349612  -1.159270  -0.281679   0.221063  -0.030284
     5  N    0.283967  -0.566808  -0.765746   0.170870   0.070611  -0.025409
     6  N   -0.327475   0.040465   0.106753  -0.223393   0.012842   0.007188
     7  C   17.780239  -0.228420  -0.024944   0.493164  -0.412810  -0.016852
     8  N   -0.228420   9.531031  -0.804544   0.440188  -0.322065   0.313806
     9  C   -0.024944  -0.804544  14.473512  -5.303845   2.804608  -3.455303
    10  C    0.493164   0.440188  -5.303845  12.789258  -3.917546   3.104838
    11  C   -0.412810  -0.322065   2.804608  -3.917546  10.572443  -3.091708
    12  C   -0.016852   0.313806  -3.455303   3.104838  -3.091708   9.047834
    13  C    0.203407  -0.124421   2.720035  -3.428945   3.062708  -3.001461
    14  C    0.115660  -0.148284  -4.795389   2.451931  -3.353949   2.971993
    15  C   -0.321114  -0.068116   0.021809   0.009696   0.003427  -0.000662
    16  C   -0.173728  -0.019132  -0.041607  -0.000573  -0.000980   0.000040
    17  C   -0.170136  -0.047373  -0.016676   0.003650   0.000233   0.000032
    18  C    0.036760   0.019939   0.002185  -0.002430  -0.000374   0.000134
    19  C    0.014516  -0.007282   0.003590   0.002678   0.000465  -0.000087
    20  C    0.109937   0.062793   0.012963  -0.013354  -0.001286   0.000013
    21  O   -0.075399  -0.017507  -0.008753  -0.001174   0.000052  -0.000074
    22  H   -1.534709   0.296720   0.097299   0.010621   0.094447  -0.012169
    23  H    0.265175  -0.278354   0.916290  -0.973270   0.149235  -0.167044
    24  H    0.003001   0.008740  -0.109875   0.731856  -0.851170   0.278360
    25  H   -0.000026  -0.003675   0.099013  -0.160603   0.370130  -0.658209
    26  H    0.000509  -0.009954  -0.081420   0.109951  -0.214385   0.251869
    27  H    0.004540  -0.158288   0.563301  -0.109878   0.098855  -0.138529
    28  H   -0.049104  -0.004731  -0.004788  -0.001306  -0.000200  -0.000111
    29  H   -0.003444  -0.000952  -0.000018   0.000109   0.000073  -0.000013
    30  H    0.000934   0.000798   0.000184  -0.000085  -0.000012   0.000006
    31  H   -0.002625  -0.000745  -0.000443   0.000168   0.000021  -0.000012
    32  H   -0.013877  -0.002616   0.001785  -0.001104   0.000080  -0.000146
              13         14         15         16         17         18
     1  O    0.000061   0.000897   0.239348  -0.125542   0.040910  -0.027379
     2  S   -0.001557  -0.025900  -1.082248   0.853983  -0.469760   0.259487
     3  N    0.002980   0.018897   0.061308  -0.110434  -0.119958   0.010779
     4  C   -0.025136  -0.455587   0.938909  -0.308475   0.409125  -0.173673
     5  N   -0.089660  -0.330401  -0.211398   0.099979  -0.057225   0.019573
     6  N   -0.033371   0.584183  -0.105828  -0.081653   0.008628   0.024620
     7  C    0.203407   0.115660  -0.321114  -0.173728  -0.170136   0.036760
     8  N   -0.124421  -0.148284  -0.068116  -0.019132  -0.047373   0.019939
     9  C    2.720035  -4.795389   0.021809  -0.041607  -0.016676   0.002185
    10  C   -3.428945   2.451931   0.009696  -0.000573   0.003650  -0.002430
    11  C    3.062708  -3.353949   0.003427  -0.000980   0.000233  -0.000374
    12  C   -3.001461   2.971993  -0.000662   0.000040   0.000032   0.000134
    13  C   10.179853  -3.924310  -0.004027   0.001553  -0.000846   0.000984
    14  C   -3.924310  12.857631  -0.025224   0.002743  -0.000037   0.004038
    15  C   -0.004027  -0.025224  16.472930  -7.061354   3.071053  -4.575534
    16  C    0.001553   0.002743  -7.061354  17.867427  -4.718200   4.011620
    17  C   -0.000846  -0.000037   3.071053  -4.718200  11.893311  -3.784852
    18  C    0.000984   0.004038  -4.575534   4.011620  -3.784852  10.356993
    19  C   -0.001246  -0.004110   3.208085  -5.014816   4.151125  -4.040553
    20  C    0.002868   0.012432  -6.771914   1.772043  -4.414762   3.701384
    21  O    0.000136  -0.000210   0.492397  -0.133309   0.052275  -0.041738
    22  H    0.005397  -0.141653  -0.004101  -0.000311  -0.007836   0.000362
    23  H    0.099911  -0.083151  -0.000010   0.000715   0.000432   0.000153
    24  H   -0.236275   0.099156   0.000100  -0.000054  -0.000010  -0.000010
    25  H    0.391529  -0.101167  -0.000018  -0.000005   0.000004   0.000003
    26  H   -0.760994   0.643794   0.000002   0.000028   0.000024  -0.000047
    27  H    0.367821  -0.861586   0.000507  -0.002176  -0.000198   0.000739
    28  H    0.000353  -0.000201   0.889478  -1.248373   0.371423  -0.256413
    29  H   -0.000057  -0.000162  -0.226440   0.589234  -0.819676   0.423596
    30  H    0.000034   0.000020   0.142310  -0.138334   0.419106  -0.709974
    31  H   -0.000075  -0.000061  -0.142637   0.141213  -0.248154   0.349208
    32  H    0.000379  -0.001498   0.513762  -0.163822   0.113735  -0.195525
              19         20         21         22         23         24
     1  O    0.013382   0.009706  -0.003956  -0.005470   0.000571  -0.000005
     2  S   -0.331496  -0.523611  -0.804982   0.042555  -0.010360   0.000225
     3  N    0.024823   0.018156   0.117521  -0.100293   0.003650   0.000139
     4  C    0.123059  -0.421238   0.262661   0.977074  -0.217253   0.011105
     5  N    0.023560   0.096060   0.030128  -0.112586  -0.002545  -0.000742
     6  N   -0.018076   0.046500  -0.073440  -0.033723  -0.030338   0.001735
     7  C    0.014516   0.109937  -0.075399  -1.534709   0.265175   0.003001
     8  N   -0.007282   0.062793  -0.017507   0.296720  -0.278354   0.008740
     9  C    0.003590   0.012963  -0.008753   0.097299   0.916290  -0.109875
    10  C    0.002678  -0.013354  -0.001174   0.010621  -0.973270   0.731856
    11  C    0.000465  -0.001286   0.000052   0.094447   0.149235  -0.851170
    12  C   -0.000087   0.000013  -0.000074  -0.012169  -0.167044   0.278360
    13  C   -0.001246   0.002868   0.000136   0.005397   0.099911  -0.236275
    14  C   -0.004110   0.012432  -0.000210  -0.141653  -0.083151   0.099156
    15  C    3.208085  -6.771914   0.492397  -0.004101  -0.000010   0.000100
    16  C   -5.014816   1.772043  -0.133309  -0.000311   0.000715  -0.000054
    17  C    4.151125  -4.414762   0.052275  -0.007836   0.000432  -0.000010
    18  C   -4.040553   3.701384  -0.041738   0.000362   0.000153  -0.000010
    19  C   12.553620  -5.014823  -0.036581   0.002095  -0.000466   0.000017
    20  C   -5.014823  17.451965  -0.002078   0.010166  -0.001433   0.000015
    21  O   -0.036581  -0.002078   9.592533  -0.001286  -0.000251   0.000005
    22  H    0.002095   0.010166  -0.001286   2.078115  -0.097943   0.002296
    23  H   -0.000466  -0.001433  -0.000251  -0.097943   2.193497  -0.087618
    24  H    0.000017   0.000015   0.000005   0.002296  -0.087618   1.665514
    25  H    0.000001  -0.000009  -0.000003  -0.000059  -0.014569  -0.052325
    26  H   -0.000013   0.000039   0.000001   0.000373   0.009812  -0.018194
    27  H    0.001585  -0.002321  -0.000132  -0.004632  -0.015675   0.008973
    28  H    0.160649  -0.141168   0.013330   0.000260  -0.000184   0.000001
    29  H   -0.261542   0.174081   0.001156  -0.000134  -0.000034   0.000003
    30  H    0.378141  -0.161317  -0.000573   0.000116  -0.000002  -0.000000
    31  H   -0.870630   0.651186   0.000795  -0.000082  -0.000015   0.000001
    32  H    0.486499  -1.034033  -0.021789   0.000875  -0.000073   0.000006
              25         26         27         28         29         30
     1  O    0.000001  -0.000001   0.000111   0.040987   0.001490  -0.000899
     2  S   -0.000064   0.000102  -0.002269  -0.203875   0.007435   0.007010
     3  N   -0.000052  -0.000071   0.002574   0.006291  -0.002247   0.000443
     4  C   -0.003478   0.001173  -0.017120   0.114127   0.012002  -0.003493
     5  N   -0.000729   0.000462  -0.010292  -0.002012  -0.002721   0.000500
     6  N    0.001132   0.002858  -0.022560  -0.007423   0.001762  -0.000849
     7  C   -0.000026   0.000509   0.004540  -0.049104  -0.003444   0.000934
     8  N   -0.003675  -0.009954  -0.158288  -0.004731  -0.000952   0.000798
     9  C    0.099013  -0.081420   0.563301  -0.004788  -0.000018   0.000184
    10  C   -0.160603   0.109951  -0.109878  -0.001306   0.000109  -0.000085
    11  C    0.370130  -0.214385   0.098855  -0.000200   0.000073  -0.000012
    12  C   -0.658209   0.251869  -0.138529  -0.000111  -0.000013   0.000006
    13  C    0.391529  -0.760994   0.367821   0.000353  -0.000057   0.000034
    14  C   -0.101167   0.643794  -0.861586  -0.000201  -0.000162   0.000020
    15  C   -0.000018   0.000002   0.000507   0.889478  -0.226440   0.142310
    16  C   -0.000005   0.000028  -0.002176  -1.248373   0.589234  -0.138334
    17  C    0.000004   0.000024  -0.000198   0.371423  -0.819676   0.419106
    18  C    0.000003  -0.000047   0.000739  -0.256413   0.423596  -0.709974
    19  C    0.000001  -0.000013   0.001585   0.160649  -0.261542   0.378141
    20  C   -0.000009   0.000039  -0.002321  -0.141168   0.174081  -0.161317
    21  O   -0.000003   0.000001  -0.000132   0.013330   0.001156  -0.000573
    22  H   -0.000059   0.000373  -0.004632   0.000260  -0.000134   0.000116
    23  H   -0.014569   0.009812  -0.015675  -0.000184  -0.000034  -0.000002
    24  H   -0.052325  -0.018194   0.008973   0.000001   0.000003  -0.000000
    25  H    1.662810  -0.056735  -0.009853  -0.000006  -0.000000   0.000000
    26  H   -0.056735   1.651396  -0.081231   0.000008   0.000006  -0.000003
    27  H   -0.009853  -0.081231   1.920004  -0.000130  -0.000045  -0.000027
    28  H   -0.000006   0.000008  -0.000130   2.096104  -0.115558  -0.016786
    29  H   -0.000000   0.000006  -0.000045  -0.115558   1.767194  -0.057457
    30  H    0.000000  -0.000003  -0.000027  -0.016786  -0.057457   1.683607
    31  H   -0.000000   0.000006  -0.000069   0.013262  -0.021146  -0.060876
    32  H   -0.000006   0.000022  -0.000449  -0.023635   0.011498  -0.014606
              31         32
     1  O    0.001484   0.001227
     2  S   -0.012908  -0.001299
     3  N    0.000428  -0.010257
     4  C    0.004433   0.053664
     5  N    0.001379   0.006445
     6  N    0.002638  -0.018128
     7  C   -0.002625  -0.013877
     8  N   -0.000745  -0.002616
     9  C   -0.000443   0.001785
    10  C    0.000168  -0.001104
    11  C    0.000021   0.000080
    12  C   -0.000012  -0.000146
    13  C   -0.000075   0.000379
    14  C   -0.000061  -0.001498
    15  C   -0.142637   0.513762
    16  C    0.141213  -0.163822
    17  C   -0.248154   0.113735
    18  C    0.349208  -0.195525
    19  C   -0.870630   0.486499
    20  C    0.651186  -1.034033
    21  O    0.000795  -0.021789
    22  H   -0.000082   0.000875
    23  H   -0.000015  -0.000073
    24  H    0.000001   0.000006
    25  H   -0.000000  -0.000006
    26  H    0.000006   0.000022
    27  H   -0.000069  -0.000449
    28  H    0.013262  -0.023635
    29  H   -0.021146   0.011498
    30  H   -0.060876  -0.014606
    31  H    1.766455  -0.092387
    32  H   -0.092387   1.992571
 Mulliken charges:
               1
     1  O   -1.248279
     2  S    3.114595
     3  N   -1.261695
     4  C   -0.135286
     5  N   -0.629632
     6  N   -0.230883
     7  C    1.438913
     8  N   -0.574061
     9  C    0.841791
    10  C    0.093640
    11  C    0.697044
    12  C    0.625344
    13  C    0.592373
    14  C    0.489505
    15  C    0.535504
    16  C    0.002298
    17  C    0.340632
    18  C    0.585946
    19  C    0.453831
    20  C    0.371040
    21  O   -1.339756
    22  H   -0.561786
    23  H   -0.658855
    24  H   -0.454970
    25  H   -0.463030
    26  H   -0.449388
    27  H   -0.531550
    28  H   -0.630270
    29  H   -0.477994
    30  H   -0.467914
    31  H   -0.479809
    32  H   -0.587298
 Sum of Mulliken charges =  -1.00000
 Mulliken charges with hydrogens summed into heavy atoms:
               1
     1  O   -1.248279
     2  S    3.114595
     3  N   -1.261695
     4  C   -0.135286
     5  N   -0.629632
     6  N   -0.230883
     7  C    0.877127
     8  N   -0.574061
     9  C    0.841791
    10  C   -0.565214
    11  C    0.242074
    12  C    0.162314
    13  C    0.142985
    14  C   -0.042045
    15  C    0.535504
    16  C   -0.627972
    17  C   -0.137362
    18  C    0.118032
    19  C   -0.025978
    20  C   -0.216259
    21  O   -1.339756
 Electronic spatial extent (au):  <R**2>=           8507.1315
 Charge=             -1.0000 electrons
 Dipole moment (field-independent basis, Debye):
    X=             -9.6133    Y=              7.5031    Z=              2.9709  Tot=             12.5515
 Quadrupole moment (field-independent basis, Debye-Ang):
   XX=           -165.1440   YY=           -149.8776   ZZ=           -141.1643
   XY=             25.8402   XZ=             -1.1428   YZ=             -4.4722
 Traceless Quadrupole moment (field-independent basis, Debye-Ang):
   XX=            -13.0820   YY=              2.1844   ZZ=             10.8977
   XY=             25.8402   XZ=             -1.1428   YZ=             -4.4722
 Octapole moment (field-independent basis, Debye-Ang**2):
  XXX=           -138.1461  YYY=             38.4816  ZZZ=             10.8594  XYY=            -60.8835
  XXY=             66.3513  XXZ=             11.8334  XZZ=             14.4091  YZZ=              9.9249
  YYZ=             -6.3851  XYZ=             15.3049
 Hexadecapole moment (field-independent basis, Debye-Ang**3):
 XXXX=         -10049.3385 YYYY=          -1854.9101 ZZZZ=           -719.1310 XXXY=            132.7321
 XXXZ=           -115.5965 YYYX=            111.4728 YYYZ=             -8.1921 ZZZX=             30.1702
 ZZZY=            -17.3706 XXYY=          -1980.9480 XXZZ=          -1800.9478 YYZZ=           -431.2564
 XXYZ=            -85.8612 YYXZ=             -5.4188 ZZXY=             61.4851
 N-N= 1.695879624448D+03 E-N=-6.471214164015D+03  KE= 1.300133068540D+03
 Leave Link  601 at Thu Sep 24 16:20:50 2020, MaxMem=   262144000 cpu:               1.3 elap:               0.4
 (Enter /prod/apps/gaussian/g16b1/l9999.exe)
 1\1\GINC-PIRINEUS27\SP\RMP2-FC\Aug-CC-pVDZ\C14H11N4O2S1(1-)\UBAFAR01\2
 4-Sep-2020\0\\#p mp2/aug-cc-pVDZ scf=(MaxCycle=2000,NoVarAcc,NoIncFock
 ) maxdisk=120GB geom=allcheck\\SM45_m1.a.5.pdb.xyz\\-1,1\O,0,-3.564752
 3055,-1.3112870588,-1.5410552679\S,0,-2.5197790108,-1.030127344,-0.521
 3386894\N,0,-1.1434229756,-0.8849421038,-1.3216580203\C,0,0.0301624412
 ,-0.6084343648,-0.6524935909\N,0,0.1981058056,-0.3781007383,0.69471851
 55\N,0,1.4653589845,-0.1256829424,0.944639578\C,0,1.2809538901,-0.4869
 580675,-1.247406268\N,0,2.129965403,-0.1869248467,-0.2251059561\C,0,3.
 5329462352,0.0346961984,-0.2771531844\C,0,4.2765375354,-0.4754569249,-
 1.3451270146\C,0,5.6503761027,-0.2430662076,-1.3950534431\C,0,6.282560
 3152,0.4809164508,-0.3827900774\C,0,5.530348996,0.9786628372,0.6843699
 378\C,0,4.154659588,0.7651270621,0.7404641317\C,0,-2.9541487678,0.5713
 78631,0.1877574125\C,0,-3.1804551512,1.654952583,-0.6659644946\C,0,-3.
 521290473,2.8936443298,-0.1246108123\C,0,-3.6351320908,3.0462079524,1.
 2604672753\C,0,-3.4080527207,1.9593029679,2.1058503216\C,0,-3.06498593
 6,0.7160482886,1.5696652074\O,0,-2.4937208021,-1.9818780916,0.62467227
 22\H,0,1.599902248,-0.5595562387,-2.2722742146\H,0,3.7903922526,-1.056
 1197757,-2.1198408395\H,0,6.2256593303,-0.6385902122,-2.2249826153\H,0
 ,7.3518443366,0.656226407,-0.424710552\H,0,6.01245274,1.5452985558,1.4
 736780983\H,0,3.5589734114,1.1565315519,1.5546466956\H,0,-3.0930021703
 ,1.5300864973,-1.7395228178\H,0,-3.6997089522,3.7382506447,-0.78163695
 3\H,0,-3.9006763519,4.0116550206,1.6778288582\H,0,-3.4970357125,2.0764
 332721,3.1808492137\H,0,-2.8850361954,-0.1422943338,2.2051172934\\Vers
 ion=ES64L-G16RevB.01\State=1-A\HF=-1301.6114374\MP2=-1304.7624812\RMSD
 =8.008e-09\PG=C01 [X(C14H11N4O2S1)]\\@


 I DON'T PRETEND TO UNDERSTAND THE UNIVERSE --
 IT'S A GREAT DEAL BIGGER THAN I AM.
       -- ATTR. TO WILLIAM ALLINGHAM (1828-89)
 Job cpu time:       0 days  3 hours 33 minutes  6.4 seconds.
 Elapsed time:       0 days  1 hours  1 minutes  3.8 seconds.
 File lengths (MBytes):  RWF= 104329 Int=      0 D2E=      0 Chk=     28 Scr=      1
 Normal termination of Gaussian 16 at Thu Sep 24 16:20:53 2020.
