 Entering Gaussian System, Link 0=g16
 Initial command:
 /prod/apps/gaussian/g16b1/l1.exe "/tmp/ubafar01/1461377/Gau-31381.inp" -scrdir="/tmp/ubafar01/1461377/"
 Entering Link 1 = /prod/apps/gaussian/g16b1/l1.exe PID=     31385.
  
 Copyright (c) 1988-2017, Gaussian, Inc.  All Rights Reserved.
  
 This is part of the Gaussian(R) 16 program.  It is based on
 the Gaussian(R) 09 system (copyright 2009, Gaussian, Inc.),
 the Gaussian(R) 03 system (copyright 2003, Gaussian, Inc.),
 the Gaussian(R) 98 system (copyright 1998, Gaussian, Inc.),
 the Gaussian(R) 94 system (copyright 1995, Gaussian, Inc.),
 the Gaussian 92(TM) system (copyright 1992, Gaussian, Inc.),
 the Gaussian 90(TM) system (copyright 1990, Gaussian, Inc.),
 the Gaussian 88(TM) system (copyright 1988, Gaussian, Inc.),
 the Gaussian 86(TM) system (copyright 1986, Carnegie Mellon
 University), and the Gaussian 82(TM) system (copyright 1983,
 Carnegie Mellon University). Gaussian is a federally registered
 trademark of Gaussian, Inc.
  
 This software contains proprietary and confidential information,
 including trade secrets, belonging to Gaussian, Inc.
  
 This software is provided under written license and may be
 used, copied, transmitted, or stored only in accord with that
 written license.
  
 The following legend is applicable only to US Government
 contracts under FAR:
  
                    RESTRICTED RIGHTS LEGEND
  
 Use, reproduction and disclosure by the US Government is
 subject to restrictions as set forth in subparagraphs (a)
 and (c) of the Commercial Computer Software - Restricted
 Rights clause in FAR 52.227-19.
  
 Gaussian, Inc.
 340 Quinnipiac St., Bldg. 40, Wallingford CT 06492
  
  
 ---------------------------------------------------------------
 Warning -- This program may not be used in any manner that
 competes with the business of Gaussian, Inc. or will provide
 assistance to any competitor of Gaussian, Inc.  The licensee
 of this program is prohibited from giving any competitor of
 Gaussian, Inc. access to this program.  By using this program,
 the user acknowledges that Gaussian, Inc. is engaged in the
 business of creating and licensing software in the field of
 computational chemistry and represents and warrants to the
 licensee that it is not a competitor of Gaussian, Inc. and that
 it will not use this program in any manner prohibited above.
 ---------------------------------------------------------------
  

 Cite this work as:
 Gaussian 16, Revision B.01,
 M. J. Frisch, G. W. Trucks, H. B. Schlegel, G. E. Scuseria, 
 M. A. Robb, J. R. Cheeseman, G. Scalmani, V. Barone, 
 G. A. Petersson, H. Nakatsuji, X. Li, M. Caricato, A. V. Marenich, 
 J. Bloino, B. G. Janesko, R. Gomperts, B. Mennucci, H. P. Hratchian, 
 J. V. Ortiz, A. F. Izmaylov, J. L. Sonnenberg, D. Williams-Young, 
 F. Ding, F. Lipparini, F. Egidi, J. Goings, B. Peng, A. Petrone, 
 T. Henderson, D. Ranasinghe, V. G. Zakrzewski, J. Gao, N. Rega, 
 G. Zheng, W. Liang, M. Hada, M. Ehara, K. Toyota, R. Fukuda, 
 J. Hasegawa, M. Ishida, T. Nakajima, Y. Honda, O. Kitao, H. Nakai, 
 T. Vreven, K. Throssell, J. A. Montgomery, Jr., J. E. Peralta, 
 F. Ogliaro, M. J. Bearpark, J. J. Heyd, E. N. Brothers, K. N. Kudin, 
 V. N. Staroverov, T. A. Keith, R. Kobayashi, J. Normand, 
 K. Raghavachari, A. P. Rendell, J. C. Burant, S. S. Iyengar, 
 J. Tomasi, M. Cossi, J. M. Millam, M. Klene, C. Adamo, R. Cammi, 
 J. W. Ochterski, R. L. Martin, K. Morokuma, O. Farkas, 
 J. B. Foresman, and D. J. Fox, Gaussian, Inc., Wallingford CT, 2016.
 
 ******************************************
 Gaussian 16:  ES64L-G16RevB.01 20-Dec-2017
                24-Sep-2020 
 ******************************************
 %nproc=4
 Will use up to    4 processors via shared memory.
 %Chk=SM45_m2.b.9.pdb.xyz.mst.b.w.chk
 %mem=16GB
 ----------------------------------------------------------------------
 #p b3lyp/6-31G(d) opt freq NoSymm scf=(MaxCycle=2000,NoVarAcc,NoIncFoc
 k) scrf=(iefpcm,read,solvent=water)
 ----------------------------------------------------------------------
 1/18=20,19=15,26=3,38=1,40=2/1,3;
 2/9=110,12=2,15=1,17=6,18=5,40=1/2;
 3/5=1,6=6,7=1,11=2,25=1,30=1,70=2203,71=1,72=1,74=-5/1,2,3;
 4//1;
 5/5=100002,7=2000,38=1,53=1/2;
 6/7=2,8=2,9=2,10=2,28=1/1;
 7/30=1/1,2,3,16;
 1/18=20,19=15,26=3/3(2);
 2/9=110,15=1/2;
 99//99;
 2/9=110,15=1/2;
 3/5=1,6=6,7=1,11=2,25=1,30=1,70=2205,71=1,72=1,74=-5/1,2,3;
 4/5=5,16=3,69=1/1;
 5/5=100002,7=2000,38=1,53=1/2;
 7/30=1/1,2,3,16;
 1/18=20,19=15,26=3/3(-5);
 2/9=110,15=1/2;
 6/7=2,8=2,9=2,10=2,19=2,28=1/1;
 99/9=1/99;
 Leave Link    1 at Thu Sep 24 14:39:41 2020, MaxMem=  2147483648 cpu:               0.1 elap:               0.0
 (Enter /prod/apps/gaussian/g16b1/l101.exe)
 -------------------
 SM45_m2.b.9.pdb.xyz
 -------------------
 Symbolic Z-matrix:
 Charge =  1 Multiplicity = 1
 O                     2.008    -1.581     1.586 
 S                     2.543    -1.251     0.256 
 N                     1.396    -1.563    -0.969 
 C                     0.029    -1.447    -0.651 
 N                    -0.742    -2.517    -0.309 
 N                    -1.965    -2.108    -0.107 
 C                    -0.756    -0.314    -0.647 
 N                    -1.984    -0.766    -0.291 
 C                    -3.194    -0.026    -0.13 
 C                    -4.182    -0.515     0.727 
 C                    -5.365     0.206     0.878 
 C                    -5.553     1.408     0.192 
 C                    -4.553     1.887    -0.657 
 C                    -3.37      1.17     -0.829 
 C                     2.752     0.517     0.176 
 C                     3.354     1.082    -0.951 
 C                     3.535     2.462    -0.991 
 C                     3.118     3.255     0.084 
 C                     2.522     2.674     1.203 
 C                     2.335     1.293     1.258 
 O                     3.763    -1.918    -0.22 
 H                     1.632    -2.459    -1.399 
 H                    -0.539     0.721    -0.843 
 H                    -4.018    -1.441     1.262 
 H                    -6.136    -0.17      1.541 
 H                    -6.473     1.968     0.317 
 H                    -4.695     2.815    -1.197 
 H                    -2.605     1.528    -1.506 
 H                     3.674     0.457    -1.775 
 H                     4.        2.917    -1.858 
 H                     3.262     4.329     0.046 
 H                     2.204     3.292     2.035 
 H                     1.879     0.815     2.116 
 H                    -0.423    -3.461    -0.226 
 
 ITRead=  0  0  0  0  0  0  0  0  0  0  0  0  0  0  0  0  0  0  0  0
 ITRead=  0  0  0  0  0  0  0  0  0  0  0  0  0  0
 MicOpt= -1 -1 -1 -1 -1 -1 -1 -1 -1 -1 -1 -1 -1 -1 -1 -1 -1 -1 -1 -1
 MicOpt= -1 -1 -1 -1 -1 -1 -1 -1 -1 -1 -1 -1 -1 -1
 NAtoms=     34 NQM=       34 NQMF=       0 NMMI=      0 NMMIF=      0
                NMic=       0 NMicF=      0.
                    Isotopes and Nuclear Properties:
 (Nuclear quadrupole moments (NQMom) in fm**2, nuclear magnetic moments (NMagM)
  in nuclear magnetons)

  Atom         1           2           3           4           5           6           7           8           9          10
 IAtWgt=          16          32          14          12          14          14          12          14          12          12
 AtmWgt=  15.9949146  31.9720718  14.0030740  12.0000000  14.0030740  14.0030740  12.0000000  14.0030740  12.0000000  12.0000000
 NucSpn=           0           0           2           0           2           2           0           2           0           0
 AtZEff=  -0.0000000  -0.0000000  -0.0000000  -0.0000000  -0.0000000  -0.0000000  -0.0000000  -0.0000000  -0.0000000  -0.0000000
 NQMom=    0.0000000   0.0000000   2.0440000   0.0000000   2.0440000   2.0440000   0.0000000   2.0440000   0.0000000   0.0000000
 NMagM=    0.0000000   0.0000000   0.4037610   0.0000000   0.4037610   0.4037610   0.0000000   0.4037610   0.0000000   0.0000000
 AtZNuc=   8.0000000  16.0000000   7.0000000   6.0000000   7.0000000   7.0000000   6.0000000   7.0000000   6.0000000   6.0000000

  Atom        11          12          13          14          15          16          17          18          19          20
 IAtWgt=          12          12          12          12          12          12          12          12          12          12
 AtmWgt=  12.0000000  12.0000000  12.0000000  12.0000000  12.0000000  12.0000000  12.0000000  12.0000000  12.0000000  12.0000000
 NucSpn=           0           0           0           0           0           0           0           0           0           0
 AtZEff=  -0.0000000  -0.0000000  -0.0000000  -0.0000000  -0.0000000  -0.0000000  -0.0000000  -0.0000000  -0.0000000  -0.0000000
 NQMom=    0.0000000   0.0000000   0.0000000   0.0000000   0.0000000   0.0000000   0.0000000   0.0000000   0.0000000   0.0000000
 NMagM=    0.0000000   0.0000000   0.0000000   0.0000000   0.0000000   0.0000000   0.0000000   0.0000000   0.0000000   0.0000000
 AtZNuc=   6.0000000   6.0000000   6.0000000   6.0000000   6.0000000   6.0000000   6.0000000   6.0000000   6.0000000   6.0000000

  Atom        21          22          23          24          25          26          27          28          29          30
 IAtWgt=          16           1           1           1           1           1           1           1           1           1
 AtmWgt=  15.9949146   1.0078250   1.0078250   1.0078250   1.0078250   1.0078250   1.0078250   1.0078250   1.0078250   1.0078250
 NucSpn=           0           1           1           1           1           1           1           1           1           1
 AtZEff=  -0.0000000  -0.0000000  -0.0000000  -0.0000000  -0.0000000  -0.0000000  -0.0000000  -0.0000000  -0.0000000  -0.0000000
 NQMom=    0.0000000   0.0000000   0.0000000   0.0000000   0.0000000   0.0000000   0.0000000   0.0000000   0.0000000   0.0000000
 NMagM=    0.0000000   2.7928460   2.7928460   2.7928460   2.7928460   2.7928460   2.7928460   2.7928460   2.7928460   2.7928460
 AtZNuc=   8.0000000   1.0000000   1.0000000   1.0000000   1.0000000   1.0000000   1.0000000   1.0000000   1.0000000   1.0000000

  Atom        31          32          33          34
 IAtWgt=           1           1           1           1
 AtmWgt=   1.0078250   1.0078250   1.0078250   1.0078250
 NucSpn=           1           1           1           1
 AtZEff=  -0.0000000  -0.0000000  -0.0000000  -0.0000000
 NQMom=    0.0000000   0.0000000   0.0000000   0.0000000
 NMagM=    2.7928460   2.7928460   2.7928460   2.7928460
 AtZNuc=   1.0000000   1.0000000   1.0000000   1.0000000
 Leave Link  101 at Thu Sep 24 14:39:41 2020, MaxMem=  2147483648 cpu:               1.3 elap:               0.3
 (Enter /prod/apps/gaussian/g16b1/l103.exe)

 GradGradGradGradGradGradGradGradGradGradGradGradGradGradGradGradGradGrad
 Berny optimization.
 Initialization pass.
                           ----------------------------
                           !    Initial Parameters    !
                           ! (Angstroms and Degrees)  !
 --------------------------                            --------------------------
 ! Name  Definition              Value          Derivative Info.                !
 --------------------------------------------------------------------------------
 ! R1    R(1,2)                  1.4711         estimate D2E/DX2                !
 ! R2    R(2,3)                  1.7069         estimate D2E/DX2                !
 ! R3    R(2,15)                 1.7821         estimate D2E/DX2                !
 ! R4    R(2,21)                 1.4696         estimate D2E/DX2                !
 ! R5    R(3,4)                  1.4083         estimate D2E/DX2                !
 ! R6    R(3,22)                 1.0215         estimate D2E/DX2                !
 ! R7    R(4,5)                  1.3625         estimate D2E/DX2                !
 ! R8    R(4,7)                  1.3784         estimate D2E/DX2                !
 ! R9    R(5,6)                  1.3053         estimate D2E/DX2                !
 ! R10   R(5,34)                 0.9999         estimate D2E/DX2                !
 ! R11   R(6,8)                  1.3547         estimate D2E/DX2                !
 ! R12   R(7,8)                  1.3561         estimate D2E/DX2                !
 ! R13   R(7,23)                 1.0755         estimate D2E/DX2                !
 ! R14   R(8,9)                  1.4275         estimate D2E/DX2                !
 ! R15   R(9,10)                 1.3963         estimate D2E/DX2                !
 ! R16   R(9,14)                 1.3964         estimate D2E/DX2                !
 ! R17   R(10,11)                1.3936         estimate D2E/DX2                !
 ! R18   R(10,24)                1.0819         estimate D2E/DX2                !
 ! R19   R(11,12)                1.3967         estimate D2E/DX2                !
 ! R20   R(11,25)                1.0842         estimate D2E/DX2                !
 ! R21   R(12,13)                1.3965         estimate D2E/DX2                !
 ! R22   R(12,26)                1.0843         estimate D2E/DX2                !
 ! R23   R(13,14)                1.394          estimate D2E/DX2                !
 ! R24   R(13,27)                1.083          estimate D2E/DX2                !
 ! R25   R(14,28)                1.0825         estimate D2E/DX2                !
 ! R26   R(15,16)                1.3971         estimate D2E/DX2                !
 ! R27   R(15,20)                1.3953         estimate D2E/DX2                !
 ! R28   R(16,17)                1.3924         estimate D2E/DX2                !
 ! R29   R(16,29)                1.0826         estimate D2E/DX2                !
 ! R30   R(17,18)                1.3994         estimate D2E/DX2                !
 ! R31   R(17,30)                1.0839         estimate D2E/DX2                !
 ! R32   R(18,19)                1.3946         estimate D2E/DX2                !
 ! R33   R(18,31)                1.0843         estimate D2E/DX2                !
 ! R34   R(19,20)                1.3947         estimate D2E/DX2                !
 ! R35   R(19,32)                1.0841         estimate D2E/DX2                !
 ! R36   R(20,33)                1.0829         estimate D2E/DX2                !
 ! A1    A(1,2,3)              111.3129         estimate D2E/DX2                !
 ! A2    A(1,2,15)             107.8057         estimate D2E/DX2                !
 ! A3    A(1,2,21)             119.5328         estimate D2E/DX2                !
 ! A4    A(3,2,15)             103.1751         estimate D2E/DX2                !
 ! A5    A(3,2,21)             104.0296         estimate D2E/DX2                !
 ! A6    A(15,2,21)            109.7772         estimate D2E/DX2                !
 ! A7    A(2,3,4)              118.3698         estimate D2E/DX2                !
 ! A8    A(2,3,22)             107.89           estimate D2E/DX2                !
 ! A9    A(4,3,22)             113.0524         estimate D2E/DX2                !
 ! A10   A(3,4,5)              122.7715         estimate D2E/DX2                !
 ! A11   A(3,4,7)              128.402          estimate D2E/DX2                !
 ! A12   A(5,4,7)              108.816          estimate D2E/DX2                !
 ! A13   A(4,5,6)              108.8429         estimate D2E/DX2                !
 ! A14   A(4,5,34)             125.5732         estimate D2E/DX2                !
 ! A15   A(6,5,34)             125.5839         estimate D2E/DX2                !
 ! A16   A(5,6,8)              107.6093         estimate D2E/DX2                !
 ! A17   A(4,7,8)              104.0341         estimate D2E/DX2                !
 ! A18   A(4,7,23)             132.4993         estimate D2E/DX2                !
 ! A19   A(8,7,23)             123.456          estimate D2E/DX2                !
 ! A20   A(6,8,7)              110.6796         estimate D2E/DX2                !
 ! A21   A(6,8,9)              120.6718         estimate D2E/DX2                !
 ! A22   A(7,8,9)              128.6388         estimate D2E/DX2                !
 ! A23   A(8,9,10)             119.1738         estimate D2E/DX2                !
 ! A24   A(8,9,14)             119.6289         estimate D2E/DX2                !
 ! A25   A(10,9,14)            121.1973         estimate D2E/DX2                !
 ! A26   A(9,10,11)            119.0755         estimate D2E/DX2                !
 ! A27   A(9,10,24)            119.7336         estimate D2E/DX2                !
 ! A28   A(11,10,24)           121.1908         estimate D2E/DX2                !
 ! A29   A(10,11,12)           120.417          estimate D2E/DX2                !
 ! A30   A(10,11,25)           119.3745         estimate D2E/DX2                !
 ! A31   A(12,11,25)           120.206          estimate D2E/DX2                !
 ! A32   A(11,12,13)           119.828          estimate D2E/DX2                !
 ! A33   A(11,12,26)           120.1373         estimate D2E/DX2                !
 ! A34   A(13,12,26)           120.0347         estimate D2E/DX2                !
 ! A35   A(12,13,14)           120.4167         estimate D2E/DX2                !
 ! A36   A(12,13,27)           120.2077         estimate D2E/DX2                !
 ! A37   A(14,13,27)           119.3721         estimate D2E/DX2                !
 ! A38   A(9,14,13)            119.0604         estimate D2E/DX2                !
 ! A39   A(9,14,28)            120.4812         estimate D2E/DX2                !
 ! A40   A(13,14,28)           120.4524         estimate D2E/DX2                !
 ! A41   A(2,15,16)            119.2072         estimate D2E/DX2                !
 ! A42   A(2,15,20)            118.8095         estimate D2E/DX2                !
 ! A43   A(16,15,20)           121.9671         estimate D2E/DX2                !
 ! A44   A(15,16,17)           118.6862         estimate D2E/DX2                !
 ! A45   A(15,16,29)           120.5239         estimate D2E/DX2                !
 ! A46   A(17,16,29)           120.7899         estimate D2E/DX2                !
 ! A47   A(16,17,18)           120.0541         estimate D2E/DX2                !
 ! A48   A(16,17,30)           119.6545         estimate D2E/DX2                !
 ! A49   A(18,17,30)           120.2913         estimate D2E/DX2                !
 ! A50   A(17,18,19)           120.5066         estimate D2E/DX2                !
 ! A51   A(17,18,31)           119.6565         estimate D2E/DX2                !
 ! A52   A(19,18,31)           119.8369         estimate D2E/DX2                !
 ! A53   A(18,19,20)           120.0965         estimate D2E/DX2                !
 ! A54   A(18,19,32)           120.2423         estimate D2E/DX2                !
 ! A55   A(20,19,32)           119.6611         estimate D2E/DX2                !
 ! A56   A(15,20,19)           118.6888         estimate D2E/DX2                !
 ! A57   A(15,20,33)           119.6563         estimate D2E/DX2                !
 ! A58   A(19,20,33)           121.6548         estimate D2E/DX2                !
 ! D1    D(1,2,3,4)             29.7898         estimate D2E/DX2                !
 ! D2    D(1,2,3,22)          -100.1473         estimate D2E/DX2                !
 ! D3    D(15,2,3,4)           -85.5788         estimate D2E/DX2                !
 ! D4    D(15,2,3,22)          144.4841         estimate D2E/DX2                !
 ! D5    D(21,2,3,4)           159.7956         estimate D2E/DX2                !
 ! D6    D(21,2,3,22)           29.8584         estimate D2E/DX2                !
 ! D7    D(1,2,15,16)          174.7496         estimate D2E/DX2                !
 ! D8    D(1,2,15,20)           -3.8184         estimate D2E/DX2                !
 ! D9    D(3,2,15,16)          -67.3944         estimate D2E/DX2                !
 ! D10   D(3,2,15,20)          114.0376         estimate D2E/DX2                !
 ! D11   D(21,2,15,16)          43.0168         estimate D2E/DX2                !
 ! D12   D(21,2,15,20)        -135.5512         estimate D2E/DX2                !
 ! D13   D(2,3,4,5)            -96.7112         estimate D2E/DX2                !
 ! D14   D(2,3,4,7)             84.6083         estimate D2E/DX2                !
 ! D15   D(22,3,4,5)            30.8222         estimate D2E/DX2                !
 ! D16   D(22,3,4,7)          -147.8583         estimate D2E/DX2                !
 ! D17   D(3,4,5,6)           -178.2693         estimate D2E/DX2                !
 ! D18   D(3,4,5,34)             1.753          estimate D2E/DX2                !
 ! D19   D(7,4,5,6)              0.6382         estimate D2E/DX2                !
 ! D20   D(7,4,5,34)          -179.3394         estimate D2E/DX2                !
 ! D21   D(3,4,7,8)            179.0474         estimate D2E/DX2                !
 ! D22   D(3,4,7,23)            -2.1413         estimate D2E/DX2                !
 ! D23   D(5,4,7,8)              0.2195         estimate D2E/DX2                !
 ! D24   D(5,4,7,23)           179.0308         estimate D2E/DX2                !
 ! D25   D(4,5,6,8)             -1.2323         estimate D2E/DX2                !
 ! D26   D(34,5,6,8)           178.7454         estimate D2E/DX2                !
 ! D27   D(5,6,8,7)              1.4141         estimate D2E/DX2                !
 ! D28   D(5,6,8,9)           -179.6322         estimate D2E/DX2                !
 ! D29   D(4,7,8,6)             -0.9836         estimate D2E/DX2                !
 ! D30   D(4,7,8,9)           -179.8316         estimate D2E/DX2                !
 ! D31   D(23,7,8,6)          -179.9332         estimate D2E/DX2                !
 ! D32   D(23,7,8,9)             1.2189         estimate D2E/DX2                !
 ! D33   D(6,8,9,10)            27.0191         estimate D2E/DX2                !
 ! D34   D(6,8,9,14)          -152.9769         estimate D2E/DX2                !
 ! D35   D(7,8,9,10)          -154.234          estimate D2E/DX2                !
 ! D36   D(7,8,9,14)            25.7699         estimate D2E/DX2                !
 ! D37   D(8,9,10,11)         -179.7119         estimate D2E/DX2                !
 ! D38   D(8,9,10,24)            0.4094         estimate D2E/DX2                !
 ! D39   D(14,9,10,11)           0.2841         estimate D2E/DX2                !
 ! D40   D(14,9,10,24)        -179.5946         estimate D2E/DX2                !
 ! D41   D(8,9,14,13)         -179.6324         estimate D2E/DX2                !
 ! D42   D(8,9,14,28)            1.2623         estimate D2E/DX2                !
 ! D43   D(10,9,14,13)           0.3716         estimate D2E/DX2                !
 ! D44   D(10,9,14,28)        -178.7336         estimate D2E/DX2                !
 ! D45   D(9,10,11,12)          -0.6641         estimate D2E/DX2                !
 ! D46   D(9,10,11,25)         179.9069         estimate D2E/DX2                !
 ! D47   D(24,10,11,12)        179.2128         estimate D2E/DX2                !
 ! D48   D(24,10,11,25)         -0.2162         estimate D2E/DX2                !
 ! D49   D(10,11,12,13)          0.387          estimate D2E/DX2                !
 ! D50   D(10,11,12,26)       -179.6672         estimate D2E/DX2                !
 ! D51   D(25,11,12,13)        179.8113         estimate D2E/DX2                !
 ! D52   D(25,11,12,26)         -0.243          estimate D2E/DX2                !
 ! D53   D(11,12,13,14)          0.2821         estimate D2E/DX2                !
 ! D54   D(11,12,13,27)        179.5937         estimate D2E/DX2                !
 ! D55   D(26,12,13,14)       -179.6637         estimate D2E/DX2                !
 ! D56   D(26,12,13,27)         -0.3521         estimate D2E/DX2                !
 ! D57   D(12,13,14,9)          -0.6544         estimate D2E/DX2                !
 ! D58   D(12,13,14,28)        178.4512         estimate D2E/DX2                !
 ! D59   D(27,13,14,9)        -179.9717         estimate D2E/DX2                !
 ! D60   D(27,13,14,28)         -0.8662         estimate D2E/DX2                !
 ! D61   D(2,15,16,17)        -178.7906         estimate D2E/DX2                !
 ! D62   D(2,15,16,29)           1.1154         estimate D2E/DX2                !
 ! D63   D(20,15,16,17)         -0.2696         estimate D2E/DX2                !
 ! D64   D(20,15,16,29)        179.6363         estimate D2E/DX2                !
 ! D65   D(2,15,20,19)         178.847          estimate D2E/DX2                !
 ! D66   D(2,15,20,33)          -1.0273         estimate D2E/DX2                !
 ! D67   D(16,15,20,19)          0.3203         estimate D2E/DX2                !
 ! D68   D(16,15,20,33)       -179.5539         estimate D2E/DX2                !
 ! D69   D(15,16,17,18)          0.0373         estimate D2E/DX2                !
 ! D70   D(15,16,17,30)       -179.9723         estimate D2E/DX2                !
 ! D71   D(29,16,17,18)       -179.8683         estimate D2E/DX2                !
 ! D72   D(29,16,17,30)          0.122          estimate D2E/DX2                !
 ! D73   D(16,17,18,19)          0.1368         estimate D2E/DX2                !
 ! D74   D(16,17,18,31)       -179.9932         estimate D2E/DX2                !
 ! D75   D(30,17,18,19)       -179.8535         estimate D2E/DX2                !
 ! D76   D(30,17,18,31)          0.0166         estimate D2E/DX2                !
 ! D77   D(17,18,19,20)         -0.0851         estimate D2E/DX2                !
 ! D78   D(17,18,19,32)        179.7663         estimate D2E/DX2                !
 ! D79   D(31,18,19,20)       -179.9549         estimate D2E/DX2                !
 ! D80   D(31,18,19,32)         -0.1035         estimate D2E/DX2                !
 ! D81   D(18,19,20,15)         -0.1388         estimate D2E/DX2                !
 ! D82   D(18,19,20,33)        179.7329         estimate D2E/DX2                !
 ! D83   D(32,19,20,15)       -179.991          estimate D2E/DX2                !
 ! D84   D(32,19,20,33)         -0.1193         estimate D2E/DX2                !
 --------------------------------------------------------------------------------
 Trust Radius=3.00D-01 FncErr=1.00D-07 GrdErr=1.00D-06 EigMax=2.50D+02 EigMin=1.00D-04
 Number of steps in this run=    188 maximum allowed number of steps=    204.
 GradGradGradGradGradGradGradGradGradGradGradGradGradGradGradGradGradGrad

 Leave Link  103 at Thu Sep 24 14:39:41 2020, MaxMem=  2147483648 cpu:               0.1 elap:               0.0
 (Enter /prod/apps/gaussian/g16b1/l202.exe)
                          Input orientation:                          
 ---------------------------------------------------------------------
 Center     Atomic      Atomic             Coordinates (Angstroms)
 Number     Number       Type             X           Y           Z
 ---------------------------------------------------------------------
      1          8           0        2.008000   -1.581000    1.586000
      2         16           0        2.543000   -1.251000    0.256000
      3          7           0        1.396000   -1.563000   -0.969000
      4          6           0        0.029000   -1.447000   -0.651000
      5          7           0       -0.742000   -2.517000   -0.309000
      6          7           0       -1.965000   -2.108000   -0.107000
      7          6           0       -0.756000   -0.314000   -0.647000
      8          7           0       -1.984000   -0.766000   -0.291000
      9          6           0       -3.194000   -0.026000   -0.130000
     10          6           0       -4.182000   -0.515000    0.727000
     11          6           0       -5.365000    0.206000    0.878000
     12          6           0       -5.553000    1.408000    0.192000
     13          6           0       -4.553000    1.887000   -0.657000
     14          6           0       -3.370000    1.170000   -0.829000
     15          6           0        2.752000    0.517000    0.176000
     16          6           0        3.354000    1.082000   -0.951000
     17          6           0        3.535000    2.462000   -0.991000
     18          6           0        3.118000    3.255000    0.084000
     19          6           0        2.522000    2.674000    1.203000
     20          6           0        2.335000    1.293000    1.258000
     21          8           0        3.763000   -1.918000   -0.220000
     22          1           0        1.632000   -2.459000   -1.399000
     23          1           0       -0.539000    0.721000   -0.843000
     24          1           0       -4.018000   -1.441000    1.262000
     25          1           0       -6.136000   -0.170000    1.541000
     26          1           0       -6.473000    1.968000    0.317000
     27          1           0       -4.695000    2.815000   -1.197000
     28          1           0       -2.605000    1.528000   -1.506000
     29          1           0        3.674000    0.457000   -1.775000
     30          1           0        4.000000    2.917000   -1.858000
     31          1           0        3.262000    4.329000    0.046000
     32          1           0        2.204000    3.292000    2.035000
     33          1           0        1.879000    0.815000    2.116000
     34          1           0       -0.423000   -3.461000   -0.226000
 ---------------------------------------------------------------------
                    Distance matrix (angstroms):
                    1          2          3          4          5
     1  O    0.000000
     2  S    1.471063   0.000000
     3  N    2.627336   1.706921   0.000000
     4  C    2.989743   2.679787   1.408286   0.000000
     5  N    3.468374   3.565558   2.432439   1.362463   0.000000
     6  N    4.350713   4.603073   3.512320   2.169998   1.305302
     7  C    3.772436   3.546375   2.508942   1.378379   2.228822
     8  N    4.485913   4.585648   3.538261   2.155349   2.146832
     9  C    5.694162   5.879013   4.912676   3.560676   3.499918
    10  C    6.339585   6.781531   5.923580   4.527696   4.112773
    11  C    7.619433   8.065122   7.228547   5.845125   5.495073
    12  C    8.249005   8.521713   7.646134   6.326168   6.229153
    13  C    7.752728   7.812415   6.884072   5.666597   5.834384
    14  C    6.505621   6.480898   5.495784   4.293434   4.557494
    15  C    2.635003   1.782107   2.734257   3.457738   4.652786
    16  C    3.916587   2.749083   3.290914   4.188253   5.490190
    17  C    5.031750   4.040475   4.558117   5.261931   6.599113
    18  C    5.184110   4.545794   5.223717   5.673707   6.954857
    19  C    4.303012   4.037682   4.892610   5.160911   6.315562
    20  C    2.911080   2.742117   3.741388   4.058265   5.141937
    21  O    2.540714   1.469648   2.507930   3.788187   4.545519
    22  H    3.134084   2.242367   1.021475   2.037954   2.612918
    23  H    4.205527   3.820381   2.996124   2.249380   3.288010
    24  H    6.036328   6.640396   5.856931   4.476362   3.789194
    25  H    8.265451   8.839956   8.060495   6.666545   6.166534
    26  H    9.280793   9.573606   8.720259   7.407783   7.304209
    27  H    8.485288   8.428061   7.504609   6.385839   6.696639
    28  H    6.364441   6.109778   5.084354   4.064432   4.611464
    29  H    4.269112   2.884681   3.149495   4.263170   5.522218
    30  H    6.005098   4.895311   5.257522   6.022473   7.376606
    31  H    6.234759   5.630050   6.263214   6.655845   7.938876
    32  H    4.897565   4.890666   5.766100   5.865436   6.922264
    33  H    2.457307   2.858120   3.924971   4.024355   4.883901
    34  H    3.567563   3.730091   2.731888   2.107398   0.999893
                    6          7          8          9         10
     6  N    0.000000
     7  C    2.229735   0.000000
     8  N    1.354689   1.356106   0.000000
     9  C    2.417787   2.508800   1.427453   0.000000
    10  C    2.854522   3.696722   2.435268   1.396322   0.000000
    11  C    4.229045   4.882510   3.707089   2.404814   1.393604
    12  C    5.032435   5.165309   4.206819   2.779374   2.421527
    13  C    4.791687   4.388816   3.711082   2.405032   2.796909
    14  C    3.638763   3.011374   2.441011   1.396421   2.433044
    15  C    5.405627   3.697831   4.928882   5.978579   7.031997
    16  C    6.259409   4.351245   5.687262   6.691637   7.883996
    17  C    7.205301   5.122225   6.431901   7.225711   8.447848
    18  C    7.391559   5.317894   6.506879   7.117029   8.241138
    19  C    6.687062   4.805822   5.862565   6.460615   7.439080
    20  C    5.649781   3.970611   5.029179   5.851166   6.783960
    21  O    5.732264   4.814198   5.861753   7.210244   8.123315
    22  H    3.838082   3.296828   4.143594   5.551588   6.488575
    23  H    3.252447   1.075514   2.145670   2.848755   4.155002
    24  H    2.556141   3.943990   2.646619   2.149154   1.081941
    25  H    4.885590   5.809688   4.577176   3.386494   2.144700
    26  H    6.092259   6.230643   5.291081   3.863636   3.403244
    27  H    5.733841   5.060520   4.581912   3.385671   3.879928
    28  H    3.948075   2.747662   2.669139   2.157594   3.412780
    29  H    6.415588   4.635917   5.975864   7.078753   8.301899
    30  H    7.993613   5.875833   7.199183   7.962466   9.241535
    31  H    8.293365   6.179160   7.320732   7.789540   8.907370
    32  H    7.150435   5.381260   6.278295   6.695876   7.548848
    33  H    5.316201   3.981461   4.818296   5.611339   6.358769
    34  H    2.054881   3.192450   3.115120   4.414395   4.870031
                   11         12         13         14         15
    11  C    0.000000
    12  C    1.396690   0.000000
    13  C    2.416884   1.396511   0.000000
    14  C    2.796993   2.421688   1.393973   0.000000
    15  C    8.153233   8.352674   7.478891   6.238214   0.000000
    16  C    8.951736   8.985954   7.953308   6.725682   1.397053
    17  C    9.369776   9.225083   8.115290   7.026701   2.399584
    18  C    9.049206   8.866189   7.827180   6.875677   2.763886
    19  C    8.270515   8.235928   7.357621   6.411451   2.400058
    20  C    7.785626   7.960535   7.173884   6.075996   1.395274
    21  O    9.435961   9.900499   9.155591   7.796558   2.666114
    22  H    7.825916   8.313194   7.595558   6.206009   3.548465
    23  H    5.149499   5.165597   4.184059   2.866419   3.451182
    24  H    2.162053   3.408508   3.878707   3.407273   7.130642
    25  H    1.084152   2.156333   3.401227   3.881141   9.018411
    26  H    2.155697   1.084262   2.154446   3.402753   9.339481
    27  H    3.400207   2.155257   1.083027   2.144079   7.913516
    28  H    3.879271   3.404160   2.155084   1.082459   5.705146
    29  H    9.423637   9.482142   8.424865   7.142914   2.158723
    30  H   10.126127   9.886323   8.698110   7.643805   3.384473
    31  H    9.597733   9.287507   8.217773   7.397860   3.848161
    32  H    8.255411   8.192506   7.407964   6.616257   3.384791
    33  H    7.374216   7.699873   7.085855   6.029183   2.148146
    34  H    6.252125   7.085110   6.770802   5.522190   5.105557
                   16         17         18         19         20
    16  C    0.000000
    17  C    1.392394   0.000000
    18  C    2.418440   1.399415   0.000000
    19  C    2.804711   2.425850   1.394610   0.000000
    20  C    2.441836   2.804383   2.416777   1.394688   0.000000
    21  O    3.114746   4.453181   5.221912   4.965025   3.812373
    22  H    3.962912   5.291891   6.087469   5.823246   4.650953
    23  H    3.911193   4.432884   4.544682   4.167739   3.605726
    24  H    8.099956   8.795296   8.623375   7.727115   6.916313
    25  H    9.891293  10.337635   9.974467   9.119405   8.601064
    26  H    9.948002  10.105195   9.679770   9.066061   8.883804
    27  H    8.237124   8.240142   7.929535   7.606903   7.600290
    28  H    6.001385   6.231948   6.185738   5.910848   5.665556
    29  H    1.082590   2.157314   3.404970   3.887245   3.419197
    30  H    2.146437   1.083946   2.159521   3.407822   3.888323
    31  H    3.397864   2.153041   1.084277   2.150645   3.397877
    32  H    3.888804   3.408392   2.154801   1.084100   2.148695
    33  H    3.413708   3.886952   3.408481   2.168617   1.082859
    34  H    5.952328   7.164699   7.598647   6.953653   5.692920
                   21         22         23         24         25
    21  O    0.000000
    22  H    2.494771   0.000000
    23  H    5.085239   3.890344   0.000000
    24  H    7.935226   6.327697   4.605292   0.000000
    25  H   10.205235   8.615390   6.148475   2.485801   0.000000
    26  H   10.961983   9.393296   6.173570   4.305965   2.486521
    27  H    9.741334   8.239345   4.667171   4.961708   4.299227
    28  H    7.353920   5.818916   2.314989   4.298064   4.963403
    29  H    2.840171   3.579692   4.322926   8.484847  10.374251
    30  H    5.110424   5.892324   5.143458   9.644423  11.127500
    31  H    6.272700   7.128946   5.315598   9.368562  10.526083
    32  H    5.887241   6.722614   4.734657   7.855705   9.043510
    33  H    4.059020   4.809918   3.822465   6.371300   8.095744
    34  H    4.461332   2.569622   4.228861   4.383899   6.825785
                   26         27         28         29         30
    26  H    0.000000
    27  H    2.484127   0.000000
    28  H    4.298645   2.473853   0.000000
    29  H   10.470014   8.714035   6.375362   0.000000
    30  H   10.738480   8.720685   6.758643   2.482894   0.000000
    31  H   10.020878   8.194577   6.684010   4.298624   2.482661
    32  H    8.943983   7.633450   6.227107   4.971340   4.303683
    33  H    8.621004   7.628463   5.808056   4.300008   4.970887
    34  H    8.146864   7.653823   5.593715   5.876694   7.931282
                   31         32         33         34
    31  H    0.000000
    32  H    2.480092   0.000000
    33  H    4.306482   2.499543   0.000000
    34  H    8.621909   7.590537   5.391507   0.000000
 Symmetry turned off by external request.
 Stoichiometry    C14H13N4O2S(1+)
 Framework group  C1[X(C14H13N4O2S)]
 Deg. of freedom    96
 Full point group                 C1      NOp   1
 Rotational constants (GHZ):           0.4881107           0.1642298           0.1349593
 Leave Link  202 at Thu Sep 24 14:39:41 2020, MaxMem=  2147483648 cpu:               0.0 elap:               0.0
 (Enter /prod/apps/gaussian/g16b1/l301.exe)
 Standard basis: 6-31G(d) (6D, 7F)
 Ernie: Thresh=  0.10000D-02 Tol=  0.10000D-05 Strict=F.
   345 basis functions,   664 primitive gaussians,   345 cartesian basis functions
    78 alpha electrons       78 beta electrons
       nuclear repulsion energy      1753.5261936619 Hartrees.
 IExCor=  402 DFT=T Ex+Corr=B3LYP ExCW=0 ScaHFX=  0.200000
 ScaDFX=  0.800000  0.720000  1.000000  0.810000 ScalE2=  1.000000  1.000000
 IRadAn=      5 IRanWt=     -1 IRanGd=            0 ICorTp=0 IEmpDi=  4
 NAtoms=   34 NActive=   34 NUniq=   34 SFac= 1.00D+00 NAtFMM=   60 NAOKFM=F Big=F
 Integral buffers will be    131072 words long.
 Raffenetti 2 integral format.
 Two-electron integral symmetry is turned off.
 Using the following non-standard input for PCM:
 MSTModel=DFT cav MSTcharged
 --- end of non-standard input.
 MST model for solvation energy: B3LYP parametrization.
 MST cavity parameters:
 ISph   IAn     Re0     Alpha   Atom Type   QCorr
 ------------------------------------------------
   1      8     1.40     1.25      O          F
   2     16     1.75     1.25      S          F
   3      7     1.50     1.25      NH         F
   4      6     1.50     1.25      C          F
   5      7     1.50     1.15      NH         T
   6      7     1.40     1.25      N          F
   7      6     1.50     1.25      CH         F
   8      7     1.40     1.25      N          F
   9      6     1.50     1.25      C          F
  10      6     1.50     1.25      CH         F
  11      6     1.50     1.25      CH         F
  12      6     1.50     1.25      CH         F
  13      6     1.50     1.25      CH         F
  14      6     1.50     1.25      CH         F
  15      6     1.50     1.25      C          F
  16      6     1.50     1.25      CH         F
  17      6     1.50     1.25      CH         F
  18      6     1.50     1.25      CH         F
  19      6     1.50     1.25      CH         F
  20      6     1.50     1.25      CH         F
  21      8     1.40     1.25      O          F
  22      1     0.90     1.25      NH         F
  23      1     1.20     1.25      CH         F
  24      1     1.20     1.25      CH         F
  25      1     1.20     1.25      CH         F
  26      1     1.20     1.25      CH         F
  27      1     1.20     1.25      CH         F
  28      1     1.20     1.25      CH         F
  29      1     1.20     1.25      CH         F
  30      1     1.20     1.25      CH         F
  31      1     1.20     1.25      CH         F
  32      1     1.20     1.25      CH         F
  33      1     1.20     1.25      CH         F
  34      1     0.90     1.15      NH         T
 ------------------------------------------------------------------------------
 Polarizable Continuum Model (PCM)
 =================================
 Model                : PCM.
 Atomic radii         : MST.
 Polarization charges : Total charges.
 Charge compensation  : None.
 Solution method      : On-the-fly selection.
 Cavity type          : Scaled VdW (van der Waals Surface) (Alpha=1.250).
 Cavity algorithm     : GePol (No added spheres)
                        Default sphere list used, NSphG=   34.
                        Lebedev-Laikov grids with approx.  5.0 points / Ang**2.
                        Smoothing algorithm: York/Karplus (Gamma=1.0000).
                        Polarization charges: spherical gaussians, with
                                              point-specific exponents (IZeta= 3).
                        Self-potential: point-specific (ISelfS= 7).
                        Self-field    : sphere-specific E.n sum rule (ISelfD= 2).
 1st derivatives      : Analytical E(r).r(x)/FMM algorithm (CHGder, D1EAlg=3).
                        Cavity 1st derivative terms included.
 Solvent              : Water, Eps=  78.355300 Eps(inf)=   1.777849
 ------------------------------------------------------------------------------
 GePol: Number of generator spheres                  =      34
 GePol: Total number of spheres                      =      34
 GePol: Number of exposed spheres                    =      34 (100.00%)
 GePol: Number of points                             =    2698
 GePol: Average weight of points                     =       0.13
 GePol: Minimum weight of points                     =   0.47D-11
 GePol: Maximum weight of points                     =    0.22001
 GePol: Number of points with low weight             =     174
 GePol: Fraction of low-weight points (<1% of avg)   =       6.45%
 GePol: Cavity surface area                          =    341.408 Ang**2
 GePol: Cavity volume                                =    322.270 Ang**3
 PCM non-electrostatic energy =         0.0020102941 Hartrees.
 Nuclear repulsion after PCM non-electrostatic terms =     1753.5282039560 Hartrees.
 Leave Link  301 at Thu Sep 24 14:39:41 2020, MaxMem=  2147483648 cpu:               0.3 elap:               0.1
 (Enter /prod/apps/gaussian/g16b1/l302.exe)
 NPDir=0 NMtPBC=     1 NCelOv=     1 NCel=       1 NClECP=     1 NCelD=      1
         NCelK=      1 NCelE2=     1 NClLst=     1 CellRange=     0.0.
 One-electron integrals computed using PRISM.
 NBasis=   345 RedAO= T EigKep=  4.68D-04  NBF=   345
 NBsUse=   345 1.00D-06 EigRej= -1.00D+00 NBFU=   345
 Precomputing XC quadrature grid using
 IXCGrd= 4 IRadAn=           5 IRanWt=          -1 IRanGd=           0 AccXCQ= 0.00D+00.
 Generated NRdTot=       0 NPtTot=           0 NUsed=           0 NTot=          32
 NSgBfM=   343   343   343   343   343 MxSgAt=    34 MxSgA2=    34.
 Leave Link  302 at Thu Sep 24 14:39:42 2020, MaxMem=  2147483648 cpu:               1.6 elap:               0.4
 (Enter /prod/apps/gaussian/g16b1/l303.exe)
 DipDrv:  MaxL=1.
 Leave Link  303 at Thu Sep 24 14:39:42 2020, MaxMem=  2147483648 cpu:               0.1 elap:               0.1
 (Enter /prod/apps/gaussian/g16b1/l401.exe)
 ExpMin= 1.17D-01 ExpMax= 2.19D+04 ExpMxC= 3.30D+03 IAcc=3 IRadAn=         5 AccDes= 0.00D+00
 Harris functional with IExCor=  402 and IRadAn=       5 diagonalized for initial guess.
 HarFok:  IExCor=  402 AccDes= 0.00D+00 IRadAn=         5 IDoV= 1 UseB2=F ITyADJ=14
 ICtDFT=  3500011 ScaDFX=  1.000000  1.000000  1.000000  1.000000
 FoFCou: FMM=F IPFlag=           0 FMFlag=      100000 FMFlg1=           0
         NFxFlg=           0 DoJE=T BraDBF=F KetDBF=T FulRan=T
         wScrn=  0.000000 ICntrl=       500 IOpCl=  0 I1Cent=   200000004 NGrid=           0
         NMat0=    1 NMatS0=      1 NMatT0=    0 NMatD0=    1 NMtDS0=    0 NMtDT0=    0
 Symmetry not used in FoFCou.
 Harris En= -1308.64408830897    
 JPrj=0 DoOrth=F DoCkMO=F.
 Leave Link  401 at Thu Sep 24 14:39:44 2020, MaxMem=  2147483648 cpu:               8.7 elap:               2.2
 (Enter /prod/apps/gaussian/g16b1/l502.exe)
 Two-electron integral symmetry not used.
 Closed shell SCF:
 Using DIIS extrapolation, IDIIS=  1040.
 NGot=  2147483648 LenX=  2147240583 LenY=  2147121117
 Requested convergence on RMS density matrix=1.00D-08 within2000 cycles.
 Requested convergence on MAX density matrix=1.00D-06.
 Requested convergence on             energy=1.00D-06.
 No special actions if energy rises.

 Cycle   1  Pass 1  IDiag  1:
 FoFJK:  IHMeth= 1 ICntrl=       0 DoSepK=F KAlg= 0 I1Cent=           0 FoldK=F
 IRaf= 750000000 NMat=       1 IRICut=       1 DoRegI=T DoRafI=F ISym2E= 0 IDoP0=0 IntGTp=1.
 FoFCou: FMM=F IPFlag=           0 FMFlag=      100000 FMFlg1=           0
         NFxFlg=           0 DoJE=F BraDBF=F KetDBF=F FulRan=T
         wScrn=  0.000000 ICntrl=         0 IOpCl=  0 I1Cent=           0 NGrid=           0
         NMat0=    1 NMatS0=      1 NMatT0=    0 NMatD0=    1 NMtDS0=    0 NMtDT0=    0
 Symmetry not used in FoFCou.
 Inv3:  Mode=1 IEnd=    21837612.
 Iteration    1 A*A^-1 deviation from unit magnitude is 3.77D-15 for   1109.
 Iteration    1 A*A^-1 deviation from orthogonality  is 2.55D-15 for   2402   2272.
 Iteration    1 A^-1*A deviation from unit magnitude is 3.33D-15 for   1109.
 Iteration    1 A^-1*A deviation from orthogonality  is 2.18D-15 for   2637   1083.
 E= -1308.13287927792    
 DIIS: error= 2.98D-02 at cycle   1 NSaved=   1.
 NSaved= 1 IEnMin= 1 EnMin= -1308.13287927792     IErMin= 1 ErrMin= 2.98D-02
 ErrMax= 2.98D-02  0.00D+00 EMaxC= 1.00D-01 BMatC= 6.42D-01 BMatP= 6.42D-01
 IDIUse=3 WtCom= 7.02D-01 WtEn= 2.98D-01
 Coeff-Com:  0.100D+01
 Coeff-En:   0.100D+01
 Coeff:      0.100D+01
 Gap=     0.322 Goal=   None    Shift=    0.000
 GapD=    0.322 DampG=1.000 DampE=0.500 DampFc=0.5000 IDamp=-1.
 Damping current iteration by 5.00D-01
 RMSDP=5.89D-03 MaxDP=5.69D-01              OVMax= 2.83D-01

 Cycle   2  Pass 1  IDiag  1:
 E= -1308.27623762462     Delta-E=       -0.143358346698 Rises=F Damp=T
 DIIS: error= 1.13D-02 at cycle   2 NSaved=   2.
 NSaved= 2 IEnMin= 2 EnMin= -1308.27623762462     IErMin= 2 ErrMin= 1.13D-02
 ErrMax= 1.13D-02  0.00D+00 EMaxC= 1.00D-01 BMatC= 1.00D-01 BMatP= 6.42D-01
 IDIUse=3 WtCom= 8.87D-01 WtEn= 1.13D-01
 Coeff-Com:  0.226D+00 0.774D+00
 Coeff-En:   0.365D+00 0.635D+00
 Coeff:      0.242D+00 0.758D+00
 Gap=     0.176 Goal=   None    Shift=    0.000
 RMSDP=1.70D-03 MaxDP=1.27D-01 DE=-1.43D-01 OVMax= 2.09D-01

 Cycle   3  Pass 1  IDiag  1:
 E= -1308.66803357067     Delta-E=       -0.391795946054 Rises=F Damp=F
 DIIS: error= 7.23D-03 at cycle   3 NSaved=   3.
 NSaved= 3 IEnMin= 3 EnMin= -1308.66803357067     IErMin= 3 ErrMin= 7.23D-03
 ErrMax= 7.23D-03  0.00D+00 EMaxC= 1.00D-01 BMatC= 4.41D-02 BMatP= 1.00D-01
 IDIUse=3 WtCom= 9.28D-01 WtEn= 7.23D-02
 Coeff-Com:  0.593D-01 0.399D+00 0.542D+00
 Coeff-En:   0.000D+00 0.000D+00 0.100D+01
 Coeff:      0.550D-01 0.370D+00 0.575D+00
 Gap=     0.192 Goal=   None    Shift=    0.000
 RMSDP=8.39D-04 MaxDP=3.19D-02 DE=-3.92D-01 OVMax= 4.84D-02

 Cycle   4  Pass 1  IDiag  1:
 E= -1308.70093268275     Delta-E=       -0.032899112084 Rises=F Damp=F
 DIIS: error= 2.49D-03 at cycle   4 NSaved=   4.
 NSaved= 4 IEnMin= 4 EnMin= -1308.70093268275     IErMin= 4 ErrMin= 2.49D-03
 ErrMax= 2.49D-03  0.00D+00 EMaxC= 1.00D-01 BMatC= 7.78D-03 BMatP= 4.41D-02
 IDIUse=3 WtCom= 9.75D-01 WtEn= 2.49D-02
 Coeff-Com: -0.216D-03 0.914D-01 0.318D+00 0.591D+00
 Coeff-En:   0.000D+00 0.000D+00 0.139D+00 0.861D+00
 Coeff:     -0.211D-03 0.891D-01 0.313D+00 0.598D+00
 Gap=     0.179 Goal=   None    Shift=    0.000
 RMSDP=2.87D-04 MaxDP=1.45D-02 DE=-3.29D-02 OVMax= 1.56D-02

 Cycle   5  Pass 1  IDiag  1:
 E= -1308.70722394688     Delta-E=       -0.006291264124 Rises=F Damp=F
 DIIS: error= 6.68D-04 at cycle   5 NSaved=   5.
 NSaved= 5 IEnMin= 5 EnMin= -1308.70722394688     IErMin= 5 ErrMin= 6.68D-04
 ErrMax= 6.68D-04  0.00D+00 EMaxC= 1.00D-01 BMatC= 6.00D-04 BMatP= 7.78D-03
 IDIUse=3 WtCom= 9.93D-01 WtEn= 6.68D-03
 Coeff-Com: -0.508D-02 0.189D-01 0.121D+00 0.314D+00 0.552D+00
 Coeff-En:   0.000D+00 0.000D+00 0.000D+00 0.000D+00 0.100D+01
 Coeff:     -0.504D-02 0.187D-01 0.120D+00 0.312D+00 0.555D+00
 Gap=     0.181 Goal=   None    Shift=    0.000
 RMSDP=8.60D-05 MaxDP=4.08D-03 DE=-6.29D-03 OVMax= 6.46D-03

 Cycle   6  Pass 1  IDiag  1:
 E= -1308.70772484451     Delta-E=       -0.000500897635 Rises=F Damp=F
 DIIS: error= 3.84D-04 at cycle   6 NSaved=   6.
 NSaved= 6 IEnMin= 6 EnMin= -1308.70772484451     IErMin= 6 ErrMin= 3.84D-04
 ErrMax= 3.84D-04  0.00D+00 EMaxC= 1.00D-01 BMatC= 6.62D-05 BMatP= 6.00D-04
 IDIUse=3 WtCom= 9.96D-01 WtEn= 3.84D-03
 Coeff-Com: -0.284D-02 0.443D-02 0.424D-01 0.125D+00 0.315D+00 0.516D+00
 Coeff-En:   0.000D+00 0.000D+00 0.000D+00 0.000D+00 0.479D-01 0.952D+00
 Coeff:     -0.283D-02 0.441D-02 0.422D-01 0.124D+00 0.314D+00 0.518D+00
 Gap=     0.181 Goal=   None    Shift=    0.000
 RMSDP=2.77D-05 MaxDP=1.53D-03 DE=-5.01D-04 OVMax= 2.42D-03

 Cycle   7  Pass 1  IDiag  1:
 E= -1308.70778581693     Delta-E=       -0.000060972412 Rises=F Damp=F
 DIIS: error= 1.22D-04 at cycle   7 NSaved=   7.
 NSaved= 7 IEnMin= 7 EnMin= -1308.70778581693     IErMin= 7 ErrMin= 1.22D-04
 ErrMax= 1.22D-04  0.00D+00 EMaxC= 1.00D-01 BMatC= 5.56D-06 BMatP= 6.62D-05
 IDIUse=3 WtCom= 9.99D-01 WtEn= 1.22D-03
 Coeff-Com: -0.126D-02 0.838D-03 0.135D-01 0.438D-01 0.132D+00 0.292D+00
 Coeff-Com:  0.519D+00
 Coeff-En:   0.000D+00 0.000D+00 0.000D+00 0.000D+00 0.000D+00 0.000D+00
 Coeff-En:   0.100D+01
 Coeff:     -0.126D-02 0.837D-03 0.135D-01 0.438D-01 0.132D+00 0.292D+00
 Coeff:      0.519D+00
 Gap=     0.181 Goal=   None    Shift=    0.000
 RMSDP=7.23D-06 MaxDP=4.84D-04 DE=-6.10D-05 OVMax= 5.33D-04

 Cycle   8  Pass 1  IDiag  1:
 E= -1308.70779031367     Delta-E=       -0.000004496740 Rises=F Damp=F
 DIIS: error= 3.54D-05 at cycle   8 NSaved=   8.
 NSaved= 8 IEnMin= 8 EnMin= -1308.70779031367     IErMin= 8 ErrMin= 3.54D-05
 ErrMax= 3.54D-05  0.00D+00 EMaxC= 1.00D-01 BMatC= 5.33D-07 BMatP= 5.56D-06
 IDIUse=1 WtCom= 1.00D+00 WtEn= 0.00D+00
 Coeff-Com: -0.322D-03-0.135D-03 0.158D-02 0.701D-02 0.300D-01 0.916D-01
 Coeff-Com:  0.280D+00 0.590D+00
 Coeff:     -0.322D-03-0.135D-03 0.158D-02 0.701D-02 0.300D-01 0.916D-01
 Coeff:      0.280D+00 0.590D+00
 Gap=     0.181 Goal=   None    Shift=    0.000
 RMSDP=2.27D-06 MaxDP=1.49D-04 DE=-4.50D-06 OVMax= 1.33D-04

 Cycle   9  Pass 1  IDiag  1:
 E= -1308.70779073988     Delta-E=       -0.000000426210 Rises=F Damp=F
 DIIS: error= 7.26D-06 at cycle   9 NSaved=   9.
 NSaved= 9 IEnMin= 9 EnMin= -1308.70779073988     IErMin= 9 ErrMin= 7.26D-06
 ErrMax= 7.26D-06  0.00D+00 EMaxC= 1.00D-01 BMatC= 3.94D-08 BMatP= 5.33D-07
 IDIUse=1 WtCom= 1.00D+00 WtEn= 0.00D+00
 Coeff-Com: -0.869D-05-0.135D-03-0.772D-03-0.171D-02-0.103D-02 0.951D-02
 Coeff-Com:  0.704D-01 0.275D+00 0.649D+00
 Coeff:     -0.869D-05-0.135D-03-0.772D-03-0.171D-02-0.103D-02 0.951D-02
 Coeff:      0.704D-01 0.275D+00 0.649D+00
 Gap=     0.181 Goal=   None    Shift=    0.000
 RMSDP=6.38D-07 MaxDP=3.64D-05 DE=-4.26D-07 OVMax= 4.51D-05

 Cycle  10  Pass 1  IDiag  1:
 E= -1308.70779077140     Delta-E=       -0.000000031524 Rises=F Damp=F
 DIIS: error= 2.79D-06 at cycle  10 NSaved=  10.
 NSaved=10 IEnMin=10 EnMin= -1308.70779077140     IErMin=10 ErrMin= 2.79D-06
 ErrMax= 2.79D-06  0.00D+00 EMaxC= 1.00D-01 BMatC= 3.86D-09 BMatP= 3.94D-08
 IDIUse=1 WtCom= 1.00D+00 WtEn= 0.00D+00
 Coeff-Com:  0.950D-05-0.609D-04-0.471D-03-0.122D-02-0.205D-02 0.562D-03
 Coeff-Com:  0.227D-01 0.115D+00 0.338D+00 0.527D+00
 Coeff:      0.950D-05-0.609D-04-0.471D-03-0.122D-02-0.205D-02 0.562D-03
 Coeff:      0.227D-01 0.115D+00 0.338D+00 0.527D+00
 Gap=     0.181 Goal=   None    Shift=    0.000
 RMSDP=2.17D-07 MaxDP=8.46D-06 DE=-3.15D-08 OVMax= 1.90D-05

 Cycle  11  Pass 1  IDiag  1:
 E= -1308.70779077457     Delta-E=       -0.000000003168 Rises=F Damp=F
 DIIS: error= 7.06D-07 at cycle  11 NSaved=  11.
 NSaved=11 IEnMin=11 EnMin= -1308.70779077457     IErMin=11 ErrMin= 7.06D-07
 ErrMax= 7.06D-07  0.00D+00 EMaxC= 1.00D-01 BMatC= 4.74D-10 BMatP= 3.86D-09
 IDIUse=1 WtCom= 1.00D+00 WtEn= 0.00D+00
 Coeff-Com:  0.608D-05-0.947D-05-0.132D-03-0.380D-03-0.948D-03-0.107D-02
 Coeff-Com:  0.138D-02 0.195D-01 0.759D-01 0.280D+00 0.626D+00
 Coeff:      0.608D-05-0.947D-05-0.132D-03-0.380D-03-0.948D-03-0.107D-02
 Coeff:      0.138D-02 0.195D-01 0.759D-01 0.280D+00 0.626D+00
 Gap=     0.181 Goal=   None    Shift=    0.000
 RMSDP=7.89D-08 MaxDP=3.95D-06 DE=-3.17D-09 OVMax= 9.05D-06

 Cycle  12  Pass 1  IDiag  1:
 E= -1308.70779077491     Delta-E=       -0.000000000338 Rises=F Damp=F
 DIIS: error= 3.70D-07 at cycle  12 NSaved=  12.
 NSaved=12 IEnMin=12 EnMin= -1308.70779077491     IErMin=12 ErrMin= 3.70D-07
 ErrMax= 3.70D-07  0.00D+00 EMaxC= 1.00D-01 BMatC= 1.18D-10 BMatP= 4.74D-10
 IDIUse=1 WtCom= 1.00D+00 WtEn= 0.00D+00
 Coeff-Com:  0.325D-05 0.191D-06-0.358D-04-0.115D-03-0.417D-03-0.863D-03
 Coeff-Com: -0.205D-02-0.142D-02 0.826D-02 0.125D+00 0.413D+00 0.459D+00
 Coeff:      0.325D-05 0.191D-06-0.358D-04-0.115D-03-0.417D-03-0.863D-03
 Coeff:     -0.205D-02-0.142D-02 0.826D-02 0.125D+00 0.413D+00 0.459D+00
 Gap=     0.181 Goal=   None    Shift=    0.000
 RMSDP=2.82D-08 MaxDP=1.95D-06 DE=-3.38D-10 OVMax= 2.22D-06

 Cycle  13  Pass 1  IDiag  1:
 E= -1308.70779077500     Delta-E=       -0.000000000098 Rises=F Damp=F
 DIIS: error= 6.06D-08 at cycle  13 NSaved=  13.
 NSaved=13 IEnMin=13 EnMin= -1308.70779077500     IErMin=13 ErrMin= 6.06D-08
 ErrMax= 6.06D-08  0.00D+00 EMaxC= 1.00D-01 BMatC= 1.69D-12 BMatP= 1.18D-10
 IDIUse=1 WtCom= 1.00D+00 WtEn= 0.00D+00
 Coeff-Com:  0.559D-06 0.772D-06 0.180D-07-0.287D-05-0.512D-04-0.196D-03
 Coeff-Com: -0.776D-03-0.219D-02-0.508D-02 0.148D-01 0.768D-01 0.139D+00
 Coeff-Com:  0.778D+00
 Coeff:      0.559D-06 0.772D-06 0.180D-07-0.287D-05-0.512D-04-0.196D-03
 Coeff:     -0.776D-03-0.219D-02-0.508D-02 0.148D-01 0.768D-01 0.139D+00
 Coeff:      0.778D+00
 Gap=     0.181 Goal=   None    Shift=    0.000
 RMSDP=6.27D-09 MaxDP=2.95D-07 DE=-9.78D-11 OVMax= 6.26D-07

 Error on total polarization charges =  0.02147
 SCF Done:  E(RB3LYP) =  -1308.70779078     A.U. after   13 cycles
            NFock= 13  Conv=0.63D-08     -V/T= 2.0079
 KE= 1.298460142743D+03 PE=-6.545676762723D+03 EE= 2.184980625249D+03
 Leave Link  502 at Thu Sep 24 14:40:59 2020, MaxMem=  2147483648 cpu:             299.3 elap:              74.9
 (Enter /prod/apps/gaussian/g16b1/l601.exe)
 Copying SCF densities to generalized density rwf, IOpCl= 0 IROHF=0.

 **********************************************************************

            Population analysis using the SCF Density.

 **********************************************************************

 Alpha  occ. eigenvalues --  -89.13760 -19.16976 -19.16792 -14.50133 -14.48451
 Alpha  occ. eigenvalues --  -14.46322 -14.40421 -10.32111 -10.28431 -10.26798
 Alpha  occ. eigenvalues --  -10.23945 -10.22031 -10.21878 -10.21810 -10.21736
 Alpha  occ. eigenvalues --  -10.21058 -10.21049 -10.21002 -10.20929 -10.20888
 Alpha  occ. eigenvalues --  -10.20825  -8.16322  -6.12850  -6.12740  -6.12576
 Alpha  occ. eigenvalues --   -1.17906  -1.13439  -1.02400  -1.01497  -0.96684
 Alpha  occ. eigenvalues --   -0.88154  -0.88111  -0.85658  -0.80215  -0.78764
 Alpha  occ. eigenvalues --   -0.77076  -0.76814  -0.72222  -0.71303  -0.68127
 Alpha  occ. eigenvalues --   -0.64151  -0.63016  -0.62753  -0.61802  -0.60151
 Alpha  occ. eigenvalues --   -0.56724  -0.56103  -0.54854  -0.53640  -0.52811
 Alpha  occ. eigenvalues --   -0.51138  -0.50620  -0.49532  -0.48186  -0.46992
 Alpha  occ. eigenvalues --   -0.46201  -0.45744  -0.45520  -0.44321  -0.44256
 Alpha  occ. eigenvalues --   -0.42004  -0.39670  -0.39199  -0.38383  -0.38115
 Alpha  occ. eigenvalues --   -0.37369  -0.37000  -0.36571  -0.36383  -0.35517
 Alpha  occ. eigenvalues --   -0.33960  -0.33408  -0.32161  -0.29571  -0.27477
 Alpha  occ. eigenvalues --   -0.27341  -0.27197  -0.26889
 Alpha virt. eigenvalues --   -0.08817  -0.04724  -0.03350  -0.02192  -0.02055
 Alpha virt. eigenvalues --   -0.00087   0.05124   0.07346   0.07837   0.07971
 Alpha virt. eigenvalues --    0.08493   0.09123   0.10360   0.11800   0.12353
 Alpha virt. eigenvalues --    0.13827   0.14111   0.14311   0.15076   0.15493
 Alpha virt. eigenvalues --    0.15494   0.16251   0.16518   0.18334   0.18566
 Alpha virt. eigenvalues --    0.18751   0.19441   0.20815   0.21864   0.26231
 Alpha virt. eigenvalues --    0.27575   0.28208   0.28687   0.29123   0.29319
 Alpha virt. eigenvalues --    0.30486   0.31519   0.32993   0.33599   0.34251
 Alpha virt. eigenvalues --    0.35219   0.39107   0.40184   0.42130   0.45111
 Alpha virt. eigenvalues --    0.47013   0.48322   0.49668   0.50731   0.51174
 Alpha virt. eigenvalues --    0.51707   0.52293   0.52842   0.54340   0.54886
 Alpha virt. eigenvalues --    0.55311   0.55982   0.56305   0.56834   0.56984
 Alpha virt. eigenvalues --    0.57133   0.57582   0.57750   0.58017   0.59337
 Alpha virt. eigenvalues --    0.59600   0.59692   0.59947   0.60071   0.60235
 Alpha virt. eigenvalues --    0.61285   0.62052   0.62221   0.63528   0.64102
 Alpha virt. eigenvalues --    0.66663   0.67476   0.69771   0.70536   0.72514
 Alpha virt. eigenvalues --    0.73281   0.74705   0.75695   0.76695   0.77413
 Alpha virt. eigenvalues --    0.77663   0.79851   0.80072   0.81265   0.81754
 Alpha virt. eigenvalues --    0.82515   0.82856   0.83376   0.83458   0.84201
 Alpha virt. eigenvalues --    0.84446   0.84749   0.86466   0.87210   0.88777
 Alpha virt. eigenvalues --    0.89252   0.90433   0.90691   0.91406   0.92410
 Alpha virt. eigenvalues --    0.93140   0.93673   0.94185   0.96460   0.97473
 Alpha virt. eigenvalues --    0.98332   0.99445   1.01246   1.01460   1.03818
 Alpha virt. eigenvalues --    1.04099   1.06007   1.08056   1.08968   1.10317
 Alpha virt. eigenvalues --    1.11643   1.12333   1.13084   1.14012   1.15128
 Alpha virt. eigenvalues --    1.15417   1.15977   1.17408   1.18275   1.22740
 Alpha virt. eigenvalues --    1.22949   1.23870   1.24064   1.26647   1.27726
 Alpha virt. eigenvalues --    1.29008   1.30886   1.32921   1.35616   1.37788
 Alpha virt. eigenvalues --    1.38994   1.40789   1.41323   1.42078   1.42706
 Alpha virt. eigenvalues --    1.43487   1.44599   1.45294   1.45918   1.46937
 Alpha virt. eigenvalues --    1.47184   1.48502   1.48817   1.49663   1.53877
 Alpha virt. eigenvalues --    1.54820   1.59127   1.62281   1.64801   1.69533
 Alpha virt. eigenvalues --    1.70381   1.73768   1.75408   1.76747   1.78027
 Alpha virt. eigenvalues --    1.78184   1.78664   1.80470   1.81501   1.82564
 Alpha virt. eigenvalues --    1.83924   1.84706   1.85601   1.86642   1.86770
 Alpha virt. eigenvalues --    1.88368   1.91773   1.93156   1.93771   1.95323
 Alpha virt. eigenvalues --    1.96204   1.97415   1.98128   2.01902   2.03070
 Alpha virt. eigenvalues --    2.05318   2.05745   2.06211   2.07571   2.08996
 Alpha virt. eigenvalues --    2.09858   2.11408   2.12229   2.12575   2.13100
 Alpha virt. eigenvalues --    2.13248   2.13790   2.15004   2.15626   2.16428
 Alpha virt. eigenvalues --    2.17696   2.20736   2.22675   2.24655   2.26732
 Alpha virt. eigenvalues --    2.27749   2.28133   2.28379   2.28604   2.29645
 Alpha virt. eigenvalues --    2.31496   2.32460   2.36617   2.44435   2.49161
 Alpha virt. eigenvalues --    2.50325   2.52820   2.53701   2.56376   2.56668
 Alpha virt. eigenvalues --    2.57179   2.59512   2.62318   2.62902   2.64601
 Alpha virt. eigenvalues --    2.65150   2.67151   2.69502   2.70226   2.70704
 Alpha virt. eigenvalues --    2.71676   2.72081   2.72916   2.74474   2.76602
 Alpha virt. eigenvalues --    2.78671   2.81287   2.82911   2.85057   2.94099
 Alpha virt. eigenvalues --    3.01951   3.05770   3.10070   3.22402   3.36699
 Alpha virt. eigenvalues --    3.40733   3.57424   3.76592   3.90576   3.93550
 Alpha virt. eigenvalues --    4.01421   4.04588   4.06648   4.07621   4.09423
 Alpha virt. eigenvalues --    4.09832   4.11481   4.14562   4.15816   4.21511
 Alpha virt. eigenvalues --    4.30691   4.31442   4.34822   4.38038   4.45000
 Alpha virt. eigenvalues --    4.64952   4.69481
          Condensed to atoms (all electrons):
               1          2          3          4          5          6
     1  O    8.255396   0.426541  -0.055773   0.011021  -0.000151  -0.000034
     2  S    0.426541  13.667953   0.105647  -0.009786  -0.004272   0.000352
     3  N   -0.055773   0.105647   7.377182   0.285369  -0.068652   0.005645
     4  C    0.011021  -0.009786   0.285369   4.580048   0.294803  -0.070208
     5  N   -0.000151  -0.004272  -0.068652   0.294803   6.679308   0.244572
     6  N   -0.000034   0.000352   0.005645  -0.070208   0.244572   6.685390
     7  C   -0.000749  -0.004707  -0.054320   0.512823  -0.049271  -0.090639
     8  N   -0.000024  -0.000072   0.002993  -0.013261  -0.071028   0.275167
     9  C   -0.000000  -0.000015  -0.000094   0.003032   0.005879  -0.049314
    10  C    0.000000   0.000000   0.000000  -0.000646   0.000412  -0.001190
    11  C   -0.000000  -0.000000  -0.000000   0.000007  -0.000005   0.000217
    12  C    0.000000   0.000000  -0.000000   0.000000  -0.000000   0.000015
    13  C   -0.000000  -0.000000  -0.000000  -0.000011   0.000002  -0.000059
    14  C   -0.000000  -0.000001   0.000004   0.001242  -0.000301   0.003018
    15  C   -0.058766   0.212877  -0.055569  -0.007915   0.000001   0.000006
    16  C    0.001681  -0.020236   0.001152   0.000104  -0.000001  -0.000000
    17  C   -0.000046   0.002230  -0.000048  -0.000017  -0.000000   0.000000
    18  C   -0.000004  -0.000275   0.000011   0.000005   0.000000  -0.000000
    19  C    0.000595   0.003644  -0.000112   0.000036   0.000000   0.000000
    20  C    0.002311  -0.031267  -0.000369   0.000083   0.000007   0.000001
    21  O   -0.042633   0.448786  -0.048819   0.001216   0.000019   0.000000
    22  H   -0.000327  -0.008638   0.297967  -0.024347  -0.001915   0.000046
    23  H   -0.000003   0.000249  -0.000771  -0.024716   0.002826   0.002990
    24  H   -0.000000  -0.000000  -0.000000   0.000011  -0.000292   0.011433
    25  H   -0.000000   0.000000   0.000000  -0.000000   0.000000  -0.000007
    26  H    0.000000  -0.000000  -0.000000  -0.000000   0.000000   0.000000
    27  H   -0.000000   0.000000   0.000000   0.000000  -0.000000   0.000001
    28  H   -0.000000  -0.000001  -0.000001   0.000073  -0.000007  -0.000079
    29  H    0.000059  -0.000344   0.001641   0.000102   0.000001  -0.000000
    30  H    0.000000  -0.000074   0.000000   0.000000  -0.000000  -0.000000
    31  H   -0.000000   0.000008   0.000000   0.000000   0.000000  -0.000000
    32  H    0.000002  -0.000089   0.000001   0.000000   0.000000  -0.000000
    33  H    0.011012  -0.006520   0.000206  -0.000003  -0.000004   0.000001
    34  H    0.000161   0.000213   0.000607  -0.022602   0.312629  -0.023768
               7          8          9         10         11         12
     1  O   -0.000749  -0.000024  -0.000000   0.000000  -0.000000   0.000000
     2  S   -0.004707  -0.000072  -0.000015   0.000000  -0.000000   0.000000
     3  N   -0.054320   0.002993  -0.000094   0.000000  -0.000000  -0.000000
     4  C    0.512823  -0.013261   0.003032  -0.000646   0.000007   0.000000
     5  N   -0.049271  -0.071028   0.005879   0.000412  -0.000005  -0.000000
     6  N   -0.090639   0.275167  -0.049314  -0.001190   0.000217   0.000015
     7  C    4.918836   0.309631  -0.036753   0.006748  -0.000075   0.000018
     8  N    0.309631   6.779057   0.205547  -0.053571   0.004450   0.000301
     9  C   -0.036753   0.205547   4.624610   0.516148  -0.011084  -0.037095
    10  C    0.006748  -0.053571   0.516148   4.964518   0.525423  -0.038850
    11  C   -0.000075   0.004450  -0.011084   0.525423   4.865658   0.537346
    12  C    0.000018   0.000301  -0.037095  -0.038850   0.537346   4.857762
    13  C   -0.000013   0.004472  -0.010420  -0.041078  -0.024340   0.540908
    14  C   -0.004705  -0.048717   0.529878  -0.068432  -0.041638  -0.039982
    15  C    0.003391   0.000012  -0.000001  -0.000000   0.000000  -0.000000
    16  C    0.000170   0.000002   0.000000   0.000000  -0.000000  -0.000000
    17  C   -0.000011  -0.000000   0.000000   0.000000  -0.000000   0.000000
    18  C   -0.000019  -0.000000   0.000000  -0.000000   0.000000   0.000000
    19  C   -0.000093  -0.000001  -0.000000   0.000000   0.000000  -0.000000
    20  C    0.000319  -0.000014  -0.000001   0.000000   0.000000  -0.000000
    21  O   -0.000048   0.000000  -0.000000   0.000000  -0.000000   0.000000
    22  H    0.001875  -0.000020   0.000002  -0.000000   0.000000   0.000000
    23  H    0.365047  -0.030463  -0.002345  -0.000044  -0.000004  -0.000001
    24  H    0.000157  -0.012252  -0.039618   0.358985  -0.034914   0.004326
    25  H    0.000001  -0.000104   0.003466  -0.036981   0.365200  -0.038842
    26  H   -0.000000   0.000004   0.000499   0.004623  -0.040355   0.366525
    27  H   -0.000003  -0.000107   0.003384   0.000745   0.004306  -0.038481
    28  H    0.005263  -0.008924  -0.040134   0.004754   0.000210   0.004172
    29  H   -0.000008   0.000000   0.000000   0.000000  -0.000000  -0.000000
    30  H   -0.000000  -0.000000   0.000000   0.000000   0.000000  -0.000000
    31  H    0.000000  -0.000000   0.000000  -0.000000   0.000000   0.000000
    32  H   -0.000002   0.000000   0.000000   0.000000   0.000000  -0.000000
    33  H   -0.000039  -0.000001  -0.000000  -0.000000   0.000000   0.000000
    34  H    0.004058   0.003251  -0.000029  -0.000002  -0.000000  -0.000000
              13         14         15         16         17         18
     1  O   -0.000000  -0.000000  -0.058766   0.001681  -0.000046  -0.000004
     2  S   -0.000000  -0.000001   0.212877  -0.020236   0.002230  -0.000275
     3  N   -0.000000   0.000004  -0.055569   0.001152  -0.000048   0.000011
     4  C   -0.000011   0.001242  -0.007915   0.000104  -0.000017   0.000005
     5  N    0.000002  -0.000301   0.000001  -0.000001  -0.000000   0.000000
     6  N   -0.000059   0.003018   0.000006  -0.000000   0.000000  -0.000000
     7  C   -0.000013  -0.004705   0.003391   0.000170  -0.000011  -0.000019
     8  N    0.004472  -0.048717   0.000012   0.000002  -0.000000  -0.000000
     9  C   -0.010420   0.529878  -0.000001   0.000000   0.000000   0.000000
    10  C   -0.041078  -0.068432  -0.000000   0.000000   0.000000  -0.000000
    11  C   -0.024340  -0.041638   0.000000  -0.000000  -0.000000   0.000000
    12  C    0.540908  -0.039982  -0.000000  -0.000000   0.000000   0.000000
    13  C    4.853997   0.531111   0.000000   0.000000   0.000000  -0.000000
    14  C    0.531111   4.962455   0.000001   0.000000   0.000000  -0.000000
    15  C    0.000000   0.000001   5.323159   0.463624  -0.027866  -0.038548
    16  C    0.000000   0.000000   0.463624   4.929525   0.521449  -0.031558
    17  C    0.000000   0.000000  -0.027866   0.521449   4.876633   0.535167
    18  C   -0.000000  -0.000000  -0.038548  -0.031558   0.535167   4.855180
    19  C   -0.000000   0.000000  -0.031435  -0.037663  -0.030145   0.540117
    20  C    0.000000   0.000000   0.510539  -0.032711  -0.038647  -0.031468
    21  O   -0.000000  -0.000000  -0.060358   0.002231   0.000250  -0.000004
    22  H   -0.000000   0.000000   0.002184  -0.000058   0.000002  -0.000000
    23  H    0.000127   0.002383   0.000628   0.000113   0.000039   0.000035
    24  H    0.000112   0.005068  -0.000000  -0.000000  -0.000000  -0.000000
    25  H    0.004343   0.000703   0.000000   0.000000  -0.000000  -0.000000
    26  H   -0.040331   0.004828  -0.000000  -0.000000  -0.000000   0.000000
    27  H    0.365052  -0.036757   0.000000   0.000000   0.000000   0.000000
    28  H   -0.031916   0.355643  -0.000000  -0.000000  -0.000000  -0.000000
    29  H   -0.000000  -0.000000  -0.052242   0.366331  -0.032649   0.004181
    30  H    0.000000  -0.000000   0.004791  -0.040410   0.367238  -0.039591
    31  H   -0.000000  -0.000000   0.000463   0.004854  -0.040688   0.365774
    32  H   -0.000000  -0.000000   0.004774   0.000637   0.004216  -0.040052
    33  H    0.000000  -0.000000  -0.045764   0.004595   0.000226   0.004194
    34  H   -0.000000   0.000002   0.000005  -0.000000   0.000000   0.000000
              19         20         21         22         23         24
     1  O    0.000595   0.002311  -0.042633  -0.000327  -0.000003  -0.000000
     2  S    0.003644  -0.031267   0.448786  -0.008638   0.000249  -0.000000
     3  N   -0.000112  -0.000369  -0.048819   0.297967  -0.000771  -0.000000
     4  C    0.000036   0.000083   0.001216  -0.024347  -0.024716   0.000011
     5  N    0.000000   0.000007   0.000019  -0.001915   0.002826  -0.000292
     6  N    0.000000   0.000001   0.000000   0.000046   0.002990   0.011433
     7  C   -0.000093   0.000319  -0.000048   0.001875   0.365047   0.000157
     8  N   -0.000001  -0.000014   0.000000  -0.000020  -0.030463  -0.012252
     9  C   -0.000000  -0.000001  -0.000000   0.000002  -0.002345  -0.039618
    10  C    0.000000   0.000000   0.000000  -0.000000  -0.000044   0.358985
    11  C    0.000000   0.000000  -0.000000   0.000000  -0.000004  -0.034914
    12  C   -0.000000  -0.000000   0.000000   0.000000  -0.000001   0.004326
    13  C   -0.000000   0.000000  -0.000000  -0.000000   0.000127   0.000112
    14  C    0.000000   0.000000  -0.000000   0.000000   0.002383   0.005068
    15  C   -0.031435   0.510539  -0.060358   0.002184   0.000628  -0.000000
    16  C   -0.037663  -0.032711   0.002231  -0.000058   0.000113  -0.000000
    17  C   -0.030145  -0.038647   0.000250   0.000002   0.000039  -0.000000
    18  C    0.540117  -0.031468  -0.000004  -0.000000   0.000035  -0.000000
    19  C    4.886383   0.506858  -0.000042   0.000001   0.000105  -0.000000
    20  C    0.506858   4.917926   0.000098  -0.000029   0.000748  -0.000000
    21  O   -0.000042   0.000098   8.260340   0.004023   0.000000  -0.000000
    22  H    0.000001  -0.000029   0.004023   0.287638  -0.000019  -0.000000
    23  H    0.000105   0.000748   0.000000  -0.000019   0.410598  -0.000008
    24  H   -0.000000  -0.000000  -0.000000  -0.000000  -0.000008   0.523089
    25  H    0.000000   0.000000   0.000000  -0.000000   0.000000  -0.004947
    26  H   -0.000000  -0.000000  -0.000000  -0.000000  -0.000000  -0.000129
    27  H    0.000000   0.000000   0.000000   0.000000  -0.000001   0.000012
    28  H   -0.000000  -0.000001  -0.000000  -0.000000   0.001354  -0.000126
    29  H    0.000328   0.004082   0.003089  -0.000117   0.000005   0.000000
    30  H    0.004226   0.000603   0.000001  -0.000000   0.000000   0.000000
    31  H   -0.040647   0.004774  -0.000000   0.000000  -0.000000  -0.000000
    32  H    0.367857  -0.041015   0.000000  -0.000000   0.000002   0.000000
    33  H   -0.033586   0.362907   0.000049  -0.000004   0.000000   0.000000
    34  H   -0.000000  -0.000000  -0.000025   0.001201  -0.000035  -0.000003
              25         26         27         28         29         30
     1  O   -0.000000   0.000000  -0.000000  -0.000000   0.000059   0.000000
     2  S    0.000000  -0.000000   0.000000  -0.000001  -0.000344  -0.000074
     3  N    0.000000  -0.000000   0.000000  -0.000001   0.001641   0.000000
     4  C   -0.000000  -0.000000   0.000000   0.000073   0.000102   0.000000
     5  N    0.000000   0.000000  -0.000000  -0.000007   0.000001  -0.000000
     6  N   -0.000007   0.000000   0.000001  -0.000079  -0.000000  -0.000000
     7  C    0.000001  -0.000000  -0.000003   0.005263  -0.000008  -0.000000
     8  N   -0.000104   0.000004  -0.000107  -0.008924   0.000000  -0.000000
     9  C    0.003466   0.000499   0.003384  -0.040134   0.000000   0.000000
    10  C   -0.036981   0.004623   0.000745   0.004754   0.000000   0.000000
    11  C    0.365200  -0.040355   0.004306   0.000210  -0.000000   0.000000
    12  C   -0.038842   0.366525  -0.038481   0.004172  -0.000000  -0.000000
    13  C    0.004343  -0.040331   0.365052  -0.031916  -0.000000   0.000000
    14  C    0.000703   0.004828  -0.036757   0.355643  -0.000000  -0.000000
    15  C    0.000000  -0.000000   0.000000  -0.000000  -0.052242   0.004791
    16  C    0.000000  -0.000000   0.000000  -0.000000   0.366331  -0.040410
    17  C   -0.000000  -0.000000   0.000000  -0.000000  -0.032649   0.367238
    18  C   -0.000000   0.000000   0.000000  -0.000000   0.004181  -0.039591
    19  C    0.000000  -0.000000   0.000000  -0.000000   0.000328   0.004226
    20  C    0.000000  -0.000000   0.000000  -0.000001   0.004082   0.000603
    21  O    0.000000  -0.000000   0.000000  -0.000000   0.003089   0.000001
    22  H   -0.000000  -0.000000   0.000000  -0.000000  -0.000117  -0.000000
    23  H    0.000000  -0.000000  -0.000001   0.001354   0.000005   0.000000
    24  H   -0.004947  -0.000129   0.000012  -0.000126   0.000000   0.000000
    25  H    0.538312  -0.004906  -0.000158   0.000013   0.000000  -0.000000
    26  H   -0.004906   0.543107  -0.004908  -0.000137   0.000000   0.000000
    27  H   -0.000158  -0.004908   0.537083  -0.004961   0.000000  -0.000000
    28  H    0.000013  -0.000137  -0.004961   0.525535  -0.000000   0.000000
    29  H    0.000000   0.000000   0.000000  -0.000000   0.523162  -0.005221
    30  H   -0.000000   0.000000  -0.000000   0.000000  -0.005221   0.540574
    31  H   -0.000000   0.000000   0.000000  -0.000000  -0.000141  -0.005022
    32  H    0.000000   0.000000   0.000000   0.000000   0.000014  -0.000154
    33  H   -0.000000   0.000000  -0.000000   0.000000  -0.000138   0.000013
    34  H    0.000000  -0.000000   0.000000   0.000000  -0.000000   0.000000
              31         32         33         34
     1  O   -0.000000   0.000002   0.011012   0.000161
     2  S    0.000008  -0.000089  -0.006520   0.000213
     3  N    0.000000   0.000001   0.000206   0.000607
     4  C    0.000000   0.000000  -0.000003  -0.022602
     5  N    0.000000   0.000000  -0.000004   0.312629
     6  N   -0.000000  -0.000000   0.000001  -0.023768
     7  C    0.000000  -0.000002  -0.000039   0.004058
     8  N   -0.000000   0.000000  -0.000001   0.003251
     9  C    0.000000   0.000000  -0.000000  -0.000029
    10  C   -0.000000   0.000000  -0.000000  -0.000002
    11  C    0.000000   0.000000   0.000000  -0.000000
    12  C    0.000000  -0.000000   0.000000  -0.000000
    13  C   -0.000000  -0.000000   0.000000  -0.000000
    14  C   -0.000000  -0.000000  -0.000000   0.000002
    15  C    0.000463   0.004774  -0.045764   0.000005
    16  C    0.004854   0.000637   0.004595  -0.000000
    17  C   -0.040688   0.004216   0.000226   0.000000
    18  C    0.365774  -0.040052   0.004194   0.000000
    19  C   -0.040647   0.367857  -0.033586  -0.000000
    20  C    0.004774  -0.041015   0.362907  -0.000000
    21  O   -0.000000   0.000000   0.000049  -0.000025
    22  H    0.000000  -0.000000  -0.000004   0.001201
    23  H   -0.000000   0.000002   0.000000  -0.000035
    24  H   -0.000000   0.000000   0.000000  -0.000003
    25  H   -0.000000   0.000000  -0.000000   0.000000
    26  H    0.000000   0.000000   0.000000  -0.000000
    27  H    0.000000   0.000000  -0.000000   0.000000
    28  H   -0.000000   0.000000   0.000000   0.000000
    29  H   -0.000141   0.000014  -0.000138  -0.000000
    30  H   -0.005022  -0.000154   0.000013   0.000000
    31  H    0.544223  -0.005155  -0.000135   0.000000
    32  H   -0.005155   0.541688  -0.004971  -0.000000
    33  H   -0.000135  -0.004971   0.519429  -0.000000
    34  H    0.000000  -0.000000  -0.000000   0.247458
 Mulliken charges:
               1
     1  O   -0.550267
     2  S    1.217795
     3  N   -0.793896
     4  C    0.483536
     5  N   -0.344562
     6  N    0.006444
     7  C    0.113116
     8  N   -0.346330
     9  C    0.334459
    10  C   -0.141561
    11  C   -0.150403
    12  C   -0.118120
    13  C   -0.151957
    14  C   -0.155802
    15  C   -0.147990
    16  C   -0.133831
    17  C   -0.137333
    18  C   -0.123144
    19  C   -0.136426
    20  C   -0.135735
    21  O   -0.568172
    22  H    0.440534
    23  H    0.271161
    24  H    0.189094
    25  H    0.173905
    26  H    0.171180
    27  H    0.174791
    28  H    0.189271
    29  H    0.187866
    30  H    0.173026
    31  H    0.171691
    32  H    0.172247
    33  H    0.188535
    34  H    0.476877
 Sum of Mulliken charges =   1.00000
 Mulliken charges with hydrogens summed into heavy atoms:
               1
     1  O   -0.550267
     2  S    1.217795
     3  N   -0.353362
     4  C    0.483536
     5  N    0.132316
     6  N    0.006444
     7  C    0.384277
     8  N   -0.346330
     9  C    0.334459
    10  C    0.047533
    11  C    0.023502
    12  C    0.053060
    13  C    0.022834
    14  C    0.033469
    15  C   -0.147990
    16  C    0.054035
    17  C    0.035693
    18  C    0.048546
    19  C    0.035821
    20  C    0.052800
    21  O   -0.568172
 Electronic spatial extent (au):  <R**2>=           7734.7584
 Charge=              1.0000 electrons
 Dipole moment (field-independent basis, Debye):
    X=             -7.5483    Y=             -0.6358    Z=             -4.2905  Tot=              8.7057
 Quadrupole moment (field-independent basis, Debye-Ang):
   XX=           -102.5058   YY=            -85.9765   ZZ=           -119.4314
   XY=             10.8661   XZ=             -9.6463   YZ=              5.6122
 Traceless Quadrupole moment (field-independent basis, Debye-Ang):
   XX=              0.1321   YY=             16.6614   ZZ=            -16.7935
   XY=             10.8661   XZ=             -9.6463   YZ=              5.6122
 Octapole moment (field-independent basis, Debye-Ang**2):
  XXX=           -204.0578  YYY=            -50.1426  ZZZ=             -5.9673  XYY=              3.3849
  XXY=            103.2580  XXZ=              2.5749  XZZ=              8.7782  YZZ=              4.9073
  YYZ=            -26.3926  XYZ=             20.3516
 Hexadecapole moment (field-independent basis, Debye-Ang**3):
 XXXX=          -6704.7083 YYYY=          -1710.5056 ZZZZ=           -583.2955 XXXY=            -66.4119
 XXXZ=           -280.7637 YYYX=             81.8778 YYYZ=             50.9218 ZZZX=            -30.4042
 ZZZY=             15.7619 XXYY=          -1483.0446 XXZZ=          -1285.4254 YYZZ=           -430.4346
 XXYZ=            -82.9791 YYXZ=            -12.9129 ZZXY=             22.2641
 N-N= 1.753528203956D+03 E-N=-6.545676757089D+03  KE= 1.298460142743D+03
 No NMR shielding tensors so no spin-rotation constants.
 Leave Link  601 at Thu Sep 24 14:40:59 2020, MaxMem=  2147483648 cpu:               0.4 elap:               0.1
 (Enter /prod/apps/gaussian/g16b1/l701.exe)
 ... and contract with generalized density number  0.
 Compute integral first derivatives.
 D1PCM: PCM CHGder 1st derivatives, ID1Alg=3 FixD1E=F DoIter=F DoCFld=F I1PDM=0.
 GePol: Maximum number of non-zero 1st derivatives   =     181
 Leave Link  701 at Thu Sep 24 14:41:02 2020, MaxMem=  2147483648 cpu:              10.5 elap:               2.6
 (Enter /prod/apps/gaussian/g16b1/l702.exe)
 L702 exits ... SP integral derivatives will be done elsewhere.
[...]
    11  C    0.000287   0.000737  -0.013321   0.130446   0.005297   0.037408
    12  C   -0.000529  -0.001481   0.002082  -0.029972  -0.013014   0.047773
    13  C   -0.002167   0.000045   0.012235  -0.042907   0.043531  -0.065417
    14  C   -0.014356  -0.007088   0.055814  -0.532514   0.111085   0.033365
    15  C    0.258827  -0.590576  -0.033526  -0.102007   0.063256   0.072929
    16  C   -0.054546  -0.089264  -0.015519  -0.069121   0.009657  -0.005813
    17  C    0.026756  -0.403008   0.015488   0.116201  -0.004464   0.010104
    18  C   -0.015553   0.159940   0.012972  -0.069179   0.000927  -0.004965
    19  C   -0.062013  -0.093106  -0.011644   0.088552  -0.023670  -0.005563
    20  C   -0.038819   0.027891  -0.152963  -0.206725   0.033134  -0.062336
    21  O    0.043319  -0.246146   0.036683   0.030791  -0.001683   0.000403
    22  H    0.016363  -0.164520   0.334292   0.105351  -0.098428   0.002399
    23  H   -0.023932   0.073168  -0.045341  -0.167938  -0.093939  -0.113226
    24  H   -0.000005  -0.001603   0.003279  -0.019450   0.022763  -0.006292
    25  H   -0.000014   0.000042  -0.000179   0.000140   0.001741  -0.004082
    26  H   -0.000007  -0.000077   0.000038   0.000340  -0.000411   0.002648
    27  H    0.000033   0.000490   0.000115   0.002092   0.000018  -0.002516
    28  H    0.001256  -0.018387  -0.006423   0.047086  -0.009164   0.006351
    29  H    0.004465  -0.093168  -0.021715   0.043417   0.000866  -0.000064
    30  H    0.000739   0.006797  -0.000108   0.001079  -0.000655   0.000386
    31  H   -0.000155   0.000802   0.000935  -0.001056   0.000149  -0.000102
    32  H   -0.000797   0.004122  -0.001528  -0.001647  -0.001113   0.000022
    33  H   -0.032548  -0.057027  -0.028787   0.073686   0.001865  -0.002351
    34  H   -0.002266   0.009570  -0.029604   0.108879   0.404498  -0.201485
               7          8          9         10         11         12
     1  O   -0.104687   0.010829   0.001569   0.003350   0.000287  -0.000529
     2  S    0.116088  -0.024351  -0.082977   0.003676   0.000737  -0.001481
     3  N    0.730080   0.056087   0.034174  -0.027406  -0.013321   0.002082
     4  C   -5.528510   0.135217   0.603771   0.141807   0.130446  -0.029972
     5  N    1.304399  -0.391998  -0.286893  -0.081965   0.005297  -0.013014
     6  N   -1.297492  -0.146137  -0.385748   0.567326   0.037408   0.047773
     7  C   12.952780  -0.461779  -2.645101  -0.404364  -0.055121  -0.004689
     8  N   -0.461779   9.505033  -0.720497   0.015117  -0.270783   0.312834
     9  C   -2.645101  -0.720497  16.201498  -5.764429   2.868053  -3.757354
    10  C   -0.404364   0.015117  -5.764429  13.496511  -3.780110   3.207938
    11  C   -0.055121  -0.270783   2.868053  -3.780110   9.819146  -2.985545
    12  C   -0.004689   0.312834  -3.757354   3.207938  -2.985545   8.991514
    13  C   -0.069488  -0.330156   3.035230  -3.516899   3.042396  -3.121664
    14  C    0.768422   0.319214  -5.904142   2.374210  -3.261879   3.124178
    15  C    0.143747  -0.089562  -0.017738   0.010858   0.001619  -0.001141
    16  C   -0.057084   0.007153   0.009862   0.001847   0.001157  -0.000819
    17  C   -0.023995  -0.004567  -0.005402   0.001542  -0.000154   0.000193
    18  C    0.020978  -0.001963   0.004853  -0.003535   0.000473  -0.000476
    19  C    0.013943   0.000984  -0.022548  -0.004174  -0.000024   0.000629
    20  C   -0.009531   0.033640   0.009114  -0.012865  -0.001832   0.001935
    21  O    0.016146   0.007597   0.005510  -0.000373  -0.000031   0.000016
    22  H   -0.137720  -0.021233   0.001220   0.004575  -0.000585   0.000225
    23  H   -0.250346   0.105526   0.096278  -0.121223  -0.031954   0.014749
    24  H   -0.050247  -0.259646   0.920343  -1.016172   0.309789  -0.193589
    25  H   -0.000235  -0.009010  -0.107927   0.540658  -0.649968   0.288623
    26  H   -0.005447  -0.005386   0.108980  -0.115054   0.383102  -0.580941
    27  H    0.007850   0.002191  -0.137673   0.115679  -0.234598   0.306860
    28  H   -0.046838  -0.208202   0.845062  -0.103476   0.131715  -0.172888
    29  H   -0.015010  -0.000232  -0.000220   0.000018   0.000173  -0.000093
    30  H   -0.000319  -0.000068   0.000008   0.000052  -0.000005   0.000007
    31  H   -0.001307   0.000149   0.000519  -0.000056   0.000028  -0.000031
    32  H    0.013643  -0.001458  -0.007015  -0.000456  -0.000254   0.000480
    33  H   -0.046288   0.000706   0.034716   0.006934   0.000870  -0.002705
    34  H   -0.147357   0.056851   0.007804  -0.001325   0.003472  -0.000239
              13         14         15         16         17         18
     1  O   -0.002167  -0.014356   0.258827  -0.054546   0.026756  -0.015553
     2  S    0.000045  -0.007088  -0.590576  -0.089264  -0.403008   0.159940
     3  N    0.012235   0.055814  -0.033526  -0.015519   0.015488   0.012972
     4  C   -0.042907  -0.532514  -0.102007  -0.069121   0.116201  -0.069179
     5  N    0.043531   0.111085   0.063256   0.009657  -0.004464   0.000927
     6  N   -0.065417   0.033365   0.072929  -0.005813   0.010104  -0.004965
     7  C   -0.069488   0.768422   0.143747  -0.057084  -0.023995   0.020978
     8  N   -0.330156   0.319214  -0.089562   0.007153  -0.004567  -0.001963
     9  C    3.035230  -5.904142  -0.017738   0.009862  -0.005402   0.004853
    10  C   -3.516899   2.374210   0.010858   0.001847   0.001542  -0.003535
    11  C    3.042396  -3.261879   0.001619   0.001157  -0.000154   0.000473
    12  C   -3.121664   3.124178  -0.001141  -0.000819   0.000193  -0.000476
    13  C   10.674388  -3.961420  -0.009866  -0.003394  -0.000124   0.002108
    14  C   -3.961420  13.047949   0.003672  -0.012734   0.001991  -0.001343
    15  C   -0.009866   0.003672  15.221301  -6.649432   2.655467  -3.680429
    16  C   -0.003394  -0.012734  -6.649432  17.594156  -3.915186   3.605209
    17  C   -0.000124   0.001991   2.655467  -3.915186  10.468351  -3.370753
    18  C    0.002108  -0.001343  -3.680429   3.605209  -3.370753   9.369433
    19  C    0.008565   0.019263   2.582695  -4.276694   3.668401  -3.547035
    20  C    0.006041   0.001421  -5.723315   0.858725  -3.725957   3.267939
    21  O   -0.000003   0.000043   0.097649   0.042399   0.002116  -0.001917
    22  H    0.000103  -0.003235   0.022748   0.028449   0.017725   0.005343
    23  H    0.091050   0.037633  -0.048550  -0.026140  -0.005939   0.006470
    24  H    0.136978  -0.146995   0.001443  -0.000462   0.000167  -0.000252
    25  H   -0.213513   0.124038  -0.000077   0.000018  -0.000010   0.000028
    26  H    0.338271  -0.155471   0.000065  -0.000016   0.000007  -0.000032
    27  H   -0.733670   0.632752  -0.000746  -0.000024  -0.000019   0.000246
    28  H    0.098372  -0.952125   0.025745   0.007333   0.000529  -0.003872
    29  H   -0.000171  -0.001062   0.791804  -1.137973   0.304784  -0.220450
    30  H   -0.000011   0.000025  -0.180630   0.515980  -0.694324   0.384735
    31  H   -0.000041  -0.000369   0.102601  -0.157343   0.341473  -0.576768
    32  H    0.001297   0.003554  -0.169961   0.122576  -0.248318   0.371310
    33  H   -0.005515  -0.023264   0.466963  -0.220897   0.146338  -0.199142
    34  H   -0.001200  -0.002381  -0.000022  -0.004291  -0.000917   0.000115
              19         20         21         22         23         24
     1  O   -0.062013  -0.038819   0.043319   0.016363  -0.023932  -0.000005
     2  S   -0.093106   0.027891  -0.246146  -0.164520   0.073168  -0.001603
     3  N   -0.011644  -0.152963   0.036683   0.334292  -0.045341   0.003279
     4  C    0.088552  -0.206725   0.030791   0.105351  -0.167938  -0.019450
     5  N   -0.023670   0.033134  -0.001683  -0.098428  -0.093939   0.022763
     6  N   -0.005563  -0.062336   0.000403   0.002399  -0.113226  -0.006292
     7  C    0.013943  -0.009531   0.016146  -0.137720  -0.250346  -0.050247
     8  N    0.000984   0.033640   0.007597  -0.021233   0.105526  -0.259646
     9  C   -0.022548   0.009114   0.005510   0.001220   0.096278   0.920343
    10  C   -0.004174  -0.012865  -0.000373   0.004575  -0.121223  -1.016172
    11  C   -0.000024  -0.001832  -0.000031  -0.000585  -0.031954   0.309789
    12  C    0.000629   0.001935   0.000016   0.000225   0.014749  -0.193589
    13  C    0.008565   0.006041  -0.000003   0.000103   0.091050   0.136978
    14  C    0.019263   0.001421   0.000043  -0.003235   0.037633  -0.146995
    15  C    2.582695  -5.723315   0.097649   0.022748  -0.048550   0.001443
    16  C   -4.276694   0.858725   0.042399   0.028449  -0.026140  -0.000462
    17  C    3.668401  -3.725957   0.002116   0.017725  -0.005939   0.000167
    18  C   -3.547035   3.267939  -0.001917   0.005343   0.006470  -0.000252
    19  C   11.991712  -4.655768  -0.001057  -0.016280   0.023406  -0.000326
    20  C   -4.655768  16.610880  -0.071752  -0.008240   0.040818  -0.000802
    21  O   -0.001057  -0.071752   9.148603   0.006965  -0.007607   0.000063
    22  H   -0.016280  -0.008240   0.006965   1.021573  -0.005489   0.000217
    23  H    0.023406   0.040818  -0.007607  -0.005489   2.066742  -0.002749
    24  H   -0.000326  -0.000802   0.000063   0.000217  -0.002749   1.924252
    25  H    0.000047   0.000022  -0.000002  -0.000038  -0.000184  -0.077300
    26  H   -0.000036  -0.000019   0.000001   0.000014   0.000193  -0.011584
    27  H    0.000586  -0.000124  -0.000016   0.000009   0.001996   0.010006
    28  H   -0.017104  -0.002351   0.001318   0.000037  -0.076282  -0.014775
    29  H    0.150458  -0.096741  -0.010230   0.002131  -0.001048  -0.000095
    30  H   -0.277777   0.164192  -0.000154   0.001012  -0.000210   0.000007
    31  H    0.373320  -0.116202  -0.000058   0.000139  -0.000318  -0.000008
    32  H   -0.729660   0.552085   0.000628  -0.000129   0.003758  -0.000014
    33  H    0.410571  -1.005778   0.000495   0.004303  -0.003771  -0.000369
    34  H   -0.000183   0.003462  -0.001381  -0.016063  -0.000389  -0.002375
              25         26         27         28         29         30
     1  O   -0.000014  -0.000007   0.000033   0.001256   0.004465   0.000739
     2  S    0.000042  -0.000077   0.000490  -0.018387  -0.093168   0.006797
     3  N   -0.000179   0.000038   0.000115  -0.006423  -0.021715  -0.000108
     4  C    0.000140   0.000340   0.002092   0.047086   0.043417   0.001079
     5  N    0.001741  -0.000411   0.000018  -0.009164   0.000866  -0.000655
     6  N   -0.004082   0.002648  -0.002516   0.006351  -0.000064   0.000386
     7  C   -0.000235  -0.005447   0.007850  -0.046838  -0.015010  -0.000319
     8  N   -0.009010  -0.005386   0.002191  -0.208202  -0.000232  -0.000068
     9  C   -0.107927   0.108980  -0.137673   0.845062  -0.000220   0.000008
    10  C    0.540658  -0.115054   0.115679  -0.103476   0.000018   0.000052
    11  C   -0.649968   0.383102  -0.234598   0.131715   0.000173  -0.000005
    12  C    0.288623  -0.580941   0.306860  -0.172888  -0.000093   0.000007
    13  C   -0.213513   0.338271  -0.733670   0.098372  -0.000171  -0.000011
    14  C    0.124038  -0.155471   0.632752  -0.952125  -0.001062   0.000025
    15  C   -0.000077   0.000065  -0.000746   0.025745   0.791804  -0.180630
    16  C    0.000018  -0.000016  -0.000024   0.007333  -1.137973   0.515980
    17  C   -0.000010   0.000007  -0.000019   0.000529   0.304784  -0.694324
    18  C    0.000028  -0.000032   0.000246  -0.003872  -0.220450   0.384735
    19  C    0.000047  -0.000036   0.000586  -0.017104   0.150458  -0.277777
    20  C    0.000022  -0.000019  -0.000124  -0.002351  -0.096741   0.164192
    21  O   -0.000002   0.000001  -0.000016   0.001318  -0.010230  -0.000154
    22  H   -0.000038   0.000014   0.000009   0.000037   0.002131   0.001012
    23  H   -0.000184   0.000193   0.001996  -0.076282  -0.001048  -0.000210
    24  H   -0.077300  -0.011584   0.010006  -0.014775  -0.000095   0.000007
    25  H    1.589495  -0.062706  -0.018029   0.009149   0.000005  -0.000000
    26  H   -0.062706   1.595438  -0.058846  -0.014805  -0.000003   0.000000
    27  H   -0.018029  -0.058846   1.621637  -0.094829   0.000006  -0.000001
    28  H    0.009149  -0.014805  -0.094829   2.214007   0.000053   0.000038
    29  H    0.000005  -0.000003   0.000006   0.000053   1.967428  -0.102931
    30  H   -0.000000   0.000000  -0.000001   0.000038  -0.102931   1.689166
    31  H    0.000001  -0.000001   0.000001   0.000069  -0.012850  -0.068434
    32  H   -0.000005   0.000005   0.000016  -0.001596   0.010343  -0.020788
    33  H    0.000065  -0.000019   0.001020  -0.013043  -0.015221   0.011653
    34  H    0.000070  -0.000010  -0.000053   0.000376  -0.000057   0.000033
              31         32         33         34
     1  O   -0.000155  -0.000797  -0.032548  -0.002266
     2  S    0.000802   0.004122  -0.057027   0.009570
     3  N    0.000935  -0.001528  -0.028787  -0.029604
     4  C   -0.001056  -0.001647   0.073686   0.108879
     5  N    0.000149  -0.001113   0.001865   0.404498
     6  N   -0.000102   0.000022  -0.002351  -0.201485
     7  C   -0.001307   0.013643  -0.046288  -0.147357
     8  N    0.000149  -0.001458   0.000706   0.056851
     9  C    0.000519  -0.007015   0.034716   0.007804
    10  C   -0.000056  -0.000456   0.006934  -0.001325
    11  C    0.000028  -0.000254   0.000870   0.003472
    12  C   -0.000031   0.000480  -0.002705  -0.000239
    13  C   -0.000041   0.001297  -0.005515  -0.001200
    14  C   -0.000369   0.003554  -0.023264  -0.002381
    15  C    0.102601  -0.169961   0.466963  -0.000022
    16  C   -0.157343   0.122576  -0.220897  -0.004291
    17  C    0.341473  -0.248318   0.146338  -0.000917
    18  C   -0.576768   0.371310  -0.199142   0.000115
    19  C    0.373320  -0.729660   0.410571  -0.000183
    20  C   -0.116202   0.552085  -1.005778   0.003462
    21  O   -0.000058   0.000628   0.000495  -0.001381
    22  H    0.000139  -0.000129   0.004303  -0.016063
    23  H   -0.000318   0.003758  -0.003771  -0.000389
    24  H   -0.000008  -0.000014  -0.000369  -0.002375
    25  H    0.000001  -0.000005   0.000065   0.000070
    26  H   -0.000001   0.000005  -0.000019  -0.000010
    27  H    0.000001   0.000016   0.001020  -0.000053
    28  H    0.000069  -0.001596  -0.013043   0.000376
    29  H   -0.012850   0.010343  -0.015221  -0.000057
    30  H   -0.068434  -0.020788   0.011653   0.000033
    31  H    1.615745  -0.073483  -0.010451  -0.000021
    32  H   -0.073483   1.750668  -0.114483  -0.000094
    33  H   -0.010451  -0.114483   2.186701   0.000739
    34  H   -0.000021  -0.000094   0.000739   0.814271
 Mulliken charges:
               1
     1  O   -1.199716
     2  S    2.956277
     3  N   -0.837620
     4  C    0.720756
     5  N   -0.430407
     6  N   -0.311754
     7  C    1.274879
     8  N   -0.622100
     9  C    1.057101
    10  C    0.461787
    11  C    0.549996
    12  C    0.567135
    13  C    0.587016
    14  C    0.321749
    15  C    0.774187
    16  C   -0.107770
    17  C    0.625502
    18  C    0.484584
    19  C    0.411530
    20  C    0.280819
    21  O   -1.098336
    22  H   -0.103233
    23  H   -0.535211
    24  H   -0.524193
    25  H   -0.410864
    26  H   -0.418231
    27  H   -0.422458
    28  H   -0.632337
    29  H   -0.546618
    30  H   -0.429491
    31  H   -0.416878
    32  H   -0.461708
    33  H   -0.565966
    34  H    0.001573
 Sum of Mulliken charges =   1.00000
 Mulliken charges with hydrogens summed into heavy atoms:
               1
     1  O   -1.199716
     2  S    2.956277
     3  N   -0.940853
     4  C    0.720756
     5  N   -0.428835
     6  N   -0.311754
     7  C    0.739668
     8  N   -0.622100
     9  C    1.057101
    10  C   -0.062405
    11  C    0.139132
    12  C    0.148904
    13  C    0.164557
    14  C   -0.310588
    15  C    0.774187
    16  C   -0.654388
    17  C    0.196011
    18  C    0.067706
    19  C   -0.050179
    20  C   -0.285147
    21  O   -1.098336
 Electronic spatial extent (au):  <R**2>=           7951.0571
 Charge=              1.0000 electrons
 Dipole moment (field-independent basis, Debye):
    X=              4.3819    Y=              1.5719    Z=              6.4256  Tot=              7.9348
 Quadrupole moment (field-independent basis, Debye-Ang):
   XX=            -65.5163   YY=           -111.0518   ZZ=           -118.4208
   XY=             -8.3113   XZ=            -17.8115   YZ=            -17.4514
 Traceless Quadrupole moment (field-independent basis, Debye-Ang):
   XX=             32.8133   YY=            -12.7222   ZZ=            -20.0911
   XY=             -8.3113   XZ=            -17.8115   YZ=            -17.4514
 Octapole moment (field-independent basis, Debye-Ang**2):
  XXX=            165.3655  YYY=             20.4960  ZZZ=             30.3999  XYY=            -19.3401
  XXY=             89.6632  XXZ=             54.4908  XZZ=              5.4987  YZZ=            -18.5158
  YYZ=             25.6224  XYZ=            -23.6475
 Hexadecapole moment (field-independent basis, Debye-Ang**3):
 XXXX=          -6204.1289 YYYY=          -1477.5812 ZZZZ=           -829.9088 XXXY=             46.2687
 XXXZ=           -257.9577 YYYX=           -116.1799 YYYZ=            -42.7372 ZZZX=            -13.7982
 ZZZY=            -85.5522 XXYY=          -1534.0314 XXZZ=          -1475.2397 YYZZ=           -359.6369
 XXYZ=            -94.7545 YYXZ=           -114.3203 ZZXY=             15.3792
 N-N= 1.752765672993D+03 E-N=-6.543411756719D+03  KE= 1.301044599104D+03
 Leave Link  601 at Thu Sep 24 17:35:05 2020, MaxMem=   262144000 cpu:               0.7 elap:               0.2
 (Enter /prod/apps/gaussian/g16b1/l9999.exe)
 1\1\GINC-PIRINEUS21\SP\RMP2-FC\Aug-CC-pVDZ\C14H13N4O2S1(1+)\UBAFAR01\2
 4-Sep-2020\0\\#p mp2/aug-cc-pVDZ scf=(MaxCycle=2000,NoVarAcc,NoIncFock
 ) maxdisk=120GB geom=allcheck\\SM45_m2.b.9.pdb.xyz\\1,1\O,0,1.38450704
 37,-0.2502080204,2.2275348182\S,0,2.2923786043,-0.699108544,1.16950310
 25\N,0,1.3178944162,-1.6490325152,0.1352867088\C,0,0.027690403,-1.2884
 357369,-0.1739704125\N,0,-0.5546698394,-1.5705094974,-1.3676908114\N,0
 ,-1.8162026315,-1.1863986013,-1.4383572664\C,0,-0.96544342,-0.66746783
 28,0.5624452131\N,0,-2.0469040857,-0.6327509251,-0.2647403381\C,0,-3.3
 461023794,-0.097807103,0.0242937969\C,0,-4.4627054745,-0.6785867313,-0
 .5763146611\C,0,-5.7203970133,-0.1508176867,-0.2941365646\C,0,-5.85170
 37988,0.9298871057,0.5813745136\C,0,-4.7204013115,1.4930138399,1.17491
 62988\C,0,-3.4531241357,0.9845581832,0.8960140228\C,0,2.8308553115,0.7
 137839996,0.2332292052\C,0,3.983573092,0.6084025254,-0.5489847968\C,0,
 4.3868798123,1.7165098696,-1.2905063196\C,0,3.6442959417,2.9001247388,
 -1.2445222841\C,0,2.4961267424,2.9869994399,-0.4532820011\C,0,2.077829
 6893,1.8885808568,0.2961845008\O,0,3.440092836,-1.5577343068,1.4549422
 352\H,0,1.8435544948,-2.1242037711,-0.6016145952\H,0,-0.9651693829,-0.
 2963191739,1.570028996\H,0,-4.3427623329,-1.5255693082,-1.239308809\H,
 0,-6.5977280165,-0.5928178681,-0.7523183144\H,0,-6.8342624826,1.332289
 29,0.8005004059\H,0,-4.8182648315,2.3357940903,1.8491435617\H,0,-2.569
 1058932,1.4332768131,1.3324500552\H,0,4.5533356347,-0.3123080767,-0.56
 45168618\H,0,5.2816844395,1.6565210116,-1.8991722188\H,0,3.9653610276,
 3.7592424241,-1.8231736095\H,0,1.9285764635,3.9095701302,-0.4133046664
 \H,0,1.2006118825,1.9395505065,0.9283058647\H,0,-0.1373008056,-2.04902
 91257,-2.1692387686\\Version=ES64L-G16RevB.01\State=1-A\HF=-1302.52936
 72\MP2=-1305.6570236\RMSD=7.756e-09\PG=C01 [X(C14H13N4O2S1)]\\@


 Human beings, who are almost unique in having the
 ability to learn from the experience of others, are
 also remarkable for their apparent disinclination to do so.
                               -- Douglas Adams,
                                Last Chance to See
 Job cpu time:       0 days  4 hours 43 minutes 51.1 seconds.
 Elapsed time:       0 days  1 hours 25 minutes 22.3 seconds.
 File lengths (MBytes):  RWF= 116822 Int=      0 D2E=      0 Chk=     30 Scr=      1
 Normal termination of Gaussian 16 at Thu Sep 24 17:35:07 2020.
