 Entering Gaussian System, Link 0=g16
 Initial command:
 /prod/apps/gaussian/g16b1/l1.exe "/tmp/ubafar01/1460651/Gau-137994.inp" -scrdir="/tmp/ubafar01/1460651/"
 Entering Link 1 = /prod/apps/gaussian/g16b1/l1.exe PID=    137995.
  
 Copyright (c) 1988-2017, Gaussian, Inc.  All Rights Reserved.
  
 This is part of the Gaussian(R) 16 program.  It is based on
 the Gaussian(R) 09 system (copyright 2009, Gaussian, Inc.),
 the Gaussian(R) 03 system (copyright 2003, Gaussian, Inc.),
 the Gaussian(R) 98 system (copyright 1998, Gaussian, Inc.),
 the Gaussian(R) 94 system (copyright 1995, Gaussian, Inc.),
 the Gaussian 92(TM) system (copyright 1992, Gaussian, Inc.),
 the Gaussian 90(TM) system (copyright 1990, Gaussian, Inc.),
 the Gaussian 88(TM) system (copyright 1988, Gaussian, Inc.),
 the Gaussian 86(TM) system (copyright 1986, Carnegie Mellon
 University), and the Gaussian 82(TM) system (copyright 1983,
 Carnegie Mellon University). Gaussian is a federally registered
 trademark of Gaussian, Inc.
  
 This software contains proprietary and confidential information,
 including trade secrets, belonging to Gaussian, Inc.
  
 This software is provided under written license and may be
 used, copied, transmitted, or stored only in accord with that
 written license.
  
 The following legend is applicable only to US Government
 contracts under FAR:
  
                    RESTRICTED RIGHTS LEGEND
  
 Use, reproduction and disclosure by the US Government is
 subject to restrictions as set forth in subparagraphs (a)
 and (c) of the Commercial Computer Software - Restricted
 Rights clause in FAR 52.227-19.
  
 Gaussian, Inc.
 340 Quinnipiac St., Bldg. 40, Wallingford CT 06492
  
  
 ---------------------------------------------------------------
 Warning -- This program may not be used in any manner that
 competes with the business of Gaussian, Inc. or will provide
 assistance to any competitor of Gaussian, Inc.  The licensee
 of this program is prohibited from giving any competitor of
 Gaussian, Inc. access to this program.  By using this program,
 the user acknowledges that Gaussian, Inc. is engaged in the
 business of creating and licensing software in the field of
 computational chemistry and represents and warrants to the
 licensee that it is not a competitor of Gaussian, Inc. and that
 it will not use this program in any manner prohibited above.
 ---------------------------------------------------------------
  

 Cite this work as:
 Gaussian 16, Revision B.01,
 M. J. Frisch, G. W. Trucks, H. B. Schlegel, G. E. Scuseria, 
 M. A. Robb, J. R. Cheeseman, G. Scalmani, V. Barone, 
 G. A. Petersson, H. Nakatsuji, X. Li, M. Caricato, A. V. Marenich, 
 J. Bloino, B. G. Janesko, R. Gomperts, B. Mennucci, H. P. Hratchian, 
 J. V. Ortiz, A. F. Izmaylov, J. L. Sonnenberg, D. Williams-Young, 
 F. Ding, F. Lipparini, F. Egidi, J. Goings, B. Peng, A. Petrone, 
 T. Henderson, D. Ranasinghe, V. G. Zakrzewski, J. Gao, N. Rega, 
 G. Zheng, W. Liang, M. Hada, M. Ehara, K. Toyota, R. Fukuda, 
 J. Hasegawa, M. Ishida, T. Nakajima, Y. Honda, O. Kitao, H. Nakai, 
 T. Vreven, K. Throssell, J. A. Montgomery, Jr., J. E. Peralta, 
 F. Ogliaro, M. J. Bearpark, J. J. Heyd, E. N. Brothers, K. N. Kudin, 
 V. N. Staroverov, T. A. Keith, R. Kobayashi, J. Normand, 
 K. Raghavachari, A. P. Rendell, J. C. Burant, S. S. Iyengar, 
 J. Tomasi, M. Cossi, J. M. Millam, M. Klene, C. Adamo, R. Cammi, 
 J. W. Ochterski, R. L. Martin, K. Morokuma, O. Farkas, 
 J. B. Foresman, and D. J. Fox, Gaussian, Inc., Wallingford CT, 2016.
 
 ******************************************
 Gaussian 16:  ES64L-G16RevB.01 20-Dec-2017
                23-Sep-2020 
 ******************************************
 %nproc=4
 Will use up to    4 processors via shared memory.
 %Chk=SM45_m0.n.7.pdb.xyz.mst.n.w.chk
 %mem=16GB
 ----------------------------------------------------------------------
 #p b3lyp/6-31G(d) opt freq NoSymm scf=(MaxCycle=2000,NoVarAcc,NoIncFoc
 k) scrf=(iefpcm,read,solvent=water)
 ----------------------------------------------------------------------
 1/18=20,19=15,26=3,38=1,40=2/1,3;
 2/9=110,12=2,15=1,17=6,18=5,40=1/2;
 3/5=1,6=6,7=1,11=2,25=1,30=1,70=2203,71=1,72=1,74=-5/1,2,3;
 4//1;
 5/5=100002,7=2000,38=1,53=1/2;
 6/7=2,8=2,9=2,10=2,28=1/1;
 7/30=1/1,2,3,16;
 1/18=20,19=15,26=3/3(2);
 2/9=110,15=1/2;
 99//99;
 2/9=110,15=1/2;
 3/5=1,6=6,7=1,11=2,25=1,30=1,70=2205,71=1,72=1,74=-5/1,2,3;
 4/5=5,16=3,69=1/1;
 5/5=100002,7=2000,38=1,53=1/2;
 7/30=1/1,2,3,16;
 1/18=20,19=15,26=3/3(-5);
 2/9=110,15=1/2;
 6/7=2,8=2,9=2,10=2,19=2,28=1/1;
 99/9=1/99;
 Leave Link    1 at Wed Sep 23 06:01:29 2020, MaxMem=  2147483648 cpu:               0.1 elap:               0.0
 (Enter /prod/apps/gaussian/g16b1/l101.exe)
 -------------------
 SM45_m0.n.7.pdb.xyz
 -------------------
 Symbolic Z-matrix:
 Charge =  0 Multiplicity = 1
 O                     1.529    -1.27      1.784 
 S                     2.182    -1.418     0.474 
 N                     1.035    -1.418    -0.79 
 C                    -0.146    -0.668    -0.63 
 N                    -0.155     0.683    -0.797 
 N                    -1.373     1.122    -0.619 
 C                    -1.426    -1.088    -0.334 
 N                    -2.159     0.052    -0.35 
 C                    -3.558     0.213    -0.132 
 C                    -4.424    -0.848    -0.402 
 C                    -5.789    -0.684    -0.174 
 C                    -6.284     0.529     0.307 
 C                    -5.407     1.584     0.564 
 C                    -4.038     1.432     0.354 
 C                     3.138     0.056     0.165 
 C                     3.885     0.148    -1.013 
 C                     4.66      1.283    -1.227 
 C                     4.688     2.303    -0.271 
 C                     3.941     2.193     0.902 
 C                     3.157     1.062     1.13 
 O                     3.005    -2.606     0.206 
 H                     0.878    -2.386    -1.077 
 H                    -1.841    -2.057    -0.119 
 H                    -4.04     -1.781    -0.797 
 H                    -6.465    -1.507    -0.382 
 H                    -7.347     0.652     0.479 
 H                    -5.784     2.528     0.942 
 H                    -3.344     2.235     0.564 
 H                     3.857    -0.65     -1.747 
 H                     5.243     1.371    -2.137 
 H                     5.295     3.185    -0.443 
 H                     3.966     2.985     1.642 
 H                     2.57      0.954     2.032 
 
 ITRead=  0  0  0  0  0  0  0  0  0  0  0  0  0  0  0  0  0  0  0  0
 ITRead=  0  0  0  0  0  0  0  0  0  0  0  0  0
 MicOpt= -1 -1 -1 -1 -1 -1 -1 -1 -1 -1 -1 -1 -1 -1 -1 -1 -1 -1 -1 -1
 MicOpt= -1 -1 -1 -1 -1 -1 -1 -1 -1 -1 -1 -1 -1
 NAtoms=     33 NQM=       33 NQMF=       0 NMMI=      0 NMMIF=      0
                NMic=       0 NMicF=      0.
                    Isotopes and Nuclear Properties:
 (Nuclear quadrupole moments (NQMom) in fm**2, nuclear magnetic moments (NMagM)
  in nuclear magnetons)

  Atom         1           2           3           4           5           6           7           8           9          10
 IAtWgt=          16          32          14          12          14          14          12          14          12          12
 AtmWgt=  15.9949146  31.9720718  14.0030740  12.0000000  14.0030740  14.0030740  12.0000000  14.0030740  12.0000000  12.0000000
 NucSpn=           0           0           2           0           2           2           0           2           0           0
 AtZEff=  -0.0000000  -0.0000000  -0.0000000  -0.0000000  -0.0000000  -0.0000000  -0.0000000  -0.0000000  -0.0000000  -0.0000000
 NQMom=    0.0000000   0.0000000   2.0440000   0.0000000   2.0440000   2.0440000   0.0000000   2.0440000   0.0000000   0.0000000
 NMagM=    0.0000000   0.0000000   0.4037610   0.0000000   0.4037610   0.4037610   0.0000000   0.4037610   0.0000000   0.0000000
 AtZNuc=   8.0000000  16.0000000   7.0000000   6.0000000   7.0000000   7.0000000   6.0000000   7.0000000   6.0000000   6.0000000

  Atom        11          12          13          14          15          16          17          18          19          20
 IAtWgt=          12          12          12          12          12          12          12          12          12          12
 AtmWgt=  12.0000000  12.0000000  12.0000000  12.0000000  12.0000000  12.0000000  12.0000000  12.0000000  12.0000000  12.0000000
 NucSpn=           0           0           0           0           0           0           0           0           0           0
 AtZEff=  -0.0000000  -0.0000000  -0.0000000  -0.0000000  -0.0000000  -0.0000000  -0.0000000  -0.0000000  -0.0000000  -0.0000000
 NQMom=    0.0000000   0.0000000   0.0000000   0.0000000   0.0000000   0.0000000   0.0000000   0.0000000   0.0000000   0.0000000
 NMagM=    0.0000000   0.0000000   0.0000000   0.0000000   0.0000000   0.0000000   0.0000000   0.0000000   0.0000000   0.0000000
 AtZNuc=   6.0000000   6.0000000   6.0000000   6.0000000   6.0000000   6.0000000   6.0000000   6.0000000   6.0000000   6.0000000

  Atom        21          22          23          24          25          26          27          28          29          30
 IAtWgt=          16           1           1           1           1           1           1           1           1           1
 AtmWgt=  15.9949146   1.0078250   1.0078250   1.0078250   1.0078250   1.0078250   1.0078250   1.0078250   1.0078250   1.0078250
 NucSpn=           0           1           1           1           1           1           1           1           1           1
 AtZEff=  -0.0000000  -0.0000000  -0.0000000  -0.0000000  -0.0000000  -0.0000000  -0.0000000  -0.0000000  -0.0000000  -0.0000000
 NQMom=    0.0000000   0.0000000   0.0000000   0.0000000   0.0000000   0.0000000   0.0000000   0.0000000   0.0000000   0.0000000
 NMagM=    0.0000000   2.7928460   2.7928460   2.7928460   2.7928460   2.7928460   2.7928460   2.7928460   2.7928460   2.7928460
 AtZNuc=   8.0000000   1.0000000   1.0000000   1.0000000   1.0000000   1.0000000   1.0000000   1.0000000   1.0000000   1.0000000

  Atom        31          32          33
 IAtWgt=           1           1           1
 AtmWgt=   1.0078250   1.0078250   1.0078250
 NucSpn=           1           1           1
 AtZEff=  -0.0000000  -0.0000000  -0.0000000
 NQMom=    0.0000000   0.0000000   0.0000000
 NMagM=    2.7928460   2.7928460   2.7928460
 AtZNuc=   1.0000000   1.0000000   1.0000000
 Leave Link  101 at Wed Sep 23 06:01:29 2020, MaxMem=  2147483648 cpu:               1.3 elap:               0.3
 (Enter /prod/apps/gaussian/g16b1/l103.exe)

 GradGradGradGradGradGradGradGradGradGradGradGradGradGradGradGradGradGrad
 Berny optimization.
 Initialization pass.
                           ----------------------------
                           !    Initial Parameters    !
                           ! (Angstroms and Degrees)  !
 --------------------------                            --------------------------
 ! Name  Definition              Value          Derivative Info.                !
 --------------------------------------------------------------------------------
 ! R1    R(1,2)                  1.4712         estimate D2E/DX2                !
 ! R2    R(2,3)                  1.7068         estimate D2E/DX2                !
 ! R3    R(2,15)                 1.7838         estimate D2E/DX2                !
 ! R4    R(2,21)                 1.4699         estimate D2E/DX2                !
 ! R5    R(3,4)                  1.4081         estimate D2E/DX2                !
 ! R6    R(3,22)                 1.0218         estimate D2E/DX2                !
 ! R7    R(4,5)                  1.3613         estimate D2E/DX2                !
 ! R8    R(4,7)                  1.3793         estimate D2E/DX2                !
 ! R9    R(5,6)                  1.3069         estimate D2E/DX2                !
 ! R10   R(6,8)                  1.3546         estimate D2E/DX2                !
 ! R11   R(7,8)                  1.3554         estimate D2E/DX2                !
 ! R12   R(7,23)                 1.0758         estimate D2E/DX2                !
 ! R13   R(8,9)                  1.425          estimate D2E/DX2                !
 ! R14   R(9,10)                 1.3959         estimate D2E/DX2                !
 ! R15   R(9,14)                 1.3973         estimate D2E/DX2                !
 ! R16   R(10,11)                1.3936         estimate D2E/DX2                !
 ! R17   R(10,24)                1.0835         estimate D2E/DX2                !
 ! R18   R(11,12)                1.3956         estimate D2E/DX2                !
 ! R19   R(11,25)                1.0852         estimate D2E/DX2                !
 ! R20   R(12,13)                1.3958         estimate D2E/DX2                !
 ! R21   R(12,26)                1.0838         estimate D2E/DX2                !
 ! R22   R(13,14)                1.3933         estimate D2E/DX2                !
 ! R23   R(13,27)                1.0845         estimate D2E/DX2                !
 ! R24   R(14,28)                1.0819         estimate D2E/DX2                !
 ! R25   R(15,16)                1.3979         estimate D2E/DX2                !
 ! R26   R(15,20)                1.3941         estimate D2E/DX2                !
 ! R27   R(16,17)                1.3909         estimate D2E/DX2                !
 ! R28   R(16,29)                1.0846         estimate D2E/DX2                !
 ! R29   R(17,18)                1.3983         estimate D2E/DX2                !
 ! R30   R(17,30)                1.0843         estimate D2E/DX2                !
 ! R31   R(18,19)                1.395          estimate D2E/DX2                !
 ! R32   R(18,31)                1.0844         estimate D2E/DX2                !
 ! R33   R(19,20)                1.3949         estimate D2E/DX2                !
 ! R34   R(19,32)                1.0842         estimate D2E/DX2                !
 ! R35   R(20,33)                1.0816         estimate D2E/DX2                !
 ! A1    A(1,2,3)              111.17           estimate D2E/DX2                !
 ! A2    A(1,2,15)             107.9984         estimate D2E/DX2                !
 ! A3    A(1,2,21)             119.4842         estimate D2E/DX2                !
 ! A4    A(3,2,15)             103.4067         estimate D2E/DX2                !
 ! A5    A(3,2,21)             103.9598         estimate D2E/DX2                !
 ! A6    A(15,2,21)            109.6454         estimate D2E/DX2                !
 ! A7    A(2,3,4)              118.6501         estimate D2E/DX2                !
 ! A8    A(2,3,22)             108.1353         estimate D2E/DX2                !
 ! A9    A(4,3,22)             114.056          estimate D2E/DX2                !
 ! A10   A(3,4,5)              121.3449         estimate D2E/DX2                !
 ! A11   A(3,4,7)              129.8309         estimate D2E/DX2                !
 ! A12   A(5,4,7)              108.8076         estimate D2E/DX2                !
 ! A13   A(4,5,6)              108.8338         estimate D2E/DX2                !
 ! A14   A(5,6,8)              107.6067         estimate D2E/DX2                !
 ! A15   A(4,7,8)              104.0768         estimate D2E/DX2                !
 ! A16   A(4,7,23)             132.4649         estimate D2E/DX2                !
 ! A17   A(8,7,23)             123.4564         estimate D2E/DX2                !
 ! A18   A(6,8,7)              110.665          estimate D2E/DX2                !
 ! A19   A(6,8,9)              120.7154         estimate D2E/DX2                !
 ! A20   A(7,8,9)              128.6194         estimate D2E/DX2                !
 ! A21   A(8,9,10)             119.5771         estimate D2E/DX2                !
 ! A22   A(8,9,14)             119.2756         estimate D2E/DX2                !
 ! A23   A(10,9,14)            121.1469         estimate D2E/DX2                !
 ! A24   A(9,10,11)            119.1148         estimate D2E/DX2                !
 ! A25   A(9,10,24)            120.341          estimate D2E/DX2                !
 ! A26   A(11,10,24)           120.5383         estimate D2E/DX2                !
 ! A27   A(10,11,12)           120.4026         estimate D2E/DX2                !
 ! A28   A(10,11,25)           119.3115         estimate D2E/DX2                !
 ! A29   A(12,11,25)           120.284          estimate D2E/DX2                !
 ! A30   A(11,12,13)           119.838          estimate D2E/DX2                !
 ! A31   A(11,12,26)           120.0792         estimate D2E/DX2                !
 ! A32   A(13,12,26)           120.0827         estimate D2E/DX2                !
 ! A33   A(12,13,14)           120.4737         estimate D2E/DX2                !
 ! A34   A(12,13,27)           120.2438         estimate D2E/DX2                !
 ! A35   A(14,13,27)           119.2778         estimate D2E/DX2                !
 ! A36   A(9,14,13)            119.0191         estimate D2E/DX2                !
 ! A37   A(9,14,28)            119.6459         estimate D2E/DX2                !
 ! A38   A(13,14,28)           121.3344         estimate D2E/DX2                !
 ! A39   A(2,15,16)            119.126          estimate D2E/DX2                !
 ! A40   A(2,15,20)            118.9247         estimate D2E/DX2                !
 ! A41   A(16,15,20)           121.9056         estimate D2E/DX2                !
 ! A42   A(15,16,17)           118.7572         estimate D2E/DX2                !
 ! A43   A(15,16,29)           120.5354         estimate D2E/DX2                !
 ! A44   A(17,16,29)           120.7071         estimate D2E/DX2                !
 ! A45   A(16,17,18)           120.0813         estimate D2E/DX2                !
 ! A46   A(16,17,30)           119.6651         estimate D2E/DX2                !
 ! A47   A(18,17,30)           120.2535         estimate D2E/DX2                !
 ! A48   A(17,18,19)           120.4414         estimate D2E/DX2                !
 ! A49   A(17,18,31)           119.7411         estimate D2E/DX2                !
 ! A50   A(19,18,31)           119.8175         estimate D2E/DX2                !
 ! A51   A(18,19,20)           120.1546         estimate D2E/DX2                !
 ! A52   A(18,19,32)           120.2625         estimate D2E/DX2                !
 ! A53   A(20,19,32)           119.5829         estimate D2E/DX2                !
 ! A54   A(15,20,19)           118.6586         estimate D2E/DX2                !
 ! A55   A(15,20,33)           119.8547         estimate D2E/DX2                !
 ! A56   A(19,20,33)           121.4867         estimate D2E/DX2                !
 ! D1    D(1,2,3,4)             31.1746         estimate D2E/DX2                !
 ! D2    D(1,2,3,22)          -100.7175         estimate D2E/DX2                !
 ! D3    D(15,2,3,4)           -84.48           estimate D2E/DX2                !
 ! D4    D(15,2,3,22)          143.628          estimate D2E/DX2                !
 ! D5    D(21,2,3,4)           160.9764         estimate D2E/DX2                !
 ! D6    D(21,2,3,22)           29.0844         estimate D2E/DX2                !
 ! D7    D(1,2,15,16)          178.5073         estimate D2E/DX2                !
 ! D8    D(1,2,15,20)            0.8662         estimate D2E/DX2                !
 ! D9    D(3,2,15,16)          -63.6014         estimate D2E/DX2                !
 ! D10   D(3,2,15,20)          118.7574         estimate D2E/DX2                !
 ! D11   D(21,2,15,16)          46.7889         estimate D2E/DX2                !
 ! D12   D(21,2,15,20)        -130.8522         estimate D2E/DX2                !
 ! D13   D(2,3,4,5)             78.1334         estimate D2E/DX2                !
 ! D14   D(2,3,4,7)           -103.5243         estimate D2E/DX2                !
 ! D15   D(22,3,4,5)          -152.6454         estimate D2E/DX2                !
 ! D16   D(22,3,4,7)            25.6968         estimate D2E/DX2                !
 ! D17   D(3,4,5,6)            178.7035         estimate D2E/DX2                !
 ! D18   D(7,4,5,6)              0.0483         estimate D2E/DX2                !
 ! D19   D(3,4,7,8)           -177.9473         estimate D2E/DX2                !
 ! D20   D(3,4,7,23)             2.5536         estimate D2E/DX2                !
 ! D21   D(5,4,7,8)              0.557          estimate D2E/DX2                !
 ! D22   D(5,4,7,23)          -178.9421         estimate D2E/DX2                !
 ! D23   D(4,5,6,8)             -0.6435         estimate D2E/DX2                !
 ! D24   D(5,6,8,7)              1.0315         estimate D2E/DX2                !
 ! D25   D(5,6,8,9)           -178.8329         estimate D2E/DX2                !
 ! D26   D(4,7,8,6)             -0.9642         estimate D2E/DX2                !
 ! D27   D(4,7,8,9)            178.8866         estimate D2E/DX2                !
 ! D28   D(23,7,8,6)           178.5929         estimate D2E/DX2                !
 ! D29   D(23,7,8,9)            -1.5563         estimate D2E/DX2                !
 ! D30   D(6,8,9,10)           153.6157         estimate D2E/DX2                !
 ! D31   D(6,8,9,14)           -26.6128         estimate D2E/DX2                !
 ! D32   D(7,8,9,10)           -26.222          estimate D2E/DX2                !
 ! D33   D(7,8,9,14)           153.5496         estimate D2E/DX2                !
 ! D34   D(8,9,10,11)          179.4308         estimate D2E/DX2                !
 ! D35   D(8,9,10,24)           -1.4417         estimate D2E/DX2                !
 ! D36   D(14,9,10,11)          -0.3364         estimate D2E/DX2                !
 ! D37   D(14,9,10,24)         178.7912         estimate D2E/DX2                !
 ! D38   D(8,9,14,13)          179.9398         estimate D2E/DX2                !
 ! D39   D(8,9,14,28)           -0.3536         estimate D2E/DX2                !
 ! D40   D(10,9,14,13)          -0.2923         estimate D2E/DX2                !
 ! D41   D(10,9,14,28)         179.4143         estimate D2E/DX2                !
 ! D42   D(9,10,11,12)           0.5448         estimate D2E/DX2                !
 ! D43   D(9,10,11,25)        -179.9487         estimate D2E/DX2                !
 ! D44   D(24,10,11,12)       -178.581          estimate D2E/DX2                !
 ! D45   D(24,10,11,25)          0.9255         estimate D2E/DX2                !
 ! D46   D(10,11,12,13)         -0.1247         estimate D2E/DX2                !
 ! D47   D(10,11,12,26)        179.7748         estimate D2E/DX2                !
 ! D48   D(25,11,12,13)       -179.6263         estimate D2E/DX2                !
 ! D49   D(25,11,12,26)          0.2731         estimate D2E/DX2                !
 ! D50   D(11,12,13,14)         -0.5174         estimate D2E/DX2                !
 ! D51   D(11,12,13,27)       -179.7311         estimate D2E/DX2                !
 ! D52   D(26,12,13,14)        179.5832         estimate D2E/DX2                !
 ! D53   D(26,12,13,27)          0.3694         estimate D2E/DX2                !
 ! D54   D(12,13,14,9)           0.7199         estimate D2E/DX2                !
 ! D55   D(12,13,14,28)       -178.9816         estimate D2E/DX2                !
 ! D56   D(27,13,14,9)         179.9412         estimate D2E/DX2                !
 ! D57   D(27,13,14,28)          0.2397         estimate D2E/DX2                !
 ! D58   D(2,15,16,17)        -178.0447         estimate D2E/DX2                !
 ! D59   D(2,15,16,29)           2.1677         estimate D2E/DX2                !
 ! D60   D(20,15,16,17)         -0.4767         estimate D2E/DX2                !
 ! D61   D(20,15,16,29)        179.7357         estimate D2E/DX2                !
 ! D62   D(2,15,20,19)         177.9361         estimate D2E/DX2                !
 ! D63   D(2,15,20,33)          -2.1031         estimate D2E/DX2                !
 ! D64   D(16,15,20,19)          0.3634         estimate D2E/DX2                !
 ! D65   D(16,15,20,33)       -179.6758         estimate D2E/DX2                !
 ! D66   D(15,16,17,18)          0.3086         estimate D2E/DX2                !
 ! D67   D(15,16,17,30)       -179.8246         estimate D2E/DX2                !
 ! D68   D(29,16,17,18)       -179.9041         estimate D2E/DX2                !
 ! D69   D(29,16,17,30)         -0.0373         estimate D2E/DX2                !
 ! D70   D(16,17,18,19)         -0.0413         estimate D2E/DX2                !
 ! D71   D(16,17,18,31)        179.9324         estimate D2E/DX2                !
 ! D72   D(30,17,18,19)       -179.9073         estimate D2E/DX2                !
 ! D73   D(30,17,18,31)          0.0664         estimate D2E/DX2                !
 ! D74   D(17,18,19,20)         -0.074          estimate D2E/DX2                !
 ! D75   D(17,18,19,32)        179.9093         estimate D2E/DX2                !
 ! D76   D(31,18,19,20)        179.9523         estimate D2E/DX2                !
 ! D77   D(31,18,19,32)         -0.0644         estimate D2E/DX2                !
 ! D78   D(18,19,20,15)         -0.083          estimate D2E/DX2                !
 ! D79   D(18,19,20,33)        179.9568         estimate D2E/DX2                !
 ! D80   D(32,19,20,15)        179.9335         estimate D2E/DX2                !
 ! D81   D(32,19,20,33)         -0.0266         estimate D2E/DX2                !
 --------------------------------------------------------------------------------
 Trust Radius=3.00D-01 FncErr=1.00D-07 GrdErr=1.00D-06 EigMax=2.50D+02 EigMin=1.00D-04
 Number of steps in this run=    182 maximum allowed number of steps=    198.
 GradGradGradGradGradGradGradGradGradGradGradGradGradGradGradGradGradGrad

 Leave Link  103 at Wed Sep 23 06:01:29 2020, MaxMem=  2147483648 cpu:               0.1 elap:               0.0
 (Enter /prod/apps/gaussian/g16b1/l202.exe)
                          Input orientation:                          
 ---------------------------------------------------------------------
 Center     Atomic      Atomic             Coordinates (Angstroms)
 Number     Number       Type             X           Y           Z
 ---------------------------------------------------------------------
      1          8           0        1.529000   -1.270000    1.784000
      2         16           0        2.182000   -1.418000    0.474000
      3          7           0        1.035000   -1.418000   -0.790000
      4          6           0       -0.146000   -0.668000   -0.630000
      5          7           0       -0.155000    0.683000   -0.797000
      6          7           0       -1.373000    1.122000   -0.619000
      7          6           0       -1.426000   -1.088000   -0.334000
      8          7           0       -2.159000    0.052000   -0.350000
      9          6           0       -3.558000    0.213000   -0.132000
     10          6           0       -4.424000   -0.848000   -0.402000
     11          6           0       -5.789000   -0.684000   -0.174000
     12          6           0       -6.284000    0.529000    0.307000
     13          6           0       -5.407000    1.584000    0.564000
     14          6           0       -4.038000    1.432000    0.354000
     15          6           0        3.138000    0.056000    0.165000
     16          6           0        3.885000    0.148000   -1.013000
     17          6           0        4.660000    1.283000   -1.227000
     18          6           0        4.688000    2.303000   -0.271000
     19          6           0        3.941000    2.193000    0.902000
     20          6           0        3.157000    1.062000    1.130000
     21          8           0        3.005000   -2.606000    0.206000
     22          1           0        0.878000   -2.386000   -1.077000
     23          1           0       -1.841000   -2.057000   -0.119000
     24          1           0       -4.040000   -1.781000   -0.797000
     25          1           0       -6.465000   -1.507000   -0.382000
     26          1           0       -7.347000    0.652000    0.479000
     27          1           0       -5.784000    2.528000    0.942000
     28          1           0       -3.344000    2.235000    0.564000
     29          1           0        3.857000   -0.650000   -1.747000
     30          1           0        5.243000    1.371000   -2.137000
     31          1           0        5.295000    3.185000   -0.443000
     32          1           0        3.966000    2.985000    1.642000
     33          1           0        2.570000    0.954000    2.032000
 ---------------------------------------------------------------------
                    Distance matrix (angstroms):
                    1          2          3          4          5
     1  O    0.000000
     2  S    1.471194   0.000000
     3  N    2.625151   1.706841   0.000000
     4  C    2.999237   2.683449   1.408141   0.000000
     5  N    3.648510   3.389869   2.414612   1.361312   0.000000
     6  N    4.462922   4.503807   3.504184   2.170196   1.306878
     7  C    3.640202   3.712065   2.524551   1.379281   2.228509
     8  N    4.461276   4.656625   3.543464   2.156147   2.148019
     9  C    5.634529   5.997916   4.918208   3.558920   3.499076
    10  C    6.355697   6.688162   5.502374   4.287851   4.552400
    11  C    7.598045   8.030909   6.890950   5.661417   5.830847
    12  C    8.152355   8.688605   7.652580   6.323434   6.229540
    13  C    7.598803   8.161680   7.234963   5.845961   5.499784
    14  C    6.351157   6.842901   5.930140   4.530554   4.118676
    15  C    2.639757   1.783842   2.739947   3.455555   3.487466
    16  C    3.922330   2.750224   3.259538   4.130558   4.080990
    17  C    5.038560   4.040951   4.541695   5.221154   4.871255
    18  C    5.193133   4.547626   5.240192   5.685356   5.133783
    19  C    4.311385   4.039379   4.934270   5.218804   4.684433
    20  C    2.918274   2.744333   3.786778   4.123143   3.850495
    21  O    2.540385   1.469863   2.506843   3.792564   4.670025
    22  H    3.139200   2.245672   1.021784   2.049368   3.250269
    23  H    3.949390   4.116370   3.021579   2.250215   3.287838
    24  H    6.159257   6.360856   5.087970   4.053381   4.600491
    25  H    8.285636   8.689722   7.511617   6.379278   6.692117
    26  H    9.174992   9.751244   8.726579   7.404504   7.304382
    27  H    8.283341   8.902084   8.066567   6.668781   6.173636
    28  H    6.125321   6.624891   5.861174   4.481099   3.798782
    29  H    4.274570   2.885878   3.077232   4.155962   4.333074
    30  H    6.011898   4.895464   5.224959   5.955660   5.604226
    31  H    6.244142   5.631986   6.281371   6.669712   6.007314
    32  H    4.905523   4.892166   5.821666   5.951045   5.313244
    33  H    2.468068   2.864314   3.993281   4.134463   3.937297
                    6          7          8          9         10
     6  N    0.000000
     7  C    2.228931   0.000000
     8  N    1.354643   1.355413   0.000000
     9  C    2.416128   2.505759   1.425007   0.000000
    10  C    3.638212   3.008360   2.437812   1.395914   0.000000
    11  C    4.791734   4.384585   3.708042   2.404940   1.393594
    12  C    5.032598   5.160013   4.204141   2.779146   2.420415
    13  C    4.229195   4.877945   3.705661   2.404757   2.795366
    14  C    2.853954   3.694088   2.435294   1.397339   2.432886
    15  C    4.701078   4.731578   5.321978   6.704422   7.636920
    16  C    5.361947   5.495039   6.081013   7.495241   8.390758
    17  C    6.065696   6.592305   6.984501   8.359393   9.367008
    18  C    6.184787   6.991698   7.207957   8.507875   9.642329
    19  C    5.630193   6.410721   6.584936   7.824612   8.995628
    20  C    4.856285   5.269695   5.609845   6.885105   7.966598
    21  O    5.809087   4.714837   5.834466   7.150802   7.658346
    22  H    4.193188   2.746865   3.961785   5.227420   5.561679
    23  H    3.251933   1.075830   2.145313   2.846253   2.865948
    24  H    3.946135   2.743650   2.664181   2.156522   1.083499
    25  H    5.735527   5.056618   4.579644   3.386968   2.144845
    26  H    6.092223   6.224694   5.287966   3.862973   3.401483
    27  H    4.885742   5.804808   4.576075   3.386411   3.879860
    28  H    2.554036   3.940489   2.646717   2.149115   3.406530
    29  H    5.636068   5.486210   6.215840   7.637750   8.391853
    30  H    6.792480   7.333011   7.728049   9.100472  10.069016
    31  H    6.982061   7.965064   8.086189   9.343721  10.522629
    32  H    6.089976   7.040424   7.077159   8.212286   9.447853
    33  H    4.754290   5.073040   5.371310   6.540976   7.621522
                   11         12         13         14         15
    11  C    0.000000
    12  C    1.395620   0.000000
    13  C    2.415449   1.395780   0.000000
    14  C    2.796827   2.421184   1.393329   0.000000
    15  C    8.964031   9.434934   8.689707   7.309177   0.000000
    16  C    9.745893  10.261390   9.533640   8.141945   1.397912
    17  C   10.684545  11.076679  10.229505   8.841774   2.399933
    18  C   10.894912  11.129508  10.154960   8.791606   2.764345
    19  C   10.203323  10.376586   9.373912   8.033920   2.398905
    20  C    9.207597   9.491781   8.598543   7.246178   1.394138
    21  O    9.009602   9.804282   9.404574   8.119803   2.665636
    22  H    6.939820   7.855376   7.612819   6.386857   3.551553
    23  H    4.180294   5.158403   5.141957   4.150140   5.416259
    24  H    2.156511   3.404475   3.878690   3.412942   7.471526
    25  H    1.085159   2.157030   3.401259   3.881977   9.744731
    26  H    2.153757   1.083827   2.153938   3.401986  10.506619
    27  H    3.400357   2.156206   1.084504   2.143706   9.290673
    28  H    3.878560   3.408825   2.163278   1.081917   6.850078
    29  H    9.773474  10.413877   9.805772   8.430893   2.161282
    30  H   11.392165  11.813290  10.989234   9.609670   3.385182
    31  H   11.742937  11.903364  10.867845   9.529591   3.848760
    32  H   10.579199  10.624343   9.538240   8.254379   3.383217
    33  H    8.798998   9.030480   8.135383   6.834459   2.148189
                   16         17         18         19         20
    16  C    0.000000
    17  C    1.390916   0.000000
    18  C    2.416485   1.398256   0.000000
    19  C    2.802211   2.424397   1.395005   0.000000
    20  C    2.440866   2.804157   2.418025   1.394920   0.000000
    21  O    3.137655   4.462828   5.211362   4.938716   3.785644
    22  H    3.932849   5.271393   6.095282   5.853687   4.685445
    23  H    6.200672   7.392311   7.852423   7.248204   6.022306
    24  H    8.159248   9.233796   9.650581   9.076103   7.974509
    25  H   10.500461  11.500598  11.786341  11.118610  10.073172
    26  H   11.341865  12.143996  12.170847  11.400551  10.532137
    27  H   10.147708  10.739261  10.544419   9.730850   9.062339
    28  H    7.687714   8.256997   8.075573   7.292958   6.630180
    29  H    1.084594   2.156780   3.404313   3.886760   3.420245
    30  H    2.145523   1.084312   2.158380   3.406818   3.888466
    31  H    3.396523   2.153018   1.084416   2.150908   3.398897
    32  H    3.886406   3.407286   2.155453   1.084200   2.148151
    33  H    3.413339   3.885540   3.407277   2.166024   1.081590
                   21         22         23         24         25
    21  O    0.000000
    22  H    2.493716   0.000000
    23  H    4.887816   2.901545   0.000000
    24  H    7.163704   4.962978   2.317641   0.000000
    25  H    9.551672   7.428009   4.664016   2.475465   0.000000
    26  H   10.856012   8.905122   6.165413   4.299292   2.486066
    27  H   10.205203   8.520916   6.139641   4.963178   4.300926
    28  H    7.992074   6.470843   4.598561   4.297091   4.963680
    29  H    2.892412   3.512412   6.090750   8.033945  10.447074
    30  H    5.129797   5.855926   8.124442   9.894685  12.183603
    31  H    6.261069   7.137779   8.860363  10.579636  12.661603
    32  H    5.851914   6.765822   7.889495   9.631174  11.536048
    33  H    4.024562   4.866656   5.757590   7.692566   9.670323
                   26         27         28         29         30
    26  H    0.000000
    27  H    2.485300   0.000000
    28  H    4.305476   2.486430   0.000000
    29  H   11.496952  10.501394   8.094340   0.000000
    30  H   12.878995  11.507112   9.043145   2.481438   0.000000
    31  H   12.926188  11.184548   8.749221   4.298312   2.482526
    32  H   11.609454   9.785773   7.427024   4.970958   4.303088
    33  H   10.042405   8.570583   6.226667   4.302328   4.969847
                   31         32         33
    31  H    0.000000
    32  H    2.480618   0.000000
    33  H    4.304487   2.495171   0.000000
 Symmetry turned off by external request.
 Stoichiometry    C14H12N4O2S
 Framework group  C1[X(C14H12N4O2S)]
 Deg. of freedom    93
 Full point group                 C1      NOp   1
 Rotational constants (GHZ):           0.7006887           0.1318405           0.1200810
 Leave Link  202 at Wed Sep 23 06:01:29 2020, MaxMem=  2147483648 cpu:               0.0 elap:               0.0
 (Enter /prod/apps/gaussian/g16b1/l301.exe)
 Standard basis: 6-31G(d) (6D, 7F)
 Ernie: Thresh=  0.10000D-02 Tol=  0.10000D-05 Strict=F.
   343 basis functions,   660 primitive gaussians,   343 cartesian basis functions
    78 alpha electrons       78 beta electrons
       nuclear repulsion energy      1714.0113829612 Hartrees.
 IExCor=  402 DFT=T Ex+Corr=B3LYP ExCW=0 ScaHFX=  0.200000
 ScaDFX=  0.800000  0.720000  1.000000  0.810000 ScalE2=  1.000000  1.000000
 IRadAn=      5 IRanWt=     -1 IRanGd=            0 ICorTp=0 IEmpDi=  4
 NAtoms=   33 NActive=   33 NUniq=   33 SFac= 1.00D+00 NAtFMM=   60 NAOKFM=F Big=F
 Integral buffers will be    131072 words long.
 Raffenetti 2 integral format.
 Two-electron integral symmetry is turned off.
 Using the following non-standard input for PCM:
 MSTModel=DFT cav
 --- end of non-standard input.
 MST model for solvation energy: B3LYP parametrization.
 MST cavity parameters:
 ISph   IAn     Re0     Alpha   Atom Type   QCorr
 ------------------------------------------------
   1      8     1.40     1.25      O          F
   2     16     1.75     1.25      S          F
   3      7     1.50     1.25      NH         F
   4      6     1.50     1.25      C          F
   5      7     1.40     1.25      N          F
   6      7     1.40     1.25      N          F
   7      6     1.50     1.25      CH         F
   8      7     1.40     1.25      N          F
   9      6     1.50     1.25      C          F
  10      6     1.50     1.25      CH         F
  11      6     1.50     1.25      CH         F
  12      6     1.50     1.25      CH         F
  13      6     1.50     1.25      CH         F
  14      6     1.50     1.25      CH         F
  15      6     1.50     1.25      C          F
  16      6     1.50     1.25      CH         F
  17      6     1.50     1.25      CH         F
  18      6     1.50     1.25      CH         F
  19      6     1.50     1.25      CH         F
  20      6     1.50     1.25      CH         F
  21      8     1.40     1.25      O          F
  22      1     0.90     1.25      NH         F
  23      1     1.20     1.25      CH         F
  24      1     1.20     1.25      CH         F
  25      1     1.20     1.25      CH         F
  26      1     1.20     1.25      CH         F
  27      1     1.20     1.25      CH         F
  28      1     1.20     1.25      CH         F
  29      1     1.20     1.25      CH         F
  30      1     1.20     1.25      CH         F
  31      1     1.20     1.25      CH         F
  32      1     1.20     1.25      CH         F
  33      1     1.20     1.25      CH         F
 ------------------------------------------------------------------------------
 Polarizable Continuum Model (PCM)
 =================================
 Model                : PCM.
 Atomic radii         : MST.
 Polarization charges : Total charges.
 Charge compensation  : None.
 Solution method      : On-the-fly selection.
 Cavity type          : Scaled VdW (van der Waals Surface) (Alpha=1.250).
 Cavity algorithm     : GePol (No added spheres)
                        Default sphere list used, NSphG=   33.
                        Lebedev-Laikov grids with approx.  5.0 points / Ang**2.
                        Smoothing algorithm: York/Karplus (Gamma=1.0000).
                        Polarization charges: spherical gaussians, with
                                              point-specific exponents (IZeta= 3).
                        Self-potential: point-specific (ISelfS= 7).
                        Self-field    : sphere-specific E.n sum rule (ISelfD= 2).
 1st derivatives      : Analytical E(r).r(x)/FMM algorithm (CHGder, D1EAlg=3).
                        Cavity 1st derivative terms included.
 Solvent              : Water, Eps=  78.355300 Eps(inf)=   1.777849
 ------------------------------------------------------------------------------
 GePol: Number of generator spheres                  =      33
 GePol: Total number of spheres                      =      33
 GePol: Number of exposed spheres                    =      33 (100.00%)
 GePol: Number of points                             =    2666
 GePol: Average weight of points                     =       0.13
 GePol: Minimum weight of points                     =   0.21D-09
 GePol: Maximum weight of points                     =    0.22001
 GePol: Number of points with low weight             =     148
 GePol: Fraction of low-weight points (<1% of avg)   =       5.55%
 GePol: Cavity surface area                          =    339.092 Ang**2
 GePol: Cavity volume                                =    321.576 Ang**3
 PCM non-electrostatic energy =         0.0030221209 Hartrees.
 Nuclear repulsion after PCM non-electrostatic terms =     1714.0144050821 Hartrees.
 Leave Link  301 at Wed Sep 23 06:01:29 2020, MaxMem=  2147483648 cpu:               0.3 elap:               0.1
 (Enter /prod/apps/gaussian/g16b1/l302.exe)
 NPDir=0 NMtPBC=     1 NCelOv=     1 NCel=       1 NClECP=     1 NCelD=      1
         NCelK=      1 NCelE2=     1 NClLst=     1 CellRange=     0.0.
 One-electron integrals computed using PRISM.
 NBasis=   343 RedAO= T EigKep=  4.68D-04  NBF=   343
 NBsUse=   343 1.00D-06 EigRej= -1.00D+00 NBFU=   343
 Precomputing XC quadrature grid using
 IXCGrd= 4 IRadAn=           5 IRanWt=          -1 IRanGd=           0 AccXCQ= 0.00D+00.
 Generated NRdTot=       0 NPtTot=           0 NUsed=           0 NTot=          32
 NSgBfM=   338   338   338   338   338 MxSgAt=    33 MxSgA2=    33.
 Leave Link  302 at Wed Sep 23 06:01:30 2020, MaxMem=  2147483648 cpu:               1.6 elap:               0.4
 (Enter /prod/apps/gaussian/g16b1/l303.exe)
 DipDrv:  MaxL=1.
 Leave Link  303 at Wed Sep 23 06:01:30 2020, MaxMem=  2147483648 cpu:               0.1 elap:               0.1
 (Enter /prod/apps/gaussian/g16b1/l401.exe)
 ExpMin= 1.17D-01 ExpMax= 2.19D+04 ExpMxC= 3.30D+03 IAcc=3 IRadAn=         5 AccDes= 0.00D+00
 Harris functional with IExCor=  402 and IRadAn=       5 diagonalized for initial guess.
 HarFok:  IExCor=  402 AccDes= 0.00D+00 IRadAn=         5 IDoV= 1 UseB2=F ITyADJ=14
 ICtDFT=  3500011 ScaDFX=  1.000000  1.000000  1.000000  1.000000
 FoFCou: FMM=F IPFlag=           0 FMFlag=      100000 FMFlg1=           0
         NFxFlg=           0 DoJE=T BraDBF=F KetDBF=T FulRan=T
         wScrn=  0.000000 ICntrl=       500 IOpCl=  0 I1Cent=   200000004 NGrid=           0
         NMat0=    1 NMatS0=      1 NMatT0=    0 NMatD0=    1 NMtDS0=    0 NMtDT0=    0
 Symmetry not used in FoFCou.
 Harris En= -1308.24424116885    
 JPrj=0 DoOrth=F DoCkMO=F.
 Leave Link  401 at Wed Sep 23 06:01:32 2020, MaxMem=  2147483648 cpu:               8.4 elap:               2.1
 (Enter /prod/apps/gaussian/g16b1/l502.exe)
 Two-electron integral symmetry not used.
 Closed shell SCF:
 Using DIIS extrapolation, IDIIS=  1040.
 NGot=  2147483648 LenX=  2147243388 LenY=  2147125298
 Requested convergence on RMS density matrix=1.00D-08 within2000 cycles.
 Requested convergence on MAX density matrix=1.00D-06.
 Requested convergence on             energy=1.00D-06.
 No special actions if energy rises.

 Cycle   1  Pass 1  IDiag  1:
 FoFJK:  IHMeth= 1 ICntrl=       0 DoSepK=F KAlg= 0 I1Cent=           0 FoldK=F
 IRaf= 710000000 NMat=       1 IRICut=       1 DoRegI=T DoRafI=F ISym2E= 0 IDoP0=0 IntGTp=1.
 FoFCou: FMM=F IPFlag=           0 FMFlag=      100000 FMFlg1=           0
         NFxFlg=           0 DoJE=F BraDBF=F KetDBF=F FulRan=T
         wScrn=  0.000000 ICntrl=         0 IOpCl=  0 I1Cent=           0 NGrid=           0
         NMat0=    1 NMatS0=      1 NMatT0=    0 NMatD0=    1 NMtDS0=    0 NMtDT0=    0
 Symmetry not used in FoFCou.
 Inv3:  Mode=1 IEnd=    21322668.
 Iteration    1 A*A^-1 deviation from unit magnitude is 3.77D-15 for   1274.
 Iteration    1 A*A^-1 deviation from orthogonality  is 2.33D-15 for   2442    491.
 Iteration    1 A^-1*A deviation from unit magnitude is 3.33D-15 for    729.
 Iteration    1 A^-1*A deviation from orthogonality  is 1.88D-15 for   2269   2120.
 E= -1307.69397130156    
 DIIS: error= 3.19D-02 at cycle   1 NSaved=   1.
 NSaved= 1 IEnMin= 1 EnMin= -1307.69397130156     IErMin= 1 ErrMin= 3.19D-02
 ErrMax= 3.19D-02  0.00D+00 EMaxC= 1.00D-01 BMatC= 6.48D-01 BMatP= 6.48D-01
 IDIUse=3 WtCom= 6.81D-01 WtEn= 3.19D-01
 Coeff-Com:  0.100D+01
 Coeff-En:   0.100D+01
 Coeff:      0.100D+01
 Gap=     0.262 Goal=   None    Shift=    0.000
 GapD=    0.262 DampG=1.000 DampE=0.500 DampFc=0.5000 IDamp=-1.
 Damping current iteration by 5.00D-01
 RMSDP=5.78D-03 MaxDP=5.69D-01              OVMax= 2.36D-01

 Cycle   2  Pass 1  IDiag  1:
 E= -1307.84943960231     Delta-E=       -0.155468300751 Rises=F Damp=T
 DIIS: error= 1.12D-02 at cycle   2 NSaved=   2.
 NSaved= 2 IEnMin= 2 EnMin= -1307.84943960231     IErMin= 2 ErrMin= 1.12D-02
 ErrMax= 1.12D-02  0.00D+00 EMaxC= 1.00D-01 BMatC= 9.79D-02 BMatP= 6.48D-01
 IDIUse=3 WtCom= 8.88D-01 WtEn= 1.12D-01
 Coeff-Com:  0.218D+00 0.782D+00
 Coeff-En:   0.347D+00 0.653D+00
 Coeff:      0.233D+00 0.767D+00
 Gap=     0.223 Goal=   None    Shift=    0.000
 RMSDP=1.69D-03 MaxDP=1.30D-01 DE=-1.55D-01 OVMax= 1.72D-01

 Cycle   3  Pass 1  IDiag  1:
 E= -1308.22642683968     Delta-E=       -0.376987237365 Rises=F Damp=F
 DIIS: error= 6.53D-03 at cycle   3 NSaved=   3.
 NSaved= 3 IEnMin= 3 EnMin= -1308.22642683968     IErMin= 3 ErrMin= 6.53D-03
 ErrMax= 6.53D-03  0.00D+00 EMaxC= 1.00D-01 BMatC= 4.80D-02 BMatP= 9.79D-02
 IDIUse=3 WtCom= 9.35D-01 WtEn= 6.53D-02
 Coeff-Com:  0.541D-01 0.410D+00 0.536D+00
 Coeff-En:   0.000D+00 0.000D+00 0.100D+01
 Coeff:      0.505D-01 0.383D+00 0.566D+00
 Gap=     0.199 Goal=   None    Shift=    0.000
 RMSDP=8.63D-04 MaxDP=3.18D-02 DE=-3.77D-01 OVMax= 4.15D-02

 Cycle   4  Pass 1  IDiag  1:
 E= -1308.26407801173     Delta-E=       -0.037651172053 Rises=F Damp=F
 DIIS: error= 2.58D-03 at cycle   4 NSaved=   4.
 NSaved= 4 IEnMin= 4 EnMin= -1308.26407801173     IErMin= 4 ErrMin= 2.58D-03
 ErrMax= 2.58D-03  0.00D+00 EMaxC= 1.00D-01 BMatC= 6.83D-03 BMatP= 4.80D-02
 IDIUse=3 WtCom= 9.74D-01 WtEn= 2.58D-02
 Coeff-Com:  0.542D-03 0.938D-01 0.300D+00 0.606D+00
 Coeff-En:   0.000D+00 0.000D+00 0.101D+00 0.899D+00
 Coeff:      0.528D-03 0.914D-01 0.295D+00 0.614D+00
 Gap=     0.198 Goal=   None    Shift=    0.000
 RMSDP=2.81D-04 MaxDP=1.53D-02 DE=-3.77D-02 OVMax= 1.51D-02

 Cycle   5  Pass 1  IDiag  1:
 E= -1308.26965667993     Delta-E=       -0.005578668201 Rises=F Damp=F
 DIIS: error= 6.11D-04 at cycle   5 NSaved=   5.
 NSaved= 5 IEnMin= 5 EnMin= -1308.26965667993     IErMin= 5 ErrMin= 6.11D-04
 ErrMax= 6.11D-04  0.00D+00 EMaxC= 1.00D-01 BMatC= 5.66D-04 BMatP= 6.83D-03
 IDIUse=3 WtCom= 9.94D-01 WtEn= 6.11D-03
 Coeff-Com: -0.397D-02 0.183D-01 0.109D+00 0.318D+00 0.559D+00
 Coeff-En:   0.000D+00 0.000D+00 0.000D+00 0.000D+00 0.100D+01
 Coeff:     -0.394D-02 0.182D-01 0.108D+00 0.316D+00 0.562D+00
 Gap=     0.197 Goal=   None    Shift=    0.000
 RMSDP=8.64D-05 MaxDP=4.01D-03 DE=-5.58D-03 OVMax= 6.03D-03

 Cycle   6  Pass 1  IDiag  1:
 E= -1308.27012971590     Delta-E=       -0.000473035964 Rises=F Damp=F
 DIIS: error= 3.08D-04 at cycle   6 NSaved=   6.
 NSaved= 6 IEnMin= 6 EnMin= -1308.27012971590     IErMin= 6 ErrMin= 3.08D-04
 ErrMax= 3.08D-04  0.00D+00 EMaxC= 1.00D-01 BMatC= 5.86D-05 BMatP= 5.66D-04
 IDIUse=3 WtCom= 9.97D-01 WtEn= 3.08D-03
 Coeff-Com: -0.225D-02 0.448D-02 0.393D-01 0.130D+00 0.317D+00 0.511D+00
 Coeff-En:   0.000D+00 0.000D+00 0.000D+00 0.000D+00 0.220D-01 0.978D+00
 Coeff:     -0.224D-02 0.447D-02 0.392D-01 0.130D+00 0.316D+00 0.513D+00
 Gap=     0.197 Goal=   None    Shift=    0.000
 RMSDP=2.72D-05 MaxDP=1.27D-03 DE=-4.73D-04 OVMax= 1.87D-03

 Cycle   7  Pass 1  IDiag  1:
 E= -1308.27018113203     Delta-E=       -0.000051416128 Rises=F Damp=F
 DIIS: error= 1.13D-04 at cycle   7 NSaved=   7.
 NSaved= 7 IEnMin= 7 EnMin= -1308.27018113203     IErMin= 7 ErrMin= 1.13D-04
 ErrMax= 1.13D-04  0.00D+00 EMaxC= 1.00D-01 BMatC= 5.78D-06 BMatP= 5.86D-05
 IDIUse=3 WtCom= 9.99D-01 WtEn= 1.13D-03
 EnCoef did    10 forward-backward iterations
 Coeff-Com: -0.104D-02 0.735D-03 0.130D-01 0.478D-01 0.137D+00 0.301D+00
 Coeff-Com:  0.502D+00
 Coeff-En:   0.000D+00 0.000D+00 0.000D+00 0.000D+00 0.000D+00 0.210D-02
 Coeff-En:   0.998D+00
 Coeff:     -0.104D-02 0.735D-03 0.130D-01 0.478D-01 0.136D+00 0.300D+00
 Coeff:      0.503D+00
 Gap=     0.197 Goal=   None    Shift=    0.000
 RMSDP=7.72D-06 MaxDP=4.48D-04 DE=-5.14D-05 OVMax= 5.79D-04

 Cycle   8  Pass 1  IDiag  1:
 E= -1308.27018569801     Delta-E=       -0.000004565988 Rises=F Damp=F
 DIIS: error= 3.50D-05 at cycle   8 NSaved=   8.
 NSaved= 8 IEnMin= 8 EnMin= -1308.27018569801     IErMin= 8 ErrMin= 3.50D-05
 ErrMax= 3.50D-05  0.00D+00 EMaxC= 1.00D-01 BMatC= 5.35D-07 BMatP= 5.78D-06
 IDIUse=1 WtCom= 1.00D+00 WtEn= 0.00D+00
 Coeff-Com: -0.300D-03-0.116D-03 0.224D-02 0.101D-01 0.365D-01 0.105D+00
 Coeff-Com:  0.279D+00 0.568D+00
 Coeff:     -0.300D-03-0.116D-03 0.224D-02 0.101D-01 0.365D-01 0.105D+00
 Coeff:      0.279D+00 0.568D+00
 Gap=     0.197 Goal=   None    Shift=    0.000
 RMSDP=2.37D-06 MaxDP=1.64D-04 DE=-4.57D-06 OVMax= 1.78D-04

 Cycle   9  Pass 1  IDiag  1:
 E= -1308.27018611883     Delta-E=       -0.000000420813 Rises=F Damp=F
 DIIS: error= 9.02D-06 at cycle   9 NSaved=   9.
 NSaved= 9 IEnMin= 9 EnMin= -1308.27018611883     IErMin= 9 ErrMin= 9.02D-06
 ErrMax= 9.02D-06  0.00D+00 EMaxC= 1.00D-01 BMatC= 4.42D-08 BMatP= 5.35D-07
 IDIUse=1 WtCom= 1.00D+00 WtEn= 0.00D+00
 Coeff-Com: -0.174D-04-0.140D-03-0.502D-03-0.104D-02 0.743D-03 0.132D-01
 Coeff-Com:  0.695D-01 0.278D+00 0.640D+00
 Coeff:     -0.174D-04-0.140D-03-0.502D-03-0.104D-02 0.743D-03 0.132D-01
 Coeff:      0.695D-01 0.278D+00 0.640D+00
 Gap=     0.197 Goal=   None    Shift=    0.000
 RMSDP=6.81D-07 MaxDP=4.52D-05 DE=-4.21D-07 OVMax= 5.46D-05

 Cycle  10  Pass 1  IDiag  1:
 E= -1308.27018615420     Delta-E=       -0.000000035370 Rises=F Damp=F
 DIIS: error= 2.71D-06 at cycle  10 NSaved=  10.
 NSaved=10 IEnMin=10 EnMin= -1308.27018615420     IErMin=10 ErrMin= 2.71D-06
 ErrMax= 2.71D-06  0.00D+00 EMaxC= 1.00D-01 BMatC= 4.21D-09 BMatP= 4.42D-08
 IDIUse=1 WtCom= 1.00D+00 WtEn= 0.00D+00
 Coeff-Com:  0.609D-05-0.639D-04-0.380D-03-0.111D-02-0.163D-02 0.151D-02
 Coeff-Com:  0.220D-01 0.121D+00 0.342D+00 0.517D+00
 Coeff:      0.609D-05-0.639D-04-0.380D-03-0.111D-02-0.163D-02 0.151D-02
 Coeff:      0.220D-01 0.121D+00 0.342D+00 0.517D+00
 Gap=     0.197 Goal=   None    Shift=    0.000
 RMSDP=2.30D-07 MaxDP=1.28D-05 DE=-3.54D-08 OVMax= 2.35D-05

 Cycle  11  Pass 1  IDiag  1:
 E= -1308.27018615768     Delta-E=       -0.000000003483 Rises=F Damp=F
 DIIS: error= 8.83D-07 at cycle  11 NSaved=  11.
 NSaved=11 IEnMin=11 EnMin= -1308.27018615768     IErMin=11 ErrMin= 8.83D-07
 ErrMax= 8.83D-07  0.00D+00 EMaxC= 1.00D-01 BMatC= 3.81D-10 BMatP= 4.21D-09
 IDIUse=1 WtCom= 1.00D+00 WtEn= 0.00D+00
 Coeff-Com:  0.491D-05-0.126D-04-0.120D-03-0.401D-03-0.917D-03-0.987D-03
 Coeff-Com:  0.116D-02 0.230D-01 0.767D-01 0.257D+00 0.644D+00
 Coeff:      0.491D-05-0.126D-04-0.120D-03-0.401D-03-0.917D-03-0.987D-03
 Coeff:      0.116D-02 0.230D-01 0.767D-01 0.257D+00 0.644D+00
 Gap=     0.197 Goal=   None    Shift=    0.000
 RMSDP=7.48D-08 MaxDP=4.48D-06 DE=-3.48D-09 OVMax= 7.72D-06

 Cycle  12  Pass 1  IDiag  1:
 E= -1308.27018615798     Delta-E=       -0.000000000296 Rises=F Damp=F
 DIIS: error= 3.14D-07 at cycle  12 NSaved=  12.
 NSaved=12 IEnMin=12 EnMin= -1308.27018615798     IErMin=12 ErrMin= 3.14D-07
 ErrMax= 3.14D-07  0.00D+00 EMaxC= 1.00D-01 BMatC= 9.81D-11 BMatP= 3.81D-10
 IDIUse=1 WtCom= 1.00D+00 WtEn= 0.00D+00
 Coeff-Com:  0.271D-05-0.370D-06-0.354D-04-0.137D-03-0.427D-03-0.856D-03
 Coeff-Com: -0.192D-02 0.669D-03 0.784D-02 0.104D+00 0.412D+00 0.479D+00
 Coeff:      0.271D-05-0.370D-06-0.354D-04-0.137D-03-0.427D-03-0.856D-03
 Coeff:     -0.192D-02 0.669D-03 0.784D-02 0.104D+00 0.412D+00 0.479D+00
 Gap=     0.197 Goal=   None    Shift=    0.000
 RMSDP=2.73D-08 MaxDP=1.76D-06 DE=-2.96D-10 OVMax= 2.37D-06

 Cycle  13  Pass 1  IDiag  1:
 E= -1308.27018615805     Delta-E=       -0.000000000075 Rises=F Damp=F
 DIIS: error= 5.61D-08 at cycle  13 NSaved=  13.
 NSaved=13 IEnMin=13 EnMin= -1308.27018615805     IErMin=13 ErrMin= 5.61D-08
 ErrMax= 5.61D-08  0.00D+00 EMaxC= 1.00D-01 BMatC= 2.11D-12 BMatP= 9.81D-11
 IDIUse=1 WtCom= 1.00D+00 WtEn= 0.00D+00
 Coeff-Com:  0.573D-06 0.813D-06-0.144D-05-0.105D-04-0.721D-04-0.235D-03
 Coeff-Com: -0.851D-03-0.203D-02-0.558D-02 0.125D-01 0.892D-01 0.165D+00
 Coeff-Com:  0.742D+00
 Coeff:      0.573D-06 0.813D-06-0.144D-05-0.105D-04-0.721D-04-0.235D-03
 Coeff:     -0.851D-03-0.203D-02-0.558D-02 0.125D-01 0.892D-01 0.165D+00
 Coeff:      0.742D+00
 Gap=     0.197 Goal=   None    Shift=    0.000
 RMSDP=6.81D-09 MaxDP=2.38D-07 DE=-7.46D-11 OVMax= 6.07D-07

 Error on total polarization charges =  0.02245
 SCF Done:  E(RB3LYP) =  -1308.27018616     A.U. after   13 cycles
            NFock= 13  Conv=0.68D-08     -V/T= 2.0077
 KE= 1.298240191103D+03 PE=-6.489916636477D+03 EE= 2.169391854134D+03
 Leave Link  502 at Wed Sep 23 06:02:43 2020, MaxMem=  2147483648 cpu:             283.5 elap:              70.9
 (Enter /prod/apps/gaussian/g16b1/l601.exe)
 Copying SCF densities to generalized density rwf, IOpCl= 0 IROHF=0.

 **********************************************************************

            Population analysis using the SCF Density.

 **********************************************************************

 Alpha  occ. eigenvalues --  -89.12711 -19.16094 -19.15892 -14.44678 -14.40458
 Alpha  occ. eigenvalues --  -14.38328 -14.37137 -10.26356 -10.25112 -10.24432
 Alpha  occ. eigenvalues --  -10.23460 -10.21514 -10.21396 -10.20733 -10.20667
 Alpha  occ. eigenvalues --  -10.20578 -10.20528 -10.20431 -10.20193 -10.20133
 Alpha  occ. eigenvalues --  -10.19888  -8.15276  -6.11778  -6.11707  -6.11546
 Alpha  occ. eigenvalues --   -1.12524  -1.11366  -1.01535  -0.95759  -0.92936
 Alpha  occ. eigenvalues --   -0.87739  -0.86131  -0.81147  -0.78163  -0.76511
 Alpha  occ. eigenvalues --   -0.76434  -0.75888  -0.69028  -0.66801  -0.64801
 Alpha  occ. eigenvalues --   -0.62444  -0.61272  -0.60686  -0.58509  -0.56645
 Alpha  occ. eigenvalues --   -0.54643  -0.53058  -0.52010  -0.49807  -0.49177
 Alpha  occ. eigenvalues --   -0.48837  -0.48218  -0.47529  -0.45795  -0.45505
 Alpha  occ. eigenvalues --   -0.45103  -0.44437  -0.43936  -0.43351  -0.39079
 Alpha  occ. eigenvalues --   -0.38795  -0.38132  -0.37401  -0.36469  -0.36241
 Alpha  occ. eigenvalues --   -0.36104  -0.35559  -0.34563  -0.33280  -0.32715
 Alpha  occ. eigenvalues --   -0.31855  -0.31115  -0.29342  -0.27273  -0.26954
 Alpha  occ. eigenvalues --   -0.26478  -0.26340  -0.24256
 Alpha virt. eigenvalues --   -0.04573  -0.04007  -0.01756  -0.01468   0.01165
 Alpha virt. eigenvalues --    0.02076   0.06192   0.08362   0.08536   0.09073
 Alpha virt. eigenvalues --    0.10097   0.11839   0.12247   0.13248   0.14311
 Alpha virt. eigenvalues --    0.15056   0.15124   0.15582   0.16149   0.16654
 Alpha virt. eigenvalues --    0.18292   0.18766   0.19035   0.19368   0.20169
 Alpha virt. eigenvalues --    0.21520   0.23298   0.24026   0.26971   0.28907
 Alpha virt. eigenvalues --    0.29223   0.29579   0.30205   0.30738   0.31566
 Alpha virt. eigenvalues --    0.33266   0.34194   0.34577   0.36257   0.39380
 Alpha virt. eigenvalues --    0.40738   0.41953   0.42964   0.48085   0.48813
 Alpha virt. eigenvalues --    0.49074   0.50467   0.51632   0.52027   0.52411
 Alpha virt. eigenvalues --    0.53878   0.54172   0.55115   0.55504   0.56225
 Alpha virt. eigenvalues --    0.56673   0.57486   0.57879   0.57967   0.58409
 Alpha virt. eigenvalues --    0.58618   0.59129   0.59936   0.60230   0.60520
 Alpha virt. eigenvalues --    0.60758   0.60887   0.61356   0.62124   0.62569
 Alpha virt. eigenvalues --    0.63183   0.63620   0.65104   0.67120   0.67365
 Alpha virt. eigenvalues --    0.69059   0.70044   0.71278   0.73038   0.74019
 Alpha virt. eigenvalues --    0.76401   0.77428   0.78101   0.79032   0.80625
 Alpha virt. eigenvalues --    0.81045   0.81276   0.82805   0.83540   0.83661
 Alpha virt. eigenvalues --    0.83924   0.84017   0.84712   0.85151   0.85638
 Alpha virt. eigenvalues --    0.86393   0.88561   0.89577   0.90175   0.90362
 Alpha virt. eigenvalues --    0.90982   0.92727   0.93070   0.93605   0.94138
 Alpha virt. eigenvalues --    0.95709   0.97015   0.97247   0.98429   1.00117
 Alpha virt. eigenvalues --    1.00613   1.01730   1.03720   1.05676   1.05764
 Alpha virt. eigenvalues --    1.07796   1.08402   1.10171   1.10374   1.12460
 Alpha virt. eigenvalues --    1.13806   1.14279   1.15259   1.15833   1.16803
 Alpha virt. eigenvalues --    1.18171   1.20288   1.21329   1.22259   1.24494
 Alpha virt. eigenvalues --    1.25334   1.26516   1.29123   1.30231   1.32807
 Alpha virt. eigenvalues --    1.35463   1.37429   1.40492   1.41380   1.41759
 Alpha virt. eigenvalues --    1.42098   1.42676   1.43888   1.44462   1.45690
 Alpha virt. eigenvalues --    1.46056   1.47465   1.47749   1.48456   1.49126
 Alpha virt. eigenvalues --    1.49851   1.52280   1.53423   1.56943   1.58311
 Alpha virt. eigenvalues --    1.62179   1.65955   1.67971   1.71051   1.75796
 Alpha virt. eigenvalues --    1.76738   1.77668   1.79195   1.79517   1.80238
 Alpha virt. eigenvalues --    1.81345   1.82138   1.83194   1.84336   1.84829
 Alpha virt. eigenvalues --    1.86994   1.87848   1.88995   1.89348   1.91457
 Alpha virt. eigenvalues --    1.94040   1.94629   1.95880   1.96630   1.97395
 Alpha virt. eigenvalues --    1.98030   2.03257   2.05105   2.06754   2.07183
 Alpha virt. eigenvalues --    2.07443   2.09645   2.10907   2.11119   2.12860
 Alpha virt. eigenvalues --    2.13240   2.13537   2.14058   2.14397   2.14744
 Alpha virt. eigenvalues --    2.15794   2.17900   2.19826   2.21963   2.23613
 Alpha virt. eigenvalues --    2.25574   2.26627   2.28059   2.28773   2.29119
 Alpha virt. eigenvalues --    2.30241   2.30932   2.31853   2.33548   2.37626
 Alpha virt. eigenvalues --    2.37880   2.47849   2.50783   2.52422   2.53346
 Alpha virt. eigenvalues --    2.56495   2.57485   2.58077   2.59223   2.63320
 Alpha virt. eigenvalues --    2.63485   2.63973   2.65126   2.66974   2.69708
 Alpha virt. eigenvalues --    2.70210   2.70850   2.72046   2.72446   2.73790
 Alpha virt. eigenvalues --    2.74159   2.76006   2.77213   2.79932   2.82881
 Alpha virt. eigenvalues --    2.86443   2.88626   3.00231   3.02415   3.05708
 Alpha virt. eigenvalues --    3.13199   3.25161   3.37174   3.42186   3.60469
 Alpha virt. eigenvalues --    3.76625   3.96681   3.99481   4.01870   4.06949
 Alpha virt. eigenvalues --    4.07598   4.07997   4.10456   4.10763   4.11537
 Alpha virt. eigenvalues --    4.15216   4.15958   4.21289   4.31693   4.31804
 Alpha virt. eigenvalues --    4.35069   4.39182   4.48868   4.65312   4.70945
          Condensed to atoms (all electrons):
               1          2          3          4          5          6
     1  O    8.267010   0.426278  -0.057401   0.010375  -0.001252  -0.000007
     2  S    0.426278  13.663084   0.126163  -0.012216  -0.001247   0.000211
     3  N   -0.057401   0.126163   7.402387   0.257368  -0.056419   0.005545
     4  C    0.010375  -0.012216   0.257368   4.632641   0.366551  -0.084147
     5  N   -0.001252  -0.001247  -0.056419   0.366551   6.895242   0.306770
     6  N   -0.000007   0.000211   0.005545  -0.084147   0.306770   6.769434
     7  C    0.001168  -0.001173  -0.072560   0.524006  -0.069743  -0.100511
     8  N   -0.000047   0.000001   0.003520  -0.033943  -0.097716   0.232331
     9  C   -0.000001  -0.000023  -0.000124   0.004279   0.006577  -0.043436
    10  C    0.000000   0.000001   0.000004   0.000923  -0.000325   0.002868
    11  C    0.000000   0.000000   0.000000  -0.000008   0.000002  -0.000069
    12  C    0.000000  -0.000000  -0.000000   0.000000  -0.000000   0.000018
    13  C   -0.000000  -0.000000  -0.000000   0.000005  -0.000004   0.000268
    14  C   -0.000000   0.000000   0.000001  -0.000421   0.000354   0.000098
    15  C   -0.059062   0.203923  -0.054254  -0.008746   0.002760   0.000052
    16  C    0.001686  -0.020210   0.000978  -0.000061  -0.000145   0.000005
    17  C   -0.000046   0.002176   0.000001  -0.000025  -0.000002   0.000000
    18  C   -0.000004  -0.000322   0.000010   0.000005   0.000006  -0.000000
    19  C    0.000597   0.003515  -0.000107   0.000027  -0.000078  -0.000002
    20  C    0.002592  -0.031598   0.000038   0.000236   0.000524  -0.000001
    21  O   -0.042703   0.451148  -0.051752   0.001431  -0.000022   0.000000
    22  H   -0.000266  -0.010027   0.301120  -0.024304   0.001934  -0.000084
    23  H    0.000039   0.000116  -0.000657  -0.025396   0.004047   0.003475
    24  H   -0.000000  -0.000000   0.000000   0.000013  -0.000007  -0.000081
    25  H   -0.000000   0.000000   0.000000   0.000000  -0.000000   0.000001
    26  H   -0.000000  -0.000000  -0.000000  -0.000000   0.000000   0.000000
    27  H   -0.000000   0.000000   0.000000  -0.000000   0.000000  -0.000008
    28  H   -0.000000  -0.000000  -0.000000   0.000035  -0.000312   0.015305
    29  H    0.000059  -0.000405   0.002605   0.000129  -0.000023   0.000000
    30  H    0.000000  -0.000068  -0.000000   0.000000  -0.000000  -0.000000
    31  H   -0.000000   0.000008   0.000000  -0.000000  -0.000000  -0.000000
    32  H    0.000002  -0.000089   0.000001   0.000000  -0.000001   0.000000
    33  H    0.011674  -0.006496   0.000213  -0.000021  -0.000082   0.000006
               7          8          9         10         11         12
     1  O    0.001168  -0.000047  -0.000001   0.000000   0.000000   0.000000
     2  S   -0.001173   0.000001  -0.000023   0.000001   0.000000  -0.000000
     3  N   -0.072560   0.003520  -0.000124   0.000004   0.000000  -0.000000
     4  C    0.524006  -0.033943   0.004279   0.000923  -0.000008   0.000000
     5  N   -0.069743  -0.097716   0.006577  -0.000325   0.000002  -0.000000
     6  N   -0.100511   0.232331  -0.043436   0.002868  -0.000069   0.000018
     7  C    4.996752   0.331782  -0.030883  -0.006786   0.000003   0.000019
     8  N    0.331782   6.873329   0.198730  -0.050545   0.004705   0.000332
     9  C   -0.030883   0.198730   4.629032   0.529562  -0.010017  -0.038236
    10  C   -0.006786  -0.050545   0.529562   4.989951   0.526552  -0.041010
    11  C    0.000003   0.004705  -0.010017   0.526552   4.865584   0.543414
    12  C    0.000019   0.000332  -0.038236  -0.041010   0.543414   4.871348
    13  C   -0.000086   0.004561  -0.010763  -0.042145  -0.024766   0.539370
    14  C    0.007046  -0.059183   0.512982  -0.070584  -0.041455  -0.039396
    15  C   -0.000165   0.000001   0.000000  -0.000000  -0.000000   0.000000
    16  C   -0.000012  -0.000000   0.000000  -0.000000  -0.000000   0.000000
    17  C   -0.000000  -0.000000  -0.000000  -0.000000   0.000000  -0.000000
    18  C    0.000000  -0.000000  -0.000000   0.000000  -0.000000  -0.000000
    19  C   -0.000000   0.000000   0.000000  -0.000000  -0.000000   0.000000
    20  C   -0.000001   0.000000   0.000000   0.000000  -0.000000   0.000000
    21  O   -0.000009  -0.000000  -0.000000  -0.000000   0.000000  -0.000000
    22  H   -0.001596   0.000004   0.000002  -0.000000   0.000000  -0.000000
    23  H    0.363283  -0.034592  -0.001633   0.002089   0.000151  -0.000001
    24  H    0.005708  -0.009044  -0.039353   0.354469  -0.034979   0.004306
    25  H   -0.000004  -0.000109   0.003436  -0.037665   0.363578  -0.039597
    26  H   -0.000000   0.000003   0.000476   0.004887  -0.041356   0.366085
    27  H    0.000001  -0.000104   0.003552   0.000706   0.004467  -0.040097
    28  H    0.000219  -0.013157  -0.040027   0.005461   0.000092   0.004519
    29  H    0.000001  -0.000000   0.000000  -0.000000  -0.000000   0.000000
    30  H    0.000000   0.000000   0.000000   0.000000  -0.000000  -0.000000
    31  H    0.000000   0.000000  -0.000000  -0.000000  -0.000000   0.000000
    32  H    0.000000   0.000000   0.000000  -0.000000  -0.000000   0.000000
    33  H   -0.000008   0.000000  -0.000000   0.000000  -0.000000   0.000000
              13         14         15         16         17         18
     1  O   -0.000000  -0.000000  -0.059062   0.001686  -0.000046  -0.000004
     2  S   -0.000000   0.000000   0.203923  -0.020210   0.002176  -0.000322
     3  N   -0.000000   0.000001  -0.054254   0.000978   0.000001   0.000010
     4  C    0.000005  -0.000421  -0.008746  -0.000061  -0.000025   0.000005
     5  N   -0.000004   0.000354   0.002760  -0.000145  -0.000002   0.000006
     6  N    0.000268   0.000098   0.000052   0.000005   0.000000  -0.000000
     7  C   -0.000086   0.007046  -0.000165  -0.000012  -0.000000   0.000000
     8  N    0.004561  -0.059183   0.000001  -0.000000  -0.000000  -0.000000
     9  C   -0.010763   0.512982   0.000000   0.000000  -0.000000  -0.000000
    10  C   -0.042145  -0.070584  -0.000000  -0.000000  -0.000000   0.000000
    11  C   -0.024766  -0.041455  -0.000000  -0.000000   0.000000  -0.000000
    12  C    0.539370  -0.039396   0.000000   0.000000  -0.000000  -0.000000
    13  C    4.879619   0.519485   0.000000   0.000000  -0.000000  -0.000000
    14  C    0.519485   4.995279   0.000000  -0.000000   0.000000  -0.000000
    15  C    0.000000   0.000000   5.327062   0.461685  -0.026973  -0.039044
    16  C    0.000000  -0.000000   0.461685   4.934577   0.521427  -0.031532
    17  C   -0.000000   0.000000  -0.026973   0.521427   4.878033   0.535780
    18  C   -0.000000  -0.000000  -0.039044  -0.031532   0.535780   4.857111
    19  C   -0.000000  -0.000000  -0.031272  -0.037871  -0.030122   0.540732
    20  C   -0.000000  -0.000000   0.513427  -0.031865  -0.039131  -0.031403
    21  O   -0.000000   0.000000  -0.060682   0.001820   0.000221  -0.000005
    22  H   -0.000000   0.000000   0.002376  -0.000054   0.000002  -0.000000
    23  H   -0.000004  -0.000089   0.000000   0.000000   0.000000  -0.000000
    24  H    0.000199   0.005264   0.000000  -0.000000  -0.000000   0.000000
    25  H    0.004426   0.000725  -0.000000  -0.000000  -0.000000   0.000000
    26  H   -0.041611   0.004692  -0.000000   0.000000  -0.000000   0.000000
    27  H    0.364016  -0.037901   0.000000  -0.000000   0.000000  -0.000000
    28  H   -0.037859   0.357245   0.000000   0.000000  -0.000000  -0.000000
    29  H    0.000000  -0.000000  -0.052167   0.365948  -0.033411   0.004220
    30  H    0.000000   0.000000   0.004834  -0.040583   0.366791  -0.039983
    31  H   -0.000000  -0.000000   0.000456   0.004893  -0.040977   0.365531
    32  H    0.000000  -0.000000   0.004811   0.000647   0.004252  -0.040336
    33  H    0.000000  -0.000000  -0.045721   0.004734   0.000213   0.004261
              19         20         21         22         23         24
     1  O    0.000597   0.002592  -0.042703  -0.000266   0.000039  -0.000000
     2  S    0.003515  -0.031598   0.451148  -0.010027   0.000116  -0.000000
     3  N   -0.000107   0.000038  -0.051752   0.301120  -0.000657   0.000000
     4  C    0.000027   0.000236   0.001431  -0.024304  -0.025396   0.000013
     5  N   -0.000078   0.000524  -0.000022   0.001934   0.004047  -0.000007
     6  N   -0.000002  -0.000001   0.000000  -0.000084   0.003475  -0.000081
     7  C   -0.000000  -0.000001  -0.000009  -0.001596   0.363283   0.005708
     8  N    0.000000   0.000000  -0.000000   0.000004  -0.034592  -0.009044
     9  C    0.000000   0.000000  -0.000000   0.000002  -0.001633  -0.039353
    10  C   -0.000000   0.000000  -0.000000  -0.000000   0.002089   0.354469
    11  C   -0.000000  -0.000000   0.000000   0.000000   0.000151  -0.034979
    12  C    0.000000   0.000000  -0.000000  -0.000000  -0.000001   0.004306
    13  C   -0.000000  -0.000000  -0.000000  -0.000000  -0.000004   0.000199
    14  C   -0.000000  -0.000000   0.000000   0.000000  -0.000089   0.005264
    15  C   -0.031272   0.513427  -0.060682   0.002376   0.000000   0.000000
    16  C   -0.037871  -0.031865   0.001820  -0.000054   0.000000  -0.000000
    17  C   -0.030122  -0.039131   0.000221   0.000002   0.000000  -0.000000
    18  C    0.540732  -0.031403  -0.000005  -0.000000  -0.000000   0.000000
    19  C    4.890252   0.505144  -0.000043   0.000001  -0.000000  -0.000000
    20  C    0.505144   4.921003  -0.000234  -0.000029  -0.000000   0.000000
    21  O   -0.000043  -0.000234   8.273783   0.004290  -0.000002  -0.000000
    22  H    0.000001  -0.000029   0.004290   0.302348   0.000769   0.000000
    23  H   -0.000000  -0.000000  -0.000002   0.000769   0.458963   0.001462
    24  H   -0.000000   0.000000  -0.000000   0.000000   0.001462   0.541507
    25  H    0.000000  -0.000000  -0.000000   0.000000  -0.000001  -0.005110
    26  H    0.000000  -0.000000  -0.000000   0.000000  -0.000000  -0.000144
    27  H   -0.000000   0.000000   0.000000   0.000000   0.000000   0.000013
    28  H    0.000000   0.000000  -0.000000   0.000000  -0.000010  -0.000129
    29  H    0.000336   0.004153   0.002295  -0.000137   0.000000  -0.000000
    30  H    0.004265   0.000604   0.000001  -0.000000   0.000000   0.000000
    31  H   -0.040847   0.004775  -0.000000   0.000000   0.000000  -0.000000
    32  H    0.367500  -0.041324   0.000000  -0.000000   0.000000  -0.000000
    33  H   -0.034330   0.362200   0.000041  -0.000003  -0.000000   0.000000
              25         26         27         28         29         30
     1  O   -0.000000  -0.000000  -0.000000  -0.000000   0.000059   0.000000
     2  S    0.000000  -0.000000   0.000000  -0.000000  -0.000405  -0.000068
     3  N    0.000000  -0.000000   0.000000  -0.000000   0.002605  -0.000000
     4  C    0.000000  -0.000000  -0.000000   0.000035   0.000129   0.000000
     5  N   -0.000000   0.000000   0.000000  -0.000312  -0.000023  -0.000000
     6  N    0.000001   0.000000  -0.000008   0.015305   0.000000  -0.000000
     7  C   -0.000004  -0.000000   0.000001   0.000219   0.000001   0.000000
     8  N   -0.000109   0.000003  -0.000104  -0.013157  -0.000000   0.000000
     9  C    0.003436   0.000476   0.003552  -0.040027   0.000000   0.000000
    10  C   -0.037665   0.004887   0.000706   0.005461  -0.000000   0.000000
    11  C    0.363578  -0.041356   0.004467   0.000092  -0.000000  -0.000000
    12  C   -0.039597   0.366085  -0.040097   0.004519   0.000000  -0.000000
    13  C    0.004426  -0.041611   0.364016  -0.037859   0.000000   0.000000
    14  C    0.000725   0.004692  -0.037901   0.357245  -0.000000   0.000000
    15  C   -0.000000  -0.000000   0.000000   0.000000  -0.052167   0.004834
    16  C   -0.000000   0.000000  -0.000000   0.000000   0.365948  -0.040583
    17  C   -0.000000  -0.000000   0.000000  -0.000000  -0.033411   0.366791
    18  C    0.000000   0.000000  -0.000000  -0.000000   0.004220  -0.039983
    19  C    0.000000   0.000000  -0.000000   0.000000   0.000336   0.004265
    20  C   -0.000000  -0.000000   0.000000   0.000000   0.004153   0.000604
    21  O   -0.000000  -0.000000   0.000000  -0.000000   0.002295   0.000001
    22  H    0.000000   0.000000   0.000000   0.000000  -0.000137  -0.000000
    23  H   -0.000001  -0.000000   0.000000  -0.000010   0.000000   0.000000
    24  H   -0.005110  -0.000144   0.000013  -0.000129  -0.000000   0.000000
    25  H    0.551028  -0.005092  -0.000164   0.000013  -0.000000  -0.000000
    26  H   -0.005092   0.557192  -0.005118  -0.000135   0.000000   0.000000
    27  H   -0.000164  -0.005118   0.551857  -0.005138  -0.000000  -0.000000
    28  H    0.000013  -0.000135  -0.005138   0.539590  -0.000000   0.000000
    29  H   -0.000000   0.000000  -0.000000  -0.000000   0.527480  -0.005303
    30  H   -0.000000   0.000000  -0.000000   0.000000  -0.005303   0.544245
    31  H    0.000000   0.000000  -0.000000   0.000000  -0.000144  -0.005080
    32  H    0.000000   0.000000  -0.000000   0.000000   0.000014  -0.000156
    33  H   -0.000000   0.000000  -0.000000   0.000000  -0.000138   0.000013
              31         32         33
     1  O   -0.000000   0.000002   0.011674
     2  S    0.000008  -0.000089  -0.006496
     3  N    0.000000   0.000001   0.000213
     4  C   -0.000000   0.000000  -0.000021
     5  N   -0.000000  -0.000001  -0.000082
     6  N   -0.000000   0.000000   0.000006
     7  C    0.000000   0.000000  -0.000008
     8  N    0.000000   0.000000   0.000000
     9  C   -0.000000   0.000000  -0.000000
    10  C   -0.000000  -0.000000   0.000000
    11  C   -0.000000  -0.000000  -0.000000
    12  C    0.000000   0.000000   0.000000
    13  C   -0.000000   0.000000   0.000000
    14  C   -0.000000  -0.000000  -0.000000
    15  C    0.000456   0.004811  -0.045721
    16  C    0.004893   0.000647   0.004734
    17  C   -0.040977   0.004252   0.000213
    18  C    0.365531  -0.040336   0.004261
    19  C   -0.040847   0.367500  -0.034330
    20  C    0.004775  -0.041324   0.362200
    21  O   -0.000000   0.000000   0.000041
    22  H    0.000000  -0.000000  -0.000003
    23  H    0.000000   0.000000  -0.000000
    24  H   -0.000000  -0.000000   0.000000
    25  H    0.000000   0.000000  -0.000000
    26  H    0.000000   0.000000   0.000000
    27  H   -0.000000  -0.000000  -0.000000
    28  H    0.000000   0.000000   0.000000
    29  H   -0.000144   0.000014  -0.000138
    30  H   -0.005080  -0.000156   0.000013
    31  H    0.547617  -0.005184  -0.000137
    32  H   -0.005184   0.545361  -0.005034
    33  H   -0.000137  -0.005034   0.523602
 Mulliken charges:
               1
     1  O   -0.560691
     2  S    1.207250
     3  N   -0.806677
     4  C    0.391263
     5  N   -0.357388
     6  N   -0.108041
     7  C    0.053548
     8  N   -0.350860
     9  C    0.325866
    10  C   -0.168412
    11  C   -0.155900
    12  C   -0.131073
    13  C   -0.154712
    14  C   -0.154141
    15  C   -0.143302
    16  C   -0.136066
    17  C   -0.138210
    18  C   -0.125028
    19  C   -0.137697
    20  C   -0.139112
    21  O   -0.579577
    22  H    0.423654
    23  H    0.227992
    24  H    0.175903
    25  H    0.164535
    26  H    0.160121
    27  H    0.163917
    28  H    0.174288
    29  H    0.184488
    30  H    0.170420
    31  H    0.169088
    32  H    0.169537
    33  H    0.185016
 Sum of Mulliken charges =  -0.00000
 Mulliken charges with hydrogens summed into heavy atoms:
               1
     1  O   -0.560691
     2  S    1.207250
     3  N   -0.383023
     4  C    0.391263
     5  N   -0.357388
     6  N   -0.108041
     7  C    0.281540
     8  N   -0.350860
     9  C    0.325866
    10  C    0.007492
    11  C    0.008635
    12  C    0.029047
    13  C    0.009205
    14  C    0.020147
    15  C   -0.143302
    16  C    0.048422
    17  C    0.032211
    18  C    0.044060
    19  C    0.031840
    20  C    0.045904
    21  O   -0.579577
 Electronic spatial extent (au):  <R**2>=           8645.1345
 Charge=             -0.0000 electrons
 Dipole moment (field-independent basis, Debye):
    X=             -4.6927    Y=              0.1446    Z=             -1.9748  Tot=              5.0933
 Quadrupole moment (field-independent basis, Debye-Ang):
   XX=            -90.5049   YY=           -119.5586   ZZ=           -128.7045
   XY=             24.1583   XZ=             -8.6783   YZ=             13.7175
 Traceless Quadrupole moment (field-independent basis, Debye-Ang):
   XX=             22.4178   YY=             -6.6359   ZZ=            -15.7818
   XY=             24.1583   XZ=             -8.6783   YZ=             13.7175
 Octapole moment (field-independent basis, Debye-Ang**2):
  XXX=           -116.7836  YYY=              5.0465  ZZZ=             -5.8393  XYY=            -22.0473
  XXY=             75.4122  XXZ=            -19.2441  XZZ=             27.8917  YZZ=              2.2741
  YYZ=             -2.8606  XYZ=             -4.8497
 Hexadecapole moment (field-independent basis, Debye-Ang**3):
 XXXX=          -8156.7046 YYYY=          -1436.5860 ZZZZ=           -564.9677 XXXY=            309.6267
 XXXZ=           -247.6357 YYYX=            142.6175 YYYZ=             64.6981 ZZZX=            -17.0267
 ZZZY=             20.3925 XXYY=          -1674.0345 XXZZ=          -1689.5369 YYZZ=           -331.4154
 XXYZ=             84.6721 YYXZ=            -20.4010 ZZXY=             19.1233
 N-N= 1.714014405082D+03 E-N=-6.489916627149D+03  KE= 1.298240191103D+03
 No NMR shielding tensors so no spin-rotation constants.
 Leave Link  601 at Wed Sep 23 06:02:43 2020, MaxMem=  2147483648 cpu:               0.4 elap:               0.1
 (Enter /prod/apps/gaussian/g16b1/l701.exe)
 ... and contract with generalized density number  0.
 Compute integral first derivatives.
 D1PCM: PCM CHGder 1st derivatives, ID1Alg=3 FixD1E=F DoIter=F DoCFld=F I1PDM=0.
 GePol: Maximum number of non-zero 1st derivatives   =     176
 Leave Link  701 at Wed Sep 23 06:02:46 2020, MaxMem=  2147483648 cpu:              10.6 elap:               2.7
 (Enter /prod/apps/gaussian/g16b1/l702.exe)
 L702 exits ... SP integral derivatives will be done elsewhere.
 Leave Link  702 at Wed Sep 23 06:02:46 2020, MaxMem=  2147483648 cpu:               0.1 elap:               0.0
 (Enter /prod/apps/gaussian/g16b1/l703.exe)
 Integral derivatives from FoFJK, PRISM(SPDF).
 Compute integral first derivatives, UseDBF=F ICtDFT=           0.
 Calling FoFJK, ICntrl=      2127 FMM=F ISym2X=0 I1Cent= 0 IOpClX= 0 NMat=1 NMatS=1 NMatT=0.
 FoFJK:  IHMeth= 1 ICntrl=    2127 DoSepK=F KAlg= 0 I1Cent=           0 FoldK=F
 IRaf=         0 NMat=       1 IRICut=       1 DoRegI=T DoRafI=F ISym2E= 0 IDoP0=0 IntGTp=1.
 FoFCou: FMM=F IPFlag=           0 FMFlag=      100000 FMFlg1=         800
         NFxFlg=           0 DoJE=F BraDBF=F KetDBF=F FulRan=T
         wScrn=  0.000000 ICntrl=      2127 IOpCl=  0 I1Cent=           0 NGrid=           0
         NMat0=    1 NMatS0=      1 NMatT0=    0 NMatD0=    1 NMtDS0=    0 NMtDT0=    0
 Symmetry not used in FoFCou.
 Leave Link  703 at Wed Sep 23 06:03:02 2020, MaxMem=  2147483648 cpu:              63.2 elap:              15.8
 (Enter /prod/apps/gaussian/g16b1/l716.exe)
 Dipole        =-1.84624144D+00 5.68834109D-02-7.76961656D-01
 -------------------------------------------------------------------
 Center     Atomic                   Forces (Hartrees/Bohr)
 Number     Number              X              Y              Z
 -------------------------------------------------------------------
      1        8           0.000055597    0.000076854    0.000045963
      2       16          -0.000649426    0.000679425   -0.000253423
      3        7          -0.000605365    0.000822367    0.000321012
      4        6           0.000192716   -0.000428585    0.000245622
      5        7           0.000272801    0.000292528   -0.000361465
      6        7          -0.000067327   -0.000303885    0.000349242
      7        6           0.000090433   -0.000150055   -0.000221607
      8        7           0.000020796    0.000316057   -0.000159234
      9        6           0.000229311    0.000722001    0.000545621
     10        6           0.000069567   -0.000139231   -0.000347495
[...]
 Alpha virt. eigenvalues --    4.78579   4.87877
          Condensed to atoms (all electrons):
               1          2          3          4          5          6
     1  O    9.300699  -0.610917   0.038447   0.329822  -0.075035   0.017820
     2  S   -0.610917  16.876209   0.441012  -2.046115   0.414769  -0.092950
     3  N    0.038447   0.441012   8.204346  -1.868259   0.208605  -0.127467
     4  C    0.329822  -2.046115  -1.868259  16.883068  -1.747209   0.743827
     5  N   -0.075035   0.414769   0.208605  -1.747209   9.928436  -1.688274
     6  N    0.017820  -0.092950  -0.127467   0.743827  -1.688274   9.886340
     7  C   -0.125065   0.600159   0.794874  -8.298628   1.564871  -1.167113
     8  N    0.019560   0.077156   0.062767  -0.297004  -0.336974  -0.246651
     9  C    0.011187   0.015660   0.040132   0.572237  -0.475139  -0.094788
    10  C   -0.000089  -0.005744  -0.018039  -0.094640   0.237938  -0.223660
    11  C    0.000621  -0.001687   0.000562   0.235139   0.029635   0.015126
    12  C   -0.000178  -0.000998  -0.002791  -0.005469   0.008576   0.009262
    13  C   -0.000345   0.000735   0.000623  -0.081063  -0.111355  -0.013962
    14  C   -0.004226  -0.009071  -0.017272  -0.236635  -0.083827   0.566118
    15  C    0.301095  -1.860618  -0.108285   1.593170  -0.441247  -0.053470
    16  C   -0.100205   0.703124   0.005413  -0.632028   0.099746   0.003777
    17  C    0.006781  -0.344971  -0.079882   0.195493  -0.038414   0.026605
    18  C   -0.011462   0.267648  -0.010537  -0.149521   0.029200   0.008530
    19  C   -0.016608  -0.302772   0.019850   0.109910   0.055703  -0.022653
    20  C    0.081146  -0.248243   0.024526  -0.584844   0.150764  -0.002594
    21  O    0.063259  -0.501977  -0.027883   0.154685  -0.023902   0.003254
    22  H    0.005084  -0.167912   0.468612   0.192511  -0.048534   0.016644
    23  H   -0.003038   0.026864  -0.126278   0.645219  -0.107935  -0.041761
    24  H    0.000449  -0.003122   0.002167  -0.054868  -0.002101  -0.028030
    25  H    0.000012   0.000087   0.000257   0.003429  -0.001031   0.002010
    26  H   -0.000007  -0.000044  -0.000097  -0.000227   0.000489   0.001064
    27  H    0.000005   0.000057   0.000039  -0.002662  -0.001088   0.000500
    28  H   -0.000171  -0.002529  -0.003726   0.033367  -0.016173   0.001432
    29  H    0.009827  -0.138291  -0.023782   0.027643   0.013900   0.007190
    30  H    0.000177   0.008525   0.000515   0.001162  -0.002738   0.000106
    31  H    0.000106   0.006462   0.000147  -0.003832  -0.000248   0.000476
    32  H   -0.000525  -0.015066  -0.000984   0.013025  -0.002137   0.001202
    33  H   -0.026234  -0.064723   0.009440   0.026162  -0.001224  -0.017231
               7          8          9         10         11         12
     1  O   -0.125065   0.019560   0.011187  -0.000089   0.000621  -0.000178
     2  S    0.600159   0.077156   0.015660  -0.005744  -0.001687  -0.000998
     3  N    0.794874   0.062767   0.040132  -0.018039   0.000562  -0.002791
     4  C   -8.298628  -0.297004   0.572237  -0.094640   0.235139  -0.005469
     5  N    1.564871  -0.336974  -0.475139   0.237938   0.029635   0.008576
     6  N   -1.167113  -0.246651  -0.094788  -0.223660   0.015126   0.009262
     7  C   14.392930  -0.311935  -1.577638   0.411008  -0.510735   0.008927
     8  N   -0.311935   9.454889  -0.767789   0.471369  -0.320296   0.342325
     9  C   -1.577638  -0.767789  14.330780  -5.275058   2.708339  -3.451198
    10  C    0.411008   0.471369  -5.275058  12.666344  -3.625232   2.947608
    11  C   -0.510735  -0.320296   2.708339  -3.625232  10.110751  -2.862570
    12  C    0.008927   0.342325  -3.451198   2.947608  -2.862570   8.834905
    13  C    0.194989  -0.184194   2.515599  -3.163845   2.810318  -2.786209
    14  C    0.100457  -0.079209  -5.022083   2.085467  -3.068325   2.795344
    15  C   -0.375072  -0.072431  -0.001984   0.002587  -0.002023   0.000787
    16  C   -0.001409   0.037149   0.000914  -0.002056  -0.000163   0.000030
    17  C   -0.018306   0.004692   0.006145  -0.000068   0.000015   0.000016
    18  C   -0.000078   0.007280  -0.002920  -0.000647  -0.000058   0.000004
    19  C    0.034324  -0.008083   0.000792   0.000780   0.000116  -0.000055
    20  C    0.053752   0.031356  -0.005169  -0.001932   0.000452  -0.000413
    21  O   -0.026062   0.002076   0.003903  -0.000389  -0.000017   0.000014
    22  H   -0.273530   0.027841   0.012099  -0.003083   0.002595  -0.000212
    23  H   -1.047016   0.212104   0.179111   0.050210   0.090168  -0.007039
    24  H    0.143404  -0.222237   0.902853  -1.013812   0.132962  -0.182672
    25  H    0.004340   0.000731  -0.105857   0.654817  -0.775170   0.279585
    26  H   -0.000881  -0.001518   0.108910  -0.165181   0.352316  -0.619743
    27  H    0.002269  -0.010288  -0.079682   0.113196  -0.210099   0.253677
    28  H   -0.037554  -0.199215   0.612136  -0.116176   0.115115  -0.157020
    29  H    0.008662   0.000405  -0.000242  -0.000110  -0.000150   0.000016
    30  H   -0.001053   0.000122   0.000192  -0.000009   0.000002  -0.000000
    31  H    0.000188   0.000359  -0.000037  -0.000022  -0.000002   0.000001
    32  H   -0.000771  -0.001122   0.000059   0.000067   0.000011  -0.000009
    33  H    0.005390   0.008559   0.002800  -0.000309  -0.000132   0.000060
              13         14         15         16         17         18
     1  O   -0.000345  -0.004226   0.301095  -0.100205   0.006781  -0.011462
     2  S    0.000735  -0.009071  -1.860618   0.703124  -0.344971   0.267648
     3  N    0.000623  -0.017272  -0.108285   0.005413  -0.079882  -0.010537
     4  C   -0.081063  -0.236635   1.593170  -0.632028   0.195493  -0.149521
     5  N   -0.111355  -0.083827  -0.441247   0.099746  -0.038414   0.029200
     6  N   -0.013962   0.566118  -0.053470   0.003777   0.026605   0.008530
     7  C    0.194989   0.100457  -0.375072  -0.001409  -0.018306  -0.000078
     8  N   -0.184194  -0.079209  -0.072431   0.037149   0.004692   0.007280
     9  C    2.515599  -5.022083  -0.001984   0.000914   0.006145  -0.002920
    10  C   -3.163845   2.085467   0.002587  -0.002056  -0.000068  -0.000647
    11  C    2.810318  -3.068325  -0.002023  -0.000163   0.000015  -0.000058
    12  C   -2.786209   2.795344   0.000787   0.000030   0.000016   0.000004
    13  C    9.705856  -3.417711  -0.000160   0.000005  -0.000062   0.000176
    14  C   -3.417711  12.545319   0.009140   0.000850   0.000038   0.000837
    15  C   -0.000160   0.009140  17.185827  -7.206112   2.379032  -4.348384
    16  C    0.000005   0.000850  -7.206112  18.173326  -4.341489   3.663002
    17  C   -0.000062   0.000038   2.379032  -4.341489  11.372293  -3.227055
    18  C    0.000176   0.000837  -4.348384   3.663002  -3.227055   9.915734
    19  C    0.000265  -0.001253   2.864949  -4.538073   3.570746  -3.595208
    20  C    0.000341  -0.005607  -6.271191   0.993910  -3.751634   3.237880
    21  O   -0.000029   0.000195   0.399083  -0.166596  -0.006843  -0.026942
    22  H   -0.000810  -0.004266   0.058335  -0.004629   0.008030   0.004082
    23  H    0.003376  -0.149475  -0.026733  -0.001635  -0.001837   0.000250
    24  H    0.123216  -0.122639   0.003774  -0.000916   0.000088  -0.000118
    25  H   -0.229105   0.105561  -0.000151   0.000009  -0.000003   0.000000
    26  H    0.386885  -0.110812   0.000035  -0.000001   0.000001  -0.000001
    27  H   -0.716488   0.601421   0.000022   0.000003   0.000005  -0.000000
    28  H    0.343537  -0.858964   0.002981  -0.000625   0.000211  -0.000532
    29  H    0.000058   0.000582   0.774112  -1.056768   0.242995  -0.218959
    30  H   -0.000001  -0.000003  -0.214534   0.571482  -0.737083   0.383212
    31  H    0.000002   0.000024   0.125473  -0.132812   0.385746  -0.606574
    32  H    0.000039  -0.000039  -0.142025   0.139250  -0.240286   0.336907
    33  H   -0.000313  -0.000232   0.510326  -0.157337   0.092213  -0.155159
              19         20         21         22         23         24
     1  O   -0.016608   0.081146   0.063259   0.005084  -0.003038   0.000449
     2  S   -0.302772  -0.248243  -0.501977  -0.167912   0.026864  -0.003122
     3  N    0.019850   0.024526  -0.027883   0.468612  -0.126278   0.002167
     4  C    0.109910  -0.584844   0.154685   0.192511   0.645219  -0.054868
     5  N    0.055703   0.150764  -0.023902  -0.048534  -0.107935  -0.002101
     6  N   -0.022653  -0.002594   0.003254   0.016644  -0.041761  -0.028030
     7  C    0.034324   0.053752  -0.026062  -0.273530  -1.047016   0.143404
     8  N   -0.008083   0.031356   0.002076   0.027841   0.212104  -0.222237
     9  C    0.000792  -0.005169   0.003903   0.012099   0.179111   0.902853
    10  C    0.000780  -0.001932  -0.000389  -0.003083   0.050210  -1.013812
    11  C    0.000116   0.000452  -0.000017   0.002595   0.090168   0.132962
    12  C   -0.000055  -0.000413   0.000014  -0.000212  -0.007039  -0.182672
    13  C    0.000265   0.000341  -0.000029  -0.000810   0.003376   0.123216
    14  C   -0.001253  -0.005607   0.000195  -0.004266  -0.149475  -0.122639
    15  C    2.864949  -6.271191   0.399083   0.058335  -0.026733   0.003774
    16  C   -4.538073   0.993910  -0.166596  -0.004629  -0.001635  -0.000916
    17  C    3.570746  -3.751634  -0.006843   0.008030  -0.001837   0.000088
    18  C   -3.595208   3.237880  -0.026942   0.004082   0.000250  -0.000118
    19  C   11.836775  -4.395578   0.015440  -0.005136   0.000614   0.000291
    20  C   -4.395578  17.118368  -0.066449   0.005309   0.007678  -0.000570
    21  O    0.015440  -0.066449   9.306731   0.049056  -0.004584   0.000256
    22  H   -0.005136   0.005309   0.049056   0.699492  -0.000200   0.001205
    23  H    0.000614   0.007678  -0.004584  -0.000200   1.855788  -0.076509
    24  H    0.000291  -0.000570   0.000256   0.001205  -0.076509   2.162982
    25  H    0.000001   0.000040  -0.000003   0.000021   0.003681  -0.082701
    26  H   -0.000000  -0.000018   0.000001  -0.000016   0.000064  -0.014928
    27  H   -0.000020   0.000007  -0.000002  -0.000012   0.000374   0.010032
    28  H    0.000591  -0.002648   0.000153  -0.000078  -0.002785  -0.018072
    29  H    0.135465  -0.117782   0.025716  -0.000862   0.000782   0.000046
    30  H   -0.262816   0.160021  -0.000236   0.000557  -0.000120   0.000008
    31  H    0.337234  -0.152233  -0.000809   0.000155   0.000019  -0.000006
    32  H   -0.779566   0.589818   0.001530  -0.000330   0.000011   0.000022
    33  H    0.481913  -1.022025   0.002592  -0.000281   0.000095  -0.000072
              25         26         27         28         29         30
     1  O    0.000012  -0.000007   0.000005  -0.000171   0.009827   0.000177
     2  S    0.000087  -0.000044   0.000057  -0.002529  -0.138291   0.008525
     3  N    0.000257  -0.000097   0.000039  -0.003726  -0.023782   0.000515
     4  C    0.003429  -0.000227  -0.002662   0.033367   0.027643   0.001162
     5  N   -0.001031   0.000489  -0.001088  -0.016173   0.013900  -0.002738
     6  N    0.002010   0.001064   0.000500   0.001432   0.007190   0.000106
     7  C    0.004340  -0.000881   0.002269  -0.037554   0.008662  -0.001053
     8  N    0.000731  -0.001518  -0.010288  -0.199215   0.000405   0.000122
     9  C   -0.105857   0.108910  -0.079682   0.612136  -0.000242   0.000192
    10  C    0.654817  -0.165181   0.113196  -0.116176  -0.000110  -0.000009
    11  C   -0.775170   0.352316  -0.210099   0.115115  -0.000150   0.000002
    12  C    0.279585  -0.619743   0.253677  -0.157020   0.000016  -0.000000
    13  C   -0.229105   0.386885  -0.716488   0.343537   0.000058  -0.000001
    14  C    0.105561  -0.110812   0.601421  -0.858964   0.000582  -0.000003
    15  C   -0.000151   0.000035   0.000022   0.002981   0.774112  -0.214534
    16  C    0.000009  -0.000001   0.000003  -0.000625  -1.056768   0.571482
    17  C   -0.000003   0.000001   0.000005   0.000211   0.242995  -0.737083
    18  C    0.000000  -0.000001  -0.000000  -0.000532  -0.218959   0.383212
    19  C    0.000001  -0.000000  -0.000020   0.000591   0.135465  -0.262816
    20  C    0.000040  -0.000018   0.000007  -0.002648  -0.117782   0.160021
    21  O   -0.000003   0.000001  -0.000002   0.000153   0.025716  -0.000236
    22  H    0.000021  -0.000016  -0.000012  -0.000078  -0.000862   0.000557
    23  H    0.003681   0.000064   0.000374  -0.002785   0.000782  -0.000120
    24  H   -0.082701  -0.014928   0.010032  -0.018072   0.000046   0.000008
    25  H    1.639119  -0.054413  -0.017691   0.009320  -0.000002  -0.000000
    26  H   -0.054413   1.631127  -0.058700  -0.010650   0.000001   0.000000
    27  H   -0.017691  -0.058700   1.628819  -0.082954  -0.000000   0.000000
    28  H    0.009320  -0.010650  -0.082954   1.914102   0.000002   0.000004
    29  H   -0.000002   0.000001  -0.000000   0.000002   2.031348  -0.107113
    30  H   -0.000000   0.000000   0.000000   0.000004  -0.107113   1.714709
    31  H    0.000000  -0.000000   0.000000  -0.000020  -0.014619  -0.061081
    32  H   -0.000000   0.000000   0.000001  -0.000015   0.011786  -0.020825
    33  H    0.000003   0.000000   0.000023  -0.000287  -0.019119   0.009861
              31         32         33
     1  O    0.000106  -0.000525  -0.026234
     2  S    0.006462  -0.015066  -0.064723
     3  N    0.000147  -0.000984   0.009440
     4  C   -0.003832   0.013025   0.026162
     5  N   -0.000248  -0.002137  -0.001224
     6  N    0.000476   0.001202  -0.017231
     7  C    0.000188  -0.000771   0.005390
     8  N    0.000359  -0.001122   0.008559
     9  C   -0.000037   0.000059   0.002800
    10  C   -0.000022   0.000067  -0.000309
    11  C   -0.000002   0.000011  -0.000132
    12  C    0.000001  -0.000009   0.000060
    13  C    0.000002   0.000039  -0.000313
    14  C    0.000024  -0.000039  -0.000232
    15  C    0.125473  -0.142025   0.510326
    16  C   -0.132812   0.139250  -0.157337
    17  C    0.385746  -0.240286   0.092213
    18  C   -0.606574   0.336907  -0.155159
    19  C    0.337234  -0.779566   0.481913
    20  C   -0.152233   0.589818  -1.022025
    21  O   -0.000809   0.001530   0.002592
    22  H    0.000155  -0.000330  -0.000281
    23  H    0.000019   0.000011   0.000095
    24  H   -0.000006   0.000022  -0.000072
    25  H    0.000000  -0.000000   0.000003
    26  H   -0.000000   0.000000   0.000000
    27  H    0.000000   0.000001   0.000023
    28  H   -0.000020  -0.000015  -0.000287
    29  H   -0.014619   0.011786  -0.019119
    30  H   -0.061081  -0.020825   0.009861
    31  H    1.631313  -0.064323  -0.013119
    32  H   -0.064323   1.724574  -0.092272
    33  H   -0.013119  -0.092272   1.991779
 Mulliken charges:
               1
     1  O   -1.211993
     2  S    2.979282
     3  N   -0.907050
     4  C    0.343135
     5  N   -0.538047
     6  N   -0.490681
     7  C    1.452301
     8  N   -0.701791
     9  C    0.835737
    10  C    0.068712
    11  C    0.772416
    12  C    0.595441
    13  C    0.619633
    14  C    0.380295
    15  C    0.913693
    16  C   -0.049137
    17  C    0.496786
    18  C    0.499414
    19  C    0.462063
    20  C    0.173563
    21  O   -1.175222
    22  H   -0.041737
    23  H   -0.479461
    24  H   -0.660383
    25  H   -0.436898
    26  H   -0.443657
    27  H   -0.430762
    28  H   -0.522757
    29  H   -0.592739
    30  H   -0.443043
    31  H   -0.437967
    32  H   -0.458004
    33  H   -0.571145
 Sum of Mulliken charges =  -0.00000
 Mulliken charges with hydrogens summed into heavy atoms:
               1
     1  O   -1.211993
     2  S    2.979282
     3  N   -0.948786
     4  C    0.343135
     5  N   -0.538047
     6  N   -0.490681
     7  C    0.972840
     8  N   -0.701791
     9  C    0.835737
    10  C   -0.591671
    11  C    0.335518
    12  C    0.151783
    13  C    0.188871
    14  C   -0.142462
    15  C    0.913693
    16  C   -0.641876
    17  C    0.053743
    18  C    0.061447
    19  C    0.004059
    20  C   -0.397582
    21  O   -1.175222
 Electronic spatial extent (au):  <R**2>=           8876.8884
 Charge=              0.0000 electrons
 Dipole moment (field-independent basis, Debye):
    X=             -3.5343    Y=              0.9557    Z=             -2.5948  Tot=              4.4875
 Quadrupole moment (field-independent basis, Debye-Ang):
   XX=           -100.6304   YY=           -126.3385   ZZ=           -134.1328
   XY=             19.6995   XZ=             -8.6566   YZ=             13.4582
 Traceless Quadrupole moment (field-independent basis, Debye-Ang):
   XX=             19.7368   YY=             -5.9713   ZZ=            -13.7656
   XY=             19.6995   XZ=             -8.6566   YZ=             13.4582
 Octapole moment (field-independent basis, Debye-Ang**2):
  XXX=            -91.8075  YYY=              7.5355  ZZZ=             -4.7387  XYY=            -21.0742
  XXY=             69.3987  XXZ=            -31.3559  XZZ=             26.8834  YZZ=              0.7137
  YYZ=             -1.1189  XYZ=             -8.4887
 Hexadecapole moment (field-independent basis, Debye-Ang**3):
 XXXX=          -9148.8225 YYYY=          -1442.2980 ZZZZ=           -590.2914 XXXY=            233.0171
 XXXZ=           -243.7465 YYYX=            126.3744 YYYZ=             64.4655 ZZZX=            -21.5006
 ZZZY=             19.9818 XXYY=          -1835.3086 XXZZ=          -1848.8524 YYZZ=           -328.8006
 XXYZ=            117.3027 YYXZ=            -19.8306 ZZXY=              5.3064
 N-N= 1.709157905450D+03 E-N=-6.477453839327D+03  KE= 1.300625752013D+03
 Leave Link  601 at Wed Sep 23 07:45:40 2020, MaxMem=   262144000 cpu:               0.6 elap:               0.2
 (Enter /prod/apps/gaussian/g16b1/l9999.exe)
 1\1\GINC-PIRINEUS11\SP\RMP2-FC\Aug-CC-pVDZ\C14H12N4O2S1\UBAFAR01\23-Se
 p-2020\0\\#p mp2/aug-cc-pVDZ scf=(MaxCycle=2000,NoVarAcc,NoIncFock) ma
 xdisk=120GB geom=allcheck\\SM45_m0.n.7.pdb.xyz\\0,1\O,0,1.5733717657,-
 1.1141058655,1.8402481482\S,0,2.1849231805,-1.3307969892,0.5207711802\
 N,0,0.9992306966,-1.3057431338,-0.7041170875\C,0,-0.1902330556,-0.5889
 836173,-0.4928290199\N,0,-0.2017835265,0.7709684315,-0.4449877907\N,0,
 -1.4338317466,1.1750496751,-0.272286892\C,0,-1.4805653611,-1.052124325
 1,-0.348131065\N,0,-2.2229618825,0.0775966827,-0.2281045256\C,0,-3.634
 1096147,0.2024524605,-0.0747833892\C,0,-4.4729576604,-0.8139687825,-0.
 5368456137\C,0,-5.8514542908,-0.6832529432,-0.3737482507\C,0,-6.386337
 5895,0.4554732236,0.2314678972\C,0,-5.5347724677,1.4667877622,0.681246
 0169\C,0,-4.15502815,1.3445712157,0.5373529008\C,0,3.2126899595,0.0797
 485417,0.1511411773\C,0,4.0153672827,0.051814542,-0.9918824055\C,0,4.8
 367414794,1.1436950229,-1.2585024419\C,0,4.8524363532,2.2391364145,-0.
 3899073213\C,0,4.0474711523,2.248162256,0.7501950343\C,0,3.2177563667,
 1.1620712824,1.0300356581\O,0,2.9433674332,-2.5630658473,0.2592387333\
 H,0,0.8621556709,-2.2584616841,-1.0444267703\H,0,-1.8966474031,-2.0438
 397998,-0.3142361675\H,0,-4.0578811885,-1.686767946,-1.0266615045\H,0,
 -6.5054114629,-1.4711685001,-0.7308258966\H,0,-7.4594819394,0.55415027
 67,0.3519296485\H,0,-5.9425556955,2.3524452374,1.1556007101\H,0,-3.482
 929316,2.1143345942,0.8931095825\H,0,3.9997706682,-0.8043392265,-1.655
 4481772\H,0,5.4656477567,1.1382524152,-2.141404149\H,0,5.4956390515,3.
 0859269626,-0.6029674029\H,0,4.0640069629,3.0973275515,1.4238194004\H,
 0,2.5873665708,1.1456541117,1.9099397833\\Version=ES64L-G16RevB.01\Sta
 te=1-A\HF=-1302.1623124\MP2=-1305.2958964\RMSD=5.272e-09\PG=C01 [X(C14
 H12N4O2S1)]\\@


    THE DOUGHNUT CREED
 AS YOU RAMBLE ON THROUGH LIFE, BROTHER
 WHATEVER BE YOUR GOAL
 KEEP YOUR EYE UPON THE DOUGHNUT
 AND NOT UPON THE HOLE.
 Job cpu time:       0 days  2 hours 21 minutes 20.4 seconds.
 Elapsed time:       0 days  0 hours 37 minutes 46.7 seconds.
 File lengths (MBytes):  RWF= 108114 Int=      0 D2E=      0 Chk=     28 Scr=      1
 Normal termination of Gaussian 16 at Wed Sep 23 07:45:42 2020.
