 Entering Gaussian System, Link 0=g16
 Initial command:
 /prod/apps/gaussian/g16b1/l1.exe "/tmp/ubafar01/1460648/Gau-3092.inp" -scrdir="/tmp/ubafar01/1460648/"
 Entering Link 1 = /prod/apps/gaussian/g16b1/l1.exe PID=      3093.
  
 Copyright (c) 1988-2017, Gaussian, Inc.  All Rights Reserved.
  
 This is part of the Gaussian(R) 16 program.  It is based on
 the Gaussian(R) 09 system (copyright 2009, Gaussian, Inc.),
 the Gaussian(R) 03 system (copyright 2003, Gaussian, Inc.),
 the Gaussian(R) 98 system (copyright 1998, Gaussian, Inc.),
 the Gaussian(R) 94 system (copyright 1995, Gaussian, Inc.),
 the Gaussian 92(TM) system (copyright 1992, Gaussian, Inc.),
 the Gaussian 90(TM) system (copyright 1990, Gaussian, Inc.),
 the Gaussian 88(TM) system (copyright 1988, Gaussian, Inc.),
 the Gaussian 86(TM) system (copyright 1986, Carnegie Mellon
 University), and the Gaussian 82(TM) system (copyright 1983,
 Carnegie Mellon University). Gaussian is a federally registered
 trademark of Gaussian, Inc.
  
 This software contains proprietary and confidential information,
 including trade secrets, belonging to Gaussian, Inc.
  
 This software is provided under written license and may be
 used, copied, transmitted, or stored only in accord with that
 written license.
  
 The following legend is applicable only to US Government
 contracts under FAR:
  
                    RESTRICTED RIGHTS LEGEND
  
 Use, reproduction and disclosure by the US Government is
 subject to restrictions as set forth in subparagraphs (a)
 and (c) of the Commercial Computer Software - Restricted
 Rights clause in FAR 52.227-19.
  
 Gaussian, Inc.
 340 Quinnipiac St., Bldg. 40, Wallingford CT 06492
  
  
 ---------------------------------------------------------------
 Warning -- This program may not be used in any manner that
 competes with the business of Gaussian, Inc. or will provide
 assistance to any competitor of Gaussian, Inc.  The licensee
 of this program is prohibited from giving any competitor of
 Gaussian, Inc. access to this program.  By using this program,
 the user acknowledges that Gaussian, Inc. is engaged in the
 business of creating and licensing software in the field of
 computational chemistry and represents and warrants to the
 licensee that it is not a competitor of Gaussian, Inc. and that
 it will not use this program in any manner prohibited above.
 ---------------------------------------------------------------
  

 Cite this work as:
 Gaussian 16, Revision B.01,
 M. J. Frisch, G. W. Trucks, H. B. Schlegel, G. E. Scuseria, 
 M. A. Robb, J. R. Cheeseman, G. Scalmani, V. Barone, 
 G. A. Petersson, H. Nakatsuji, X. Li, M. Caricato, A. V. Marenich, 
 J. Bloino, B. G. Janesko, R. Gomperts, B. Mennucci, H. P. Hratchian, 
 J. V. Ortiz, A. F. Izmaylov, J. L. Sonnenberg, D. Williams-Young, 
 F. Ding, F. Lipparini, F. Egidi, J. Goings, B. Peng, A. Petrone, 
 T. Henderson, D. Ranasinghe, V. G. Zakrzewski, J. Gao, N. Rega, 
 G. Zheng, W. Liang, M. Hada, M. Ehara, K. Toyota, R. Fukuda, 
 J. Hasegawa, M. Ishida, T. Nakajima, Y. Honda, O. Kitao, H. Nakai, 
 T. Vreven, K. Throssell, J. A. Montgomery, Jr., J. E. Peralta, 
 F. Ogliaro, M. J. Bearpark, J. J. Heyd, E. N. Brothers, K. N. Kudin, 
 V. N. Staroverov, T. A. Keith, R. Kobayashi, J. Normand, 
 K. Raghavachari, A. P. Rendell, J. C. Burant, S. S. Iyengar, 
 J. Tomasi, M. Cossi, J. M. Millam, M. Klene, C. Adamo, R. Cammi, 
 J. W. Ochterski, R. L. Martin, K. Morokuma, O. Farkas, 
 J. B. Foresman, and D. J. Fox, Gaussian, Inc., Wallingford CT, 2016.
 
 ******************************************
 Gaussian 16:  ES64L-G16RevB.01 20-Dec-2017
                23-Sep-2020 
 ******************************************
 %nproc=4
 Will use up to    4 processors via shared memory.
 %Chk=SM45_m0.n.4.pdb.xyz.mst.n.w.chk
 %mem=16GB
 ----------------------------------------------------------------------
 #p b3lyp/6-31G(d) opt freq NoSymm scf=(MaxCycle=2000,NoVarAcc,NoIncFoc
 k) scrf=(iefpcm,read,solvent=water)
 ----------------------------------------------------------------------
 1/18=20,19=15,26=3,38=1,40=2/1,3;
 2/9=110,12=2,15=1,17=6,18=5,40=1/2;
 3/5=1,6=6,7=1,11=2,25=1,30=1,70=2203,71=1,72=1,74=-5/1,2,3;
 4//1;
 5/5=100002,7=2000,38=1,53=1/2;
 6/7=2,8=2,9=2,10=2,28=1/1;
 7/30=1/1,2,3,16;
 1/18=20,19=15,26=3/3(2);
 2/9=110,15=1/2;
 99//99;
 2/9=110,15=1/2;
 3/5=1,6=6,7=1,11=2,25=1,30=1,70=2205,71=1,72=1,74=-5/1,2,3;
 4/5=5,16=3,69=1/1;
 5/5=100002,7=2000,38=1,53=1/2;
 7/30=1/1,2,3,16;
 1/18=20,19=15,26=3/3(-5);
 2/9=110,15=1/2;
 6/7=2,8=2,9=2,10=2,19=2,28=1/1;
 99/9=1/99;
 Leave Link    1 at Wed Sep 23 06:01:27 2020, MaxMem=  2147483648 cpu:               0.1 elap:               0.0
 (Enter /prod/apps/gaussian/g16b1/l101.exe)
 -------------------
 SM45_m0.n.4.pdb.xyz
 -------------------
 Symbolic Z-matrix:
 Charge =  0 Multiplicity = 1
 O                     1.567    -0.856     1.775 
 S                     2.142    -1.207     0.468 
 N                     0.947    -0.997    -0.721 
 C                    -0.277    -0.387    -0.415 
 N                    -0.356     0.921    -0.046 
 N                    -1.613     1.238     0.126 
 C                    -1.553    -0.906    -0.482 
 N                    -2.352     0.14     -0.153 
 C                    -3.774     0.185    -0.091 
 C                    -4.526    -0.65     -0.922 
 C                    -5.917    -0.608    -0.847 
 C                    -6.549     0.27      0.035 
 C                    -5.785     1.107     0.851 
 C                    -4.393     1.064     0.799 
 C                     3.392    -0.001     0.05 
 C                     3.049     1.351    -0.015 
 C                     4.05      2.278    -0.295 
 C                     5.367     1.854    -0.497 
 C                     5.69      0.498    -0.427 
 C                     4.698    -0.444    -0.152 
 O                     2.707    -2.547     0.25 
 H                     0.883    -1.83     -1.307 
 H                    -1.928    -1.887    -0.715 
 H                    -4.03     -1.311    -1.623 
 H                    -6.503    -1.256    -1.489 
 H                    -7.632     0.302     0.085 
 H                    -6.272     1.787     1.541 
 H                    -3.789     1.696     1.436 
 H                     2.019     1.663     0.128 
 H                     3.802     3.332    -0.356 
 H                     6.141     2.582    -0.714 
 H                     6.71      0.17     -0.587 
 H                     4.924    -1.502    -0.098 
 
 ITRead=  0  0  0  0  0  0  0  0  0  0  0  0  0  0  0  0  0  0  0  0
 ITRead=  0  0  0  0  0  0  0  0  0  0  0  0  0
 MicOpt= -1 -1 -1 -1 -1 -1 -1 -1 -1 -1 -1 -1 -1 -1 -1 -1 -1 -1 -1 -1
 MicOpt= -1 -1 -1 -1 -1 -1 -1 -1 -1 -1 -1 -1 -1
 NAtoms=     33 NQM=       33 NQMF=       0 NMMI=      0 NMMIF=      0
                NMic=       0 NMicF=      0.
                    Isotopes and Nuclear Properties:
 (Nuclear quadrupole moments (NQMom) in fm**2, nuclear magnetic moments (NMagM)
  in nuclear magnetons)

  Atom         1           2           3           4           5           6           7           8           9          10
 IAtWgt=          16          32          14          12          14          14          12          14          12          12
 AtmWgt=  15.9949146  31.9720718  14.0030740  12.0000000  14.0030740  14.0030740  12.0000000  14.0030740  12.0000000  12.0000000
 NucSpn=           0           0           2           0           2           2           0           2           0           0
 AtZEff=  -0.0000000  -0.0000000  -0.0000000  -0.0000000  -0.0000000  -0.0000000  -0.0000000  -0.0000000  -0.0000000  -0.0000000
 NQMom=    0.0000000   0.0000000   2.0440000   0.0000000   2.0440000   2.0440000   0.0000000   2.0440000   0.0000000   0.0000000
 NMagM=    0.0000000   0.0000000   0.4037610   0.0000000   0.4037610   0.4037610   0.0000000   0.4037610   0.0000000   0.0000000
 AtZNuc=   8.0000000  16.0000000   7.0000000   6.0000000   7.0000000   7.0000000   6.0000000   7.0000000   6.0000000   6.0000000

  Atom        11          12          13          14          15          16          17          18          19          20
 IAtWgt=          12          12          12          12          12          12          12          12          12          12
 AtmWgt=  12.0000000  12.0000000  12.0000000  12.0000000  12.0000000  12.0000000  12.0000000  12.0000000  12.0000000  12.0000000
 NucSpn=           0           0           0           0           0           0           0           0           0           0
 AtZEff=  -0.0000000  -0.0000000  -0.0000000  -0.0000000  -0.0000000  -0.0000000  -0.0000000  -0.0000000  -0.0000000  -0.0000000
 NQMom=    0.0000000   0.0000000   0.0000000   0.0000000   0.0000000   0.0000000   0.0000000   0.0000000   0.0000000   0.0000000
 NMagM=    0.0000000   0.0000000   0.0000000   0.0000000   0.0000000   0.0000000   0.0000000   0.0000000   0.0000000   0.0000000
 AtZNuc=   6.0000000   6.0000000   6.0000000   6.0000000   6.0000000   6.0000000   6.0000000   6.0000000   6.0000000   6.0000000

  Atom        21          22          23          24          25          26          27          28          29          30
 IAtWgt=          16           1           1           1           1           1           1           1           1           1
 AtmWgt=  15.9949146   1.0078250   1.0078250   1.0078250   1.0078250   1.0078250   1.0078250   1.0078250   1.0078250   1.0078250
 NucSpn=           0           1           1           1           1           1           1           1           1           1
 AtZEff=  -0.0000000  -0.0000000  -0.0000000  -0.0000000  -0.0000000  -0.0000000  -0.0000000  -0.0000000  -0.0000000  -0.0000000
 NQMom=    0.0000000   0.0000000   0.0000000   0.0000000   0.0000000   0.0000000   0.0000000   0.0000000   0.0000000   0.0000000
 NMagM=    0.0000000   2.7928460   2.7928460   2.7928460   2.7928460   2.7928460   2.7928460   2.7928460   2.7928460   2.7928460
 AtZNuc=   8.0000000   1.0000000   1.0000000   1.0000000   1.0000000   1.0000000   1.0000000   1.0000000   1.0000000   1.0000000

  Atom        31          32          33
 IAtWgt=           1           1           1
 AtmWgt=   1.0078250   1.0078250   1.0078250
 NucSpn=           1           1           1
 AtZEff=  -0.0000000  -0.0000000  -0.0000000
 NQMom=    0.0000000   0.0000000   0.0000000
 NMagM=    2.7928460   2.7928460   2.7928460
 AtZNuc=   1.0000000   1.0000000   1.0000000
 Leave Link  101 at Wed Sep 23 06:01:27 2020, MaxMem=  2147483648 cpu:               1.3 elap:               0.3
 (Enter /prod/apps/gaussian/g16b1/l103.exe)

 GradGradGradGradGradGradGradGradGradGradGradGradGradGradGradGradGradGrad
 Berny optimization.
 Initialization pass.
                           ----------------------------
                           !    Initial Parameters    !
                           ! (Angstroms and Degrees)  !
 --------------------------                            --------------------------
 ! Name  Definition              Value          Derivative Info.                !
 --------------------------------------------------------------------------------
 ! R1    R(1,2)                  1.4704         estimate D2E/DX2                !
 ! R2    R(2,3)                  1.6988         estimate D2E/DX2                !
 ! R3    R(2,15)                 1.7865         estimate D2E/DX2                !
 ! R4    R(2,21)                 1.4705         estimate D2E/DX2                !
 ! R5    R(3,4)                  1.4014         estimate D2E/DX2                !
 ! R6    R(3,22)                 1.0205         estimate D2E/DX2                !
 ! R7    R(4,5)                  1.3613         estimate D2E/DX2                !
 ! R8    R(4,7)                  1.3791         estimate D2E/DX2                !
 ! R9    R(5,6)                  1.3077         estimate D2E/DX2                !
 ! R10   R(6,8)                  1.3526         estimate D2E/DX2                !
 ! R11   R(7,8)                  1.3567         estimate D2E/DX2                !
 ! R12   R(7,23)                 1.0758         estimate D2E/DX2                !
 ! R13   R(8,9)                  1.4241         estimate D2E/DX2                !
 ! R14   R(9,10)                 1.3976         estimate D2E/DX2                !
 ! R15   R(9,14)                 1.3957         estimate D2E/DX2                !
 ! R16   R(10,11)                1.3937         estimate D2E/DX2                !
 ! R17   R(10,24)                1.0837         estimate D2E/DX2                !
 ! R18   R(11,12)                1.3958         estimate D2E/DX2                !
 ! R19   R(11,25)                1.0842         estimate D2E/DX2                !
 ! R20   R(12,13)                1.3965         estimate D2E/DX2                !
 ! R21   R(12,26)                1.0846         estimate D2E/DX2                !
 ! R22   R(13,14)                1.3936         estimate D2E/DX2                !
 ! R23   R(13,27)                1.0843         estimate D2E/DX2                !
 ! R24   R(14,28)                1.0817         estimate D2E/DX2                !
 ! R25   R(15,16)                1.3963         estimate D2E/DX2                !
 ! R26   R(15,20)                1.3938         estimate D2E/DX2                !
 ! R27   R(16,17)                1.3927         estimate D2E/DX2                !
 ! R28   R(16,29)                1.0857         estimate D2E/DX2                !
 ! R29   R(17,18)                1.3982         estimate D2E/DX2                !
 ! R30   R(17,30)                1.0845         estimate D2E/DX2                !
 ! R31   R(18,19)                1.3957         estimate D2E/DX2                !
 ! R32   R(18,31)                1.0845         estimate D2E/DX2                !
 ! R33   R(19,20)                1.3954         estimate D2E/DX2                !
 ! R34   R(19,32)                1.0833         estimate D2E/DX2                !
 ! R35   R(20,33)                1.0832         estimate D2E/DX2                !
 ! A1    A(1,2,3)              108.5145         estimate D2E/DX2                !
 ! A2    A(1,2,15)             108.6897         estimate D2E/DX2                !
 ! A3    A(1,2,21)             119.9705         estimate D2E/DX2                !
 ! A4    A(3,2,15)             104.1806         estimate D2E/DX2                !
 ! A5    A(3,2,21)             106.2106         estimate D2E/DX2                !
 ! A6    A(15,2,21)            108.1573         estimate D2E/DX2                !
 ! A7    A(2,3,4)              121.0229         estimate D2E/DX2                !
 ! A8    A(2,3,22)             110.1896         estimate D2E/DX2                !
 ! A9    A(4,3,22)             115.209          estimate D2E/DX2                !
 ! A10   A(3,4,5)              121.8767         estimate D2E/DX2                !
 ! A11   A(3,4,7)              129.3223         estimate D2E/DX2                !
 ! A12   A(5,4,7)              108.7266         estimate D2E/DX2                !
 ! A13   A(4,5,6)              108.9256         estimate D2E/DX2                !
 ! A14   A(5,6,8)              107.5329         estimate D2E/DX2                !
 ! A15   A(4,7,8)              104.0611         estimate D2E/DX2                !
 ! A16   A(4,7,23)             132.5483         estimate D2E/DX2                !
 ! A17   A(8,7,23)             123.3863         estimate D2E/DX2                !
 ! A18   A(6,8,7)              110.7386         estimate D2E/DX2                !
 ! A19   A(6,8,9)              120.7256         estimate D2E/DX2                !
 ! A20   A(7,8,9)              128.5338         estimate D2E/DX2                !
 ! A21   A(8,9,10)             119.5063         estimate D2E/DX2                !
 ! A22   A(8,9,14)             119.3758         estimate D2E/DX2                !
 ! A23   A(10,9,14)            121.1178         estimate D2E/DX2                !
 ! A24   A(9,10,11)            119.146          estimate D2E/DX2                !
 ! A25   A(9,10,24)            120.1839         estimate D2E/DX2                !
 ! A26   A(11,10,24)           120.6656         estimate D2E/DX2                !
 ! A27   A(10,11,12)           120.3241         estimate D2E/DX2                !
 ! A28   A(10,11,25)           119.3136         estimate D2E/DX2                !
 ! A29   A(12,11,25)           120.3585         estimate D2E/DX2                !
 ! A30   A(11,12,13)           119.9037         estimate D2E/DX2                !
 ! A31   A(11,12,26)           119.9867         estimate D2E/DX2                !
 ! A32   A(13,12,26)           120.1095         estimate D2E/DX2                !
 ! A33   A(12,13,14)           120.4082         estimate D2E/DX2                !
 ! A34   A(12,13,27)           120.1333         estimate D2E/DX2                !
 ! A35   A(14,13,27)           119.4532         estimate D2E/DX2                !
 ! A36   A(9,14,13)            119.0924         estimate D2E/DX2                !
 ! A37   A(9,14,28)            119.7266         estimate D2E/DX2                !
 ! A38   A(13,14,28)           121.1808         estimate D2E/DX2                !
 ! A39   A(2,15,16)            119.514          estimate D2E/DX2                !
 ! A40   A(2,15,20)            118.3567         estimate D2E/DX2                !
 ! A41   A(16,15,20)           122.084          estimate D2E/DX2                !
 ! A42   A(15,16,17)           118.507          estimate D2E/DX2                !
 ! A43   A(15,16,29)           120.3423         estimate D2E/DX2                !
 ! A44   A(17,16,29)           121.136          estimate D2E/DX2                !
 ! A45   A(16,17,18)           120.2768         estimate D2E/DX2                !
 ! A46   A(16,17,30)           119.5924         estimate D2E/DX2                !
 ! A47   A(18,17,30)           120.1308         estimate D2E/DX2                !
 ! A48   A(17,18,19)           120.3545         estimate D2E/DX2                !
 ! A49   A(17,18,31)           119.8397         estimate D2E/DX2                !
 ! A50   A(19,18,31)           119.8051         estimate D2E/DX2                !
 ! A51   A(18,19,20)           120.0826         estimate D2E/DX2                !
 ! A52   A(18,19,32)           120.3083         estimate D2E/DX2                !
 ! A53   A(20,19,32)           119.609          estimate D2E/DX2                !
 ! A54   A(15,20,19)           118.6941         estimate D2E/DX2                !
 ! A55   A(15,20,33)           119.9145         estimate D2E/DX2                !
 ! A56   A(19,20,33)           121.3909         estimate D2E/DX2                !
 ! D1    D(1,2,3,4)              8.7272         estimate D2E/DX2                !
 ! D2    D(1,2,3,22)          -129.924          estimate D2E/DX2                !
 ! D3    D(15,2,3,4)          -106.9417         estimate D2E/DX2                !
 ! D4    D(15,2,3,22)          114.4071         estimate D2E/DX2                !
 ! D5    D(21,2,3,4)           138.9671         estimate D2E/DX2                !
 ! D6    D(21,2,3,22)            0.3159         estimate D2E/DX2                !
 ! D7    D(1,2,15,16)          -57.438          estimate D2E/DX2                !
 ! D8    D(1,2,15,20)          120.1676         estimate D2E/DX2                !
 ! D9    D(3,2,15,16)           58.1078         estimate D2E/DX2                !
 ! D10   D(3,2,15,20)         -124.2866         estimate D2E/DX2                !
 ! D11   D(21,2,15,16)         170.8074         estimate D2E/DX2                !
 ! D12   D(21,2,15,20)         -11.587          estimate D2E/DX2                !
 ! D13   D(2,3,4,5)             65.456          estimate D2E/DX2                !
 ! D14   D(2,3,4,7)           -118.0492         estimate D2E/DX2                !
 ! D15   D(22,3,4,5)          -157.8046         estimate D2E/DX2                !
 ! D16   D(22,3,4,7)            18.6902         estimate D2E/DX2                !
 ! D17   D(3,4,5,6)            177.466          estimate D2E/DX2                !
 ! D18   D(7,4,5,6)              0.3286         estimate D2E/DX2                !
 ! D19   D(3,4,7,8)           -176.4059         estimate D2E/DX2                !
 ! D20   D(3,4,7,23)             4.3505         estimate D2E/DX2                !
 ! D21   D(5,4,7,8)              0.4515         estimate D2E/DX2                !
 ! D22   D(5,4,7,23)          -178.7921         estimate D2E/DX2                !
 ! D23   D(4,5,6,8)             -0.9808         estimate D2E/DX2                !
 ! D24   D(5,6,8,7)              1.3084         estimate D2E/DX2                !
 ! D25   D(5,6,8,9)           -178.2184         estimate D2E/DX2                !
 ! D26   D(4,7,8,6)             -1.0668         estimate D2E/DX2                !
 ! D27   D(4,7,8,9)            178.4132         estimate D2E/DX2                !
 ! D28   D(23,7,8,6)           178.2659         estimate D2E/DX2                !
 ! D29   D(23,7,8,9)            -2.2541         estimate D2E/DX2                !
 ! D30   D(6,8,9,10)           150.3173         estimate D2E/DX2                !
 ! D31   D(6,8,9,14)           -29.6364         estimate D2E/DX2                !
 ! D32   D(7,8,9,10)           -29.117          estimate D2E/DX2                !
 ! D33   D(7,8,9,14)           150.9293         estimate D2E/DX2                !
 ! D34   D(8,9,10,11)          179.4563         estimate D2E/DX2                !
 ! D35   D(8,9,10,24)           -1.3076         estimate D2E/DX2                !
 ! D36   D(14,9,10,11)          -0.5908         estimate D2E/DX2                !
 ! D37   D(14,9,10,24)         178.6452         estimate D2E/DX2                !
 ! D38   D(8,9,14,13)          179.7465         estimate D2E/DX2                !
 ! D39   D(8,9,14,28)           -0.4086         estimate D2E/DX2                !
 ! D40   D(10,9,14,13)          -0.2065         estimate D2E/DX2                !
 ! D41   D(10,9,14,28)         179.6385         estimate D2E/DX2                !
 ! D42   D(9,10,11,12)           0.8289         estimate D2E/DX2                !
 ! D43   D(9,10,11,25)        -179.8793         estimate D2E/DX2                !
 ! D44   D(24,10,11,12)       -178.4033         estimate D2E/DX2                !
 ! D45   D(24,10,11,25)          0.8884         estimate D2E/DX2                !
 ! D46   D(10,11,12,13)         -0.2739         estimate D2E/DX2                !
 ! D47   D(10,11,12,26)        179.6658         estimate D2E/DX2                !
 ! D48   D(25,11,12,13)       -179.5582         estimate D2E/DX2                !
 ! D49   D(25,11,12,26)          0.3814         estimate D2E/DX2                !
 ! D50   D(11,12,13,14)         -0.5386         estimate D2E/DX2                !
 ! D51   D(11,12,13,27)       -179.6986         estimate D2E/DX2                !
 ! D52   D(26,12,13,14)        179.5219         estimate D2E/DX2                !
 ! D53   D(26,12,13,27)          0.3618         estimate D2E/DX2                !
 ! D54   D(12,13,14,9)           0.7727         estimate D2E/DX2                !
 ! D55   D(12,13,14,28)       -179.0699         estimate D2E/DX2                !
 ! D56   D(27,13,14,9)         179.9385         estimate D2E/DX2                !
 ! D57   D(27,13,14,28)          0.0959         estimate D2E/DX2                !
 ! D58   D(2,15,16,17)         177.7041         estimate D2E/DX2                !
 ! D59   D(2,15,16,29)          -3.6769         estimate D2E/DX2                !
 ! D60   D(20,15,16,17)          0.1911         estimate D2E/DX2                !
 ! D61   D(20,15,16,29)        178.8101         estimate D2E/DX2                !
 ! D62   D(2,15,20,19)        -177.5142         estimate D2E/DX2                !
 ! D63   D(2,15,20,33)           2.746          estimate D2E/DX2                !
 ! D64   D(16,15,20,19)          0.0265         estimate D2E/DX2                !
 ! D65   D(16,15,20,33)       -179.7133         estimate D2E/DX2                !
 ! D66   D(15,16,17,18)         -0.3691         estimate D2E/DX2                !
 ! D67   D(15,16,17,30)        179.6059         estimate D2E/DX2                !
 ! D68   D(29,16,17,18)       -178.9767         estimate D2E/DX2                !
 ! D69   D(29,16,17,30)          0.9984         estimate D2E/DX2                !
 ! D70   D(16,17,18,19)          0.3353         estimate D2E/DX2                !
 ! D71   D(16,17,18,31)       -179.9619         estimate D2E/DX2                !
 ! D72   D(30,17,18,19)       -179.6396         estimate D2E/DX2                !
 ! D73   D(30,17,18,31)          0.0632         estimate D2E/DX2                !
 ! D74   D(17,18,19,20)         -0.1121         estimate D2E/DX2                !
 ! D75   D(17,18,19,32)        179.789          estimate D2E/DX2                !
 ! D76   D(31,18,19,20)       -179.815          estimate D2E/DX2                !
 ! D77   D(31,18,19,32)          0.0861         estimate D2E/DX2                !
 ! D78   D(18,19,20,15)         -0.0669         estimate D2E/DX2                !
 ! D79   D(18,19,20,33)        179.669          estimate D2E/DX2                !
 ! D80   D(32,19,20,15)       -179.9687         estimate D2E/DX2                !
 ! D81   D(32,19,20,33)         -0.2329         estimate D2E/DX2                !
 --------------------------------------------------------------------------------
 Trust Radius=3.00D-01 FncErr=1.00D-07 GrdErr=1.00D-06 EigMax=2.50D+02 EigMin=1.00D-04
 Number of steps in this run=    182 maximum allowed number of steps=    198.
 GradGradGradGradGradGradGradGradGradGradGradGradGradGradGradGradGradGrad

 Leave Link  103 at Wed Sep 23 06:01:27 2020, MaxMem=  2147483648 cpu:               0.1 elap:               0.0
 (Enter /prod/apps/gaussian/g16b1/l202.exe)
                          Input orientation:                          
 ---------------------------------------------------------------------
 Center     Atomic      Atomic             Coordinates (Angstroms)
 Number     Number       Type             X           Y           Z
 ---------------------------------------------------------------------
      1          8           0        1.567000   -0.856000    1.775000
      2         16           0        2.142000   -1.207000    0.468000
      3          7           0        0.947000   -0.997000   -0.721000
      4          6           0       -0.277000   -0.387000   -0.415000
      5          7           0       -0.356000    0.921000   -0.046000
      6          7           0       -1.613000    1.238000    0.126000
      7          6           0       -1.553000   -0.906000   -0.482000
      8          7           0       -2.352000    0.140000   -0.153000
      9          6           0       -3.774000    0.185000   -0.091000
     10          6           0       -4.526000   -0.650000   -0.922000
     11          6           0       -5.917000   -0.608000   -0.847000
     12          6           0       -6.549000    0.270000    0.035000
     13          6           0       -5.785000    1.107000    0.851000
     14          6           0       -4.393000    1.064000    0.799000
     15          6           0        3.392000   -0.001000    0.050000
     16          6           0        3.049000    1.351000   -0.015000
     17          6           0        4.050000    2.278000   -0.295000
     18          6           0        5.367000    1.854000   -0.497000
     19          6           0        5.690000    0.498000   -0.427000
     20          6           0        4.698000   -0.444000   -0.152000
     21          8           0        2.707000   -2.547000    0.250000
     22          1           0        0.883000   -1.830000   -1.307000
     23          1           0       -1.928000   -1.887000   -0.715000
     24          1           0       -4.030000   -1.311000   -1.623000
     25          1           0       -6.503000   -1.256000   -1.489000
     26          1           0       -7.632000    0.302000    0.085000
     27          1           0       -6.272000    1.787000    1.541000
     28          1           0       -3.789000    1.696000    1.436000
     29          1           0        2.019000    1.663000    0.128000
     30          1           0        3.802000    3.332000   -0.356000
     31          1           0        6.141000    2.582000   -0.714000
     32          1           0        6.710000    0.170000   -0.587000
     33          1           0        4.924000   -1.502000   -0.098000
 ---------------------------------------------------------------------
                    Distance matrix (angstroms):
                    1          2          3          4          5
     1  O    0.000000
     2  S    1.470400   0.000000
     3  N    2.575713   1.698778   0.000000
     4  C    2.901103   2.702527   1.401396   0.000000
     5  N    3.189310   3.321533   2.414986   1.361347   0.000000
     6  N    4.149269   4.493886   3.502318   2.172142   1.307716
     7  C    3.851097   3.827026   2.513046   1.379140   2.227293
     8  N    4.479705   4.732450   3.535363   2.156849   2.146026
     9  C    5.752558   6.103212   4.907328   3.558254   3.496633
    10  C    6.666400   6.834074   5.487672   4.287216   4.541400
    11  C    7.933892   8.187521   6.876168   5.660836   5.822728
    12  C    8.376451   8.826239   7.639819   6.322352   6.227649
    13  C    7.665445   8.266717   7.226190   5.845755   5.505747
    14  C    6.337237   6.926271   5.922307   4.529973   4.126965
    15  C    2.652786   1.786522   2.750360   3.718438   3.860933
    16  C    3.204883   2.756683   3.229542   3.773979   3.432184
    17  C    4.502460   4.045721   4.531634   5.083262   4.616956
    18  C    5.190962   4.549898   5.264483   6.073182   5.816066
    19  C    4.866338   4.036874   4.981718   6.032285   6.072743
    20  C    3.699491   2.738559   3.834002   4.982273   5.236161
    21  O    2.546509   1.470493   2.538295   3.743271   4.636444
    22  H    3.303824   2.263589   1.020481   2.055119   3.270052
    23  H    4.413398   4.292644   3.009611   2.250733   3.286884
    24  H    6.563523   6.517414   5.067813   4.049450   4.578977
    25  H    8.714275   8.863875   7.493958   6.377438   6.678861
    26  H    9.424365   9.897214   8.714142   7.404103   7.303458
    27  H    8.275876   8.995041   8.061096   6.670250   6.186080
    28  H    5.942589   6.673919   5.859573   4.483217   3.818696
    29  H    3.043398   2.892685   2.990917   3.125534   2.494286
    30  H    5.203434   4.902764   5.198509   5.520207   4.816429
    31  H    6.239907   5.634327   6.307688   7.077788   6.739151
    32  H    5.751710   4.886285   5.881498   7.011277   7.126362
    33  H    3.898063   2.854278   4.057053   5.328613   5.809650
                    6          7          8          9         10
     6  N    0.000000
     7  C    2.229350   0.000000
     8  N    1.352615   1.356745   0.000000
     9  C    2.413673   2.505195   1.424062   0.000000
    10  C    3.626075   3.016267   2.437568   1.397602   0.000000
    11  C    4.783185   4.389365   3.708148   2.406831   1.393653
    12  C    5.030845   5.158515   4.203219   2.779159   2.419665
    13  C    4.236552   4.872256   3.705212   2.404489   2.795650
    14  C    2.865590   3.686117   2.434289   1.395673   2.432555
    15  C    5.156639   5.055203   5.749315   7.169800   8.003793
    16  C    4.665500   5.146896   5.536819   6.922331   7.887159
    17  C    5.773076   6.447204   6.751060   8.101681   9.083727
    18  C    7.034770   7.450116   7.914486   9.300983  10.213819
    19  C    7.361197   7.378028   8.054626   9.475134  10.292210
    20  C    6.537211   6.276730   7.074147   8.495537   9.258375
    21  O    5.744911   4.623452   5.742461   7.041553   7.568916
    22  H    4.206677   2.732855   3.959525   5.217905   5.549586
    23  H    3.251481   1.075767   2.145775   2.844341   2.884895
    24  H    3.924066   2.757070   2.661200   2.156519   1.083669
    25  H    5.721919   5.063502   4.578702   3.387968   2.144121
    26  H    6.091481   6.223744   5.287843   3.863784   3.401116
    27  H    4.899991   5.797736   4.576969   3.386714   3.879930
    28  H    2.580860   3.930499   2.647834   2.148273   3.406912
    29  H    3.656782   4.441964   4.637255   5.982583   7.020648
    30  H    5.825752   6.830267   6.935545   8.207899   9.248365
    31  H    7.914319   8.450894   8.854893  10.219636  11.147824
    32  H    8.421480   8.333425   9.072436  10.495737  11.270862
    33  H    7.091554   6.515689   7.459180   8.860092   9.524042
                   11         12         13         14         15
    11  C    0.000000
    12  C    1.395791   0.000000
    13  C    2.416993   1.396467   0.000000
    14  C    2.797763   2.421253   1.393634   0.000000
    15  C    9.371795   9.944704   9.278286   7.893127   0.000000
    16  C    9.215154   9.658813   8.879699   7.491884   1.396345
    17  C   10.391092  10.792579   9.970546   8.599702   2.397046
    18  C   11.554765  12.032586  11.257985   9.877313   2.764210
    19  C   11.667137  12.249839  11.561998  10.173019   2.399445
    20  C   10.638992  11.271192  10.644477   9.264165   1.393804
    21  O    8.907104   9.677564   9.264285   7.984405   2.644114
    22  H    6.924224   7.838724   7.599023   6.375472   3.388476
    23  H    4.191108   5.154492   5.127655   4.132411   5.696018
    24  H    2.158044   3.404980   3.879101   3.411521   7.720176
    25  H    1.084188   2.157167   3.402189   3.881938  10.092303
    26  H    2.153590   1.084626   2.155502   3.403169  11.028219
    27  H    3.400676   2.155471   1.084283   2.145678   9.940469
    28  H    3.879290   3.407914   2.161750   1.081670   7.507834
    29  H    8.311929   8.680998   7.857117   6.474781   2.158729
    30  H   10.498745  10.801478   9.915546   8.581135   3.382577
    31  H   12.473538  12.920621  12.118347  10.749821   3.848712
    32  H   12.653617  13.273958  12.612329  11.224831   3.382918
    33  H   10.903555  11.609798  11.063009   9.705434   2.149867
                   16         17         18         19         20
    16  C    0.000000
    17  C    1.392742   0.000000
    18  C    2.420425   1.398238   0.000000
    19  C    2.805750   2.423927   1.395695   0.000000
    20  C    2.441310   2.801720   2.418138   1.395368   0.000000
    21  O    3.921937   5.037986   5.196384   4.316091   2.923747
    22  H    4.059505   5.284855   5.859540   5.413061   4.220100
    23  H    5.978727   7.297952   8.201197   7.987809   6.804638
    24  H    7.732021   8.940409   9.979414   9.958981   8.893453
    25  H   10.010486  11.192882  12.310689  12.364207  11.309700
    26  H   10.732854  11.854033  13.104252  13.333276  12.354820
    27  H    9.460036  10.495507  11.816271  12.191144  11.321860
    28  H    6.998762   8.048913   9.359155   9.734342   8.895533
    29  H    1.085676   2.163820   3.411189   3.891207   3.419779
    30  H    2.146544   1.084500   2.157218   3.406045   3.886207
    31  H    3.400651   2.154126   1.084504   2.151471   3.399231
    32  H    3.889070   3.406542   2.155830   1.083321   2.148107
    33  H    3.414985   3.884725   3.408546   2.166794   1.083216
                   21         22         23         24         25
    21  O    0.000000
    22  H    2.503061   0.000000
    23  H    4.780173   2.873227   0.000000
    24  H    7.100915   4.950433   2.361068   0.000000
    25  H    9.461232   7.410506   4.682720   2.477238   0.000000
    26  H   10.725621   8.887537   6.161764   4.300400   2.485856
    27  H   10.053491   8.508103   6.120306   4.963372   4.300478
    28  H    7.849055   6.464078   4.574714   4.296232   4.963439
    29  H    4.267590   3.943446   5.375124   6.964272   9.152034
    30  H    6.010732   6.005931   7.758849   9.192549  11.336951
    31  H    6.247263   6.889409   9.223921  10.928448  13.236374
    32  H    4.909854   6.202607   8.880466  10.891017  13.320302
    33  H    2.475524   4.230715   6.890488   9.084945  11.513980
                   26         27         28         29         30
    26  H    0.000000
    27  H    2.484907   0.000000
    28  H    4.305472   2.486885   0.000000
    29  H    9.746588   8.411458   5.953555   0.000000
    30  H   11.836880  10.366827   7.969381   2.489760   0.000000
    31  H   13.983288  12.641187  10.198647   4.306322   2.482254
    32  H   14.358342  13.254260  10.800472   4.974511   4.302101
    33  H   12.686254  11.783644   9.407270   4.302014   4.969206
                   31         32         33
    31  H    0.000000
    32  H    2.481458   0.000000
    33  H    4.305764   2.494895   0.000000
 Symmetry turned off by external request.
 Stoichiometry    C14H12N4O2S
 Framework group  C1[X(C14H12N4O2S)]
 Deg. of freedom    93
 Full point group                 C1      NOp   1
 Rotational constants (GHZ):           0.9091722           0.1170009           0.1092694
 Leave Link  202 at Wed Sep 23 06:01:27 2020, MaxMem=  2147483648 cpu:               0.0 elap:               0.0
 (Enter /prod/apps/gaussian/g16b1/l301.exe)
 Standard basis: 6-31G(d) (6D, 7F)
 Ernie: Thresh=  0.10000D-02 Tol=  0.10000D-05 Strict=F.
   343 basis functions,   660 primitive gaussians,   343 cartesian basis functions
    78 alpha electrons       78 beta electrons
       nuclear repulsion energy      1699.6022928820 Hartrees.
 IExCor=  402 DFT=T Ex+Corr=B3LYP ExCW=0 ScaHFX=  0.200000
 ScaDFX=  0.800000  0.720000  1.000000  0.810000 ScalE2=  1.000000  1.000000
 IRadAn=      5 IRanWt=     -1 IRanGd=            0 ICorTp=0 IEmpDi=  4
 NAtoms=   33 NActive=   33 NUniq=   33 SFac= 1.00D+00 NAtFMM=   60 NAOKFM=F Big=F
 Integral buffers will be    131072 words long.
 Raffenetti 2 integral format.
 Two-electron integral symmetry is turned off.
 Using the following non-standard input for PCM:
 MSTModel=DFT cav
 --- end of non-standard input.
 MST model for solvation energy: B3LYP parametrization.
 MST cavity parameters:
 ISph   IAn     Re0     Alpha   Atom Type   QCorr
 ------------------------------------------------
   1      8     1.40     1.25      O          F
   2     16     1.75     1.25      S          F
   3      7     1.50     1.25      NH         F
   4      6     1.50     1.25      C          F
   5      7     1.40     1.25      N          F
   6      7     1.40     1.25      N          F
   7      6     1.50     1.25      CH         F
   8      7     1.40     1.25      N          F
   9      6     1.50     1.25      C          F
  10      6     1.50     1.25      CH         F
  11      6     1.50     1.25      CH         F
  12      6     1.50     1.25      CH         F
  13      6     1.50     1.25      CH         F
  14      6     1.50     1.25      CH         F
  15      6     1.50     1.25      C          F
  16      6     1.50     1.25      CH         F
  17      6     1.50     1.25      CH         F
  18      6     1.50     1.25      CH         F
  19      6     1.50     1.25      CH         F
  20      6     1.50     1.25      CH         F
  21      8     1.40     1.25      O          F
  22      1     0.90     1.25      NH         F
  23      1     1.20     1.25      CH         F
  24      1     1.20     1.25      CH         F
  25      1     1.20     1.25      CH         F
  26      1     1.20     1.25      CH         F
  27      1     1.20     1.25      CH         F
  28      1     1.20     1.25      CH         F
  29      1     1.20     1.25      CH         F
  30      1     1.20     1.25      CH         F
  31      1     1.20     1.25      CH         F
  32      1     1.20     1.25      CH         F
  33      1     1.20     1.25      CH         F
 ------------------------------------------------------------------------------
 Polarizable Continuum Model (PCM)
 =================================
 Model                : PCM.
 Atomic radii         : MST.
 Polarization charges : Total charges.
 Charge compensation  : None.
 Solution method      : On-the-fly selection.
 Cavity type          : Scaled VdW (van der Waals Surface) (Alpha=1.250).
 Cavity algorithm     : GePol (No added spheres)
                        Default sphere list used, NSphG=   33.
                        Lebedev-Laikov grids with approx.  5.0 points / Ang**2.
                        Smoothing algorithm: York/Karplus (Gamma=1.0000).
                        Polarization charges: spherical gaussians, with
                                              point-specific exponents (IZeta= 3).
                        Self-potential: point-specific (ISelfS= 7).
                        Self-field    : sphere-specific E.n sum rule (ISelfD= 2).
 1st derivatives      : Analytical E(r).r(x)/FMM algorithm (CHGder, D1EAlg=3).
                        Cavity 1st derivative terms included.
 Solvent              : Water, Eps=  78.355300 Eps(inf)=   1.777849
 ------------------------------------------------------------------------------
 GePol: Number of generator spheres                  =      33
 GePol: Total number of spheres                      =      33
 GePol: Number of exposed spheres                    =      33 (100.00%)
 GePol: Number of points                             =    2604
 GePol: Average weight of points                     =       0.13
 GePol: Minimum weight of points                     =   0.29D-10
 GePol: Maximum weight of points                     =    0.22001
 GePol: Number of points with low weight             =     158
 GePol: Fraction of low-weight points (<1% of avg)   =       6.07%
 GePol: Cavity surface area                          =    335.475 Ang**2
 GePol: Cavity volume                                =    321.246 Ang**3
 PCM non-electrostatic energy =         0.0030083775 Hartrees.
 Nuclear repulsion after PCM non-electrostatic terms =     1699.6053012595 Hartrees.
 Leave Link  301 at Wed Sep 23 06:01:27 2020, MaxMem=  2147483648 cpu:               0.3 elap:               0.1
 (Enter /prod/apps/gaussian/g16b1/l302.exe)
 NPDir=0 NMtPBC=     1 NCelOv=     1 NCel=       1 NClECP=     1 NCelD=      1
         NCelK=      1 NCelE2=     1 NClLst=     1 CellRange=     0.0.
 One-electron integrals computed using PRISM.
 NBasis=   343 RedAO= T EigKep=  4.68D-04  NBF=   343
 NBsUse=   343 1.00D-06 EigRej= -1.00D+00 NBFU=   343
 Precomputing XC quadrature grid using
 IXCGrd= 4 IRadAn=           5 IRanWt=          -1 IRanGd=           0 AccXCQ= 0.00D+00.
 Generated NRdTot=       0 NPtTot=           0 NUsed=           0 NTot=          32
 NSgBfM=   337   337   337   337   337 MxSgAt=    33 MxSgA2=    33.
 Leave Link  302 at Wed Sep 23 06:01:28 2020, MaxMem=  2147483648 cpu:               1.6 elap:               0.4
 (Enter /prod/apps/gaussian/g16b1/l303.exe)
 DipDrv:  MaxL=1.
 Leave Link  303 at Wed Sep 23 06:01:28 2020, MaxMem=  2147483648 cpu:               0.1 elap:               0.1
 (Enter /prod/apps/gaussian/g16b1/l401.exe)
 ExpMin= 1.17D-01 ExpMax= 2.19D+04 ExpMxC= 3.30D+03 IAcc=3 IRadAn=         5 AccDes= 0.00D+00
 Harris functional with IExCor=  402 and IRadAn=       5 diagonalized for initial guess.
 HarFok:  IExCor=  402 AccDes= 0.00D+00 IRadAn=         5 IDoV= 1 UseB2=F ITyADJ=14
 ICtDFT=  3500011 ScaDFX=  1.000000  1.000000  1.000000  1.000000
 FoFCou: FMM=F IPFlag=           0 FMFlag=      100000 FMFlg1=           0
         NFxFlg=           0 DoJE=T BraDBF=F KetDBF=T FulRan=T
         wScrn=  0.000000 ICntrl=       500 IOpCl=  0 I1Cent=   200000004 NGrid=           0
         NMat0=    1 NMatS0=      1 NMatT0=    0 NMatD0=    1 NMtDS0=    0 NMtDT0=    0
 Symmetry not used in FoFCou.
 Harris En= -1308.24465046280    
 JPrj=0 DoOrth=F DoCkMO=F.
 Leave Link  401 at Wed Sep 23 06:01:30 2020, MaxMem=  2147483648 cpu:               8.1 elap:               2.1
 (Enter /prod/apps/gaussian/g16b1/l502.exe)
 Two-electron integral symmetry not used.
 Closed shell SCF:
 Using DIIS extrapolation, IDIIS=  1040.
 NGot=  2147483648 LenX=  2147243388 LenY=  2147125298
 Requested convergence on RMS density matrix=1.00D-08 within2000 cycles.
 Requested convergence on MAX density matrix=1.00D-06.
 Requested convergence on             energy=1.00D-06.
 No special actions if energy rises.

 Cycle   1  Pass 1  IDiag  1:
 FoFJK:  IHMeth= 1 ICntrl=       0 DoSepK=F KAlg= 0 I1Cent=           0 FoldK=F
 IRaf= 690000000 NMat=       1 IRICut=       1 DoRegI=T DoRafI=F ISym2E= 0 IDoP0=0 IntGTp=1.
 FoFCou: FMM=F IPFlag=           0 FMFlag=      100000 FMFlg1=           0
         NFxFlg=           0 DoJE=F BraDBF=F KetDBF=F FulRan=T
         wScrn=  0.000000 ICntrl=         0 IOpCl=  0 I1Cent=           0 NGrid=           0
         NMat0=    1 NMatS0=      1 NMatT0=    0 NMatD0=    1 NMtDS0=    0 NMtDT0=    0
 Symmetry not used in FoFCou.
 Inv3:  Mode=1 IEnd=    20342448.
 Iteration    1 A*A^-1 deviation from unit magnitude is 3.33D-15 for   1646.
 Iteration    1 A*A^-1 deviation from orthogonality  is 2.63D-15 for   2110   1917.
 Iteration    1 A^-1*A deviation from unit magnitude is 3.55D-15 for   1646.
 Iteration    1 A^-1*A deviation from orthogonality  is 1.00D-14 for   1653   1619.
 E= -1307.69397050033    
 DIIS: error= 3.25D-02 at cycle   1 NSaved=   1.
 NSaved= 1 IEnMin= 1 EnMin= -1307.69397050033     IErMin= 1 ErrMin= 3.25D-02
 ErrMax= 3.25D-02  0.00D+00 EMaxC= 1.00D-01 BMatC= 6.47D-01 BMatP= 6.47D-01
 IDIUse=3 WtCom= 6.75D-01 WtEn= 3.25D-01
 Coeff-Com:  0.100D+01
 Coeff-En:   0.100D+01
 Coeff:      0.100D+01
 Gap=     0.265 Goal=   None    Shift=    0.000
 GapD=    0.265 DampG=1.000 DampE=0.500 DampFc=0.5000 IDamp=-1.
 Damping current iteration by 5.00D-01
 RMSDP=5.79D-03 MaxDP=5.69D-01              OVMax= 2.43D-01

 Cycle   2  Pass 1  IDiag  1:
 E= -1307.84887397463     Delta-E=       -0.154903474298 Rises=F Damp=T
 DIIS: error= 1.24D-02 at cycle   2 NSaved=   2.
 NSaved= 2 IEnMin= 2 EnMin= -1307.84887397463     IErMin= 2 ErrMin= 1.24D-02
 ErrMax= 1.24D-02  0.00D+00 EMaxC= 1.00D-01 BMatC= 9.82D-02 BMatP= 6.47D-01
 IDIUse=3 WtCom= 8.76D-01 WtEn= 1.24D-01
 Coeff-Com:  0.219D+00 0.781D+00
 Coeff-En:   0.348D+00 0.652D+00
 Coeff:      0.235D+00 0.765D+00
 Gap=     0.222 Goal=   None    Shift=    0.000
 RMSDP=1.68D-03 MaxDP=1.29D-01 DE=-1.55D-01 OVMax= 1.69D-01

 Cycle   3  Pass 1  IDiag  1:
 E= -1308.22594994410     Delta-E=       -0.377075969474 Rises=F Damp=F
 DIIS: error= 8.21D-03 at cycle   3 NSaved=   3.
 NSaved= 3 IEnMin= 3 EnMin= -1308.22594994410     IErMin= 3 ErrMin= 8.21D-03
 ErrMax= 8.21D-03  0.00D+00 EMaxC= 1.00D-01 BMatC= 4.80D-02 BMatP= 9.82D-02
 IDIUse=3 WtCom= 9.18D-01 WtEn= 8.21D-02
 Coeff-Com:  0.549D-01 0.409D+00 0.536D+00
 Coeff-En:   0.000D+00 0.000D+00 0.100D+01
 Coeff:      0.504D-01 0.376D+00 0.574D+00
 Gap=     0.199 Goal=   None    Shift=    0.000
 RMSDP=8.73D-04 MaxDP=3.45D-02 DE=-3.77D-01 OVMax= 4.79D-02

 Cycle   4  Pass 1  IDiag  1:
 E= -1308.26293723702     Delta-E=       -0.036987292920 Rises=F Damp=F
 DIIS: error= 3.59D-03 at cycle   4 NSaved=   4.
 NSaved= 4 IEnMin= 4 EnMin= -1308.26293723702     IErMin= 4 ErrMin= 3.59D-03
 ErrMax= 3.59D-03  0.00D+00 EMaxC= 1.00D-01 BMatC= 7.49D-03 BMatP= 4.80D-02
 IDIUse=3 WtCom= 9.64D-01 WtEn= 3.59D-02
 Coeff-Com:  0.190D-02 0.904D-01 0.307D+00 0.600D+00
 Coeff-En:   0.000D+00 0.000D+00 0.119D+00 0.881D+00
 Coeff:      0.183D-02 0.872D-01 0.300D+00 0.611D+00
 Gap=     0.195 Goal=   None    Shift=    0.000
 RMSDP=2.91D-04 MaxDP=1.43D-02 DE=-3.70D-02 OVMax= 1.71D-02

 Cycle   5  Pass 1  IDiag  1:
 E= -1308.26905205220     Delta-E=       -0.006114815183 Rises=F Damp=F
 DIIS: error= 1.13D-03 at cycle   5 NSaved=   5.
 NSaved= 5 IEnMin= 5 EnMin= -1308.26905205220     IErMin= 5 ErrMin= 1.13D-03
 ErrMax= 1.13D-03  0.00D+00 EMaxC= 1.00D-01 BMatC= 5.74D-04 BMatP= 7.49D-03
 IDIUse=3 WtCom= 9.89D-01 WtEn= 1.13D-02
 Coeff-Com: -0.330D-02 0.169D-01 0.112D+00 0.316D+00 0.559D+00
 Coeff-En:   0.000D+00 0.000D+00 0.000D+00 0.000D+00 0.100D+01
 Coeff:     -0.326D-02 0.167D-01 0.111D+00 0.312D+00 0.564D+00
 Gap=     0.196 Goal=   None    Shift=    0.000
 RMSDP=8.68D-05 MaxDP=3.85D-03 DE=-6.11D-03 OVMax= 6.85D-03

 Cycle   6  Pass 1  IDiag  1:
 E= -1308.26953503709     Delta-E=       -0.000482984887 Rises=F Damp=F
 DIIS: error= 2.97D-04 at cycle   6 NSaved=   6.
 NSaved= 6 IEnMin= 6 EnMin= -1308.26953503709     IErMin= 6 ErrMin= 2.97D-04
 ErrMax= 2.97D-04  0.00D+00 EMaxC= 1.00D-01 BMatC= 5.51D-05 BMatP= 5.74D-04
 IDIUse=3 WtCom= 9.97D-01 WtEn= 2.97D-03
 Coeff-Com: -0.194D-02 0.367D-02 0.391D-01 0.125D+00 0.312D+00 0.522D+00
 Coeff-En:   0.000D+00 0.000D+00 0.000D+00 0.000D+00 0.163D-01 0.984D+00
 Coeff:     -0.194D-02 0.365D-02 0.390D-01 0.125D+00 0.311D+00 0.523D+00
 Gap=     0.196 Goal=   None    Shift=    0.000
 RMSDP=2.68D-05 MaxDP=1.31D-03 DE=-4.83D-04 OVMax= 2.18D-03

 Cycle   7  Pass 1  IDiag  1:
 E= -1308.26958499896     Delta-E=       -0.000049961872 Rises=F Damp=F
 DIIS: error= 8.34D-05 at cycle   7 NSaved=   7.
 NSaved= 7 IEnMin= 7 EnMin= -1308.26958499896     IErMin= 7 ErrMin= 8.34D-05
 ErrMax= 8.34D-05  0.00D+00 EMaxC= 1.00D-01 BMatC= 4.63D-06 BMatP= 5.51D-05
 IDIUse=1 WtCom= 1.00D+00 WtEn= 0.00D+00
 Coeff-Com: -0.895D-03 0.440D-03 0.126D-01 0.448D-01 0.131D+00 0.294D+00
 Coeff-Com:  0.517D+00
 Coeff:     -0.895D-03 0.440D-03 0.126D-01 0.448D-01 0.131D+00 0.294D+00
 Coeff:      0.517D+00
 Gap=     0.196 Goal=   None    Shift=    0.000
 RMSDP=7.52D-06 MaxDP=4.59D-04 DE=-5.00D-05 OVMax= 7.18D-04

 Cycle   8  Pass 1  IDiag  1:
 E= -1308.26958870810     Delta-E=       -0.000003709138 Rises=F Damp=F
 DIIS: error= 2.76D-05 at cycle   8 NSaved=   8.
 NSaved= 8 IEnMin= 8 EnMin= -1308.26958870810     IErMin= 8 ErrMin= 2.76D-05
 ErrMax= 2.76D-05  0.00D+00 EMaxC= 1.00D-01 BMatC= 5.79D-07 BMatP= 4.63D-06
 IDIUse=1 WtCom= 1.00D+00 WtEn= 0.00D+00
 Coeff-Com: -0.273D-03-0.156D-03 0.233D-02 0.991D-02 0.370D-01 0.107D+00
 Coeff-Com:  0.302D+00 0.543D+00
 Coeff:     -0.273D-03-0.156D-03 0.233D-02 0.991D-02 0.370D-01 0.107D+00
 Coeff:      0.302D+00 0.543D+00
 Gap=     0.196 Goal=   None    Shift=    0.000
 RMSDP=2.45D-06 MaxDP=1.71D-04 DE=-3.71D-06 OVMax= 2.58D-04

 Cycle   9  Pass 1  IDiag  1:
 E= -1308.26958915898     Delta-E=       -0.000000450878 Rises=F Damp=F
 DIIS: error= 7.46D-06 at cycle   9 NSaved=   9.
 NSaved= 9 IEnMin= 9 EnMin= -1308.26958915898     IErMin= 9 ErrMin= 7.46D-06
 ErrMax= 7.46D-06  0.00D+00 EMaxC= 1.00D-01 BMatC= 5.13D-08 BMatP= 5.79D-07
 IDIUse=1 WtCom= 1.00D+00 WtEn= 0.00D+00
 Coeff-Com: -0.204D-04-0.137D-03-0.497D-03-0.997D-03 0.115D-02 0.143D-01
 Coeff-Com:  0.818D-01 0.282D+00 0.622D+00
 Coeff:     -0.204D-04-0.137D-03-0.497D-03-0.997D-03 0.115D-02 0.143D-01
 Coeff:      0.818D-01 0.282D+00 0.622D+00
 Gap=     0.196 Goal=   None    Shift=    0.000
 RMSDP=7.27D-07 MaxDP=5.22D-05 DE=-4.51D-07 OVMax= 5.30D-05

 Cycle  10  Pass 1  IDiag  1:
 E= -1308.26958919921     Delta-E=       -0.000000040234 Rises=F Damp=F
 DIIS: error= 2.12D-06 at cycle  10 NSaved=  10.
 NSaved=10 IEnMin=10 EnMin= -1308.26958919921     IErMin=10 ErrMin= 2.12D-06
 ErrMax= 2.12D-06  0.00D+00 EMaxC= 1.00D-01 BMatC= 4.57D-09 BMatP= 5.13D-08
 IDIUse=1 WtCom= 1.00D+00 WtEn= 0.00D+00
 Coeff-Com:  0.355D-05-0.608D-04-0.396D-03-0.112D-02-0.154D-02 0.175D-02
 Coeff-Com:  0.272D-01 0.126D+00 0.336D+00 0.512D+00
 Coeff:      0.355D-05-0.608D-04-0.396D-03-0.112D-02-0.154D-02 0.175D-02
 Coeff:      0.272D-01 0.126D+00 0.336D+00 0.512D+00
 Gap=     0.196 Goal=   None    Shift=    0.000
 RMSDP=2.43D-07 MaxDP=1.35D-05 DE=-4.02D-08 OVMax= 2.46D-05

 Cycle  11  Pass 1  IDiag  1:
 E= -1308.26958920300     Delta-E=       -0.000000003789 Rises=F Damp=F
 DIIS: error= 6.64D-07 at cycle  11 NSaved=  11.
 NSaved=11 IEnMin=11 EnMin= -1308.26958920300     IErMin=11 ErrMin= 6.64D-07
 ErrMax= 6.64D-07  0.00D+00 EMaxC= 1.00D-01 BMatC= 4.09D-10 BMatP= 4.57D-09
 IDIUse=1 WtCom= 1.00D+00 WtEn= 0.00D+00
 Coeff-Com:  0.401D-05-0.115D-04-0.132D-03-0.423D-03-0.942D-03-0.104D-02
 Coeff-Com:  0.225D-02 0.257D-01 0.783D-01 0.257D+00 0.640D+00
 Coeff:      0.401D-05-0.115D-04-0.132D-03-0.423D-03-0.942D-03-0.104D-02
 Coeff:      0.225D-02 0.257D-01 0.783D-01 0.257D+00 0.640D+00
 Gap=     0.196 Goal=   None    Shift=    0.000
 RMSDP=7.91D-08 MaxDP=4.51D-06 DE=-3.79D-09 OVMax= 8.81D-06

 Cycle  12  Pass 1  IDiag  1:
 E= -1308.26958920331     Delta-E=       -0.000000000309 Rises=F Damp=F
 DIIS: error= 3.59D-07 at cycle  12 NSaved=  12.
 NSaved=12 IEnMin=12 EnMin= -1308.26958920331     IErMin=12 ErrMin= 3.59D-07
 ErrMax= 3.59D-07  0.00D+00 EMaxC= 1.00D-01 BMatC= 1.09D-10 BMatP= 4.09D-10
 IDIUse=1 WtCom= 1.00D+00 WtEn= 0.00D+00
 Coeff-Com:  0.229D-05 0.500D-06-0.383D-04-0.140D-03-0.438D-03-0.922D-03
 Coeff-Com: -0.198D-02 0.107D-02 0.717D-02 0.101D+00 0.411D+00 0.484D+00
 Coeff:      0.229D-05 0.500D-06-0.383D-04-0.140D-03-0.438D-03-0.922D-03
 Coeff:     -0.198D-02 0.107D-02 0.717D-02 0.101D+00 0.411D+00 0.484D+00
 Gap=     0.196 Goal=   None    Shift=    0.000
 RMSDP=2.90D-08 MaxDP=1.79D-06 DE=-3.09D-10 OVMax= 2.73D-06

 Cycle  13  Pass 1  IDiag  1:
 E= -1308.26958920338     Delta-E=       -0.000000000073 Rises=F Damp=F
 DIIS: error= 1.13D-07 at cycle  13 NSaved=  13.
 NSaved=13 IEnMin=13 EnMin= -1308.26958920338     IErMin=13 ErrMin= 1.13D-07
 ErrMax= 1.13D-07  0.00D+00 EMaxC= 1.00D-01 BMatC= 2.28D-12 BMatP= 1.09D-10
 IDIUse=1 WtCom= 1.00D+00 WtEn= 0.00D+00
 Coeff-Com:  0.520D-06 0.985D-06-0.235D-05-0.127D-04-0.800D-04-0.267D-03
 Coeff-Com: -0.975D-03-0.203D-02-0.554D-02 0.128D-01 0.925D-01 0.168D+00
 Coeff-Com:  0.735D+00
 Coeff:      0.520D-06 0.985D-06-0.235D-05-0.127D-04-0.800D-04-0.267D-03
 Coeff:     -0.975D-03-0.203D-02-0.554D-02 0.128D-01 0.925D-01 0.168D+00
 Coeff:      0.735D+00
 Gap=     0.196 Goal=   None    Shift=    0.000
 RMSDP=7.17D-09 MaxDP=2.33D-07 DE=-7.32D-11 OVMax= 6.59D-07

 Error on total polarization charges =  0.02312
 SCF Done:  E(RB3LYP) =  -1308.26958920     A.U. after   13 cycles
            NFock= 13  Conv=0.72D-08     -V/T= 2.0077
 KE= 1.298226816980D+03 PE=-6.461013098389D+03 EE= 2.154911390947D+03
 Leave Link  502 at Wed Sep 23 06:02:40 2020, MaxMem=  2147483648 cpu:             279.6 elap:              70.0
 (Enter /prod/apps/gaussian/g16b1/l601.exe)
 Copying SCF densities to generalized density rwf, IOpCl= 0 IROHF=0.

 **********************************************************************

            Population analysis using the SCF Density.

 **********************************************************************

 Alpha  occ. eigenvalues --  -89.12939 -19.16139 -19.16032 -14.44632 -14.40459
 Alpha  occ. eigenvalues --  -14.38428 -14.37174 -10.26636 -10.25074 -10.24279
 Alpha  occ. eigenvalues --  -10.23328 -10.21253 -10.21088 -10.20665 -10.20564
 Alpha  occ. eigenvalues --  -10.20438 -10.20430 -10.20419 -10.20180 -10.20138
 Alpha  occ. eigenvalues --  -10.19902  -8.15455  -6.11979  -6.11895  -6.11707
 Alpha  occ. eigenvalues --   -1.12635  -1.11387  -1.01663  -0.95843  -0.92978
 Alpha  occ. eigenvalues --   -0.87576  -0.86104  -0.81265  -0.78023  -0.76431
 Alpha  occ. eigenvalues --   -0.76298  -0.75911  -0.69205  -0.66830  -0.64622
 Alpha  occ. eigenvalues --   -0.62406  -0.61329  -0.60868  -0.58385  -0.56626
 Alpha  occ. eigenvalues --   -0.54834  -0.53209  -0.51912  -0.49789  -0.49289
 Alpha  occ. eigenvalues --   -0.49014  -0.48089  -0.47238  -0.45633  -0.45384
 Alpha  occ. eigenvalues --   -0.45303  -0.44426  -0.43765  -0.43333  -0.39228
 Alpha  occ. eigenvalues --   -0.38720  -0.38161  -0.37437  -0.36728  -0.36150
 Alpha  occ. eigenvalues --   -0.36045  -0.35415  -0.34340  -0.33553  -0.32345
 Alpha  occ. eigenvalues --   -0.31950  -0.31707  -0.29384  -0.27196  -0.26772
 Alpha  occ. eigenvalues --   -0.26469  -0.26062  -0.23920
 Alpha virt. eigenvalues --   -0.04337  -0.03714  -0.01660  -0.01456   0.01162
 Alpha virt. eigenvalues --    0.02298   0.06070   0.07093   0.08844   0.09197
 Alpha virt. eigenvalues --    0.10292   0.11876   0.12331   0.13226   0.14714
 Alpha virt. eigenvalues --    0.14966   0.15086   0.15595   0.16190   0.17112
 Alpha virt. eigenvalues --    0.18340   0.18899   0.19109   0.19908   0.20281
 Alpha virt. eigenvalues --    0.21828   0.23396   0.24933   0.27399   0.28972
 Alpha virt. eigenvalues --    0.29375   0.29876   0.30227   0.30641   0.31956
 Alpha virt. eigenvalues --    0.33148   0.34078   0.34418   0.37377   0.39909
 Alpha virt. eigenvalues --    0.40262   0.41885   0.44062   0.47181   0.48417
 Alpha virt. eigenvalues --    0.49349   0.50759   0.51478   0.52235   0.52529
 Alpha virt. eigenvalues --    0.53986   0.54981   0.55346   0.55526   0.56153
 Alpha virt. eigenvalues --    0.56696   0.57390   0.57905   0.58022   0.58214
 Alpha virt. eigenvalues --    0.58616   0.58890   0.59975   0.60159   0.60567
 Alpha virt. eigenvalues --    0.60818   0.60867   0.61230   0.61347   0.62807
 Alpha virt. eigenvalues --    0.63371   0.63602   0.65276   0.66672   0.68262
 Alpha virt. eigenvalues --    0.69442   0.70815   0.71818   0.74401   0.75818
 Alpha virt. eigenvalues --    0.76561   0.77243   0.78017   0.78522   0.80183
 Alpha virt. eigenvalues --    0.80451   0.81424   0.82504   0.82687   0.83718
 Alpha virt. eigenvalues --    0.83827   0.84172   0.84180   0.85578   0.86661
 Alpha virt. eigenvalues --    0.86986   0.88799   0.89689   0.90301   0.91276
 Alpha virt. eigenvalues --    0.92297   0.92972   0.93211   0.94399   0.95349
 Alpha virt. eigenvalues --    0.96482   0.97773   0.98389   0.99520   1.00258
 Alpha virt. eigenvalues --    1.01621   1.02602   1.05159   1.05441   1.07478
 Alpha virt. eigenvalues --    1.07983   1.09582   1.11630   1.11975   1.12622
 Alpha virt. eigenvalues --    1.13717   1.14637   1.15739   1.16208   1.17658
 Alpha virt. eigenvalues --    1.19253   1.20014   1.20945   1.22847   1.24478
 Alpha virt. eigenvalues --    1.25654   1.27072   1.29414   1.31298   1.33954
 Alpha virt. eigenvalues --    1.35710   1.37770   1.40020   1.40823   1.41595
 Alpha virt. eigenvalues --    1.42511   1.43121   1.43938   1.45322   1.45906
 Alpha virt. eigenvalues --    1.46528   1.47419   1.48065   1.49228   1.49777
 Alpha virt. eigenvalues --    1.51134   1.52287   1.52474   1.57725   1.60028
 Alpha virt. eigenvalues --    1.60556   1.63634   1.65703   1.69827   1.75663
 Alpha virt. eigenvalues --    1.76850   1.78083   1.78976   1.79728   1.80514
 Alpha virt. eigenvalues --    1.80850   1.81578   1.83414   1.84183   1.85592
 Alpha virt. eigenvalues --    1.86921   1.87977   1.88459   1.89593   1.92015
 Alpha virt. eigenvalues --    1.94120   1.94398   1.96177   1.96600   1.97569
 Alpha virt. eigenvalues --    1.98584   2.02071   2.04392   2.06486   2.07169
 Alpha virt. eigenvalues --    2.08026   2.09680   2.10610   2.11823   2.12069
 Alpha virt. eigenvalues --    2.13178   2.13600   2.13671   2.14293   2.14801
 Alpha virt. eigenvalues --    2.15716   2.18094   2.20048   2.22696   2.24245
 Alpha virt. eigenvalues --    2.25384   2.26240   2.28536   2.28998   2.29101
 Alpha virt. eigenvalues --    2.30012   2.31353   2.32151   2.34318   2.38044
 Alpha virt. eigenvalues --    2.38559   2.47293   2.50938   2.51633   2.55556
 Alpha virt. eigenvalues --    2.56699   2.57893   2.58614   2.60072   2.63444
 Alpha virt. eigenvalues --    2.63700   2.64700   2.65107   2.67393   2.70162
 Alpha virt. eigenvalues --    2.70387   2.71598   2.72278   2.72829   2.73768
 Alpha virt. eigenvalues --    2.74356   2.77117   2.78668   2.80899   2.82439
 Alpha virt. eigenvalues --    2.86783   2.88802   3.00922   3.03141   3.06260
 Alpha virt. eigenvalues --    3.12988   3.25009   3.37151   3.42088   3.60875
 Alpha virt. eigenvalues --    3.77955   3.90482   3.99144   4.01135   4.06522
 Alpha virt. eigenvalues --    4.07717   4.08831   4.10460   4.10707   4.12582
 Alpha virt. eigenvalues --    4.15155   4.17004   4.19565   4.31683   4.32369
 Alpha virt. eigenvalues --    4.34812   4.38917   4.47284   4.65442   4.70877
          Condensed to atoms (all electrons):
               1          2          3          4          5          6
     1  O    8.272078   0.441917  -0.059587   0.012369  -0.001878  -0.000073
     2  S    0.441917  13.648925   0.127286  -0.009033  -0.003526   0.000009
     3  N   -0.059587   0.127286   7.418069   0.258338  -0.059298   0.006234
     4  C    0.012369  -0.009033   0.258338   4.595010   0.352215  -0.066159
     5  N   -0.001878  -0.003526  -0.059298   0.352215   6.924021   0.267282
     6  N   -0.000073   0.000009   0.006234  -0.066159   0.267282   6.812926
     7  C   -0.000075  -0.001528  -0.076688   0.508976  -0.060737  -0.109691
     8  N   -0.000021   0.000094   0.003175  -0.041432  -0.084910   0.212007
     9  C   -0.000000  -0.000020  -0.000118   0.004730   0.005893  -0.041097
    10  C   -0.000000   0.000000   0.000005   0.000902  -0.000283   0.002765
    11  C   -0.000000   0.000000   0.000000  -0.000007   0.000002  -0.000071
    12  C    0.000000  -0.000000  -0.000000   0.000000  -0.000000   0.000018
    13  C   -0.000000  -0.000000  -0.000000   0.000006  -0.000003   0.000253
    14  C    0.000000   0.000000   0.000000  -0.000430   0.000321   0.000589
    15  C   -0.060139   0.207511  -0.056273  -0.004912   0.000718   0.000006
    16  C    0.001034  -0.017495   0.000437  -0.000064  -0.011614   0.000214
    17  C    0.000134   0.001624   0.000079  -0.000018   0.000140  -0.000001
    18  C   -0.000005  -0.000400   0.000004   0.000000   0.000001  -0.000000
    19  C   -0.000059   0.003411  -0.000116  -0.000002  -0.000001   0.000000
    20  C   -0.000992  -0.030574   0.000211   0.000058   0.000006  -0.000000
    21  O   -0.042045   0.449684  -0.050805   0.000278  -0.000022   0.000000
    22  H    0.000653  -0.009842   0.302948  -0.020208   0.001979  -0.000083
    23  H    0.000010   0.000038  -0.000814  -0.024184   0.003761   0.003683
    24  H   -0.000000  -0.000000   0.000000  -0.000011  -0.000006  -0.000078
    25  H   -0.000000   0.000000   0.000000  -0.000000  -0.000000   0.000001
    26  H    0.000000  -0.000000  -0.000000  -0.000000   0.000000   0.000000
    27  H   -0.000000   0.000000   0.000000  -0.000000   0.000000  -0.000008
    28  H   -0.000000  -0.000000  -0.000000   0.000039  -0.000336   0.014351
    29  H    0.000161  -0.000747  -0.000777  -0.000850   0.029529  -0.000938
    30  H    0.000001  -0.000057   0.000002   0.000002  -0.000008   0.000000
    31  H   -0.000000   0.000006  -0.000000  -0.000000   0.000000  -0.000000
    32  H    0.000000  -0.000071   0.000001   0.000000  -0.000000   0.000000
    33  H    0.000005  -0.005758   0.000161  -0.000000   0.000000  -0.000000
               7          8          9         10         11         12
     1  O   -0.000075  -0.000021  -0.000000  -0.000000  -0.000000   0.000000
     2  S   -0.001528   0.000094  -0.000020   0.000000   0.000000  -0.000000
     3  N   -0.076688   0.003175  -0.000118   0.000005   0.000000  -0.000000
     4  C    0.508976  -0.041432   0.004730   0.000902  -0.000007   0.000000
     5  N   -0.060737  -0.084910   0.005893  -0.000283   0.000002  -0.000000
     6  N   -0.109691   0.212007  -0.041097   0.002765  -0.000071   0.000018
     7  C    5.032490   0.334237  -0.031091  -0.006481  -0.000016   0.000019
     8  N    0.334237   6.885515   0.197815  -0.050868   0.004747   0.000329
     9  C   -0.031091   0.197815   4.630365   0.529656  -0.010626  -0.038167
    10  C   -0.006481  -0.050868   0.529656   4.986968   0.526537  -0.040882
    11  C   -0.000016   0.004747  -0.010626   0.526537   4.866255   0.543089
    12  C    0.000019   0.000329  -0.038167  -0.040882   0.543089   4.871849
    13  C   -0.000090   0.004571  -0.011082  -0.042007  -0.024948   0.539504
    14  C    0.006934  -0.059702   0.514400  -0.069220  -0.041494  -0.039400
    15  C   -0.000109   0.000000  -0.000000   0.000000  -0.000000   0.000000
    16  C   -0.000096  -0.000011   0.000000  -0.000000   0.000000   0.000000
    17  C    0.000000   0.000000  -0.000000   0.000000   0.000000  -0.000000
    18  C    0.000000   0.000000  -0.000000  -0.000000   0.000000  -0.000000
    19  C   -0.000000  -0.000000  -0.000000  -0.000000   0.000000   0.000000
    20  C    0.000002  -0.000000   0.000000  -0.000000  -0.000000   0.000000
    21  O    0.000040  -0.000000  -0.000000   0.000000   0.000000  -0.000000
    22  H   -0.002364  -0.000003   0.000002  -0.000000  -0.000000  -0.000000
    23  H    0.362930  -0.034663  -0.001443   0.002043   0.000127  -0.000001
    24  H    0.005769  -0.008884  -0.039365   0.354555  -0.035066   0.004320
    25  H   -0.000005  -0.000110   0.003462  -0.037717   0.363631  -0.039603
    26  H   -0.000000   0.000003   0.000486   0.004873  -0.041386   0.365906
    27  H    0.000001  -0.000104   0.003535   0.000700   0.004456  -0.040091
    28  H    0.000205  -0.012768  -0.040502   0.005489   0.000095   0.004543
    29  H    0.000406   0.000087  -0.000001   0.000000  -0.000000  -0.000000
    30  H    0.000000  -0.000000   0.000000   0.000000  -0.000000   0.000000
    31  H   -0.000000   0.000000  -0.000000   0.000000  -0.000000  -0.000000
    32  H    0.000000  -0.000000   0.000000  -0.000000   0.000000   0.000000
    33  H    0.000000   0.000000  -0.000000   0.000000  -0.000000  -0.000000
              13         14         15         16         17         18
     1  O   -0.000000   0.000000  -0.060139   0.001034   0.000134  -0.000005
     2  S   -0.000000   0.000000   0.207511  -0.017495   0.001624  -0.000400
     3  N   -0.000000   0.000000  -0.056273   0.000437   0.000079   0.000004
     4  C    0.000006  -0.000430  -0.004912  -0.000064  -0.000018   0.000000
     5  N   -0.000003   0.000321   0.000718  -0.011614   0.000140   0.000001
     6  N    0.000253   0.000589   0.000006   0.000214  -0.000001  -0.000000
     7  C   -0.000090   0.006934  -0.000109  -0.000096   0.000000   0.000000
     8  N    0.004571  -0.059702   0.000000  -0.000011   0.000000   0.000000
     9  C   -0.011082   0.514400  -0.000000   0.000000  -0.000000  -0.000000
    10  C   -0.042007  -0.069220   0.000000  -0.000000   0.000000  -0.000000
    11  C   -0.024948  -0.041494  -0.000000   0.000000   0.000000   0.000000
    12  C    0.539504  -0.039400   0.000000   0.000000  -0.000000  -0.000000
    13  C    4.880041   0.519044   0.000000   0.000000  -0.000000  -0.000000
    14  C    0.519044   4.992436   0.000000  -0.000000   0.000000   0.000000
    15  C    0.000000   0.000000   5.327389   0.468390  -0.024458  -0.040254
    16  C    0.000000  -0.000000   0.468390   4.973273   0.520869  -0.031845
    17  C   -0.000000   0.000000  -0.024458   0.520869   4.879326   0.535531
    18  C   -0.000000   0.000000  -0.040254  -0.031845   0.535531   4.862336
    19  C   -0.000000   0.000000  -0.030423  -0.038412  -0.029249   0.540078
    20  C    0.000000   0.000000   0.509213  -0.029336  -0.040838  -0.030646
    21  O   -0.000000  -0.000000  -0.063286   0.001302  -0.000046  -0.000005
    22  H   -0.000000   0.000000   0.001589   0.000015   0.000007  -0.000000
    23  H   -0.000005  -0.000080  -0.000001   0.000001   0.000000  -0.000000
    24  H    0.000198   0.005320   0.000000   0.000000   0.000000  -0.000000
    25  H    0.004417   0.000723   0.000000  -0.000000   0.000000   0.000000
    26  H   -0.041454   0.004672   0.000000   0.000000  -0.000000  -0.000000
    27  H    0.364009  -0.037700  -0.000000  -0.000000   0.000000   0.000000
    28  H   -0.037721   0.357403   0.000000   0.000000  -0.000000  -0.000000
    29  H   -0.000000   0.000000  -0.052464   0.339409  -0.031894   0.004243
    30  H    0.000000  -0.000000   0.004950  -0.040727   0.366730  -0.040401
    31  H    0.000000   0.000000   0.000412   0.004927  -0.041110   0.365514
    32  H    0.000000  -0.000000   0.005028   0.000596   0.004321  -0.040598
    33  H    0.000000   0.000000  -0.047327   0.004835   0.000205   0.004302
              19         20         21         22         23         24
     1  O   -0.000059  -0.000992  -0.042045   0.000653   0.000010  -0.000000
     2  S    0.003411  -0.030574   0.449684  -0.009842   0.000038  -0.000000
     3  N   -0.000116   0.000211  -0.050805   0.302948  -0.000814   0.000000
     4  C   -0.000002   0.000058   0.000278  -0.020208  -0.024184  -0.000011
     5  N   -0.000001   0.000006  -0.000022   0.001979   0.003761  -0.000006
     6  N    0.000000  -0.000000   0.000000  -0.000083   0.003683  -0.000078
     7  C   -0.000000   0.000002   0.000040  -0.002364   0.362930   0.005769
     8  N   -0.000000  -0.000000  -0.000000  -0.000003  -0.034663  -0.008884
     9  C   -0.000000   0.000000  -0.000000   0.000002  -0.001443  -0.039365
    10  C   -0.000000  -0.000000   0.000000  -0.000000   0.002043   0.354555
    11  C    0.000000  -0.000000   0.000000  -0.000000   0.000127  -0.035066
    12  C    0.000000   0.000000  -0.000000  -0.000000  -0.000001   0.004320
    13  C   -0.000000   0.000000  -0.000000  -0.000000  -0.000005   0.000198
    14  C    0.000000   0.000000  -0.000000   0.000000  -0.000080   0.005320
    15  C   -0.030423   0.509213  -0.063286   0.001589  -0.000001   0.000000
    16  C   -0.038412  -0.029336   0.001302   0.000015   0.000001   0.000000
    17  C   -0.029249  -0.040838  -0.000046   0.000007   0.000000   0.000000
    18  C    0.540078  -0.030646  -0.000005  -0.000000  -0.000000  -0.000000
    19  C    4.893503   0.501938   0.000620   0.000002   0.000000   0.000000
    20  C    0.501938   4.935580   0.002293   0.000005   0.000000   0.000000
    21  O    0.000620   0.002293   8.253107   0.003328  -0.000003  -0.000000
    22  H    0.000002   0.000005   0.003328   0.293722   0.000901   0.000000
    23  H    0.000000   0.000000  -0.000003   0.000901   0.459191   0.001385
    24  H    0.000000   0.000000  -0.000000   0.000000   0.001385   0.541695
    25  H   -0.000000   0.000000  -0.000000   0.000000  -0.000001  -0.005102
    26  H    0.000000   0.000000  -0.000000   0.000000  -0.000000  -0.000144
    27  H    0.000000  -0.000000   0.000000   0.000000   0.000000   0.000013
    28  H    0.000000   0.000000  -0.000000   0.000000  -0.000010  -0.000129
    29  H    0.000192   0.004657   0.000016  -0.000037  -0.000002  -0.000000
    30  H    0.004281   0.000616   0.000000  -0.000000   0.000000   0.000000
    31  H   -0.041155   0.004823  -0.000000   0.000000  -0.000000  -0.000000
    32  H    0.367525  -0.041765   0.000002  -0.000000   0.000000  -0.000000
    33  H   -0.034348   0.362335   0.010949  -0.000009  -0.000000   0.000000
              25         26         27         28         29         30
     1  O   -0.000000   0.000000  -0.000000  -0.000000   0.000161   0.000001
     2  S    0.000000  -0.000000   0.000000  -0.000000  -0.000747  -0.000057
     3  N    0.000000  -0.000000   0.000000  -0.000000  -0.000777   0.000002
     4  C   -0.000000  -0.000000  -0.000000   0.000039  -0.000850   0.000002
     5  N   -0.000000   0.000000   0.000000  -0.000336   0.029529  -0.000008
     6  N    0.000001   0.000000  -0.000008   0.014351  -0.000938   0.000000
     7  C   -0.000005  -0.000000   0.000001   0.000205   0.000406   0.000000
     8  N   -0.000110   0.000003  -0.000104  -0.012768   0.000087  -0.000000
     9  C    0.003462   0.000486   0.003535  -0.040502  -0.000001   0.000000
    10  C   -0.037717   0.004873   0.000700   0.005489   0.000000   0.000000
    11  C    0.363631  -0.041386   0.004456   0.000095  -0.000000  -0.000000
    12  C   -0.039603   0.365906  -0.040091   0.004543  -0.000000   0.000000
    13  C    0.004417  -0.041454   0.364009  -0.037721  -0.000000   0.000000
    14  C    0.000723   0.004672  -0.037700   0.357403   0.000000  -0.000000
    15  C    0.000000   0.000000  -0.000000   0.000000  -0.052464   0.004950
    16  C   -0.000000   0.000000  -0.000000   0.000000   0.339409  -0.040727
    17  C    0.000000  -0.000000   0.000000  -0.000000  -0.031894   0.366730
    18  C    0.000000  -0.000000   0.000000  -0.000000   0.004243  -0.040401
    19  C   -0.000000   0.000000   0.000000   0.000000   0.000192   0.004281
    20  C    0.000000   0.000000  -0.000000   0.000000   0.004657   0.000616
    21  O   -0.000000  -0.000000   0.000000  -0.000000   0.000016   0.000000
    22  H    0.000000   0.000000   0.000000   0.000000  -0.000037  -0.000000
    23  H   -0.000001  -0.000000   0.000000  -0.000010  -0.000002   0.000000
    24  H   -0.005102  -0.000144   0.000013  -0.000129  -0.000000   0.000000
    25  H    0.551008  -0.005092  -0.000164   0.000013   0.000000   0.000000
    26  H   -0.005092   0.557291  -0.005102  -0.000136  -0.000000   0.000000
    27  H   -0.000164  -0.005102   0.551540  -0.005149   0.000000  -0.000000
    28  H    0.000013  -0.000136  -0.005149   0.541089  -0.000000   0.000000
    29  H    0.000000  -0.000000   0.000000  -0.000000   0.522746  -0.005095
    30  H    0.000000   0.000000  -0.000000   0.000000  -0.005095   0.546776
    31  H    0.000000   0.000000   0.000000  -0.000000  -0.000130  -0.005108
    32  H    0.000000   0.000000  -0.000000   0.000000   0.000012  -0.000158
    33  H    0.000000   0.000000  -0.000000   0.000000  -0.000122   0.000013
              31         32         33
     1  O   -0.000000   0.000000   0.000005
     2  S    0.000006  -0.000071  -0.005758
     3  N   -0.000000   0.000001   0.000161
     4  C   -0.000000   0.000000  -0.000000
     5  N    0.000000  -0.000000   0.000000
     6  N   -0.000000   0.000000  -0.000000
     7  C   -0.000000   0.000000   0.000000
     8  N    0.000000  -0.000000   0.000000
     9  C   -0.000000   0.000000  -0.000000
    10  C    0.000000  -0.000000   0.000000
    11  C   -0.000000   0.000000  -0.000000
    12  C   -0.000000   0.000000  -0.000000
    13  C    0.000000   0.000000   0.000000
    14  C    0.000000  -0.000000   0.000000
    15  C    0.000412   0.005028  -0.047327
    16  C    0.004927   0.000596   0.004835
    17  C   -0.041110   0.004321   0.000205
    18  C    0.365514  -0.040598   0.004302
    19  C   -0.041155   0.367525  -0.034348
    20  C    0.004823  -0.041765   0.362335
    21  O   -0.000000   0.000002   0.010949
    22  H    0.000000  -0.000000  -0.000009
    23  H   -0.000000   0.000000  -0.000000
    24  H   -0.000000  -0.000000   0.000000
    25  H    0.000000   0.000000   0.000000
    26  H    0.000000   0.000000   0.000000
    27  H    0.000000  -0.000000  -0.000000
    28  H   -0.000000   0.000000   0.000000
    29  H   -0.000130   0.000012  -0.000122
    30  H   -0.005108  -0.000158   0.000013
    31  H    0.550044  -0.005190  -0.000136
    32  H   -0.005190   0.547396  -0.005137
    33  H   -0.000136  -0.005137   0.526263
 Mulliken charges:
               1
     1  O   -0.563487
     2  S    1.198547
     3  N   -0.812473
     4  C    0.434387
     5  N   -0.363244
     6  N   -0.102140
     7  C    0.036963
     8  N   -0.349104
     9  C    0.323170
    10  C   -0.167034
    11  C   -0.155325
    12  C   -0.131434
    13  C   -0.154732
    14  C   -0.153817
    15  C   -0.145558
    16  C   -0.145702
    17  C   -0.141352
    18  C   -0.127856
    19  C   -0.137784
    20  C   -0.147583
    21  O   -0.565407
    22  H    0.427393
    23  H    0.227137
    24  H    0.175531
    25  H    0.164540
    26  H    0.160082
    27  H    0.164062
    28  H    0.173526
    29  H    0.191600
    30  H    0.168184
    31  H    0.167104
    32  H    0.168037
    33  H    0.183770
 Sum of Mulliken charges =  -0.00000
 Mulliken charges with hydrogens summed into heavy atoms:
               1
     1  O   -0.563487
     2  S    1.198547
     3  N   -0.385080
     4  C    0.434387
     5  N   -0.363244
     6  N   -0.102140
     7  C    0.264100
     8  N   -0.349104
     9  C    0.323170
    10  C    0.008497
    11  C    0.009215
    12  C    0.028647
    13  C    0.009330
    14  C    0.019709
    15  C   -0.145558
    16  C    0.045898
    17  C    0.026832
    18  C    0.039248
    19  C    0.030252
    20  C    0.036187
    21  O   -0.565407
 Electronic spatial extent (au):  <R**2>=           9352.9425
 Charge=             -0.0000 electrons
 Dipole moment (field-independent basis, Debye):
    X=             -3.6492    Y=             -0.8700    Z=             -5.0897  Tot=              6.3228
 Quadrupole moment (field-independent basis, Debye-Ang):
   XX=            -77.1133   YY=           -124.7604   ZZ=           -129.8487
   XY=             17.4343   XZ=             -5.7636   YZ=             10.1877
 Traceless Quadrupole moment (field-independent basis, Debye-Ang):
   XX=             33.4608   YY=            -14.1863   ZZ=            -19.2745
   XY=             17.4343   XZ=             -5.7636   YZ=             10.1877
 Octapole moment (field-independent basis, Debye-Ang**2):
  XXX=            -32.7649  YYY=             10.6714  ZZZ=             -6.0976  XYY=              2.2638
  XXY=             37.7483  XXZ=            -28.2569  XZZ=            -20.6673  YZZ=             -8.1827
  YYZ=            -13.6606  XYZ=            -24.1196
 Hexadecapole moment (field-independent basis, Debye-Ang**3):
 XXXX=          -8565.4697 YYYY=          -1194.4421 ZZZZ=           -452.1161 XXXY=            152.5867
 XXXZ=           -129.8541 YYYX=            135.2584 YYYZ=             23.3047 ZZZX=              4.0128
 ZZZY=             26.5028 XXYY=          -1941.7336 XXZZ=          -1943.1855 YYZZ=           -259.1619
 XXYZ=            109.7401 YYXZ=            -34.3784 ZZXY=            -16.2536
 N-N= 1.699605301259D+03 E-N=-6.461013088341D+03  KE= 1.298226816980D+03
 No NMR shielding tensors so no spin-rotation constants.
 Leave Link  601 at Wed Sep 23 06:02:40 2020, MaxMem=  2147483648 cpu:               0.4 elap:               0.1
 (Enter /prod/apps/gaussian/g16b1/l701.exe)
 ... and contract with generalized density number  0.
 Compute integral first derivatives.
 D1PCM: PCM CHGder 1st derivatives, ID1Alg=3 FixD1E=F DoIter=F DoCFld=F I1PDM=0.
 GePol: Maximum number of non-zero 1st derivatives   =     170
 Leave Link  701 at Wed Sep 23 06:02:42 2020, MaxMem=  2147483648 cpu:              10.2 elap:               2.6
 (Enter /prod/apps/gaussian/g16b1/l702.exe)
 L702 exits ... SP integral derivatives will be done elsewhere.
 Leave Link  702 at Wed Sep 23 06:02:42 2020, MaxMem=  2147483648 cpu:               0.1 elap:               0.0
 (Enter /prod/apps/gaussian/g16b1/l703.exe)
 Integral derivatives from FoFJK, PRISM(SPDF).
 Compute integral first derivatives, UseDBF=F ICtDFT=           0.
 Calling FoFJK, ICntrl=      2127 FMM=F ISym2X=0 I1Cent= 0 IOpClX= 0 NMat=1 NMatS=1 NMatT=0.
 FoFJK:  IHMeth= 1 ICntrl=    2127 DoSepK=F KAlg= 0 I1Cent=           0 FoldK=F
 IRaf=         0 NMat=       1 IRICut=       1 DoRegI=T DoRafI=F ISym2E= 0 IDoP0=0 IntGTp=1.
 FoFCou: FMM=F IPFlag=           0 FMFlag=      100000 FMFlg1=         800
         NFxFlg=           0 DoJE=F BraDBF=F KetDBF=F FulRan=T
         wScrn=  0.000000 ICntrl=      2127 IOpCl=  0 I1Cent=           0 NGrid=           0
         NMat0=    1 NMatS0=      1 NMatT0=    0 NMatD0=    1 NMtDS0=    0 NMtDT0=    0
 Symmetry not used in FoFCou.
 Leave Link  703 at Wed Sep 23 06:02:58 2020, MaxMem=  2147483648 cpu:              62.8 elap:              15.7
 (Enter /prod/apps/gaussian/g16b1/l716.exe)
 Dipole        =-1.43569002D+00-3.42286163D-01-2.00244569D+00
 -------------------------------------------------------------------
 Center     Atomic                   Forces (Hartrees/Bohr)
 Number     Number              X              Y              Z
 -------------------------------------------------------------------
      1        8           0.000377520   -0.000168886   -0.001026691
      2       16           0.000082719   -0.000555857    0.000733248
      3        7           0.000347984   -0.000739312   -0.000388899
      4        6          -0.000689379    0.000556094    0.000217428
      5        7           0.000899579   -0.000355562   -0.000227267
      6        7          -0.000910982   -0.000505017    0.000115066
      7        6           0.000639552   -0.000398943   -0.000243274
      8        7           0.000664556    0.001220518    0.000182598
      9        6          -0.000810836   -0.000784264   -0.000778853
     10        6           0.000802941    0.000271812    0.000511184
     11        6           0.000334856   -0.000072384   -0.000217570
     12        6          -0.000793581    0.000002002   -0.000075967
[...]
 Alpha virt. eigenvalues --    4.80462   4.88209
          Condensed to atoms (all electrons):
               1          2          3          4          5          6
     1  O    9.197164  -0.504373   0.008854   0.369190  -0.069358  -0.008739
     2  S   -0.504373  16.781703   0.440365  -1.734997   0.267823   0.019686
     3  N    0.008854   0.440365   8.083079  -1.464051   0.204557  -0.198899
     4  C    0.369190  -1.734997  -1.464051  17.275529  -1.886047   1.238965
     5  N   -0.069358   0.267823   0.204557  -1.886047   9.575943  -1.666446
     6  N   -0.008739   0.019686  -0.198899   1.238965  -1.666446   9.877644
     7  C   -0.157924   0.653519   0.893441  -9.993841   1.711630  -1.481326
     8  N    0.022746  -0.000876  -0.058158   0.307821  -0.088031  -0.364198
     9  C    0.007053   0.007097  -0.016146   0.476901  -0.539856   0.065069
    10  C   -0.002925  -0.007909  -0.016865  -0.152054   0.256656  -0.237084
    11  C    0.000284  -0.000016  -0.001435   0.259768  -0.003347   0.049010
    12  C   -0.000303  -0.000741  -0.001760  -0.047987   0.023653  -0.023497
    13  C    0.000323   0.000203   0.000795   0.034191  -0.089730   0.059260
    14  C   -0.005357   0.000738   0.000132  -0.468011  -0.029433   0.346577
    15  C    0.352931  -1.529194  -0.291964   0.383004  -0.136375   0.038821
    16  C   -0.214592   0.393103   0.065411  -0.051404   0.106324  -0.023217
    17  C   -0.079200   0.235830   0.029640  -0.044493   0.071176  -0.093804
    18  C   -0.011983   0.076234   0.033232  -0.036305   0.014728  -0.006748
    19  C    0.044213  -0.421902  -0.067733   0.043547   0.008602   0.004146
    20  C    0.048979  -0.520032   0.031523  -0.123742  -0.015696   0.017046
    21  O    0.095025  -0.556411   0.005740   0.061005  -0.008990   0.001942
    22  H    0.005277  -0.175912   0.420708   0.233543  -0.043441   0.014167
    23  H   -0.004948   0.033073  -0.165708   0.966808  -0.118328  -0.019872
    24  H    0.000178  -0.004137   0.004851  -0.070819   0.004811  -0.027113
    25  H    0.000018   0.000080  -0.000180   0.008684  -0.002326   0.003288
    26  H   -0.000014  -0.000020  -0.000030  -0.001978   0.000719   0.000342
    27  H    0.000032  -0.000047  -0.000056   0.002427  -0.001320   0.002294
    28  H   -0.001337   0.001845  -0.001162  -0.016671  -0.011894  -0.005905
    29  H    0.065886  -0.350456  -0.036770   0.292456  -0.095575  -0.063683
    30  H   -0.003875   0.028986  -0.003332  -0.011452   0.015248   0.002731
    31  H   -0.000151   0.000006   0.000423   0.000283   0.000392   0.000077
    32  H    0.001777   0.000672  -0.001486   0.001653  -0.000190   0.000039
    33  H   -0.003339  -0.025176   0.002585  -0.001715   0.005344   0.000056
               7          8          9         10         11         12
     1  O   -0.157924   0.022746   0.007053  -0.002925   0.000284  -0.000303
     2  S    0.653519  -0.000876   0.007097  -0.007909  -0.000016  -0.000741
     3  N    0.893441  -0.058158  -0.016146  -0.016865  -0.001435  -0.001760
     4  C   -9.993841   0.307821   0.476901  -0.152054   0.259768  -0.047987
     5  N    1.711630  -0.088031  -0.539856   0.256656  -0.003347   0.023653
     6  N   -1.481326  -0.364198   0.065069  -0.237084   0.049010  -0.023497
     7  C   15.864764  -0.443794  -1.345300   0.456136  -0.503480   0.069943
     8  N   -0.443794   9.200729  -1.078491   0.553580  -0.330352   0.392880
     9  C   -1.345300  -1.078491  15.109312  -5.603386   2.897260  -3.720268
    10  C    0.456136   0.553580  -5.603386  12.695683  -3.657463   3.042899
    11  C   -0.503480  -0.330352   2.897260  -3.657463  10.255018  -3.025822
    12  C    0.069943   0.392880  -3.720268   3.042899  -3.025822   9.008354
    13  C    0.022237  -0.274941   2.839009  -3.355622   3.005632  -2.967022
    14  C    0.388006   0.063250  -5.551898   2.424304  -3.420194   3.070983
    15  C    0.072645   0.010914   0.025153   0.002657   0.000838  -0.000081
    16  C   -0.130141  -0.010016  -0.036348  -0.001697  -0.001301   0.000396
    17  C    0.078889  -0.016407  -0.006750  -0.000680  -0.000171   0.000049
    18  C   -0.022542   0.000061  -0.000835  -0.000429  -0.000039   0.000008
    19  C    0.005536   0.000315  -0.000043   0.000264   0.000034  -0.000002
    20  C   -0.090688   0.010339   0.002125   0.000012   0.000245  -0.000028
    21  O   -0.007231  -0.000714   0.000087   0.000075  -0.000042   0.000010
    22  H   -0.255233   0.009457   0.000763   0.000201   0.001166  -0.000047
    23  H   -1.356665   0.225442   0.166403   0.022835   0.098789  -0.006966
    24  H    0.133060  -0.225977   0.921824  -1.013243   0.142340  -0.187691
    25  H   -0.003548   0.002535  -0.121990   0.650887  -0.777355   0.295826
    26  H    0.000777  -0.003702   0.116151  -0.170428   0.364131  -0.632844
    27  H   -0.004813  -0.008624  -0.093970   0.112419  -0.206375   0.267666
    28  H    0.009978  -0.202493   0.656435  -0.111463   0.107924  -0.158522
    29  H   -0.103342  -0.004058   0.010721   0.003321   0.002317  -0.001231
    30  H    0.005396  -0.000219  -0.000431  -0.000140  -0.000046   0.000024
    31  H   -0.001115   0.000054   0.000003  -0.000012  -0.000001  -0.000000
    32  H    0.000723  -0.000079  -0.000036   0.000013   0.000001   0.000000
    33  H   -0.002843   0.001122   0.000493  -0.000132  -0.000016   0.000000
              13         14         15         16         17         18
     1  O    0.000323  -0.005357   0.352931  -0.214592  -0.079200  -0.011983
     2  S    0.000203   0.000738  -1.529194   0.393103   0.235830   0.076234
     3  N    0.000795   0.000132  -0.291964   0.065411   0.029640   0.033232
     4  C    0.034191  -0.468011   0.383004  -0.051404  -0.044493  -0.036305
     5  N   -0.089730  -0.029433  -0.136375   0.106324   0.071176   0.014728
     6  N    0.059260   0.346577   0.038821  -0.023217  -0.093804  -0.006748
     7  C    0.022237   0.388006   0.072645  -0.130141   0.078889  -0.022542
     8  N   -0.274941   0.063250   0.010914  -0.010016  -0.016407   0.000061
     9  C    2.839009  -5.551898   0.025153  -0.036348  -0.006750  -0.000835
    10  C   -3.355622   2.424304   0.002657  -0.001697  -0.000680  -0.000429
    11  C    3.005632  -3.420194   0.000838  -0.001301  -0.000171  -0.000039
    12  C   -2.967022   3.070983  -0.000081   0.000396   0.000049   0.000008
    13  C    9.986634  -3.728939  -0.000597   0.001805   0.000793   0.000071
    14  C   -3.728939  13.054073  -0.004762   0.009931   0.003815   0.000404
    15  C   -0.000597  -0.004762  15.194023  -5.284383   2.440185  -3.764922
    16  C    0.001805   0.009931  -5.284383  16.732526  -5.692700   3.362771
    17  C    0.000793   0.003815   2.440185  -5.692700  13.687209  -3.549276
    18  C    0.000071   0.000404  -3.764922   3.362771  -3.549276   9.679639
    19  C   -0.000011  -0.000189   1.912598  -3.380084   3.218891  -3.126512
    20  C   -0.000247  -0.002434  -5.912943   0.490994  -4.194111   3.212046
    21  O   -0.000043  -0.000254   0.364654  -0.072659   0.008997  -0.011865
    22  H   -0.000421  -0.001979   0.080112  -0.013884   0.004982  -0.001810
    23  H   -0.000125  -0.151207  -0.007795   0.004834   0.001780  -0.000163
    24  H    0.122026  -0.125317   0.003088  -0.001356  -0.000083  -0.000086
    25  H   -0.228007   0.109468  -0.000067   0.000037   0.000012   0.000001
    26  H    0.397454  -0.120953   0.000007   0.000004   0.000000  -0.000000
    27  H   -0.714636   0.599128   0.000053  -0.000074   0.000002  -0.000005
    28  H    0.335733  -0.888219   0.000056   0.000164   0.000252   0.000024
    29  H   -0.000046  -0.016921   0.733122  -0.964000  -0.043413  -0.195273
    30  H    0.000113   0.000796  -0.284424   0.736996  -0.875908   0.399169
    31  H   -0.000000  -0.000007   0.106108  -0.139928   0.374289  -0.632125
    32  H   -0.000000  -0.000002  -0.089797   0.064556  -0.197355   0.366111
    33  H    0.000004   0.000036   0.540712  -0.005689   0.081502  -0.170682
              19         20         21         22         23         24
     1  O    0.044213   0.048979   0.095025   0.005277  -0.004948   0.000178
     2  S   -0.421902  -0.520032  -0.556411  -0.175912   0.033073  -0.004137
     3  N   -0.067733   0.031523   0.005740   0.420708  -0.165708   0.004851
     4  C    0.043547  -0.123742   0.061005   0.233543   0.966808  -0.070819
     5  N    0.008602  -0.015696  -0.008990  -0.043441  -0.118328   0.004811
     6  N    0.004146   0.017046   0.001942   0.014167  -0.019872  -0.027113
     7  C    0.005536  -0.090688  -0.007231  -0.255233  -1.356665   0.133060
     8  N    0.000315   0.010339  -0.000714   0.009457   0.225442  -0.225977
     9  C   -0.000043   0.002125   0.000087   0.000763   0.166403   0.921824
    10  C    0.000264   0.000012   0.000075   0.000201   0.022835  -1.013243
    11  C    0.000034   0.000245  -0.000042   0.001166   0.098789   0.142340
    12  C   -0.000002  -0.000028   0.000010  -0.000047  -0.006966  -0.187691
    13  C   -0.000011  -0.000247  -0.000043  -0.000421  -0.000125   0.122026
    14  C   -0.000189  -0.002434  -0.000254  -0.001979  -0.151207  -0.125317
    15  C    1.912598  -5.912943   0.364654   0.080112  -0.007795   0.003088
    16  C   -3.380084   0.490994  -0.072659  -0.013884   0.004834  -0.001356
    17  C    3.218891  -4.194111   0.008997   0.004982   0.001780  -0.000083
    18  C   -3.126512   3.212046  -0.011865  -0.001810  -0.000163  -0.000086
    19  C   10.952263  -3.856439  -0.067997   0.003915  -0.000426   0.000105
    20  C   -3.856439  17.869748  -0.013923  -0.030523  -0.002706  -0.000217
    21  O   -0.067997  -0.013923   9.382727   0.050374  -0.007677   0.000757
    22  H    0.003915  -0.030523   0.050374   0.748302   0.004302   0.001063
    23  H   -0.000426  -0.002706  -0.007677   0.004302   1.865391  -0.070957
    24  H    0.000105  -0.000217   0.000757   0.001063  -0.070957   2.154030
    25  H   -0.000001   0.000001  -0.000016   0.000024   0.004422  -0.082314
    26  H   -0.000000  -0.000002   0.000000  -0.000011   0.000044  -0.015311
    27  H    0.000004  -0.000005   0.000002   0.000000   0.000181   0.010221
    28  H   -0.000158   0.000059  -0.000111  -0.000242  -0.003015  -0.018867
    29  H    0.175672  -0.149582   0.028743   0.006174   0.001952   0.000187
    30  H   -0.249920   0.155874  -0.000465  -0.000055   0.000042  -0.000000
    31  H    0.425941  -0.176494   0.000131   0.000087  -0.000023  -0.000003
    32  H   -0.735340   0.503706  -0.000208   0.000155   0.000002   0.000007
    33  H    0.434834  -1.039838  -0.069331  -0.003463   0.000266  -0.000051
              25         26         27         28         29         30
     1  O    0.000018  -0.000014   0.000032  -0.001337   0.065886  -0.003875
     2  S    0.000080  -0.000020  -0.000047   0.001845  -0.350456   0.028986
     3  N   -0.000180  -0.000030  -0.000056  -0.001162  -0.036770  -0.003332
     4  C    0.008684  -0.001978   0.002427  -0.016671   0.292456  -0.011452
     5  N   -0.002326   0.000719  -0.001320  -0.011894  -0.095575   0.015248
     6  N    0.003288   0.000342   0.002294  -0.005905  -0.063683   0.002731
     7  C   -0.003548   0.000777  -0.004813   0.009978  -0.103342   0.005396
     8  N    0.002535  -0.003702  -0.008624  -0.202493  -0.004058  -0.000219
     9  C   -0.121990   0.116151  -0.093970   0.656435   0.010721  -0.000431
    10  C    0.650887  -0.170428   0.112419  -0.111463   0.003321  -0.000140
    11  C   -0.777355   0.364131  -0.206375   0.107924   0.002317  -0.000046
    12  C    0.295826  -0.632844   0.267666  -0.158522  -0.001231   0.000024
    13  C   -0.228007   0.397454  -0.714636   0.335733  -0.000046   0.000113
    14  C    0.109468  -0.120953   0.599128  -0.888219  -0.016921   0.000796
    15  C   -0.000067   0.000007   0.000053   0.000056   0.733122  -0.284424
    16  C    0.000037   0.000004  -0.000074   0.000164  -0.964000   0.736996
    17  C    0.000012   0.000000   0.000002   0.000252  -0.043413  -0.875908
    18  C    0.000001  -0.000000  -0.000005   0.000024  -0.195273   0.399169
    19  C   -0.000001  -0.000000   0.000004  -0.000158   0.175672  -0.249920
    20  C    0.000001  -0.000002  -0.000005   0.000059  -0.149582   0.155874
    21  O   -0.000016   0.000000   0.000002  -0.000111   0.028743  -0.000465
    22  H    0.000024  -0.000011   0.000000  -0.000242   0.006174  -0.000055
    23  H    0.004422   0.000044   0.000181  -0.003015   0.001952   0.000042
    24  H   -0.082314  -0.015311   0.010221  -0.018867   0.000187  -0.000000
    25  H    1.638489  -0.054698  -0.018024   0.009654   0.000040  -0.000000
    26  H   -0.054698   1.633358  -0.057965  -0.011561  -0.000025   0.000001
    27  H   -0.018024  -0.057965   1.622606  -0.080139   0.000178  -0.000003
    28  H    0.009654  -0.011561  -0.080139   1.913159  -0.003079   0.000212
    29  H    0.000040  -0.000025   0.000178  -0.003079   2.388285  -0.152321
    30  H   -0.000000   0.000001  -0.000003   0.000212  -0.152321   1.791870
    31  H    0.000000  -0.000000  -0.000000  -0.000003  -0.011234  -0.058251
    32  H   -0.000000   0.000000   0.000000  -0.000006   0.009491  -0.020204
    33  H    0.000001   0.000000  -0.000001   0.000028  -0.010249   0.009482
              31         32         33
     1  O   -0.000151   0.001777  -0.003339
     2  S    0.000006   0.000672  -0.025176
     3  N    0.000423  -0.001486   0.002585
     4  C    0.000283   0.001653  -0.001715
     5  N    0.000392  -0.000190   0.005344
     6  N    0.000077   0.000039   0.000056
     7  C   -0.001115   0.000723  -0.002843
     8  N    0.000054  -0.000079   0.001122
     9  C    0.000003  -0.000036   0.000493
    10  C   -0.000012   0.000013  -0.000132
    11  C   -0.000001   0.000001  -0.000016
    12  C   -0.000000   0.000000   0.000000
    13  C   -0.000000  -0.000000   0.000004
    14  C   -0.000007  -0.000002   0.000036
    15  C    0.106108  -0.089797   0.540712
    16  C   -0.139928   0.064556  -0.005689
    17  C    0.374289  -0.197355   0.081502
    18  C   -0.632125   0.366111  -0.170682
    19  C    0.425941  -0.735340   0.434834
    20  C   -0.176494   0.503706  -1.039838
    21  O    0.000131  -0.000208  -0.069331
    22  H    0.000087   0.000155  -0.003463
    23  H   -0.000023   0.000002   0.000266
    24  H   -0.000003   0.000007  -0.000051
    25  H    0.000000  -0.000000   0.000001
    26  H   -0.000000   0.000000   0.000000
    27  H   -0.000000   0.000000  -0.000001
    28  H   -0.000003  -0.000006   0.000028
    29  H   -0.011234   0.009491  -0.010249
    30  H   -0.058251  -0.020204   0.009482
    31  H    1.628781  -0.063378  -0.013097
    32  H   -0.063378   1.699759  -0.092785
    33  H   -0.013097  -0.092785   1.892086
 Mulliken charges:
               1
     1  O   -1.151509
     2  S    2.891234
     3  N   -0.899600
     4  C    0.149792
     5  N   -0.461223
     6  N   -0.520627
     7  C    1.537145
     8  N   -0.690115
     9  C    0.813889
    10  C    0.109590
    11  C    0.742701
    12  C    0.602119
    13  C    0.554103
    14  C    0.444435
    15  C    1.045623
    16  C    0.053621
    17  C    0.556061
    18  C    0.387099
    19  C    0.675879
    20  C   -0.213046
    21  O   -1.182333
    22  H   -0.057752
    23  H   -0.479985
    24  H   -0.655008
    25  H   -0.434940
    26  H   -0.443445
    27  H   -0.431155
    28  H   -0.520678
    29  H   -0.517287
    30  H   -0.485894
    31  H   -0.440754
    32  H   -0.447796
    33  H   -0.530147
 Sum of Mulliken charges =  -0.00000
 Mulliken charges with hydrogens summed into heavy atoms:
               1
     1  O   -1.151509
     2  S    2.891234
     3  N   -0.957352
     4  C    0.149792
     5  N   -0.461223
     6  N   -0.520627
     7  C    1.057160
     8  N   -0.690115
     9  C    0.813889
    10  C   -0.545418
    11  C    0.307760
    12  C    0.158674
    13  C    0.122948
    14  C   -0.076242
    15  C    1.045623
    16  C   -0.463666
    17  C    0.070167
    18  C   -0.053655
    19  C    0.228083
    20  C   -0.743192
    21  O   -1.182333
 Electronic spatial extent (au):  <R**2>=           9352.6734
 Charge=             -0.0000 electrons
 Dipole moment (field-independent basis, Debye):
    X=             -2.8515    Y=              0.3773    Z=             -3.7042  Tot=              4.6898
 Quadrupole moment (field-independent basis, Debye-Ang):
   XX=            -90.1309   YY=           -129.2744   ZZ=           -136.7731
   XY=             14.1670   XZ=             -5.5976   YZ=             10.0144
 Traceless Quadrupole moment (field-independent basis, Debye-Ang):
   XX=             28.5952   YY=            -10.5483   ZZ=            -18.0470
   XY=             14.1670   XZ=             -5.5976   YZ=             10.0144
 Octapole moment (field-independent basis, Debye-Ang**2):
  XXX=            -16.8193  YYY=             14.2608  ZZZ=             -1.7482  XYY=             -1.7761
  XXY=             34.0719  XXZ=            -14.5643  XZZ=            -16.6008  YZZ=             -8.5136
  YYZ=             -9.6866  XYZ=            -27.5810
 Hexadecapole moment (field-independent basis, Debye-Ang**3):
 XXXX=          -9350.7482 YYYY=          -1268.5906 ZZZZ=           -469.6526 XXXY=             85.3490
 XXXZ=           -133.7093 YYYX=            119.3734 YYYZ=             25.9317 ZZZX=              7.5197
 ZZZY=             24.1380 XXYY=          -2026.1516 XXZZ=          -2076.6545 YYZZ=           -274.5334
 XXYZ=            121.9516 YYXZ=            -34.9968 ZZXY=            -26.7166
 N-N= 1.700517026362D+03 E-N=-6.460138329928D+03  KE= 1.300642930776D+03
 Leave Link  601 at Wed Sep 23 07:37:36 2020, MaxMem=   262144000 cpu:               1.0 elap:               0.3
 (Enter /prod/apps/gaussian/g16b1/l9999.exe)
 1\1\GINC-PIRINEUS9\SP\RMP2-FC\Aug-CC-pVDZ\C14H12N4O2S1\UBAFAR01\23-Sep
 -2020\0\\#p mp2/aug-cc-pVDZ scf=(MaxCycle=2000,NoVarAcc,NoIncFock) max
 disk=120GB geom=allcheck\\SM45_m0.n.4.pdb.xyz\\0,1\O,0,1.5316952855,-0
 .8792810994,1.7250321996\S,0,2.1262985888,-1.211381606,0.4226923063\N,
 0,0.9491464977,-0.9816784679,-0.7809611521\C,0,-0.2766140912,-0.374575
 3393,-0.4735035704\N,0,-0.3563999228,0.9345719602,-0.1102376205\N,0,-1
 .6131454525,1.2469306645,0.0739094834\C,0,-1.5503088067,-0.899797865,-
 0.523968604\N,0,-2.3503889355,0.1453569332,-0.1917982601\C,0,-3.771889
 945,0.1842201668,-0.1040354648\C,0,-4.5356314489,-0.6967959127,-0.8728
 366473\C,0,-5.9253802824,-0.6569397679,-0.7707661953\C,0,-6.5449677173
 ,0.2620288121,0.0784016043\C,0,-5.7679008461,1.143012885,0.8343815274\
 C,0,-4.3773601186,1.1051187434,0.7534172219\C,0,3.384270047,-0.0023317
 821,0.043441278\C,0,3.0462952893,1.3522293876,-0.0046625977\C,0,4.0548
 932124,2.2800989889,-0.2516876432\C,0,5.373544538,1.8549390865,-0.4392
 958598\C,0,5.6913854586,0.4972415181,-0.3859309239\C,0,4.692314248,-0.
 4463264603,-0.1429461786\O,0,2.6919794495,-2.5481932262,0.1930901741\H
 ,0,0.8869279356,-1.8096880948,-1.3730030486\H,0,-1.9216135562,-1.88498
 39417,-0.7464558923\H,0,-4.0525213724,-1.392896512,-1.5481745095\H,0,-
 6.5215536815,-1.3403406994,-1.3653245998\H,0,-7.6266126184,0.291376523
 9,0.1504383171\H,0,-6.2423466961,1.8569400379,1.4985491726\H,0,-3.7620
 811103,1.771872196,1.3434304469\H,0,2.0158188943,1.6650026468,0.125781
 4042\H,0,3.810976716,3.3354153814,-0.2993126823\H,0,6.1529281621,2.584
 4406316,-0.6307482297\H,0,6.7138528584,0.1688408435,-0.5341333384\H,0,
 4.9133894205,-1.5054266326,-0.1007821174\\Version=ES64L-G16RevB.01\Sta
 te=1-A\HF=-1302.1604692\MP2=-1305.2953311\RMSD=5.116e-09\PG=C01 [X(C14
 H12N4O2S1)]\\@


 IT IS A CAPITAL MISTAKE TO THEORIZE BEFORE ONE HAS
 DATA.  INSENSIBLY ONE BEGINS TO TWIST FACTS TO SUIT
 THEORIES RATHER THAN THEORIES TO SUIT FACTS.

                                         -- SHERLOCK HOLMES
 Job cpu time:       0 days  3 hours 22 minutes 44.3 seconds.
 Elapsed time:       0 days  0 hours 58 minutes 51.0 seconds.
 File lengths (MBytes):  RWF= 106606 Int=      0 D2E=      0 Chk=     28 Scr=      1
 Normal termination of Gaussian 16 at Wed Sep 23 07:37:39 2020.
