 Entering Gaussian System, Link 0=g16
 Initial command:
 /prod/apps/gaussian/g16b1/l1.exe "/tmp/ubafar01/1461361/Gau-212523.inp" -scrdir="/tmp/ubafar01/1461361/"
 Entering Link 1 = /prod/apps/gaussian/g16b1/l1.exe PID=    212525.
  
 Copyright (c) 1988-2017, Gaussian, Inc.  All Rights Reserved.
  
 This is part of the Gaussian(R) 16 program.  It is based on
 the Gaussian(R) 09 system (copyright 2009, Gaussian, Inc.),
 the Gaussian(R) 03 system (copyright 2003, Gaussian, Inc.),
 the Gaussian(R) 98 system (copyright 1998, Gaussian, Inc.),
 the Gaussian(R) 94 system (copyright 1995, Gaussian, Inc.),
 the Gaussian 92(TM) system (copyright 1992, Gaussian, Inc.),
 the Gaussian 90(TM) system (copyright 1990, Gaussian, Inc.),
 the Gaussian 88(TM) system (copyright 1988, Gaussian, Inc.),
 the Gaussian 86(TM) system (copyright 1986, Carnegie Mellon
 University), and the Gaussian 82(TM) system (copyright 1983,
 Carnegie Mellon University). Gaussian is a federally registered
 trademark of Gaussian, Inc.
  
 This software contains proprietary and confidential information,
 including trade secrets, belonging to Gaussian, Inc.
  
 This software is provided under written license and may be
 used, copied, transmitted, or stored only in accord with that
 written license.
  
 The following legend is applicable only to US Government
 contracts under FAR:
  
                    RESTRICTED RIGHTS LEGEND
  
 Use, reproduction and disclosure by the US Government is
 subject to restrictions as set forth in subparagraphs (a)
 and (c) of the Commercial Computer Software - Restricted
 Rights clause in FAR 52.227-19.
  
 Gaussian, Inc.
 340 Quinnipiac St., Bldg. 40, Wallingford CT 06492
  
  
 ---------------------------------------------------------------
 Warning -- This program may not be used in any manner that
 competes with the business of Gaussian, Inc. or will provide
 assistance to any competitor of Gaussian, Inc.  The licensee
 of this program is prohibited from giving any competitor of
 Gaussian, Inc. access to this program.  By using this program,
 the user acknowledges that Gaussian, Inc. is engaged in the
 business of creating and licensing software in the field of
 computational chemistry and represents and warrants to the
 licensee that it is not a competitor of Gaussian, Inc. and that
 it will not use this program in any manner prohibited above.
 ---------------------------------------------------------------
  

 Cite this work as:
 Gaussian 16, Revision B.01,
 M. J. Frisch, G. W. Trucks, H. B. Schlegel, G. E. Scuseria, 
 M. A. Robb, J. R. Cheeseman, G. Scalmani, V. Barone, 
 G. A. Petersson, H. Nakatsuji, X. Li, M. Caricato, A. V. Marenich, 
 J. Bloino, B. G. Janesko, R. Gomperts, B. Mennucci, H. P. Hratchian, 
 J. V. Ortiz, A. F. Izmaylov, J. L. Sonnenberg, D. Williams-Young, 
 F. Ding, F. Lipparini, F. Egidi, J. Goings, B. Peng, A. Petrone, 
 T. Henderson, D. Ranasinghe, V. G. Zakrzewski, J. Gao, N. Rega, 
 G. Zheng, W. Liang, M. Hada, M. Ehara, K. Toyota, R. Fukuda, 
 J. Hasegawa, M. Ishida, T. Nakajima, Y. Honda, O. Kitao, H. Nakai, 
 T. Vreven, K. Throssell, J. A. Montgomery, Jr., J. E. Peralta, 
 F. Ogliaro, M. J. Bearpark, J. J. Heyd, E. N. Brothers, K. N. Kudin, 
 V. N. Staroverov, T. A. Keith, R. Kobayashi, J. Normand, 
 K. Raghavachari, A. P. Rendell, J. C. Burant, S. S. Iyengar, 
 J. Tomasi, M. Cossi, J. M. Millam, M. Klene, C. Adamo, R. Cammi, 
 J. W. Ochterski, R. L. Martin, K. Morokuma, O. Farkas, 
 J. B. Foresman, and D. J. Fox, Gaussian, Inc., Wallingford CT, 2016.
 
 ******************************************
 Gaussian 16:  ES64L-G16RevB.01 20-Dec-2017
                24-Sep-2020 
 ******************************************
 %nproc=4
 Will use up to    4 processors via shared memory.
 %Chk=SM45_m0.n.9.pdb.xyz.mst.n.w.chk
 %mem=16GB
 ----------------------------------------------------------------------
 #p b3lyp/6-31G(d) opt freq NoSymm scf=(MaxCycle=2000,NoVarAcc,NoIncFoc
 k) scrf=(iefpcm,read,solvent=water)
 ----------------------------------------------------------------------
 1/18=20,19=15,26=3,38=1,40=2/1,3;
 2/9=110,12=2,15=1,17=6,18=5,40=1/2;
 3/5=1,6=6,7=1,11=2,25=1,30=1,70=2203,71=1,72=1,74=-5/1,2,3;
 4//1;
 5/5=100002,7=2000,38=1,53=1/2;
 6/7=2,8=2,9=2,10=2,28=1/1;
 7/30=1/1,2,3,16;
 1/18=20,19=15,26=3/3(2);
 2/9=110,15=1/2;
 99//99;
 2/9=110,15=1/2;
 3/5=1,6=6,7=1,11=2,25=1,30=1,70=2205,71=1,72=1,74=-5/1,2,3;
 4/5=5,16=3,69=1/1;
 5/5=100002,7=2000,38=1,53=1/2;
 7/30=1/1,2,3,16;
 1/18=20,19=15,26=3/3(-5);
 2/9=110,15=1/2;
 6/7=2,8=2,9=2,10=2,19=2,28=1/1;
 99/9=1/99;
 Leave Link    1 at Thu Sep 24 14:39:38 2020, MaxMem=  2147483648 cpu:               0.1 elap:               0.0
 (Enter /prod/apps/gaussian/g16b1/l101.exe)
 -------------------
 SM45_m0.n.9.pdb.xyz
 -------------------
 Symbolic Z-matrix:
 Charge =  0 Multiplicity = 1
 O                     1.998    -1.571     1.605 
 S                     2.539    -1.25      0.275 
 N                     1.4      -1.578    -0.955 
 C                     0.031    -1.462    -0.651 
 N                    -0.748    -2.533    -0.334 
 N                    -1.972    -2.119    -0.138 
 C                    -0.748    -0.324    -0.638 
 N                    -1.981    -0.774    -0.3 
 C                    -3.185    -0.029    -0.132 
 C                    -4.19     -0.538     0.694 
 C                    -5.368     0.19      0.854 
 C                    -5.535     1.417     0.208 
 C                    -4.52      1.914    -0.61 
 C                    -3.341     1.192    -0.792 
 C                     2.741     0.52      0.178 
 C                     3.349     1.075    -0.952 
 C                     3.524     2.455    -1.007 
 C                     3.098     3.259     0.055 
 C                     2.497     2.689     1.177 
 C                     2.314     1.307     1.247 
 O                     3.766    -1.916    -0.189 
 H                     1.644    -2.479    -1.374 
 H                    -0.521     0.713    -0.813 
 H                    -4.041    -1.483     1.199 
 H                    -6.151    -0.201     1.494 
 H                    -6.451     1.981     0.341 
 H                    -4.644     2.863    -1.12 
 H                    -2.562     1.566    -1.445 
 H                     3.678     0.442    -1.767 
 H                     3.994     2.903    -1.876 
 H                     3.237     4.334     0.006 
 H                     2.17      3.315     2. 
 H                     1.854     0.84      2.109 
 
 ITRead=  0  0  0  0  0  0  0  0  0  0  0  0  0  0  0  0  0  0  0  0
 ITRead=  0  0  0  0  0  0  0  0  0  0  0  0  0
 MicOpt= -1 -1 -1 -1 -1 -1 -1 -1 -1 -1 -1 -1 -1 -1 -1 -1 -1 -1 -1 -1
 MicOpt= -1 -1 -1 -1 -1 -1 -1 -1 -1 -1 -1 -1 -1
 NAtoms=     33 NQM=       33 NQMF=       0 NMMI=      0 NMMIF=      0
                NMic=       0 NMicF=      0.
                    Isotopes and Nuclear Properties:
 (Nuclear quadrupole moments (NQMom) in fm**2, nuclear magnetic moments (NMagM)
  in nuclear magnetons)

  Atom         1           2           3           4           5           6           7           8           9          10
 IAtWgt=          16          32          14          12          14          14          12          14          12          12
 AtmWgt=  15.9949146  31.9720718  14.0030740  12.0000000  14.0030740  14.0030740  12.0000000  14.0030740  12.0000000  12.0000000
 NucSpn=           0           0           2           0           2           2           0           2           0           0
 AtZEff=  -0.0000000  -0.0000000  -0.0000000  -0.0000000  -0.0000000  -0.0000000  -0.0000000  -0.0000000  -0.0000000  -0.0000000
 NQMom=    0.0000000   0.0000000   2.0440000   0.0000000   2.0440000   2.0440000   0.0000000   2.0440000   0.0000000   0.0000000
 NMagM=    0.0000000   0.0000000   0.4037610   0.0000000   0.4037610   0.4037610   0.0000000   0.4037610   0.0000000   0.0000000
 AtZNuc=   8.0000000  16.0000000   7.0000000   6.0000000   7.0000000   7.0000000   6.0000000   7.0000000   6.0000000   6.0000000

  Atom        11          12          13          14          15          16          17          18          19          20
 IAtWgt=          12          12          12          12          12          12          12          12          12          12
 AtmWgt=  12.0000000  12.0000000  12.0000000  12.0000000  12.0000000  12.0000000  12.0000000  12.0000000  12.0000000  12.0000000
 NucSpn=           0           0           0           0           0           0           0           0           0           0
 AtZEff=  -0.0000000  -0.0000000  -0.0000000  -0.0000000  -0.0000000  -0.0000000  -0.0000000  -0.0000000  -0.0000000  -0.0000000
 NQMom=    0.0000000   0.0000000   0.0000000   0.0000000   0.0000000   0.0000000   0.0000000   0.0000000   0.0000000   0.0000000
 NMagM=    0.0000000   0.0000000   0.0000000   0.0000000   0.0000000   0.0000000   0.0000000   0.0000000   0.0000000   0.0000000
 AtZNuc=   6.0000000   6.0000000   6.0000000   6.0000000   6.0000000   6.0000000   6.0000000   6.0000000   6.0000000   6.0000000

  Atom        21          22          23          24          25          26          27          28          29          30
 IAtWgt=          16           1           1           1           1           1           1           1           1           1
 AtmWgt=  15.9949146   1.0078250   1.0078250   1.0078250   1.0078250   1.0078250   1.0078250   1.0078250   1.0078250   1.0078250
 NucSpn=           0           1           1           1           1           1           1           1           1           1
 AtZEff=  -0.0000000  -0.0000000  -0.0000000  -0.0000000  -0.0000000  -0.0000000  -0.0000000  -0.0000000  -0.0000000  -0.0000000
 NQMom=    0.0000000   0.0000000   0.0000000   0.0000000   0.0000000   0.0000000   0.0000000   0.0000000   0.0000000   0.0000000
 NMagM=    0.0000000   2.7928460   2.7928460   2.7928460   2.7928460   2.7928460   2.7928460   2.7928460   2.7928460   2.7928460
 AtZNuc=   8.0000000   1.0000000   1.0000000   1.0000000   1.0000000   1.0000000   1.0000000   1.0000000   1.0000000   1.0000000

  Atom        31          32          33
 IAtWgt=           1           1           1
 AtmWgt=   1.0078250   1.0078250   1.0078250
 NucSpn=           1           1           1
 AtZEff=  -0.0000000  -0.0000000  -0.0000000
 NQMom=    0.0000000   0.0000000   0.0000000
 NMagM=    2.7928460   2.7928460   2.7928460
 AtZNuc=   1.0000000   1.0000000   1.0000000
 Leave Link  101 at Thu Sep 24 14:39:38 2020, MaxMem=  2147483648 cpu:               2.1 elap:               0.5
 (Enter /prod/apps/gaussian/g16b1/l103.exe)

 GradGradGradGradGradGradGradGradGradGradGradGradGradGradGradGradGradGrad
 Berny optimization.
 Initialization pass.
                           ----------------------------
                           !    Initial Parameters    !
                           ! (Angstroms and Degrees)  !
 --------------------------                            --------------------------
 ! Name  Definition              Value          Derivative Info.                !
 --------------------------------------------------------------------------------
 ! R1    R(1,2)                  1.4713         estimate D2E/DX2                !
 ! R2    R(2,3)                  1.7082         estimate D2E/DX2                !
 ! R3    R(2,15)                 1.7841         estimate D2E/DX2                !
 ! R4    R(2,21)                 1.4712         estimate D2E/DX2                !
 ! R5    R(3,4)                  1.4071         estimate D2E/DX2                !
 ! R6    R(3,22)                 1.0232         estimate D2E/DX2                !
 ! R7    R(4,5)                  1.3618         estimate D2E/DX2                !
 ! R8    R(4,7)                  1.3791         estimate D2E/DX2                !
 ! R9    R(5,6)                  1.3069         estimate D2E/DX2                !
 ! R10   R(6,8)                  1.3548         estimate D2E/DX2                !
 ! R11   R(7,8)                  1.3554         estimate D2E/DX2                !
 ! R12   R(7,23)                 1.0759         estimate D2E/DX2                !
 ! R13   R(8,9)                  1.4258         estimate D2E/DX2                !
 ! R14   R(9,10)                 1.3969         estimate D2E/DX2                !
 ! R15   R(9,14)                 1.3967         estimate D2E/DX2                !
 ! R16   R(10,11)                1.394          estimate D2E/DX2                !
 ! R17   R(10,24)                1.0818         estimate D2E/DX2                !
 ! R18   R(11,12)                1.3967         estimate D2E/DX2                !
 ! R19   R(11,25)                1.0842         estimate D2E/DX2                !
 ! R20   R(12,13)                1.3951         estimate D2E/DX2                !
 ! R21   R(12,26)                1.0839         estimate D2E/DX2                !
 ! R22   R(13,14)                1.3944         estimate D2E/DX2                !
 ! R23   R(13,27)                1.0845         estimate D2E/DX2                !
 ! R24   R(14,28)                1.0831         estimate D2E/DX2                !
 ! R25   R(15,16)                1.3981         estimate D2E/DX2                !
 ! R26   R(15,20)                1.3944         estimate D2E/DX2                !
 ! R27   R(16,17)                1.3921         estimate D2E/DX2                !
 ! R28   R(16,29)                1.0831         estimate D2E/DX2                !
 ! R29   R(17,18)                1.3985         estimate D2E/DX2                !
 ! R30   R(17,30)                1.0848         estimate D2E/DX2                !
 ! R31   R(18,19)                1.3946         estimate D2E/DX2                !
 ! R32   R(18,31)                1.0851         estimate D2E/DX2                !
 ! R33   R(19,20)                1.3958         estimate D2E/DX2                !
 ! R34   R(19,32)                1.0845         estimate D2E/DX2                !
 ! R35   R(20,33)                1.0829         estimate D2E/DX2                !
 ! A1    A(1,2,3)              111.3369         estimate D2E/DX2                !
 ! A2    A(1,2,15)             107.8925         estimate D2E/DX2                !
 ! A3    A(1,2,21)             119.5392         estimate D2E/DX2                !
 ! A4    A(3,2,15)             103.1114         estimate D2E/DX2                !
 ! A5    A(3,2,21)             104.0101         estimate D2E/DX2                !
 ! A6    A(15,2,21)            109.7268         estimate D2E/DX2                !
 ! A7    A(2,3,4)              118.5114         estimate D2E/DX2                !
 ! A8    A(2,3,22)             107.7553         estimate D2E/DX2                !
 ! A9    A(4,3,22)             113.1458         estimate D2E/DX2                !
 ! A10   A(3,4,5)              122.8205         estimate D2E/DX2                !
 ! A11   A(3,4,7)              128.2863         estimate D2E/DX2                !
 ! A12   A(5,4,7)              108.8839         estimate D2E/DX2                !
 ! A13   A(4,5,6)              108.756          estimate D2E/DX2                !
 ! A14   A(5,6,8)              107.6252         estimate D2E/DX2                !
 ! A15   A(4,7,8)              104.0185         estimate D2E/DX2                !
 ! A16   A(4,7,23)             132.4244         estimate D2E/DX2                !
 ! A17   A(8,7,23)             123.5398         estimate D2E/DX2                !
 ! A18   A(6,8,7)              110.6954         estimate D2E/DX2                !
 ! A19   A(6,8,9)              120.6823         estimate D2E/DX2                !
 ! A20   A(7,8,9)              128.6166         estimate D2E/DX2                !
 ! A21   A(8,9,10)             119.1311         estimate D2E/DX2                !
 ! A22   A(8,9,14)             119.6978         estimate D2E/DX2                !
 ! A23   A(10,9,14)            121.1711         estimate D2E/DX2                !
 ! A24   A(9,10,11)            119.0477         estimate D2E/DX2                !
 ! A25   A(9,10,24)            119.6857         estimate D2E/DX2                !
 ! A26   A(11,10,24)           121.2662         estimate D2E/DX2                !
 ! A27   A(10,11,12)           120.4469         estimate D2E/DX2                !
 ! A28   A(10,11,25)           119.3198         estimate D2E/DX2                !
 ! A29   A(12,11,25)           120.2303         estimate D2E/DX2                !
 ! A30   A(11,12,13)           119.8124         estimate D2E/DX2                !
 ! A31   A(11,12,26)           120.0939         estimate D2E/DX2                !
 ! A32   A(13,12,26)           120.0937         estimate D2E/DX2                !
 ! A33   A(12,13,14)           120.4781         estimate D2E/DX2                !
 ! A34   A(12,13,27)           120.2842         estimate D2E/DX2                !
 ! A35   A(14,13,27)           119.2348         estimate D2E/DX2                !
 ! A36   A(9,14,13)            119.0385         estimate D2E/DX2                !
 ! A37   A(9,14,28)            120.426          estimate D2E/DX2                !
 ! A38   A(13,14,28)           120.5313         estimate D2E/DX2                !
 ! A39   A(2,15,16)            119.1446         estimate D2E/DX2                !
 ! A40   A(2,15,20)            118.9186         estimate D2E/DX2                !
 ! A41   A(16,15,20)           121.9208         estimate D2E/DX2                !
 ! A42   A(15,16,17)           118.693          estimate D2E/DX2                !
 ! A43   A(15,16,29)           120.5489         estimate D2E/DX2                !
 ! A44   A(17,16,29)           120.7581         estimate D2E/DX2                !
 ! A45   A(16,17,18)           120.1062         estimate D2E/DX2                !
 ! A46   A(16,17,30)           119.7024         estimate D2E/DX2                !
 ! A47   A(18,17,30)           120.1912         estimate D2E/DX2                !
 ! A48   A(17,18,19)           120.4806         estimate D2E/DX2                !
 ! A49   A(17,18,31)           119.7533         estimate D2E/DX2                !
 ! A50   A(19,18,31)           119.766          estimate D2E/DX2                !
 ! A51   A(18,19,20)           120.0999         estimate D2E/DX2                !
 ! A52   A(18,19,32)           120.3013         estimate D2E/DX2                !
 ! A53   A(20,19,32)           119.5987         estimate D2E/DX2                !
 ! A54   A(15,20,19)           118.6988         estimate D2E/DX2                !
 ! A55   A(15,20,33)           119.7956         estimate D2E/DX2                !
 ! A56   A(19,20,33)           121.5053         estimate D2E/DX2                !
 ! D1    D(1,2,3,4)             30.0141         estimate D2E/DX2                !
 ! D2    D(1,2,3,22)          -100.0493         estimate D2E/DX2                !
 ! D3    D(15,2,3,4)           -85.4315         estimate D2E/DX2                !
 ! D4    D(15,2,3,22)          144.5052         estimate D2E/DX2                !
 ! D5    D(21,2,3,4)           160.0295         estimate D2E/DX2                !
 ! D6    D(21,2,3,22)           29.9661         estimate D2E/DX2                !
 ! D7    D(1,2,15,16)          174.6651         estimate D2E/DX2                !
 ! D8    D(1,2,15,20)           -3.9064         estimate D2E/DX2                !
 ! D9    D(3,2,15,16)          -67.445          estimate D2E/DX2                !
 ! D10   D(3,2,15,20)          113.9835         estimate D2E/DX2                !
 ! D11   D(21,2,15,16)          42.895          estimate D2E/DX2                !
 ! D12   D(21,2,15,20)        -135.6765         estimate D2E/DX2                !
 ! D13   D(2,3,4,5)            -98.2627         estimate D2E/DX2                !
 ! D14   D(2,3,4,7)             82.9757         estimate D2E/DX2                !
 ! D15   D(22,3,4,5)            29.3003         estimate D2E/DX2                !
 ! D16   D(22,3,4,7)          -149.4613         estimate D2E/DX2                !
 ! D17   D(3,4,5,6)           -178.3662         estimate D2E/DX2                !
 ! D18   D(7,4,5,6)              0.6064         estimate D2E/DX2                !
 ! D19   D(3,4,7,8)            179.2213         estimate D2E/DX2                !
 ! D20   D(3,4,7,23)            -2.2971         estimate D2E/DX2                !
 ! D21   D(5,4,7,8)              0.3212         estimate D2E/DX2                !
 ! D22   D(5,4,7,23)           178.8028         estimate D2E/DX2                !
 ! D23   D(4,5,6,8)             -1.2859         estimate D2E/DX2                !
 ! D24   D(5,6,8,7)              1.5379         estimate D2E/DX2                !
 ! D25   D(5,6,8,9)           -179.2568         estimate D2E/DX2                !
 ! D26   D(4,7,8,6)             -1.121          estimate D2E/DX2                !
 ! D27   D(4,7,8,9)            179.7537         estimate D2E/DX2                !
 ! D28   D(23,7,8,6)          -179.7763         estimate D2E/DX2                !
 ! D29   D(23,7,8,9)             1.0984         estimate D2E/DX2                !
 ! D30   D(6,8,9,10)            25.8446         estimate D2E/DX2                !
 ! D31   D(6,8,9,14)          -154.1599         estimate D2E/DX2                !
 ! D32   D(7,8,9,10)          -155.1068         estimate D2E/DX2                !
 ! D33   D(7,8,9,14)            24.8886         estimate D2E/DX2                !
 ! D34   D(8,9,10,11)         -179.8188         estimate D2E/DX2                !
 ! D35   D(8,9,10,24)            0.4124         estimate D2E/DX2                !
 ! D36   D(14,9,10,11)           0.1858         estimate D2E/DX2                !
 ! D37   D(14,9,10,24)        -179.583          estimate D2E/DX2                !
 ! D38   D(8,9,14,13)         -179.5247         estimate D2E/DX2                !
 ! D39   D(8,9,14,28)            1.2147         estimate D2E/DX2                !
 ! D40   D(10,9,14,13)           0.4707         estimate D2E/DX2                !
 ! D41   D(10,9,14,28)        -178.79           estimate D2E/DX2                !
 ! D42   D(9,10,11,12)          -0.6317         estimate D2E/DX2                !
 ! D43   D(9,10,11,25)         179.9931         estimate D2E/DX2                !
 ! D44   D(24,10,11,12)        179.1334         estimate D2E/DX2                !
 ! D45   D(24,10,11,25)         -0.2418         estimate D2E/DX2                !
 ! D46   D(10,11,12,13)          0.4172         estimate D2E/DX2                !
 ! D47   D(10,11,12,26)       -179.6461         estimate D2E/DX2                !
 ! D48   D(25,11,12,13)        179.7867         estimate D2E/DX2                !
 ! D49   D(25,11,12,26)         -0.2766         estimate D2E/DX2                !
 ! D50   D(11,12,13,14)          0.2536         estimate D2E/DX2                !
 ! D51   D(11,12,13,27)        179.6293         estimate D2E/DX2                !
 ! D52   D(26,12,13,14)       -179.6831         estimate D2E/DX2                !
 ! D53   D(26,12,13,27)         -0.3074         estimate D2E/DX2                !
 ! D54   D(12,13,14,9)          -0.6897         estimate D2E/DX2                !
 ! D55   D(12,13,14,28)        178.5702         estimate D2E/DX2                !
 ! D56   D(27,13,14,9)         179.9281         estimate D2E/DX2                !
 ! D57   D(27,13,14,28)         -0.812          estimate D2E/DX2                !
 ! D58   D(2,15,16,17)        -178.8378         estimate D2E/DX2                !
 ! D59   D(2,15,16,29)           1.0778         estimate D2E/DX2                !
 ! D60   D(20,15,16,17)         -0.3109         estimate D2E/DX2                !
 ! D61   D(20,15,16,29)        179.6046         estimate D2E/DX2                !
 ! D62   D(2,15,20,19)         178.8177         estimate D2E/DX2                !
 ! D63   D(2,15,20,33)          -0.9931         estimate D2E/DX2                !
 ! D64   D(16,15,20,19)          0.2877         estimate D2E/DX2                !
 ! D65   D(16,15,20,33)       -179.5232         estimate D2E/DX2                !
 ! D66   D(15,16,17,18)          0.125          estimate D2E/DX2                !
 ! D67   D(15,16,17,30)        179.9916         estimate D2E/DX2                !
 ! D68   D(29,16,17,18)       -179.7903         estimate D2E/DX2                !
 ! D69   D(29,16,17,30)          0.0762         estimate D2E/DX2                !
 ! D70   D(16,17,18,19)          0.0755         estimate D2E/DX2                !
 ! D71   D(16,17,18,31)       -179.984          estimate D2E/DX2                !
 ! D72   D(30,17,18,19)       -179.7904         estimate D2E/DX2                !
 ! D73   D(30,17,18,31)          0.1501         estimate D2E/DX2                !
 ! D74   D(17,18,19,20)         -0.0993         estimate D2E/DX2                !
 ! D75   D(17,18,19,32)        179.8454         estimate D2E/DX2                !
 ! D76   D(31,18,19,20)        179.9603         estimate D2E/DX2                !
 ! D77   D(31,18,19,32)         -0.0951         estimate D2E/DX2                !
 ! D78   D(18,19,20,15)         -0.0788         estimate D2E/DX2                !
 ! D79   D(18,19,20,33)        179.7287         estimate D2E/DX2                !
 ! D80   D(32,19,20,15)        179.9762         estimate D2E/DX2                !
 ! D81   D(32,19,20,33)         -0.2164         estimate D2E/DX2                !
 --------------------------------------------------------------------------------
 Trust Radius=3.00D-01 FncErr=1.00D-07 GrdErr=1.00D-06 EigMax=2.50D+02 EigMin=1.00D-04
 Number of steps in this run=    182 maximum allowed number of steps=    198.
 GradGradGradGradGradGradGradGradGradGradGradGradGradGradGradGradGradGrad

 Leave Link  103 at Thu Sep 24 14:39:38 2020, MaxMem=  2147483648 cpu:               0.0 elap:               0.0
 (Enter /prod/apps/gaussian/g16b1/l202.exe)
                          Input orientation:                          
 ---------------------------------------------------------------------
 Center     Atomic      Atomic             Coordinates (Angstroms)
 Number     Number       Type             X           Y           Z
 ---------------------------------------------------------------------
      1          8           0        1.998000   -1.571000    1.605000
      2         16           0        2.539000   -1.250000    0.275000
      3          7           0        1.400000   -1.578000   -0.955000
      4          6           0        0.031000   -1.462000   -0.651000
      5          7           0       -0.748000   -2.533000   -0.334000
      6          7           0       -1.972000   -2.119000   -0.138000
      7          6           0       -0.748000   -0.324000   -0.638000
      8          7           0       -1.981000   -0.774000   -0.300000
      9          6           0       -3.185000   -0.029000   -0.132000
     10          6           0       -4.190000   -0.538000    0.694000
     11          6           0       -5.368000    0.190000    0.854000
     12          6           0       -5.535000    1.417000    0.208000
     13          6           0       -4.520000    1.914000   -0.610000
     14          6           0       -3.341000    1.192000   -0.792000
     15          6           0        2.741000    0.520000    0.178000
     16          6           0        3.349000    1.075000   -0.952000
     17          6           0        3.524000    2.455000   -1.007000
     18          6           0        3.098000    3.259000    0.055000
     19          6           0        2.497000    2.689000    1.177000
     20          6           0        2.314000    1.307000    1.247000
     21          8           0        3.766000   -1.916000   -0.189000
     22          1           0        1.644000   -2.479000   -1.374000
     23          1           0       -0.521000    0.713000   -0.813000
     24          1           0       -4.041000   -1.483000    1.199000
     25          1           0       -6.151000   -0.201000    1.494000
     26          1           0       -6.451000    1.981000    0.341000
     27          1           0       -4.644000    2.863000   -1.120000
     28          1           0       -2.562000    1.566000   -1.445000
     29          1           0        3.678000    0.442000   -1.767000
     30          1           0        3.994000    2.903000   -1.876000
     31          1           0        3.237000    4.334000    0.006000
     32          1           0        2.170000    3.315000    2.000000
     33          1           0        1.854000    0.840000    2.109000
 ---------------------------------------------------------------------
                    Distance matrix (angstroms):
                    1          2          3          4          5
     1  O    0.000000
     2  S    1.471265   0.000000
     3  N    2.628926   1.708158   0.000000
     4  C    2.995080   2.681881   1.407136   0.000000
     5  N    3.496524   3.580690   2.431372   1.361753   0.000000
     6  N    4.370269   4.612467   3.511489   2.169522   1.306900
     7  C    3.758533   3.534885   2.507371   1.379150   2.229820
     8  N    4.482932   4.581223   3.536467   2.155154   2.148378
     9  C    5.679650   5.866913   4.909069   3.558863   3.499970
    10  C    6.339429   6.779524   5.920211   4.525444   4.109036
    11  C    7.610721   8.057884   7.225242   5.843229   5.492766
    12  C    8.223493   8.503344   7.643090   6.325099   6.229898
    13  C    7.715943   7.786116   6.881823   5.666627   5.837805
    14  C    6.471839   6.455715   5.493319   4.293481   4.561692
    15  C    2.638306   1.784128   2.735612   3.458275   4.664341
    16  C    3.919792   2.750864   3.291963   4.187612   5.494087
    17  C    5.035861   4.042372   4.558417   5.260292   6.601747
    18  C    5.190511   4.548842   5.224928   5.673867   6.963498
    19  C    4.310427   4.041174   4.894499   5.162707   6.331069
    20  C    2.917345   2.744751   3.742649   4.059785   5.159555
    21  O    2.542299   1.471184   2.509772   3.790750   4.558279
    22  H    3.134361   2.242915   1.023180   2.039310   2.608866
    23  H    4.172378   3.794827   2.993173   2.249794   3.288995
    24  H    6.053272   6.648644   5.852625   4.472597   3.781063
    25  H    8.264104   8.837560   8.056757   6.663953   6.162160
    26  H    9.252027   9.553210   8.716897   7.406392   7.304521
    27  H    8.438136   8.393943   7.501976   6.386017   6.701748
    28  H    6.319562   6.075233   5.081563   4.064833   4.618086
    29  H    4.271411   2.886165   3.151036   4.262779   5.522100
    30  H    6.009830   4.898085   5.258939   6.021563   7.376613
    31  H    6.241870   5.633882   6.264969   6.656103   7.946793
    32  H    4.904957   4.893977   5.767701   5.867099   6.939840
    33  H    2.467321   2.863718   3.929496   4.029905   4.910782
                    6          7          8          9         10
     6  N    0.000000
     7  C    2.229395   0.000000
     8  N    1.354751   1.355372   0.000000
     9  C    2.416507   2.506398   1.425786   0.000000
    10  C    2.848036   3.696943   2.433806   1.396919   0.000000
    11  C    4.224732   4.882075   3.705777   2.405337   1.394011
    12  C    5.031698   5.163542   4.205884   2.780111   2.422240
    13  C    4.793764   4.386047   3.710521   2.405402   2.796716
    14  C    3.642060   3.007594   2.440660   1.396702   2.433495
    15  C    5.410781   3.681211   4.919370   5.959444   7.030248
    16  C    6.259175   4.340646   5.679155   6.677153   7.883375
    17  C    7.202961   5.109695   6.421161   7.207396   8.447322
    18  C    7.393581   5.301873   6.495179   7.093800   8.242601
    19  C    6.694628   4.785647   5.850332   6.433205   7.440617
    20  C    5.659107   3.948320   5.017050   5.824563   6.783204
    21  O    5.741816   4.807521   5.860418   7.202806   8.122593
    22  H    3.838327   3.302633   4.147424   5.555565   6.486884
    23  H    3.252883   1.075882   2.146145   2.848021   4.159040
    24  H    2.544175   3.944832   2.644481   2.149049   1.081781
    25  H    4.879159   5.809730   4.575551   3.386830   2.144549
    26  H    6.091049   6.228617   5.289783   3.864012   3.403247
    27  H    5.737964   5.056492   4.581674   3.386516   3.881174
    28  H    3.954184   2.741158   2.669117   2.157805   3.413579
    29  H    6.413647   4.631509   5.971183   7.070773   8.301948
    30  H    7.989636   5.867941   7.190600   7.948346   9.242469
    31  H    8.294313   6.163759   7.308408   7.765108   8.908987
    32  H    7.159299   5.358739   6.264242   6.663617   7.549890
    33  H    5.333195   3.958700   4.807858   5.582899   6.358541
                   11         12         13         14         15
    11  C    0.000000
    12  C    1.396687   0.000000
    13  C    2.415487   1.395119   0.000000
    14  C    2.796793   2.421624   1.394435   0.000000
    15  C    8.143817   8.324523   7.435476   6.195418   0.000000
    16  C    8.946002   8.965937   7.920988   6.692936   1.398066
    17  C    9.362757   9.198867   8.071941   6.983525   2.400321
    18  C    9.040482   8.828650   7.764353   6.815469   2.764905
    19  C    8.258787   8.189626   7.282327   6.340364   2.400437
    20  C    7.772726   7.918234   7.107774   6.012468   1.394439
    21  O    9.431492   9.888129   9.138049   7.780278   2.668222
    22  H    7.826601   8.319831   7.607696   6.218134   3.550509
    23  H    5.152264   5.165100   4.180384   2.860469   3.414670
    24  H    2.163073   3.409416   3.878341   3.407302   7.144926
    25  H    1.084237   2.156659   3.400030   3.881024   9.017725
    26  H    2.154934   1.083901   2.153521   3.402692   9.308811
    27  H    3.400850   2.156010   1.084471   2.144209   7.855742
    28  H    3.879744   3.404899   2.156871   1.083109   5.643585
    29  H    9.421426   9.472625   8.409081   7.125973   2.160342
    30  H   10.122268   9.866767   8.664241   7.609520   3.386387
    31  H    9.588423   9.246495   8.149043   7.333420   3.849961
    32  H    8.240169   8.135152   7.316488   6.532497   3.384930
    33  H    7.358995   7.651408   7.012440   5.960514   2.148937
                   16         17         18         19         20
    16  C    0.000000
    17  C    1.392139   0.000000
    18  C    2.418038   1.398476   0.000000
    19  C    2.804201   2.424735   1.394627   0.000000
    20  C    2.441444   2.804019   2.417814   1.395820   0.000000
    21  O    3.114826   4.453463   5.223637   4.968133   3.815512
    22  H    3.964344   5.292773   6.089401   5.826099   4.653207
    23  H    3.889378   4.408427   4.509180   4.119830   3.554386
    24  H    8.110627   8.809285   8.646422   7.755741   6.940636
    25  H    9.892477  10.339969   9.979295   9.123623   8.601819
    26  H    9.926363  10.076825   9.638386   9.014814   8.837440
    27  H    8.192266   8.178964   7.840664   7.503357   7.512496
    28  H    5.951811   6.166163   6.095232   5.807710   5.575780
    29  H    1.083123   2.157194   3.404640   3.887275   3.419491
    30  H    2.147414   1.084788   2.158313   3.406995   3.888797
    31  H    3.398733   2.153875   1.085056   2.150550   3.399226
    32  H    3.888695   3.408074   2.155770   1.084497   2.149374
    33  H    3.414670   3.886719   3.408521   2.168150   1.082928
                   21         22         23         24         25
    21  O    0.000000
    22  H    2.494810   0.000000
    23  H    5.067483   3.897539   0.000000
    24  H    7.941239   6.319143   4.610961   0.000000
    25  H   10.203950   8.612592   6.152605   2.486493   0.000000
    26  H   10.947812   9.400098   6.172879   4.306223   2.486068
    27  H    9.717700   8.254721   4.660030   4.962770   4.300249
    28  H    7.331128   5.835881   2.300590   4.298206   4.963963
    29  H    2.838660   3.581040   4.314529   8.490332  10.375780
    30  H    5.110843   5.894101   5.129454   9.656803  11.131610
    31  H    6.275378   7.131551   5.282515   9.393084  10.531615
    32  H    5.890866   6.725399   4.682398   7.889165   9.047504
    33  H    4.065967   4.815719   3.767604   6.401207   8.095797
                   26         27         28         29         30
    26  H    0.000000
    27  H    2.485497   0.000000
    28  H    4.299575   2.474380   0.000000
    29  H   10.459867   8.691118   6.348595   0.000000
    30  H   10.717425   8.671112   6.704809   2.483598   0.000000
    31  H    9.975278   8.095794   6.587536   4.299497   2.482485
    32  H    8.879948   7.507949   6.108916   4.971768   4.303498
    33  H    8.567423   7.532793   5.714810   4.302180   4.971498
                   31         32         33
    31  H    0.000000
    32  H    2.480501   0.000000
    33  H    4.306197   2.497471   0.000000
 Symmetry turned off by external request.
 Stoichiometry    C14H12N4O2S
 Framework group  C1[X(C14H12N4O2S)]
 Deg. of freedom    93
 Full point group                 C1      NOp   1
 Rotational constants (GHZ):           0.4918930           0.1652453           0.1357103
 Leave Link  202 at Thu Sep 24 14:39:38 2020, MaxMem=  2147483648 cpu:               0.0 elap:               0.0
 (Enter /prod/apps/gaussian/g16b1/l301.exe)
 Standard basis: 6-31G(d) (6D, 7F)
 Ernie: Thresh=  0.10000D-02 Tol=  0.10000D-05 Strict=F.
   343 basis functions,   660 primitive gaussians,   343 cartesian basis functions
    78 alpha electrons       78 beta electrons
       nuclear repulsion energy      1731.4927801238 Hartrees.
 IExCor=  402 DFT=T Ex+Corr=B3LYP ExCW=0 ScaHFX=  0.200000
 ScaDFX=  0.800000  0.720000  1.000000  0.810000 ScalE2=  1.000000  1.000000
 IRadAn=      5 IRanWt=     -1 IRanGd=            0 ICorTp=0 IEmpDi=  4
 NAtoms=   33 NActive=   33 NUniq=   33 SFac= 1.00D+00 NAtFMM=   60 NAOKFM=F Big=F
 Integral buffers will be    131072 words long.
 Raffenetti 2 integral format.
 Two-electron integral symmetry is turned off.
 Using the following non-standard input for PCM:
 MSTModel=DFT cav
 --- end of non-standard input.
 MST model for solvation energy: B3LYP parametrization.
 MST cavity parameters:
 ISph   IAn     Re0     Alpha   Atom Type   QCorr
 ------------------------------------------------
   1      8     1.40     1.25      O          F
   2     16     1.75     1.25      S          F
   3      7     1.50     1.25      NH         F
   4      6     1.50     1.25      C          F
   5      7     1.40     1.25      N          F
   6      7     1.40     1.25      N          F
   7      6     1.50     1.25      CH         F
   8      7     1.40     1.25      N          F
   9      6     1.50     1.25      C          F
  10      6     1.50     1.25      CH         F
  11      6     1.50     1.25      CH         F
  12      6     1.50     1.25      CH         F
  13      6     1.50     1.25      CH         F
  14      6     1.50     1.25      CH         F
  15      6     1.50     1.25      C          F
  16      6     1.50     1.25      CH         F
  17      6     1.50     1.25      CH         F
  18      6     1.50     1.25      CH         F
  19      6     1.50     1.25      CH         F
  20      6     1.50     1.25      CH         F
  21      8     1.40     1.25      O          F
  22      1     0.90     1.25      NH         F
  23      1     1.20     1.25      CH         F
  24      1     1.20     1.25      CH         F
  25      1     1.20     1.25      CH         F
  26      1     1.20     1.25      CH         F
  27      1     1.20     1.25      CH         F
  28      1     1.20     1.25      CH         F
  29      1     1.20     1.25      CH         F
  30      1     1.20     1.25      CH         F
  31      1     1.20     1.25      CH         F
  32      1     1.20     1.25      CH         F
  33      1     1.20     1.25      CH         F
 ------------------------------------------------------------------------------
 Polarizable Continuum Model (PCM)
 =================================
 Model                : PCM.
 Atomic radii         : MST.
 Polarization charges : Total charges.
 Charge compensation  : None.
 Solution method      : On-the-fly selection.
 Cavity type          : Scaled VdW (van der Waals Surface) (Alpha=1.250).
 Cavity algorithm     : GePol (No added spheres)
                        Default sphere list used, NSphG=   33.
                        Lebedev-Laikov grids with approx.  5.0 points / Ang**2.
                        Smoothing algorithm: York/Karplus (Gamma=1.0000).
                        Polarization charges: spherical gaussians, with
                                              point-specific exponents (IZeta= 3).
                        Self-potential: point-specific (ISelfS= 7).
                        Self-field    : sphere-specific E.n sum rule (ISelfD= 2).
 1st derivatives      : Analytical E(r).r(x)/FMM algorithm (CHGder, D1EAlg=3).
                        Cavity 1st derivative terms included.
 Solvent              : Water, Eps=  78.355300 Eps(inf)=   1.777849
 ------------------------------------------------------------------------------
 GePol: Number of generator spheres                  =      33
 GePol: Total number of spheres                      =      33
 GePol: Number of exposed spheres                    =      33 (100.00%)
 GePol: Number of points                             =    2658
 GePol: Average weight of points                     =       0.13
 GePol: Minimum weight of points                     =   0.38D-09
 GePol: Maximum weight of points                     =    0.22001
 GePol: Number of points with low weight             =     161
 GePol: Fraction of low-weight points (<1% of avg)   =       6.06%
 GePol: Cavity surface area                          =    340.378 Ang**2
 GePol: Cavity volume                                =    322.005 Ang**3
 PCM non-electrostatic energy =         0.0030193940 Hartrees.
 Nuclear repulsion after PCM non-electrostatic terms =     1731.4957995178 Hartrees.
 Leave Link  301 at Thu Sep 24 14:39:38 2020, MaxMem=  2147483648 cpu:               0.3 elap:               0.1
 (Enter /prod/apps/gaussian/g16b1/l302.exe)
 NPDir=0 NMtPBC=     1 NCelOv=     1 NCel=       1 NClECP=     1 NCelD=      1
         NCelK=      1 NCelE2=     1 NClLst=     1 CellRange=     0.0.
 One-electron integrals computed using PRISM.
 NBasis=   343 RedAO= T EigKep=  4.69D-04  NBF=   343
 NBsUse=   343 1.00D-06 EigRej= -1.00D+00 NBFU=   343
 Precomputing XC quadrature grid using
 IXCGrd= 4 IRadAn=           5 IRanWt=          -1 IRanGd=           0 AccXCQ= 0.00D+00.
 Generated NRdTot=       0 NPtTot=           0 NUsed=           0 NTot=          32
 NSgBfM=   341   341   341   341   341 MxSgAt=    33 MxSgA2=    33.
 Leave Link  302 at Thu Sep 24 14:39:39 2020, MaxMem=  2147483648 cpu:               1.7 elap:               0.4
 (Enter /prod/apps/gaussian/g16b1/l303.exe)
 DipDrv:  MaxL=1.
 Leave Link  303 at Thu Sep 24 14:39:39 2020, MaxMem=  2147483648 cpu:               0.2 elap:               0.0
 (Enter /prod/apps/gaussian/g16b1/l401.exe)
 ExpMin= 1.17D-01 ExpMax= 2.19D+04 ExpMxC= 3.30D+03 IAcc=3 IRadAn=         5 AccDes= 0.00D+00
 Harris functional with IExCor=  402 and IRadAn=       5 diagonalized for initial guess.
 HarFok:  IExCor=  402 AccDes= 0.00D+00 IRadAn=         5 IDoV= 1 UseB2=F ITyADJ=14
 ICtDFT=  3500011 ScaDFX=  1.000000  1.000000  1.000000  1.000000
 FoFCou: FMM=F IPFlag=           0 FMFlag=      100000 FMFlg1=           0
         NFxFlg=           0 DoJE=T BraDBF=F KetDBF=T FulRan=T
         wScrn=  0.000000 ICntrl=       500 IOpCl=  0 I1Cent=   200000004 NGrid=           0
         NMat0=    1 NMatS0=      1 NMatT0=    0 NMatD0=    1 NMtDS0=    0 NMtDT0=    0
 Symmetry not used in FoFCou.
 Harris En= -1308.24321349109    
 JPrj=0 DoOrth=F DoCkMO=F.
 Leave Link  401 at Thu Sep 24 14:39:41 2020, MaxMem=  2147483648 cpu:               9.4 elap:               2.4
 (Enter /prod/apps/gaussian/g16b1/l502.exe)
 Two-electron integral symmetry not used.
 Closed shell SCF:
 Using DIIS extrapolation, IDIIS=  1040.
 NGot=  2147483648 LenX=  2147243388 LenY=  2147125298
 Requested convergence on RMS density matrix=1.00D-08 within2000 cycles.
 Requested convergence on MAX density matrix=1.00D-06.
 Requested convergence on             energy=1.00D-06.
 No special actions if energy rises.

 Cycle   1  Pass 1  IDiag  1:
 FoFJK:  IHMeth= 1 ICntrl=       0 DoSepK=F KAlg= 0 I1Cent=           0 FoldK=F
 IRaf= 740000000 NMat=       1 IRICut=       1 DoRegI=T DoRafI=F ISym2E= 0 IDoP0=0 IntGTp=1.
 FoFCou: FMM=F IPFlag=           0 FMFlag=      100000 FMFlg1=           0
         NFxFlg=           0 DoJE=F BraDBF=F KetDBF=F FulRan=T
         wScrn=  0.000000 ICntrl=         0 IOpCl=  0 I1Cent=           0 NGrid=           0
         NMat0=    1 NMatS0=      1 NMatT0=    0 NMatD0=    1 NMtDS0=    0 NMtDT0=    0
 Symmetry not used in FoFCou.
 Inv3:  Mode=1 IEnd=    21194892.
 Iteration    1 A*A^-1 deviation from unit magnitude is 3.89D-15 for   1098.
 Iteration    1 A*A^-1 deviation from orthogonality  is 3.13D-15 for   1858    115.
 Iteration    1 A^-1*A deviation from unit magnitude is 3.66D-15 for   1098.
 Iteration    1 A^-1*A deviation from orthogonality  is 1.45D-11 for   1875   1821.
 E= -1307.69588998963    
 DIIS: error= 2.87D-02 at cycle   1 NSaved=   1.
 NSaved= 1 IEnMin= 1 EnMin= -1307.69588998963     IErMin= 1 ErrMin= 2.87D-02
 ErrMax= 2.87D-02  0.00D+00 EMaxC= 1.00D-01 BMatC= 6.46D-01 BMatP= 6.46D-01
 IDIUse=3 WtCom= 7.13D-01 WtEn= 2.87D-01
 Coeff-Com:  0.100D+01
 Coeff-En:   0.100D+01
 Coeff:      0.100D+01
 Gap=     0.266 Goal=   None    Shift=    0.000
 GapD=    0.266 DampG=1.000 DampE=0.500 DampFc=0.5000 IDamp=-1.
 Damping current iteration by 5.00D-01
 RMSDP=5.78D-03 MaxDP=5.68D-01              OVMax= 2.28D-01

 Cycle   2  Pass 1  IDiag  1:
 E= -1307.85098394122     Delta-E=       -0.155093951592 Rises=F Damp=T
 DIIS: error= 1.14D-02 at cycle   2 NSaved=   2.
 NSaved= 2 IEnMin= 2 EnMin= -1307.85098394122     IErMin= 2 ErrMin= 1.14D-02
 ErrMax= 1.14D-02  0.00D+00 EMaxC= 1.00D-01 BMatC= 9.78D-02 BMatP= 6.46D-01
 IDIUse=3 WtCom= 8.86D-01 WtEn= 1.14D-01
 Coeff-Com:  0.218D+00 0.782D+00
 Coeff-En:   0.347D+00 0.653D+00
 Coeff:      0.233D+00 0.767D+00
 Gap=     0.220 Goal=   None    Shift=    0.000
 RMSDP=1.69D-03 MaxDP=1.30D-01 DE=-1.55D-01 OVMax= 1.72D-01

 Cycle   3  Pass 1  IDiag  1:
 E= -1308.22642033474     Delta-E=       -0.375436393521 Rises=F Damp=F
 DIIS: error= 6.76D-03 at cycle   3 NSaved=   3.
 NSaved= 3 IEnMin= 3 EnMin= -1308.22642033474     IErMin= 3 ErrMin= 6.76D-03
 ErrMax= 6.76D-03  0.00D+00 EMaxC= 1.00D-01 BMatC= 4.84D-02 BMatP= 9.78D-02
 IDIUse=3 WtCom= 9.32D-01 WtEn= 6.76D-02
 Coeff-Com:  0.545D-01 0.411D+00 0.534D+00
 Coeff-En:   0.000D+00 0.000D+00 0.100D+01
 Coeff:      0.508D-01 0.384D+00 0.566D+00
 Gap=     0.201 Goal=   None    Shift=    0.000
 RMSDP=8.69D-04 MaxDP=3.19D-02 DE=-3.75D-01 OVMax= 4.35D-02

 Cycle   4  Pass 1  IDiag  1:
 E= -1308.26422583182     Delta-E=       -0.037805497080 Rises=F Damp=F
 DIIS: error= 2.62D-03 at cycle   4 NSaved=   4.
 NSaved= 4 IEnMin= 4 EnMin= -1308.26422583182     IErMin= 4 ErrMin= 2.62D-03
 ErrMax= 2.62D-03  0.00D+00 EMaxC= 1.00D-01 BMatC= 7.09D-03 BMatP= 4.84D-02
 IDIUse=3 WtCom= 9.74D-01 WtEn= 2.62D-02
 Coeff-Com:  0.880D-03 0.942D-01 0.302D+00 0.603D+00
 Coeff-En:   0.000D+00 0.000D+00 0.107D+00 0.893D+00
 Coeff:      0.857D-03 0.917D-01 0.297D+00 0.611D+00
 Gap=     0.200 Goal=   None    Shift=    0.000
 RMSDP=2.87D-04 MaxDP=1.48D-02 DE=-3.78D-02 OVMax= 1.65D-02

 Cycle   5  Pass 1  IDiag  1:
 E= -1308.27003126529     Delta-E=       -0.005805433468 Rises=F Damp=F
 DIIS: error= 6.50D-04 at cycle   5 NSaved=   5.
 NSaved= 5 IEnMin= 5 EnMin= -1308.27003126529     IErMin= 5 ErrMin= 6.50D-04
 ErrMax= 6.50D-04  0.00D+00 EMaxC= 1.00D-01 BMatC= 5.80D-04 BMatP= 7.09D-03
 IDIUse=3 WtCom= 9.93D-01 WtEn= 6.50D-03
 Coeff-Com: -0.386D-02 0.183D-01 0.110D+00 0.317D+00 0.559D+00
 Coeff-En:   0.000D+00 0.000D+00 0.000D+00 0.000D+00 0.100D+01
 Coeff:     -0.383D-02 0.182D-01 0.109D+00 0.315D+00 0.561D+00
 Gap=     0.199 Goal=   None    Shift=    0.000
 RMSDP=8.69D-05 MaxDP=4.11D-03 DE=-5.81D-03 OVMax= 6.47D-03

 Cycle   6  Pass 1  IDiag  1:
 E= -1308.27052071511     Delta-E=       -0.000489449826 Rises=F Damp=F
 DIIS: error= 3.33D-04 at cycle   6 NSaved=   6.
 NSaved= 6 IEnMin= 6 EnMin= -1308.27052071511     IErMin= 6 ErrMin= 3.33D-04
 ErrMax= 3.33D-04  0.00D+00 EMaxC= 1.00D-01 BMatC= 5.38D-05 BMatP= 5.80D-04
 IDIUse=3 WtCom= 9.97D-01 WtEn= 3.33D-03
 Coeff-Com: -0.218D-02 0.416D-02 0.386D-01 0.127D+00 0.309D+00 0.524D+00
 Coeff-En:   0.000D+00 0.000D+00 0.000D+00 0.000D+00 0.343D-02 0.997D+00
 Coeff:     -0.217D-02 0.415D-02 0.384D-01 0.126D+00 0.308D+00 0.526D+00
 Gap=     0.199 Goal=   None    Shift=    0.000
 RMSDP=2.59D-05 MaxDP=1.24D-03 DE=-4.89D-04 OVMax= 1.97D-03

 Cycle   7  Pass 1  IDiag  1:
 E= -1308.27056804650     Delta-E=       -0.000047331385 Rises=F Damp=F
 DIIS: error= 1.20D-04 at cycle   7 NSaved=   7.
 NSaved= 7 IEnMin= 7 EnMin= -1308.27056804650     IErMin= 7 ErrMin= 1.20D-04
 ErrMax= 1.20D-04  0.00D+00 EMaxC= 1.00D-01 BMatC= 5.01D-06 BMatP= 5.38D-05
 IDIUse=3 WtCom= 9.99D-01 WtEn= 1.20D-03
 Coeff-Com: -0.988D-03 0.653D-03 0.125D-01 0.456D-01 0.130D+00 0.300D+00
 Coeff-Com:  0.512D+00
 Coeff-En:   0.000D+00 0.000D+00 0.000D+00 0.000D+00 0.000D+00 0.000D+00
 Coeff-En:   0.100D+01
 Coeff:     -0.986D-03 0.653D-03 0.125D-01 0.455D-01 0.130D+00 0.300D+00
 Coeff:      0.513D+00
 Gap=     0.199 Goal=   None    Shift=    0.000
 RMSDP=7.32D-06 MaxDP=4.61D-04 DE=-4.73D-05 OVMax= 5.20D-04

 Cycle   8  Pass 1  IDiag  1:
 E= -1308.27057197061     Delta-E=       -0.000003924114 Rises=F Damp=F
 DIIS: error= 3.86D-05 at cycle   8 NSaved=   8.
 NSaved= 8 IEnMin= 8 EnMin= -1308.27057197061     IErMin= 8 ErrMin= 3.86D-05
 ErrMax= 3.86D-05  0.00D+00 EMaxC= 1.00D-01 BMatC= 5.40D-07 BMatP= 5.01D-06
 IDIUse=1 WtCom= 1.00D+00 WtEn= 0.00D+00
 Coeff-Com: -0.291D-03-0.124D-03 0.222D-02 0.988D-02 0.354D-01 0.107D+00
 Coeff-Com:  0.291D+00 0.556D+00
 Coeff:     -0.291D-03-0.124D-03 0.222D-02 0.988D-02 0.354D-01 0.107D+00
 Coeff:      0.291D+00 0.556D+00
 Gap=     0.199 Goal=   None    Shift=    0.000
 RMSDP=2.38D-06 MaxDP=1.42D-04 DE=-3.92D-06 OVMax= 1.85D-04

 Cycle   9  Pass 1  IDiag  1:
 E= -1308.27057238429     Delta-E=       -0.000000413674 Rises=F Damp=F
 DIIS: error= 7.52D-06 at cycle   9 NSaved=   9.
 NSaved= 9 IEnMin= 9 EnMin= -1308.27057238429     IErMin= 9 ErrMin= 7.52D-06
 ErrMax= 7.52D-06  0.00D+00 EMaxC= 1.00D-01 BMatC= 4.68D-08 BMatP= 5.40D-07
 IDIUse=1 WtCom= 1.00D+00 WtEn= 0.00D+00
 Coeff-Com: -0.186D-04-0.140D-03-0.491D-03-0.974D-03 0.790D-03 0.138D-01
 Coeff-Com:  0.758D-01 0.281D+00 0.630D+00
 Coeff:     -0.186D-04-0.140D-03-0.491D-03-0.974D-03 0.790D-03 0.138D-01
 Coeff:      0.758D-01 0.281D+00 0.630D+00
 Gap=     0.199 Goal=   None    Shift=    0.000
 RMSDP=6.93D-07 MaxDP=4.55D-05 DE=-4.14D-07 OVMax= 4.74D-05

 Cycle  10  Pass 1  IDiag  1:
 E= -1308.27057242081     Delta-E=       -0.000000036521 Rises=F Damp=F
 DIIS: error= 2.05D-06 at cycle  10 NSaved=  10.
 NSaved=10 IEnMin=10 EnMin= -1308.27057242081     IErMin=10 ErrMin= 2.05D-06
 ErrMax= 2.05D-06  0.00D+00 EMaxC= 1.00D-01 BMatC= 4.31D-09 BMatP= 4.68D-08
 IDIUse=1 WtCom= 1.00D+00 WtEn= 0.00D+00
 Coeff-Com:  0.570D-05-0.628D-04-0.381D-03-0.109D-02-0.162D-02 0.152D-02
 Coeff-Com:  0.244D-01 0.123D+00 0.337D+00 0.517D+00
 Coeff:      0.570D-05-0.628D-04-0.381D-03-0.109D-02-0.162D-02 0.152D-02
 Coeff:      0.244D-01 0.123D+00 0.337D+00 0.517D+00
 Gap=     0.199 Goal=   None    Shift=    0.000
 RMSDP=2.30D-07 MaxDP=1.39D-05 DE=-3.65D-08 OVMax= 2.36D-05

 Cycle  11  Pass 1  IDiag  1:
 E= -1308.27057242437     Delta-E=       -0.000000003562 Rises=F Damp=F
 DIIS: error= 6.36D-07 at cycle  11 NSaved=  11.
 NSaved=11 IEnMin=11 EnMin= -1308.27057242437     IErMin=11 ErrMin= 6.36D-07
 ErrMax= 6.36D-07  0.00D+00 EMaxC= 1.00D-01 BMatC= 3.85D-10 BMatP= 4.31D-09
 IDIUse=1 WtCom= 1.00D+00 WtEn= 0.00D+00
 Coeff-Com:  0.473D-05-0.127D-04-0.123D-03-0.399D-03-0.909D-03-0.106D-02
 Coeff-Com:  0.169D-02 0.239D-01 0.764D-01 0.258D+00 0.643D+00
 Coeff:      0.473D-05-0.127D-04-0.123D-03-0.399D-03-0.909D-03-0.106D-02
 Coeff:      0.169D-02 0.239D-01 0.764D-01 0.258D+00 0.643D+00
 Gap=     0.199 Goal=   None    Shift=    0.000
 RMSDP=7.40D-08 MaxDP=4.83D-06 DE=-3.56D-09 OVMax= 7.67D-06

 Cycle  12  Pass 1  IDiag  1:
 E= -1308.27057242465     Delta-E=       -0.000000000283 Rises=F Damp=F
 DIIS: error= 3.18D-07 at cycle  12 NSaved=  12.
 NSaved=12 IEnMin=12 EnMin= -1308.27057242465     IErMin=12 ErrMin= 3.18D-07
 ErrMax= 3.18D-07  0.00D+00 EMaxC= 1.00D-01 BMatC= 9.75D-11 BMatP= 3.85D-10
 IDIUse=1 WtCom= 1.00D+00 WtEn= 0.00D+00
 Coeff-Com:  0.262D-05-0.290D-06-0.360D-04-0.136D-03-0.419D-03-0.904D-03
 Coeff-Com: -0.187D-02 0.867D-03 0.760D-02 0.103D+00 0.409D+00 0.482D+00
 Coeff:      0.262D-05-0.290D-06-0.360D-04-0.136D-03-0.419D-03-0.904D-03
 Coeff:     -0.187D-02 0.867D-03 0.760D-02 0.103D+00 0.409D+00 0.482D+00
 Gap=     0.199 Goal=   None    Shift=    0.000
 RMSDP=2.71D-08 MaxDP=2.00D-06 DE=-2.83D-10 OVMax= 2.61D-06

 Cycle  13  Pass 1  IDiag  1:
 E= -1308.27057242474     Delta-E=       -0.000000000090 Rises=F Damp=F
 DIIS: error= 4.88D-08 at cycle  13 NSaved=  13.
 NSaved=13 IEnMin=13 EnMin= -1308.27057242474     IErMin=13 ErrMin= 4.88D-08
 ErrMax= 4.88D-08  0.00D+00 EMaxC= 1.00D-01 BMatC= 2.04D-12 BMatP= 9.75D-11
 IDIUse=1 WtCom= 1.00D+00 WtEn= 0.00D+00
 Coeff-Com:  0.544D-06 0.826D-06-0.138D-05-0.989D-05-0.677D-04-0.242D-03
 Coeff-Com: -0.874D-03-0.202D-02-0.563D-02 0.123D-01 0.861D-01 0.163D+00
 Coeff-Com:  0.748D+00
 Coeff:      0.544D-06 0.826D-06-0.138D-05-0.989D-05-0.677D-04-0.242D-03
 Coeff:     -0.874D-03-0.202D-02-0.563D-02 0.123D-01 0.861D-01 0.163D+00
 Coeff:      0.748D+00
 Gap=     0.199 Goal=   None    Shift=    0.000
 RMSDP=6.65D-09 MaxDP=2.56D-07 DE=-8.96D-11 OVMax= 6.36D-07

 Error on total polarization charges =  0.02269
 SCF Done:  E(RB3LYP) =  -1308.27057242     A.U. after   13 cycles
            NFock= 13  Conv=0.67D-08     -V/T= 2.0077
 KE= 1.298228289459D+03 PE=-6.523862466256D+03 EE= 2.185867804855D+03
 Leave Link  502 at Thu Sep 24 14:41:01 2020, MaxMem=  2147483648 cpu:             320.2 elap:              80.1
 (Enter /prod/apps/gaussian/g16b1/l601.exe)
 Copying SCF densities to generalized density rwf, IOpCl= 0 IROHF=0.

 **********************************************************************

            Population analysis using the SCF Density.

 **********************************************************************

 Alpha  occ. eigenvalues --  -89.12689 -19.16098 -19.15910 -14.44718 -14.40507
 Alpha  occ. eigenvalues --  -14.38251 -14.37209 -10.26298 -10.25143 -10.24482
 Alpha  occ. eigenvalues --  -10.23515 -10.21575 -10.21488 -10.20800 -10.20705
 Alpha  occ. eigenvalues --  -10.20651 -10.20599 -10.20446 -10.20206 -10.20156
 Alpha  occ. eigenvalues --  -10.19912  -8.15259  -6.11756  -6.11690  -6.11530
 Alpha  occ. eigenvalues --   -1.12482  -1.11395  -1.01514  -0.95814  -0.92888
 Alpha  occ. eigenvalues --   -0.87773  -0.86132  -0.81155  -0.78271  -0.76536
 Alpha  occ. eigenvalues --   -0.76387  -0.75878  -0.69110  -0.66473  -0.64754
 Alpha  occ. eigenvalues --   -0.62479  -0.61290  -0.60428  -0.59503  -0.56769
 Alpha  occ. eigenvalues --   -0.54912  -0.52418  -0.51885  -0.49895  -0.49237
 Alpha  occ. eigenvalues --   -0.48857  -0.48156  -0.47458  -0.45811  -0.45520
 Alpha  occ. eigenvalues --   -0.45144  -0.44225  -0.43978  -0.43338  -0.39209
 Alpha  occ. eigenvalues --   -0.38693  -0.38203  -0.37259  -0.37168  -0.36307
 Alpha  occ. eigenvalues --   -0.36025  -0.35128  -0.34619  -0.33136  -0.32718
 Alpha  occ. eigenvalues --   -0.32074  -0.31224  -0.29127  -0.27649  -0.26945
 Alpha  occ. eigenvalues --   -0.26555  -0.26067  -0.24499
 Alpha virt. eigenvalues --   -0.04631  -0.04046  -0.01829  -0.01493   0.00907
 Alpha virt. eigenvalues --    0.02118   0.06259   0.08290   0.08927   0.09025
 Alpha virt. eigenvalues --    0.09946   0.11846   0.12165   0.13622   0.14320
 Alpha virt. eigenvalues --    0.14975   0.15145   0.15516   0.16115   0.16646
 Alpha virt. eigenvalues --    0.17974   0.18478   0.18767   0.19355   0.19798
 Alpha virt. eigenvalues --    0.21671   0.23036   0.24261   0.27010   0.28756
 Alpha virt. eigenvalues --    0.29175   0.29461   0.30038   0.30601   0.31595
 Alpha virt. eigenvalues --    0.33330   0.34018   0.34971   0.35990   0.37356
 Alpha virt. eigenvalues --    0.40827   0.42150   0.43431   0.47649   0.48267
 Alpha virt. eigenvalues --    0.50067   0.50990   0.51735   0.52174   0.52551
 Alpha virt. eigenvalues --    0.53834   0.54649   0.54974   0.55888   0.56208
 Alpha virt. eigenvalues --    0.57414   0.57625   0.57787   0.57934   0.58284
 Alpha virt. eigenvalues --    0.58623   0.58867   0.59904   0.60286   0.60489
 Alpha virt. eigenvalues --    0.60659   0.60907   0.61351   0.62168   0.62534
 Alpha virt. eigenvalues --    0.63270   0.64521   0.64988   0.67295   0.68529
 Alpha virt. eigenvalues --    0.69379   0.69516   0.71554   0.72550   0.74287
 Alpha virt. eigenvalues --    0.76507   0.77321   0.77555   0.78571   0.80499
 Alpha virt. eigenvalues --    0.81411   0.82188   0.82522   0.82983   0.83758
 Alpha virt. eigenvalues --    0.83864   0.84099   0.84336   0.85025   0.85924
 Alpha virt. eigenvalues --    0.86840   0.87886   0.89501   0.89852   0.90520
 Alpha virt. eigenvalues --    0.91237   0.92339   0.93230   0.93324   0.94134
 Alpha virt. eigenvalues --    0.95051   0.96752   0.97602   0.98364   0.99609
 Alpha virt. eigenvalues --    1.00896   1.01975   1.03929   1.04960   1.05827
 Alpha virt. eigenvalues --    1.07616   1.09481   1.10562   1.11171   1.12621
 Alpha virt. eigenvalues --    1.14074   1.14914   1.15745   1.16465   1.16963
 Alpha virt. eigenvalues --    1.17280   1.18803   1.21014   1.23948   1.24141
 Alpha virt. eigenvalues --    1.25172   1.25976   1.28794   1.30909   1.31225
 Alpha virt. eigenvalues --    1.35703   1.37180   1.39809   1.40843   1.41617
 Alpha virt. eigenvalues --    1.42020   1.42124   1.43391   1.44046   1.45509
 Alpha virt. eigenvalues --    1.46006   1.47428   1.47819   1.48900   1.49723
 Alpha virt. eigenvalues --    1.51315   1.52034   1.53403   1.56524   1.58855
 Alpha virt. eigenvalues --    1.62350   1.64578   1.68010   1.71757   1.75373
 Alpha virt. eigenvalues --    1.76547   1.77185   1.79119   1.79612   1.80188
 Alpha virt. eigenvalues --    1.81189   1.83079   1.83404   1.84172   1.85015
 Alpha virt. eigenvalues --    1.86884   1.87709   1.88939   1.89368   1.90562
 Alpha virt. eigenvalues --    1.94041   1.94613   1.96343   1.96745   1.97096
 Alpha virt. eigenvalues --    1.98424   2.03914   2.05057   2.06457   2.07044
 Alpha virt. eigenvalues --    2.08218   2.09389   2.10733   2.11370   2.12749
 Alpha virt. eigenvalues --    2.13034   2.13497   2.13856   2.14138   2.14796
 Alpha virt. eigenvalues --    2.15977   2.18369   2.19586   2.21434   2.23569
 Alpha virt. eigenvalues --    2.24862   2.25614   2.28448   2.28850   2.29103
 Alpha virt. eigenvalues --    2.30283   2.30993   2.32085   2.33040   2.36159
 Alpha virt. eigenvalues --    2.39628   2.48357   2.51018   2.52374   2.53490
 Alpha virt. eigenvalues --    2.56449   2.57510   2.58021   2.58534   2.63051
 Alpha virt. eigenvalues --    2.63183   2.64168   2.65283   2.66787   2.69255
 Alpha virt. eigenvalues --    2.69974   2.70960   2.72141   2.72336   2.74014
 Alpha virt. eigenvalues --    2.74661   2.75408   2.76948   2.79759   2.82484
 Alpha virt. eigenvalues --    2.85589   2.87994   2.99282   3.02381   3.06120
 Alpha virt. eigenvalues --    3.12936   3.25180   3.36948   3.42088   3.60931
 Alpha virt. eigenvalues --    3.77356   3.92325   3.96271   4.02556   4.06578
 Alpha virt. eigenvalues --    4.07445   4.08375   4.10372   4.11043   4.12921
 Alpha virt. eigenvalues --    4.15417   4.17777   4.24497   4.31656   4.31729
 Alpha virt. eigenvalues --    4.35248   4.39498   4.48131   4.65228   4.70872
          Condensed to atoms (all electrons):
               1          2          3          4          5          6
     1  O    8.266705   0.425331  -0.057140   0.011156  -0.000332  -0.000015
     2  S    0.425331  13.661854   0.131151  -0.012279  -0.002708   0.000220
     3  N   -0.057140   0.131151   7.387932   0.263426  -0.070247   0.006641
     4  C    0.011156  -0.012279   0.263426   4.638356   0.382713  -0.086615
     5  N   -0.000332  -0.002708  -0.070247   0.382713   6.904766   0.300715
     6  N   -0.000015   0.000220   0.006641  -0.086615   0.300715   6.769975
     7  C   -0.000904  -0.002498  -0.055422   0.512775  -0.072074  -0.095365
     8  N   -0.000031  -0.000010   0.002434  -0.036396  -0.097787   0.234130
     9  C   -0.000000  -0.000023  -0.000105   0.004809   0.007212  -0.043485
    10  C    0.000000  -0.000000   0.000000  -0.000482   0.000357  -0.000273
    11  C   -0.000000  -0.000000  -0.000000   0.000006  -0.000005   0.000256
    12  C    0.000000  -0.000000  -0.000000   0.000000  -0.000000   0.000018
    13  C   -0.000000  -0.000000   0.000000  -0.000009   0.000002  -0.000067
    14  C   -0.000000  -0.000001   0.000003   0.000919  -0.000369   0.002814
    15  C   -0.059223   0.205257  -0.056617  -0.008177  -0.000002   0.000007
    16  C    0.001679  -0.019499   0.000827   0.000111  -0.000001  -0.000000
    17  C   -0.000045   0.002272  -0.000037  -0.000019  -0.000000   0.000000
    18  C   -0.000004  -0.000297   0.000010   0.000005   0.000000  -0.000000
    19  C    0.000594   0.003587  -0.000113   0.000040   0.000000   0.000000
    20  C    0.002540  -0.030514  -0.000368   0.000081   0.000007   0.000000
    21  O   -0.042389   0.447117  -0.050826   0.001332   0.000010   0.000000
    22  H   -0.000324  -0.009631   0.296296  -0.027966   0.002670  -0.000021
    23  H    0.000004   0.000240  -0.000139  -0.027043   0.004256   0.003471
    24  H    0.000000  -0.000000  -0.000000   0.000031  -0.000316   0.015491
    25  H   -0.000000   0.000000   0.000000  -0.000000   0.000000  -0.000008
    26  H    0.000000  -0.000000  -0.000000  -0.000000   0.000000   0.000000
    27  H   -0.000000   0.000000   0.000000   0.000000  -0.000000   0.000001
    28  H   -0.000000  -0.000002  -0.000002   0.000041  -0.000010  -0.000085
    29  H    0.000062  -0.000103   0.001749   0.000099   0.000000  -0.000000
    30  H    0.000000  -0.000070   0.000000   0.000000  -0.000000  -0.000000
    31  H   -0.000000   0.000008   0.000000  -0.000000   0.000000  -0.000000
    32  H    0.000002  -0.000085   0.000001   0.000000   0.000000  -0.000000
    33  H    0.011335  -0.006147   0.000204  -0.000041  -0.000003   0.000001
               7          8          9         10         11         12
     1  O   -0.000904  -0.000031  -0.000000   0.000000  -0.000000   0.000000
     2  S   -0.002498  -0.000010  -0.000023  -0.000000  -0.000000  -0.000000
     3  N   -0.055422   0.002434  -0.000105   0.000000  -0.000000  -0.000000
     4  C    0.512775  -0.036396   0.004809  -0.000482   0.000006   0.000000
     5  N   -0.072074  -0.097787   0.007212   0.000357  -0.000005  -0.000000
     6  N   -0.095365   0.234130  -0.043485  -0.000273   0.000256   0.000018
     7  C    4.972088   0.339464  -0.033116   0.007366  -0.000086   0.000020
     8  N    0.339464   6.863460   0.202812  -0.059664   0.004574   0.000329
     9  C   -0.033116   0.202812   4.623892   0.513256  -0.010559  -0.038167
    10  C    0.007366  -0.059664   0.513256   4.997901   0.518812  -0.039365
    11  C   -0.000086   0.004574  -0.010559   0.518812   4.880281   0.539116
    12  C    0.000020   0.000329  -0.038167  -0.039365   0.539116   4.870784
    13  C   -0.000021   0.004672  -0.009776  -0.041389  -0.024809   0.543509
    14  C   -0.007096  -0.050100   0.529597  -0.071810  -0.041971  -0.040907
    15  C    0.002957   0.000015  -0.000001   0.000000   0.000000  -0.000000
    16  C    0.000150   0.000002   0.000000   0.000000  -0.000000  -0.000000
    17  C   -0.000006  -0.000000   0.000000   0.000000  -0.000000   0.000000
    18  C   -0.000020  -0.000000   0.000000  -0.000000   0.000000   0.000000
    19  C   -0.000119  -0.000001  -0.000000   0.000000   0.000000  -0.000000
    20  C    0.000273  -0.000014  -0.000001  -0.000000   0.000000  -0.000000
    21  O   -0.000049   0.000000  -0.000000   0.000000  -0.000000  -0.000000
    22  H    0.003328   0.000059  -0.000000  -0.000000  -0.000000   0.000000
    23  H    0.361668  -0.034055  -0.001600  -0.000080  -0.000005  -0.000002
    24  H    0.000250  -0.013354  -0.039734   0.357330  -0.037936   0.004509
    25  H    0.000001  -0.000104   0.003547  -0.037854   0.364014  -0.040032
    26  H   -0.000000   0.000003   0.000470   0.004681  -0.041521   0.366109
    27  H   -0.000004  -0.000108   0.003439   0.000729   0.004436  -0.039614
    28  H    0.005646  -0.009164  -0.038950   0.005207   0.000200   0.004291
    29  H   -0.000007   0.000000   0.000000   0.000000  -0.000000  -0.000000
    30  H   -0.000000  -0.000000  -0.000000   0.000000   0.000000   0.000000
    31  H    0.000000  -0.000000   0.000000  -0.000000   0.000000   0.000000
    32  H   -0.000003   0.000000   0.000000   0.000000   0.000000   0.000000
    33  H   -0.000062   0.000001  -0.000000  -0.000000   0.000000   0.000000
              13         14         15         16         17         18
     1  O   -0.000000  -0.000000  -0.059223   0.001679  -0.000045  -0.000004
     2  S   -0.000000  -0.000001   0.205257  -0.019499   0.002272  -0.000297
     3  N    0.000000   0.000003  -0.056617   0.000827  -0.000037   0.000010
     4  C   -0.000009   0.000919  -0.008177   0.000111  -0.000019   0.000005
     5  N    0.000002  -0.000369  -0.000002  -0.000001  -0.000000   0.000000
     6  N   -0.000067   0.002814   0.000007  -0.000000   0.000000  -0.000000
     7  C   -0.000021  -0.007096   0.002957   0.000150  -0.000006  -0.000020
     8  N    0.004672  -0.050100   0.000015   0.000002  -0.000000  -0.000000
     9  C   -0.009776   0.529597  -0.000001   0.000000   0.000000   0.000000
    10  C   -0.041389  -0.071810   0.000000   0.000000   0.000000  -0.000000
    11  C   -0.024809  -0.041971   0.000000  -0.000000  -0.000000   0.000000
    12  C    0.543509  -0.040907  -0.000000  -0.000000   0.000000   0.000000
    13  C    4.866078   0.526219   0.000000   0.000000   0.000000  -0.000000
    14  C    0.526219   4.990920   0.000001   0.000000   0.000000  -0.000000
    15  C    0.000000   0.000001   5.327418   0.464946  -0.027758  -0.038653
    16  C    0.000000   0.000000   0.464946   4.932947   0.520102  -0.031680
    17  C    0.000000   0.000000  -0.027758   0.520102   4.880013   0.535637
    18  C   -0.000000  -0.000000  -0.038653  -0.031680   0.535637   4.856997
    19  C   -0.000000   0.000000  -0.031340  -0.037665  -0.030401   0.540885
    20  C    0.000000   0.000001   0.511131  -0.033164  -0.038730  -0.031690
    21  O   -0.000000  -0.000000  -0.059943   0.002196   0.000255  -0.000005
    22  H   -0.000000   0.000000   0.002353  -0.000039   0.000003  -0.000000
    23  H    0.000159   0.002088   0.000674   0.000103   0.000032   0.000042
    24  H    0.000089   0.005421  -0.000000  -0.000000  -0.000000   0.000000
    25  H    0.004470   0.000703   0.000000   0.000000  -0.000000  -0.000000
    26  H   -0.041380   0.004879  -0.000000  -0.000000  -0.000000   0.000000
    27  H    0.363632  -0.037746   0.000000  -0.000000   0.000000   0.000000
    28  H   -0.035148   0.354621  -0.000000  -0.000000  -0.000000  -0.000000
    29  H   -0.000000  -0.000000  -0.052028   0.365966  -0.033346   0.004205
    30  H    0.000000  -0.000000   0.004800  -0.040507   0.366851  -0.039940
    31  H   -0.000000  -0.000000   0.000457   0.004855  -0.040830   0.365535
    32  H   -0.000000  -0.000000   0.004763   0.000635   0.004246  -0.040252
    33  H   -0.000000  -0.000000  -0.045802   0.004636   0.000222   0.004221
              19         20         21         22         23         24
     1  O    0.000594   0.002540  -0.042389  -0.000324   0.000004   0.000000
     2  S    0.003587  -0.030514   0.447117  -0.009631   0.000240  -0.000000
     3  N   -0.000113  -0.000368  -0.050826   0.296296  -0.000139  -0.000000
     4  C    0.000040   0.000081   0.001332  -0.027966  -0.027043   0.000031
     5  N    0.000000   0.000007   0.000010   0.002670   0.004256  -0.000316
     6  N    0.000000   0.000000   0.000000  -0.000021   0.003471   0.015491
     7  C   -0.000119   0.000273  -0.000049   0.003328   0.361668   0.000250
     8  N   -0.000001  -0.000014   0.000000   0.000059  -0.034055  -0.013354
     9  C   -0.000000  -0.000001  -0.000000  -0.000000  -0.001600  -0.039734
    10  C    0.000000  -0.000000   0.000000  -0.000000  -0.000080   0.357330
    11  C    0.000000   0.000000  -0.000000  -0.000000  -0.000005  -0.037936
    12  C   -0.000000  -0.000000  -0.000000   0.000000  -0.000002   0.004509
    13  C   -0.000000   0.000000  -0.000000  -0.000000   0.000159   0.000089
    14  C    0.000000   0.000001  -0.000000   0.000000   0.002088   0.005421
    15  C   -0.031340   0.511131  -0.059943   0.002353   0.000674  -0.000000
    16  C   -0.037665  -0.033164   0.002196  -0.000039   0.000103  -0.000000
    17  C   -0.030401  -0.038730   0.000255   0.000003   0.000032  -0.000000
    18  C    0.540885  -0.031690  -0.000005  -0.000000   0.000042   0.000000
    19  C    4.890370   0.504686  -0.000042   0.000002   0.000141  -0.000000
    20  C    0.504686   4.923171   0.000123  -0.000030   0.000880  -0.000000
    21  O   -0.000042   0.000123   8.276579   0.004000   0.000001  -0.000000
    22  H    0.000002  -0.000030   0.004000   0.311850  -0.000085  -0.000000
    23  H    0.000141   0.000880   0.000001  -0.000085   0.460035  -0.000010
    24  H   -0.000000  -0.000000  -0.000000  -0.000000  -0.000010   0.538806
    25  H    0.000000   0.000000   0.000000  -0.000000   0.000000  -0.005120
    26  H    0.000000  -0.000000  -0.000000  -0.000000  -0.000000  -0.000134
    27  H    0.000000   0.000000   0.000000   0.000000  -0.000001   0.000013
    28  H   -0.000000  -0.000001  -0.000000  -0.000000   0.001445  -0.000129
    29  H    0.000329   0.004138   0.003195  -0.000117   0.000005   0.000000
    30  H    0.004259   0.000602   0.000001  -0.000000   0.000000   0.000000
    31  H   -0.040846   0.004766  -0.000000   0.000000  -0.000000  -0.000000
    32  H    0.367482  -0.041104   0.000000  -0.000000   0.000002   0.000000
    33  H   -0.034181   0.362433   0.000052  -0.000004   0.000001   0.000000
              25         26         27         28         29         30
     1  O   -0.000000   0.000000  -0.000000  -0.000000   0.000062   0.000000
     2  S    0.000000  -0.000000   0.000000  -0.000002  -0.000103  -0.000070
     3  N    0.000000  -0.000000   0.000000  -0.000002   0.001749   0.000000
     4  C   -0.000000  -0.000000   0.000000   0.000041   0.000099   0.000000
     5  N    0.000000   0.000000  -0.000000  -0.000010   0.000000  -0.000000
     6  N   -0.000008   0.000000   0.000001  -0.000085  -0.000000  -0.000000
     7  C    0.000001  -0.000000  -0.000004   0.005646  -0.000007  -0.000000
     8  N   -0.000104   0.000003  -0.000108  -0.009164   0.000000  -0.000000
     9  C    0.003547   0.000470   0.003439  -0.038950   0.000000  -0.000000
    10  C   -0.037854   0.004681   0.000729   0.005207   0.000000   0.000000
    11  C    0.364014  -0.041521   0.004436   0.000200  -0.000000   0.000000
    12  C   -0.040032   0.366109  -0.039614   0.004291  -0.000000   0.000000
    13  C    0.004470  -0.041380   0.363632  -0.035148  -0.000000   0.000000
    14  C    0.000703   0.004879  -0.037746   0.354621  -0.000000  -0.000000
    15  C    0.000000  -0.000000   0.000000  -0.000000  -0.052028   0.004800
    16  C    0.000000  -0.000000  -0.000000  -0.000000   0.365966  -0.040507
    17  C   -0.000000  -0.000000   0.000000  -0.000000  -0.033346   0.366851
    18  C   -0.000000   0.000000   0.000000  -0.000000   0.004205  -0.039940
    19  C    0.000000   0.000000   0.000000  -0.000000   0.000329   0.004259
    20  C    0.000000  -0.000000   0.000000  -0.000001   0.004138   0.000602
    21  O    0.000000  -0.000000   0.000000  -0.000000   0.003195   0.000001
    22  H   -0.000000  -0.000000   0.000000  -0.000000  -0.000117  -0.000000
    23  H    0.000000  -0.000000  -0.000001   0.001445   0.000005   0.000000
    24  H   -0.005120  -0.000134   0.000013  -0.000129   0.000000   0.000000
    25  H    0.551548  -0.005089  -0.000164   0.000013   0.000000  -0.000000
    26  H   -0.005089   0.556869  -0.005101  -0.000143   0.000000   0.000000
    27  H   -0.000164  -0.005101   0.551027  -0.005095   0.000000   0.000000
    28  H    0.000013  -0.000143  -0.005095   0.540724   0.000000   0.000000
    29  H    0.000000   0.000000   0.000000   0.000000   0.526232  -0.005250
    30  H   -0.000000   0.000000   0.000000   0.000000  -0.005250   0.543628
    31  H   -0.000000   0.000000   0.000000  -0.000000  -0.000142  -0.005072
    32  H    0.000000   0.000000   0.000000   0.000000   0.000014  -0.000155
    33  H   -0.000000   0.000000   0.000000   0.000000  -0.000139   0.000013
              31         32         33
     1  O   -0.000000   0.000002   0.011335
     2  S    0.000008  -0.000085  -0.006147
     3  N    0.000000   0.000001   0.000204
     4  C   -0.000000   0.000000  -0.000041
     5  N    0.000000   0.000000  -0.000003
     6  N   -0.000000  -0.000000   0.000001
     7  C    0.000000  -0.000003  -0.000062
     8  N   -0.000000   0.000000   0.000001
     9  C    0.000000   0.000000  -0.000000
    10  C   -0.000000   0.000000  -0.000000
    11  C    0.000000   0.000000   0.000000
    12  C    0.000000   0.000000   0.000000
    13  C   -0.000000  -0.000000  -0.000000
    14  C   -0.000000  -0.000000  -0.000000
    15  C    0.000457   0.004763  -0.045802
    16  C    0.004855   0.000635   0.004636
    17  C   -0.040830   0.004246   0.000222
    18  C    0.365535  -0.040252   0.004221
    19  C   -0.040846   0.367482  -0.034181
    20  C    0.004766  -0.041104   0.362433
    21  O   -0.000000   0.000000   0.000052
    22  H    0.000000  -0.000000  -0.000004
    23  H   -0.000000   0.000002   0.000001
    24  H   -0.000000   0.000000   0.000000
    25  H   -0.000000   0.000000  -0.000000
    26  H    0.000000   0.000000   0.000000
    27  H    0.000000   0.000000   0.000000
    28  H   -0.000000   0.000000   0.000000
    29  H   -0.000142   0.000014  -0.000139
    30  H   -0.005072  -0.000155   0.000013
    31  H    0.547028  -0.005175  -0.000136
    32  H   -0.005175   0.544459  -0.004989
    33  H   -0.000136  -0.004989   0.522336
 Mulliken charges:
               1
     1  O   -0.558998
     2  S    1.206831
     3  N   -0.799659
     4  C    0.383128
     5  N   -0.358858
     6  N   -0.107808
     7  C    0.060864
     8  N   -0.351167
     9  C    0.326484
    10  C   -0.154723
    11  C   -0.154803
    12  C   -0.130598
    13  C   -0.156230
    14  C   -0.168184
    15  C   -0.145233
    16  C   -0.136599
    17  C   -0.138461
    18  C   -0.124997
    19  C   -0.137664
    20  C   -0.139217
    21  O   -0.581606
    22  H    0.417659
    23  H    0.227772
    24  H    0.174794
    25  H    0.164075
    26  H    0.160359
    27  H    0.164558
    28  H    0.176542
    29  H    0.185137
    30  H    0.170840
    31  H    0.169553
    32  H    0.170159
    33  H    0.186048
 Sum of Mulliken charges =  -0.00000
 Mulliken charges with hydrogens summed into heavy atoms:
               1
     1  O   -0.558998
     2  S    1.206831
     3  N   -0.382000
     4  C    0.383128
     5  N   -0.358858
     6  N   -0.107808
     7  C    0.288636
     8  N   -0.351167
     9  C    0.326484
    10  C    0.020071
    11  C    0.009271
    12  C    0.029761
    13  C    0.008328
    14  C    0.008359
    15  C   -0.145233
    16  C    0.048538
    17  C    0.032379
    18  C    0.044556
    19  C    0.032494
    20  C    0.046831
    21  O   -0.581606
 Electronic spatial extent (au):  <R**2>=           7713.2077
 Charge=             -0.0000 electrons
 Dipole moment (field-independent basis, Debye):
    X=             -3.5858    Y=             10.3545    Z=             -3.0218  Tot=             11.3668
 Quadrupole moment (field-independent basis, Debye-Ang):
   XX=           -119.9374   YY=           -125.9188   ZZ=           -122.7609
   XY=              6.8954   XZ=            -10.2070   YZ=              3.0855
 Traceless Quadrupole moment (field-independent basis, Debye-Ang):
   XX=              2.9350   YY=             -3.0465   ZZ=              0.1115
   XY=              6.8954   XZ=            -10.2070   YZ=              3.0855
 Octapole moment (field-independent basis, Debye-Ang**2):
  XXX=           -147.7141  YYY=             74.0210  ZZZ=             -5.1509  XYY=             24.3130
  XXY=             99.6054  XXZ=              1.0210  XZZ=             12.5844  YZZ=              6.3765
  YYZ=            -16.4340  XYZ=             19.6379
 Hexadecapole moment (field-independent basis, Debye-Ang**3):
 XXXX=          -7050.9544 YYYY=          -2172.0001 ZZZZ=           -585.3135 XXXY=            -12.5977
 XXXZ=           -265.5502 YYYX=             22.4590 YYYZ=             20.0234 ZZZX=            -27.2448
 ZZZY=             16.1593 XXYY=          -1539.2062 XXZZ=          -1306.0119 YYZZ=           -442.6658
 XXYZ=            -76.7282 YYXZ=            -20.2559 ZZXY=             24.7059
 N-N= 1.731495799518D+03 E-N=-6.523862455573D+03  KE= 1.298228289459D+03
 No NMR shielding tensors so no spin-rotation constants.
 Leave Link  601 at Thu Sep 24 14:41:02 2020, MaxMem=  2147483648 cpu:               0.5 elap:               0.1
 (Enter /prod/apps/gaussian/g16b1/l701.exe)
 ... and contract with generalized density number  0.
 Compute integral first derivatives.
 D1PCM: PCM CHGder 1st derivatives, ID1Alg=3 FixD1E=F DoIter=F DoCFld=F I1PDM=0.
 GePol: Maximum number of non-zero 1st derivatives   =     181
 Leave Link  701 at Thu Sep 24 14:41:04 2020, MaxMem=  2147483648 cpu:              11.2 elap:               2.8
 (Enter /prod/apps/gaussian/g16b1/l702.exe)
 L702 exits ... SP integral derivatives will be done elsewhere.
 Leave Link  702 at Thu Sep 24 14:41:04 2020, MaxMem=  2147483648 cpu:               0.1 elap:               0.0
 (Enter /prod/apps/gaussian/g16b1/l703.exe)
 Integral derivatives from FoFJK, PRISM(SPDF).
 Compute integral first derivatives, UseDBF=F ICtDFT=           0.
 Calling FoFJK, ICntrl=      2127 FMM=F ISym2X=0 I1Cent= 0 IOpClX= 0 NMat=1 NMatS=1 NMatT=0.
 FoFJK:  IHMeth= 1 ICntrl=    2127 DoSepK=F KAlg= 0 I1Cent=           0 FoldK=F
 IRaf=         0 NMat=       1 IRICut=       1 DoRegI=T DoRafI=F ISym2E= 0 IDoP0=0 IntGTp=1.
 FoFCou: FMM=F IPFlag=           0 FMFlag=      100000 FMFlg1=         800
         NFxFlg=           0 DoJE=F BraDBF=F KetDBF=F FulRan=T
         wScrn=  0.000000 ICntrl=      2127 IOpCl=  0 I1Cent=           0 NGrid=           0
         NMat0=    1 NMatS0=      1 NMatT0=    0 NMatD0=    1 NMtDS0=    0 NMtDT0=    0
 Symmetry not used in FoFCou.
 Leave Link  703 at Thu Sep 24 14:41:22 2020, MaxMem=  2147483648 cpu:              72.0 elap:              18.0
 (Enter /prod/apps/gaussian/g16b1/l716.exe)
 Dipole        =-1.41076672D+00 4.07375738D+00-1.18888043D+00
 -------------------------------------------------------------------
 Center     Atomic                   Forces (Hartrees/Bohr)
 Number     Number              X              Y              Z
 -------------------------------------------------------------------
      1        8           0.000056961    0.000064428   -0.000180917
      2       16           0.000474686   -0.000371316   -0.000104412
      3        7           0.000181595   -0.000362602   -0.000099678
      4        6           0.000121465    0.000686908   -0.000064648
      5        7          -0.000257334   -0.000065217   -0.000110513
      6        7           0.000022132    0.000069489    0.000168222
      7        6           0.000200753   -0.000794828    0.000147876
      8        7          -0.000216388    0.000388646   -0.000187745
      9        6           0.000300511   -0.000577439    0.000093932
     10        6          -0.000524984    0.000707376   -0.000117180
     11        6           0.000541491   -0.000390811   -0.000008960
[...]
 Alpha virt. eigenvalues --    3.94136   3.96438   4.04410   4.26496   4.43348
 Alpha virt. eigenvalues --    4.76389   4.88045
          Condensed to atoms (all electrons):
               1          2          3          4          5          6
     1  O    9.249732  -0.516511   0.111448   0.114297  -0.012939  -0.009191
     2  S   -0.516511  16.568920   0.323234  -1.343027   0.149491   0.014122
     3  N    0.111448   0.323234   8.130878  -1.714247   0.179444  -0.033958
     4  C    0.114297  -1.343027  -1.714247  15.404872  -1.709861   0.617922
     5  N   -0.012939   0.149491   0.179444  -1.709861   8.796793  -0.701043
     6  N   -0.009191   0.014122  -0.033958   0.617922  -0.701043   8.981922
     7  C    0.022692   0.235561   0.713678  -7.758181   1.442572  -1.189398
     8  N    0.007608   0.042298   0.045149   0.073151  -0.208377  -0.468944
     9  C    0.006818  -0.009223  -0.048154   1.168460  -0.084853  -0.044280
    10  C   -0.002521   0.006586   0.006314  -0.080485  -0.093464   0.444855
    11  C   -0.000192   0.002137   0.003826  -0.103717   0.004447  -0.057510
    12  C   -0.000074  -0.001612  -0.002205   0.028800  -0.009637   0.010509
    13  C    0.000124  -0.003912  -0.007830   0.143741   0.001583   0.024429
    14  C    0.002951  -0.042258  -0.014894  -0.035515   0.056467  -0.093633
    15  C    0.281977  -1.447159   0.011568   0.336160  -0.011272   0.060953
    16  C   -0.111329   0.380363  -0.064339  -0.075069  -0.010398  -0.028116
    17  C    0.014212  -0.326970  -0.055502   0.070073  -0.006625   0.003476
    18  C   -0.015983   0.220273  -0.022690   0.022047  -0.001095  -0.005306
    19  C   -0.009161  -0.283061   0.051680  -0.114365   0.008396   0.011362
    20  C    0.063177  -0.254243  -0.023564  -0.246150   0.017845  -0.025018
    21  O    0.039838  -0.429397  -0.029428   0.179030  -0.014678  -0.003863
    22  H    0.002822  -0.175356   0.508277   0.056639  -0.064300  -0.022664
    23  H   -0.013588   0.062279  -0.003318  -0.056787  -0.060026  -0.079131
    24  H   -0.000006  -0.002934  -0.003806   0.016462  -0.003115   0.010161
    25  H    0.000009   0.000165   0.000018  -0.000438   0.000536  -0.002684
    26  H    0.000000  -0.000082  -0.000051  -0.000108   0.000135   0.001689
    27  H   -0.000024   0.000059  -0.000233   0.004793  -0.000746   0.002181
    28  H    0.001439  -0.005814   0.005433  -0.043388   0.004291  -0.033021
    29  H    0.009544  -0.170483  -0.006118   0.005074   0.002809  -0.000274
    30  H    0.000233   0.010428   0.000063   0.005630  -0.000128   0.000173
    31  H   -0.000034   0.004489  -0.000429  -0.000101  -0.000012  -0.000242
    32  H    0.000198  -0.011522   0.001367   0.000264  -0.000204   0.000934
    33  H   -0.031946  -0.036105  -0.001956  -0.022340   0.003666  -0.005668
               7          8          9         10         11         12
     1  O    0.022692   0.007608   0.006818  -0.002521  -0.000192  -0.000074
     2  S    0.235561   0.042298  -0.009223   0.006586   0.002137  -0.001612
     3  N    0.713678   0.045149  -0.048154   0.006314   0.003826  -0.002205
     4  C   -7.758181   0.073151   1.168460  -0.080485  -0.103717   0.028800
     5  N    1.442572  -0.208377  -0.084853  -0.093464   0.004447  -0.009637
     6  N   -1.189398  -0.468944  -0.044280   0.444855  -0.057510   0.010509
     7  C   15.426735  -0.387527  -2.907347  -0.079818   0.304979  -0.027163
     8  N   -0.387527   9.592538  -1.037957   0.005202  -0.213417   0.355447
     9  C   -2.907347  -1.037957  15.109001  -5.123123   2.742999  -3.585877
    10  C   -0.079818   0.005202  -5.123123  12.850374  -3.755620   2.981379
    11  C    0.304979  -0.213417   2.742999  -3.755620   9.961389  -2.955455
    12  C   -0.027163   0.355447  -3.585877   2.981379  -2.955455   9.089606
    13  C   -0.439638  -0.370474   2.720833  -3.292523   2.971166  -3.023318
    14  C    0.415613   0.504314  -5.414762   2.242191  -3.314308   2.947889
    15  C   -0.168835  -0.017185   0.040507  -0.002791  -0.002436   0.000714
    16  C   -0.072921   0.006171  -0.024847  -0.013666  -0.001812   0.000247
    17  C    0.036510   0.011415   0.029904  -0.000615   0.000528  -0.000570
    18  C   -0.065514  -0.009608  -0.026745   0.000575  -0.001325   0.001341
    19  C    0.173889   0.015268   0.011934   0.008796   0.002780  -0.001369
    20  C    0.040027   0.000667  -0.015565  -0.001781   0.001004  -0.000488
    21  O    0.005460  -0.001870   0.000520  -0.000095  -0.000005  -0.000002
    22  H   -0.056923   0.011654   0.014821  -0.001653  -0.000239   0.000073
    23  H   -0.508440   0.220237   0.004803  -0.129014  -0.017313   0.005159
    24  H   -0.026317  -0.233797   0.771287  -0.980283   0.329189  -0.192665
    25  H   -0.003103  -0.008047  -0.115277   0.582599  -0.709959   0.298550
    26  H   -0.002035  -0.002952   0.120812  -0.133237   0.393107  -0.652965
    27  H    0.007301   0.002328  -0.129228   0.114237  -0.224132   0.324728
    28  H    0.121517  -0.236877   0.869230  -0.127487   0.133604  -0.189405
    29  H    0.040190  -0.001066   0.000617   0.000293  -0.000032  -0.000026
    30  H   -0.008729   0.000393   0.000700  -0.000134   0.000031  -0.000005
    31  H   -0.000665  -0.000375  -0.000814  -0.000100  -0.000085   0.000130
    32  H    0.001186   0.000644   0.000295   0.000842   0.000029   0.000074
    33  H    0.041812  -0.001327   0.012652  -0.007886   0.002195  -0.001979
              13         14         15         16         17         18
     1  O    0.000124   0.002951   0.281977  -0.111329   0.014212  -0.015983
     2  S   -0.003912  -0.042258  -1.447159   0.380363  -0.326970   0.220273
     3  N   -0.007830  -0.014894   0.011568  -0.064339  -0.055502  -0.022690
     4  C    0.143741  -0.035515   0.336160  -0.075069   0.070073   0.022047
     5  N    0.001583   0.056467  -0.011272  -0.010398  -0.006625  -0.001095
     6  N    0.024429  -0.093633   0.060953  -0.028116   0.003476  -0.005306
     7  C   -0.439638   0.415613  -0.168835  -0.072921   0.036510  -0.065514
     8  N   -0.370474   0.504314  -0.017185   0.006171   0.011415  -0.009608
     9  C    2.720833  -5.414762   0.040507  -0.024847   0.029904  -0.026745
    10  C   -3.292523   2.242191  -0.002791  -0.013666  -0.000615   0.000575
    11  C    2.971166  -3.314308  -0.002436  -0.001812   0.000528  -0.001325
    12  C   -3.023318   2.947889   0.000714   0.000247  -0.000570   0.001341
    13  C   10.501509  -3.678413  -0.001122   0.002719   0.001988  -0.001181
    14  C   -3.678413  12.707465   0.025557   0.015398   0.004049   0.003459
    15  C   -0.001122   0.025557  16.547594  -6.624734   2.228836  -3.869131
    16  C    0.002719   0.015398  -6.624734  17.555725  -4.004566   3.360895
    17  C    0.001988   0.004049   2.228836  -4.004566  11.233330  -3.240055
    18  C   -0.001181   0.003459  -3.869131   3.360895  -3.240055   9.824897
    19  C   -0.002496  -0.009304   2.685364  -4.377506   3.664231  -3.552374
    20  C   -0.000919  -0.022455  -6.291798   1.040157  -3.814619   3.099955
    21  O   -0.000008   0.000393   0.301672  -0.133232  -0.036070  -0.019288
    22  H   -0.000049  -0.000297   0.037746   0.008339   0.015331   0.001208
    23  H    0.056722  -0.011278  -0.163940  -0.017045  -0.075061   0.072232
    24  H    0.138205  -0.115939   0.001514  -0.000902   0.000177  -0.000097
    25  H   -0.214734   0.127391   0.000053  -0.000010   0.000027  -0.000050
    26  H    0.378591  -0.154000   0.000139  -0.000020   0.000009   0.000009
    27  H   -0.778911   0.619226  -0.000088  -0.000137   0.000298  -0.000357
    28  H    0.182526  -1.003962   0.004917  -0.000780   0.005304  -0.006372
    29  H   -0.000475   0.000011   0.918569  -1.177610   0.250027  -0.233746
    30  H    0.000349  -0.000081  -0.209350   0.573452  -0.734228   0.382514
    31  H    0.000047   0.000301   0.087179  -0.113597   0.368509  -0.636279
    32  H   -0.000239   0.001414  -0.105281   0.117249  -0.230915   0.336372
    33  H    0.003343  -0.006264   0.466849  -0.170469   0.103945  -0.163239
              19         20         21         22         23         24
     1  O   -0.009161   0.063177   0.039838   0.002822  -0.013588  -0.000006
     2  S   -0.283061  -0.254243  -0.429397  -0.175356   0.062279  -0.002934
     3  N    0.051680  -0.023564  -0.029428   0.508277  -0.003318  -0.003806
     4  C   -0.114365  -0.246150   0.179030   0.056639  -0.056787   0.016462
     5  N    0.008396   0.017845  -0.014678  -0.064300  -0.060026  -0.003115
     6  N    0.011362  -0.025018  -0.003863  -0.022664  -0.079131   0.010161
     7  C    0.173889   0.040027   0.005460  -0.056923  -0.508440  -0.026317
     8  N    0.015268   0.000667  -0.001870   0.011654   0.220237  -0.233797
     9  C    0.011934  -0.015565   0.000520   0.014821   0.004803   0.771287
    10  C    0.008796  -0.001781  -0.000095  -0.001653  -0.129014  -0.980283
    11  C    0.002780   0.001004  -0.000005  -0.000239  -0.017313   0.329189
    12  C   -0.001369  -0.000488  -0.000002   0.000073   0.005159  -0.192665
    13  C   -0.002496  -0.000919  -0.000008  -0.000049   0.056722   0.138205
    14  C   -0.009304  -0.022455   0.000393  -0.000297  -0.011278  -0.115939
    15  C    2.685364  -6.291798   0.301672   0.037746  -0.163940   0.001514
    16  C   -4.377506   1.040157  -0.133232   0.008339  -0.017045  -0.000902
    17  C    3.664231  -3.814619  -0.036070   0.015331  -0.075061   0.000177
    18  C   -3.552374   3.099955  -0.019288   0.001208   0.072232  -0.000097
    19  C   11.830991  -4.551208   0.010282  -0.003023   0.001217   0.001135
    20  C   -4.551208  17.379938  -0.024450  -0.015389   0.031066  -0.001648
    21  O    0.010282  -0.024450   9.265942   0.039905   0.002555   0.000045
    22  H   -0.003023  -0.015389   0.039905   0.699101  -0.008904  -0.000432
    23  H    0.001217   0.031066   0.002555  -0.008904   2.368177  -0.004904
    24  H    0.001135  -0.001648   0.000045  -0.000432  -0.004904   1.940270
    25  H   -0.000074   0.000023  -0.000000   0.000007  -0.000631  -0.083972
    26  H   -0.000017  -0.000088   0.000000   0.000001  -0.000055  -0.011786
    27  H    0.000154   0.000150  -0.000000  -0.000002   0.004806   0.009388
    28  H    0.001161   0.000852   0.000068   0.001308  -0.152441  -0.016206
    29  H    0.144102  -0.118765   0.028365  -0.002264  -0.000627   0.000048
    30  H   -0.265069   0.158007  -0.000791   0.000517  -0.000034  -0.000003
    31  H    0.339804  -0.099819  -0.000591   0.000009   0.000259  -0.000013
    32  H   -0.762970   0.542186   0.001222  -0.000031   0.001375   0.000178
    33  H    0.557335  -1.112923   0.000797  -0.000947   0.012631  -0.000637
              25         26         27         28         29         30
     1  O    0.000009   0.000000  -0.000024   0.001439   0.009544   0.000233
     2  S    0.000165  -0.000082   0.000059  -0.005814  -0.170483   0.010428
     3  N    0.000018  -0.000051  -0.000233   0.005433  -0.006118   0.000063
     4  C   -0.000438  -0.000108   0.004793  -0.043388   0.005074   0.005630
     5  N    0.000536   0.000135  -0.000746   0.004291   0.002809  -0.000128
     6  N   -0.002684   0.001689   0.002181  -0.033021  -0.000274   0.000173
     7  C   -0.003103  -0.002035   0.007301   0.121517   0.040190  -0.008729
     8  N   -0.008047  -0.002952   0.002328  -0.236877  -0.001066   0.000393
     9  C   -0.115277   0.120812  -0.129228   0.869230   0.000617   0.000700
    10  C    0.582599  -0.133237   0.114237  -0.127487   0.000293  -0.000134
    11  C   -0.709959   0.393107  -0.224132   0.133604  -0.000032   0.000031
    12  C    0.298550  -0.652965   0.324728  -0.189405  -0.000026  -0.000005
    13  C   -0.214734   0.378591  -0.778911   0.182526  -0.000475   0.000349
    14  C    0.127391  -0.154000   0.619226  -1.003962   0.000011  -0.000081
    15  C    0.000053   0.000139  -0.000088   0.004917   0.918569  -0.209350
    16  C   -0.000010  -0.000020  -0.000137  -0.000780  -1.177610   0.573452
    17  C    0.000027   0.000009   0.000298   0.005304   0.250027  -0.734228
    18  C   -0.000050   0.000009  -0.000357  -0.006372  -0.233746   0.382514
    19  C   -0.000074  -0.000017   0.000154   0.001161   0.144102  -0.265069
    20  C    0.000023  -0.000088   0.000150   0.000852  -0.118765   0.158007
    21  O   -0.000000   0.000000  -0.000000   0.000068   0.028365  -0.000791
    22  H    0.000007   0.000001  -0.000002   0.001308  -0.002264   0.000517
    23  H   -0.000631  -0.000055   0.004806  -0.152441  -0.000627  -0.000034
    24  H   -0.083972  -0.011786   0.009388  -0.016206   0.000048  -0.000003
    25  H    1.624706  -0.058479  -0.018166   0.010619  -0.000003   0.000002
    26  H   -0.058479   1.637659  -0.056171  -0.014956   0.000001   0.000001
    27  H   -0.018166  -0.056171   1.657268  -0.086199  -0.000030   0.000009
    28  H    0.010619  -0.014956  -0.086199   2.219386   0.000281   0.000102
    29  H   -0.000003   0.000001  -0.000030   0.000281   2.031668  -0.107641
    30  H    0.000002   0.000001   0.000009   0.000102  -0.107641   1.716993
    31  H   -0.000001  -0.000000   0.000016  -0.000317  -0.013931  -0.061567
    32  H   -0.000017   0.000015  -0.000065   0.000244   0.010981  -0.020794
    33  H    0.000142  -0.000046   0.000052   0.000742  -0.020897   0.009870
              31         32         33
     1  O   -0.000034   0.000198  -0.031946
     2  S    0.004489  -0.011522  -0.036105
     3  N   -0.000429   0.001367  -0.001956
     4  C   -0.000101   0.000264  -0.022340
     5  N   -0.000012  -0.000204   0.003666
     6  N   -0.000242   0.000934  -0.005668
     7  C   -0.000665   0.001186   0.041812
     8  N   -0.000375   0.000644  -0.001327
     9  C   -0.000814   0.000295   0.012652
    10  C   -0.000100   0.000842  -0.007886
    11  C   -0.000085   0.000029   0.002195
    12  C    0.000130   0.000074  -0.001979
    13  C    0.000047  -0.000239   0.003343
    14  C    0.000301   0.001414  -0.006264
    15  C    0.087179  -0.105281   0.466849
    16  C   -0.113597   0.117249  -0.170469
    17  C    0.368509  -0.230915   0.103945
    18  C   -0.636279   0.336372  -0.163239
    19  C    0.339804  -0.762970   0.557335
    20  C   -0.099819   0.542186  -1.112923
    21  O   -0.000591   0.001222   0.000797
    22  H    0.000009  -0.000031  -0.000947
    23  H    0.000259   0.001375   0.012631
    24  H   -0.000013   0.000178  -0.000637
    25  H   -0.000001  -0.000017   0.000142
    26  H   -0.000000   0.000015  -0.000046
    27  H    0.000016  -0.000065   0.000052
    28  H   -0.000317   0.000244   0.000742
    29  H   -0.013931   0.010981  -0.020897
    30  H   -0.061567  -0.020794   0.009870
    31  H    1.650953  -0.065535  -0.012189
    32  H   -0.065535   1.739693  -0.093055
    33  H   -0.012189  -0.093055   2.081174
 Mulliken charges:
               1
     1  O   -1.205622
     2  S    3.039262
     3  N   -1.059656
     4  C    1.056364
     5  N   -0.675705
     6  N   -0.380747
     7  C    0.672831
     8  N   -0.694684
     9  C    0.941860
    10  C    0.582052
    11  C    0.504145
    12  C    0.600171
    13  C    0.688369
    14  C    0.243274
    15  C    0.877255
    16  C   -0.037609
    17  C    0.483616
    18  C    0.544655
    19  C    0.412119
    20  C    0.245836
    21  O   -1.182326
    22  H   -0.045285
    23  H   -0.540981
    24  H   -0.538600
    25  H   -0.429201
    26  H   -0.445121
    27  H   -0.452502
    28  H   -0.645798
    29  H   -0.588595
    30  H   -0.450912
    31  H   -0.445000
    32  H   -0.466133
    33  H   -0.607330
 Sum of Mulliken charges =  -0.00000
 Mulliken charges with hydrogens summed into heavy atoms:
               1
     1  O   -1.205622
     2  S    3.039262
     3  N   -1.104941
     4  C    1.056364
     5  N   -0.675705
     6  N   -0.380747
     7  C    0.131850
     8  N   -0.694684
     9  C    0.941860
    10  C    0.043452
    11  C    0.074944
    12  C    0.155050
    13  C    0.235867
    14  C   -0.402524
    15  C    0.877255
    16  C   -0.626204
    17  C    0.032704
    18  C    0.099655
    19  C   -0.054014
    20  C   -0.361495
    21  O   -1.182326
 Electronic spatial extent (au):  <R**2>=           7724.6606
 Charge=             -0.0000 electrons
 Dipole moment (field-independent basis, Debye):
    X=             -3.1406    Y=              8.1608    Z=             -2.2959  Tot=              9.0407
 Quadrupole moment (field-independent basis, Debye-Ang):
   XX=           -126.2509   YY=           -130.0938   ZZ=           -128.1235
   XY=              8.5735   XZ=            -10.3999   YZ=              2.2186
 Traceless Quadrupole moment (field-independent basis, Debye-Ang):
   XX=              1.9052   YY=             -1.9378   ZZ=              0.0326
   XY=              8.5735   XZ=            -10.3999   YZ=              2.2186
 Octapole moment (field-independent basis, Debye-Ang**2):
  XXX=           -132.4726  YYY=             52.9186  ZZZ=             -2.0694  XYY=             19.0321
  XXY=             81.4623  XXZ=              6.9842  XZZ=             16.6077  YZZ=              3.5069
  YYZ=            -14.2163  XYZ=             19.9930
 Hexadecapole moment (field-independent basis, Debye-Ang**3):
 XXXX=          -7453.2375 YYYY=          -2257.8724 ZZZZ=           -621.0154 XXXY=              0.4145
 XXXZ=           -295.1503 YYYX=             26.5269 YYYZ=             12.1397 ZZZX=            -31.5693
 ZZZY=             14.0196 XXYY=          -1620.6896 XXZZ=          -1372.2343 YYZZ=           -468.3882
 XXYZ=            -90.0816 YYXZ=            -17.4468 ZZXY=             25.9621
 N-N= 1.731528199845D+03 E-N=-6.521577728398D+03  KE= 1.300610823917D+03
 Leave Link  601 at Thu Sep 24 15:49:38 2020, MaxMem=   262144000 cpu:               2.3 elap:               0.8
 (Enter /prod/apps/gaussian/g16b1/l9999.exe)
 1\1\GINC-PIRINEUS26\SP\RMP2-FC\Aug-CC-pVDZ\C14H12N4O2S1\UBAFAR01\24-Se
 p-2020\0\\#p mp2/aug-cc-pVDZ scf=(MaxCycle=2000,NoVarAcc,NoIncFock) ma
 xdisk=120GB geom=allcheck\\SM45_m0.n.9.pdb.xyz\\0,1\O,0,1.9982353058,-
 1.5710432434,1.6042912536\S,0,2.5394655372,-1.2501248193,0.2745628505\
 N,0,1.4003930318,-1.5781352673,-0.9552806498\C,0,0.0314519951,-1.46158
 53601,-0.6511691725\N,0,-0.748126526,-2.5328959683,-0.334472405\N,0,-1
 .9716947114,-2.1185896655,-0.1374176546\C,0,-0.7474782918,-0.324389311
 9,-0.6377418493\N,0,-1.9808160641,-0.7736718059,-0.3000670354\C,0,-3.1
 845911437,-0.0294191382,-0.1316624187\C,0,-4.1898820421,-0.5372754067,
 0.6946455938\C,0,-5.3675322192,0.1901147609,0.8546483888\C,0,-5.535075
 7062,1.416838853,0.2079890156\C,0,-4.5197359072,1.9142566659,-0.610881
 7667\C,0,-3.3410638388,1.1915194317,-0.7919456613\C,0,2.7409371649,0.5
 202414057,0.1777467664\C,0,3.3492135948,1.0746453604,-0.9518146961\C,0
 ,3.5244193518,2.4553840149,-1.007006543\C,0,3.0975117845,3.2594639248,
 0.0552982175\C,0,2.4957885795,2.6884157828,1.1774842833\C,0,2.31333469
 9,1.3067064219,1.2469606564\O,0,3.7660302567,-1.9158451813,-0.18906497
 12\H,0,1.6436288881,-2.4786539056,-1.3745678989\H,0,-0.5206525584,0.71
 26349756,-0.8132430166\H,0,-4.0405312807,-1.4825702579,1.1997925539\H,
 0,-6.1508412808,-0.2005293117,1.4949904187\H,0,-6.4512195791,1.9815188
 58,0.3410786681\H,0,-4.6447046786,2.8628315272,-1.1208938345\H,0,-2.56
 22746682,1.5657620276,-1.4459440961\H,0,3.6784473115,0.4415129113,-1.7
 669445905\H,0,3.9944134299,2.9026364186,-1.8756279266\H,0,3.2369174463
 ,4.3337993371,0.0065343696\H,0,2.1688189252,3.3143175214,1.9999258637\
 H,0,1.853213194,0.8401284444,2.1087972868\\Version=ES64L-G16RevB.01\St
 ate=1-A\HF=-1302.1639834\MP2=-1305.2980819\RMSD=5.370e-09\PG=C01 [X(C1
 4H12N4O2S1)]\\@


 TOWERING GENIUS DISDAINS A BEATEN PATH.  IT SEEKS 
 REGIONS HITHERTO UNEXPLORED.

                                -- ABRAHAM LINCOLN
 Job cpu time:       0 days  3 hours  4 minutes 12.8 seconds.
 Elapsed time:       0 days  0 hours 50 minutes 56.8 seconds.
 File lengths (MBytes):  RWF= 113144 Int=      0 D2E=      0 Chk=     28 Scr=      1
 Normal termination of Gaussian 16 at Thu Sep 24 15:49:41 2020.
