 Entering Gaussian System, Link 0=g16
 Initial command:
 /prod/apps/gaussian/g16b1/l1.exe "/tmp/ubafar01/1461368/Gau-41846.inp" -scrdir="/tmp/ubafar01/1461368/"
 Entering Link 1 = /prod/apps/gaussian/g16b1/l1.exe PID=     41849.
  
 Copyright (c) 1988-2017, Gaussian, Inc.  All Rights Reserved.
  
 This is part of the Gaussian(R) 16 program.  It is based on
 the Gaussian(R) 09 system (copyright 2009, Gaussian, Inc.),
 the Gaussian(R) 03 system (copyright 2003, Gaussian, Inc.),
 the Gaussian(R) 98 system (copyright 1998, Gaussian, Inc.),
 the Gaussian(R) 94 system (copyright 1995, Gaussian, Inc.),
 the Gaussian 92(TM) system (copyright 1992, Gaussian, Inc.),
 the Gaussian 90(TM) system (copyright 1990, Gaussian, Inc.),
 the Gaussian 88(TM) system (copyright 1988, Gaussian, Inc.),
 the Gaussian 86(TM) system (copyright 1986, Carnegie Mellon
 University), and the Gaussian 82(TM) system (copyright 1983,
 Carnegie Mellon University). Gaussian is a federally registered
 trademark of Gaussian, Inc.
  
 This software contains proprietary and confidential information,
 including trade secrets, belonging to Gaussian, Inc.
  
 This software is provided under written license and may be
 used, copied, transmitted, or stored only in accord with that
 written license.
  
 The following legend is applicable only to US Government
 contracts under FAR:
  
                    RESTRICTED RIGHTS LEGEND
  
 Use, reproduction and disclosure by the US Government is
 subject to restrictions as set forth in subparagraphs (a)
 and (c) of the Commercial Computer Software - Restricted
 Rights clause in FAR 52.227-19.
  
 Gaussian, Inc.
 340 Quinnipiac St., Bldg. 40, Wallingford CT 06492
  
  
 ---------------------------------------------------------------
 Warning -- This program may not be used in any manner that
 competes with the business of Gaussian, Inc. or will provide
 assistance to any competitor of Gaussian, Inc.  The licensee
 of this program is prohibited from giving any competitor of
 Gaussian, Inc. access to this program.  By using this program,
 the user acknowledges that Gaussian, Inc. is engaged in the
 business of creating and licensing software in the field of
 computational chemistry and represents and warrants to the
 licensee that it is not a competitor of Gaussian, Inc. and that
 it will not use this program in any manner prohibited above.
 ---------------------------------------------------------------
  

 Cite this work as:
 Gaussian 16, Revision B.01,
 M. J. Frisch, G. W. Trucks, H. B. Schlegel, G. E. Scuseria, 
 M. A. Robb, J. R. Cheeseman, G. Scalmani, V. Barone, 
 G. A. Petersson, H. Nakatsuji, X. Li, M. Caricato, A. V. Marenich, 
 J. Bloino, B. G. Janesko, R. Gomperts, B. Mennucci, H. P. Hratchian, 
 J. V. Ortiz, A. F. Izmaylov, J. L. Sonnenberg, D. Williams-Young, 
 F. Ding, F. Lipparini, F. Egidi, J. Goings, B. Peng, A. Petrone, 
 T. Henderson, D. Ranasinghe, V. G. Zakrzewski, J. Gao, N. Rega, 
 G. Zheng, W. Liang, M. Hada, M. Ehara, K. Toyota, R. Fukuda, 
 J. Hasegawa, M. Ishida, T. Nakajima, Y. Honda, O. Kitao, H. Nakai, 
 T. Vreven, K. Throssell, J. A. Montgomery, Jr., J. E. Peralta, 
 F. Ogliaro, M. J. Bearpark, J. J. Heyd, E. N. Brothers, K. N. Kudin, 
 V. N. Staroverov, T. A. Keith, R. Kobayashi, J. Normand, 
 K. Raghavachari, A. P. Rendell, J. C. Burant, S. S. Iyengar, 
 J. Tomasi, M. Cossi, J. M. Millam, M. Klene, C. Adamo, R. Cammi, 
 J. W. Ochterski, R. L. Martin, K. Morokuma, O. Farkas, 
 J. B. Foresman, and D. J. Fox, Gaussian, Inc., Wallingford CT, 2016.
 
 ******************************************
 Gaussian 16:  ES64L-G16RevB.01 20-Dec-2017
                24-Sep-2020 
 ******************************************
 %nproc=4
 Will use up to    4 processors via shared memory.
 %Chk=SM45_m1.a.8.pdb.xyz.mst.a.w.chk
 %mem=16GB
 ----------------------------------------------------------------------
 #p b3lyp/6-31G(d) opt freq NoSymm scf=(MaxCycle=2000,NoVarAcc,NoIncFoc
 k) scrf=(iefpcm,read,solvent=water)
 ----------------------------------------------------------------------
 1/18=20,19=15,26=3,38=1,40=2/1,3;
 2/9=110,12=2,15=1,17=6,18=5,40=1/2;
 3/5=1,6=6,7=1,11=2,25=1,30=1,70=2203,71=1,72=1,74=-5/1,2,3;
 4//1;
 5/5=100002,7=2000,38=1,53=1/2;
 6/7=2,8=2,9=2,10=2,28=1/1;
 7/30=1/1,2,3,16;
 1/18=20,19=15,26=3/3(2);
 2/9=110,15=1/2;
 99//99;
 2/9=110,15=1/2;
 3/5=1,6=6,7=1,11=2,25=1,30=1,70=2205,71=1,72=1,74=-5/1,2,3;
 4/5=5,16=3,69=1/1;
 5/5=100002,7=2000,38=1,53=1/2;
 7/30=1/1,2,3,16;
 1/18=20,19=15,26=3/3(-5);
 2/9=110,15=1/2;
 6/7=2,8=2,9=2,10=2,19=2,28=1/1;
 99/9=1/99;
 Leave Link    1 at Thu Sep 24 14:39:41 2020, MaxMem=  2147483648 cpu:               0.1 elap:               0.0
 (Enter /prod/apps/gaussian/g16b1/l101.exe)
 -------------------
 SM45_m1.a.8.pdb.xyz
 -------------------
 Symbolic Z-matrix:
 Charge = -1 Multiplicity = 1
 O                     2.291    -0.79      2.74 
 S                     2.401    -1.33      1.355 
 N                     1.019    -1.757     0.674 
 C                    -0.065    -0.904     0.658 
 N                    -0.136     0.385     1.137 
 N                    -1.339     0.873     0.918 
 C                    -1.31     -1.209     0.118 
 N                    -2.061    -0.087     0.305 
 C                    -3.411     0.153    -0.078 
 C                    -3.946    -0.51     -1.187 
 C                    -5.273    -0.276    -1.55 
 C                    -6.057     0.623    -0.824 
 C                    -5.509     1.287     0.277 
 C                    -4.189     1.051     0.661 
 C                     3.155    -0.012     0.369 
 C                     3.21      1.297     0.852 
 C                     3.78      2.299     0.063 
 C                     4.289     1.993    -1.201 
 C                     4.231     0.679    -1.679 
 C                     3.664    -0.326    -0.896 
 O                     3.309    -2.498     1.209 
 H                    -1.698    -2.109    -0.329 
 H                    -3.331    -1.187    -1.77 
 H                    -5.687    -0.792    -2.411 
 H                    -7.088     0.805    -1.113 
 H                    -6.112     1.985     0.85 
 H                    -3.761     1.548     1.523 
 H                     2.815     1.523     1.836 
 H                     3.827     3.318     0.437 
 H                     4.731     2.774    -1.813 
 H                     4.631     0.438    -2.66 
 H                     3.626    -1.348    -1.26 
 
 ITRead=  0  0  0  0  0  0  0  0  0  0  0  0  0  0  0  0  0  0  0  0
 ITRead=  0  0  0  0  0  0  0  0  0  0  0  0
 MicOpt= -1 -1 -1 -1 -1 -1 -1 -1 -1 -1 -1 -1 -1 -1 -1 -1 -1 -1 -1 -1
 MicOpt= -1 -1 -1 -1 -1 -1 -1 -1 -1 -1 -1 -1
 NAtoms=     32 NQM=       32 NQMF=       0 NMMI=      0 NMMIF=      0
                NMic=       0 NMicF=      0.
                    Isotopes and Nuclear Properties:
 (Nuclear quadrupole moments (NQMom) in fm**2, nuclear magnetic moments (NMagM)
  in nuclear magnetons)

  Atom         1           2           3           4           5           6           7           8           9          10
 IAtWgt=          16          32          14          12          14          14          12          14          12          12
 AtmWgt=  15.9949146  31.9720718  14.0030740  12.0000000  14.0030740  14.0030740  12.0000000  14.0030740  12.0000000  12.0000000
 NucSpn=           0           0           2           0           2           2           0           2           0           0
 AtZEff=  -0.0000000  -0.0000000  -0.0000000  -0.0000000  -0.0000000  -0.0000000  -0.0000000  -0.0000000  -0.0000000  -0.0000000
 NQMom=    0.0000000   0.0000000   2.0440000   0.0000000   2.0440000   2.0440000   0.0000000   2.0440000   0.0000000   0.0000000
 NMagM=    0.0000000   0.0000000   0.4037610   0.0000000   0.4037610   0.4037610   0.0000000   0.4037610   0.0000000   0.0000000
 AtZNuc=   8.0000000  16.0000000   7.0000000   6.0000000   7.0000000   7.0000000   6.0000000   7.0000000   6.0000000   6.0000000

  Atom        11          12          13          14          15          16          17          18          19          20
 IAtWgt=          12          12          12          12          12          12          12          12          12          12
 AtmWgt=  12.0000000  12.0000000  12.0000000  12.0000000  12.0000000  12.0000000  12.0000000  12.0000000  12.0000000  12.0000000
 NucSpn=           0           0           0           0           0           0           0           0           0           0
 AtZEff=  -0.0000000  -0.0000000  -0.0000000  -0.0000000  -0.0000000  -0.0000000  -0.0000000  -0.0000000  -0.0000000  -0.0000000
 NQMom=    0.0000000   0.0000000   0.0000000   0.0000000   0.0000000   0.0000000   0.0000000   0.0000000   0.0000000   0.0000000
 NMagM=    0.0000000   0.0000000   0.0000000   0.0000000   0.0000000   0.0000000   0.0000000   0.0000000   0.0000000   0.0000000
 AtZNuc=   6.0000000   6.0000000   6.0000000   6.0000000   6.0000000   6.0000000   6.0000000   6.0000000   6.0000000   6.0000000

  Atom        21          22          23          24          25          26          27          28          29          30
 IAtWgt=          16           1           1           1           1           1           1           1           1           1
 AtmWgt=  15.9949146   1.0078250   1.0078250   1.0078250   1.0078250   1.0078250   1.0078250   1.0078250   1.0078250   1.0078250
 NucSpn=           0           1           1           1           1           1           1           1           1           1
 AtZEff=  -0.0000000  -0.0000000  -0.0000000  -0.0000000  -0.0000000  -0.0000000  -0.0000000  -0.0000000  -0.0000000  -0.0000000
 NQMom=    0.0000000   0.0000000   0.0000000   0.0000000   0.0000000   0.0000000   0.0000000   0.0000000   0.0000000   0.0000000
 NMagM=    0.0000000   2.7928460   2.7928460   2.7928460   2.7928460   2.7928460   2.7928460   2.7928460   2.7928460   2.7928460
 AtZNuc=   8.0000000   1.0000000   1.0000000   1.0000000   1.0000000   1.0000000   1.0000000   1.0000000   1.0000000   1.0000000

  Atom        31          32
 IAtWgt=           1           1
 AtmWgt=   1.0078250   1.0078250
 NucSpn=           1           1
 AtZEff=  -0.0000000  -0.0000000
 NQMom=    0.0000000   0.0000000
 NMagM=    2.7928460   2.7928460
 AtZNuc=   1.0000000   1.0000000
 Leave Link  101 at Thu Sep 24 14:39:41 2020, MaxMem=  2147483648 cpu:               1.4 elap:               0.4
 (Enter /prod/apps/gaussian/g16b1/l103.exe)

 GradGradGradGradGradGradGradGradGradGradGradGradGradGradGradGradGradGrad
 Berny optimization.
 Initialization pass.
                           ----------------------------
                           !    Initial Parameters    !
                           ! (Angstroms and Degrees)  !
 --------------------------                            --------------------------
 ! Name  Definition              Value          Derivative Info.                !
 --------------------------------------------------------------------------------
 ! R1    R(1,2)                  1.4906         estimate D2E/DX2                !
 ! R2    R(2,3)                  1.5988         estimate D2E/DX2                !
 ! R3    R(2,15)                 1.8105         estimate D2E/DX2                !
 ! R4    R(2,21)                 1.4866         estimate D2E/DX2                !
 ! R5    R(3,4)                  1.3795         estimate D2E/DX2                !
 ! R6    R(4,5)                  1.377          estimate D2E/DX2                !
 ! R7    R(4,7)                  1.3909         estimate D2E/DX2                !
 ! R8    R(5,6)                  1.3166         estimate D2E/DX2                !
 ! R9    R(6,8)                  1.3486         estimate D2E/DX2                !
 ! R10   R(7,8)                  1.363          estimate D2E/DX2                !
 ! R11   R(7,22)                 1.0772         estimate D2E/DX2                !
 ! R12   R(8,9)                  1.4237         estimate D2E/DX2                !
 ! R13   R(9,10)                 1.3985         estimate D2E/DX2                !
 ! R14   R(9,14)                 1.3992         estimate D2E/DX2                !
 ! R15   R(10,11)                1.3955         estimate D2E/DX2                !
 ! R16   R(10,23)                1.0846         estimate D2E/DX2                !
 ! R17   R(11,12)                1.3964         estimate D2E/DX2                !
 ! R18   R(11,24)                1.0858         estimate D2E/DX2                !
 ! R19   R(12,13)                1.3976         estimate D2E/DX2                !
 ! R20   R(12,25)                1.0861         estimate D2E/DX2                !
 ! R21   R(13,14)                1.3948         estimate D2E/DX2                !
 ! R22   R(13,26)                1.0859         estimate D2E/DX2                !
 ! R23   R(14,27)                1.0832         estimate D2E/DX2                !
 ! R24   R(15,16)                1.3964         estimate D2E/DX2                !
 ! R25   R(15,20)                1.3993         estimate D2E/DX2                !
 ! R26   R(16,17)                1.3969         estimate D2E/DX2                !
 ! R27   R(16,28)                1.0841         estimate D2E/DX2                !
 ! R28   R(17,18)                1.3966         estimate D2E/DX2                !
 ! R29   R(17,29)                1.0865         estimate D2E/DX2                !
 ! R30   R(18,19)                1.3994         estimate D2E/DX2                !
 ! R31   R(18,30)                1.0862         estimate D2E/DX2                !
 ! R32   R(19,20)                1.3945         estimate D2E/DX2                !
 ! R33   R(19,31)                1.0865         estimate D2E/DX2                !
 ! R34   R(20,32)                1.0856         estimate D2E/DX2                !
 ! A1    A(1,2,3)              115.3878         estimate D2E/DX2                !
 ! A2    A(1,2,15)             105.8446         estimate D2E/DX2                !
 ! A3    A(1,2,21)             114.8947         estimate D2E/DX2                !
 ! A4    A(3,2,15)             108.8114         estimate D2E/DX2                !
 ! A5    A(3,2,21)             106.0397         estimate D2E/DX2                !
 ! A6    A(15,2,21)            105.3139         estimate D2E/DX2                !
 ! A7    A(2,3,4)              121.2694         estimate D2E/DX2                !
 ! A8    A(3,4,5)              127.9768         estimate D2E/DX2                !
 ! A9    A(3,4,7)              124.9097         estimate D2E/DX2                !
 ! A10   A(5,4,7)              107.108          estimate D2E/DX2                !
 ! A11   A(4,5,6)              109.6478         estimate D2E/DX2                !
 ! A12   A(5,6,8)              107.5148         estimate D2E/DX2                !
 ! A13   A(4,7,8)              105.035          estimate D2E/DX2                !
 ! A14   A(4,7,22)             131.8144         estimate D2E/DX2                !
 ! A15   A(8,7,22)             123.1086         estimate D2E/DX2                !
 ! A16   A(6,8,7)              110.693          estimate D2E/DX2                !
 ! A17   A(6,8,9)              120.6614         estimate D2E/DX2                !
 ! A18   A(7,8,9)              128.6333         estimate D2E/DX2                !
 ! A19   A(8,9,10)             119.7484         estimate D2E/DX2                !
 ! A20   A(8,9,14)             119.562          estimate D2E/DX2                !
 ! A21   A(10,9,14)            120.6896         estimate D2E/DX2                !
 ! A22   A(9,10,11)            119.3778         estimate D2E/DX2                !
 ! A23   A(9,10,23)            120.348          estimate D2E/DX2                !
 ! A24   A(11,10,23)           120.2661         estimate D2E/DX2                !
 ! A25   A(10,11,12)           120.4372         estimate D2E/DX2                !
 ! A26   A(10,11,24)           119.2843         estimate D2E/DX2                !
 ! A27   A(12,11,24)           120.2746         estimate D2E/DX2                !
 ! A28   A(11,12,13)           119.6885         estimate D2E/DX2                !
 ! A29   A(11,12,25)           120.1657         estimate D2E/DX2                !
 ! A30   A(13,12,25)           120.1458         estimate D2E/DX2                !
 ! A31   A(12,13,14)           120.5003         estimate D2E/DX2                !
 ! A32   A(12,13,26)           120.221          estimate D2E/DX2                !
 ! A33   A(14,13,26)           119.2751         estimate D2E/DX2                !
 ! A34   A(9,14,13)            119.3            estimate D2E/DX2                !
 ! A35   A(9,14,27)            119.6754         estimate D2E/DX2                !
 ! A36   A(13,14,27)           121.024          estimate D2E/DX2                !
 ! A37   A(2,15,16)            120.695          estimate D2E/DX2                !
 ! A38   A(2,15,20)            118.7172         estimate D2E/DX2                !
 ! A39   A(16,15,20)           120.5809         estimate D2E/DX2                !
 ! A40   A(15,16,17)           119.5457         estimate D2E/DX2                !
 ! A41   A(15,16,28)           119.6711         estimate D2E/DX2                !
 ! A42   A(17,16,28)           120.7824         estimate D2E/DX2                !
 ! A43   A(16,17,18)           120.1817         estimate D2E/DX2                !
 ! A44   A(16,17,29)           119.7331         estimate D2E/DX2                !
 ! A45   A(18,17,29)           120.0851         estimate D2E/DX2                !
 ! A46   A(17,18,19)           119.9845         estimate D2E/DX2                !
 ! A47   A(17,18,30)           120.0467         estimate D2E/DX2                !
 ! A48   A(19,18,30)           119.9688         estimate D2E/DX2                !
 ! A49   A(18,19,20)           120.1162         estimate D2E/DX2                !
 ! A50   A(18,19,31)           120.0939         estimate D2E/DX2                !
 ! A51   A(20,19,31)           119.7895         estimate D2E/DX2                !
 ! A52   A(15,20,19)           119.5908         estimate D2E/DX2                !
 ! A53   A(15,20,32)           120.111          estimate D2E/DX2                !
 ! A54   A(19,20,32)           120.2954         estimate D2E/DX2                !
 ! D1    D(1,2,3,4)             50.2503         estimate D2E/DX2                !
 ! D2    D(15,2,3,4)           -68.496          estimate D2E/DX2                !
 ! D3    D(21,2,3,4)           178.6585         estimate D2E/DX2                !
 ! D4    D(1,2,15,16)          -15.4156         estimate D2E/DX2                !
 ! D5    D(1,2,15,20)          165.5397         estimate D2E/DX2                !
 ! D6    D(3,2,15,16)          109.1608         estimate D2E/DX2                !
 ! D7    D(3,2,15,20)          -69.8839         estimate D2E/DX2                !
 ! D8    D(21,2,15,16)        -137.5158         estimate D2E/DX2                !
 ! D9    D(21,2,15,20)          43.4395         estimate D2E/DX2                !
 ! D10   D(2,3,4,5)              2.6594         estimate D2E/DX2                !
 ! D11   D(2,3,4,7)           -178.305          estimate D2E/DX2                !
 ! D12   D(3,4,5,6)            179.0636         estimate D2E/DX2                !
 ! D13   D(7,4,5,6)             -0.109          estimate D2E/DX2                !
 ! D14   D(3,4,7,8)           -179.3246         estimate D2E/DX2                !
 ! D15   D(3,4,7,22)             3.041          estimate D2E/DX2                !
 ! D16   D(5,4,7,8)             -0.1199         estimate D2E/DX2                !
 ! D17   D(5,4,7,22)          -177.7544         estimate D2E/DX2                !
 ! D18   D(4,5,6,8)              0.2969         estimate D2E/DX2                !
 ! D19   D(5,6,8,7)             -0.3821         estimate D2E/DX2                !
 ! D20   D(5,6,8,9)           -179.2088         estimate D2E/DX2                !
 ! D21   D(4,7,8,6)              0.3071         estimate D2E/DX2                !
 ! D22   D(4,7,8,9)            179.0151         estimate D2E/DX2                !
 ! D23   D(22,7,8,6)           178.2024         estimate D2E/DX2                !
 ! D24   D(22,7,8,9)            -3.0896         estimate D2E/DX2                !
 ! D25   D(6,8,9,10)           150.4576         estimate D2E/DX2                !
 ! D26   D(6,8,9,14)           -29.5567         estimate D2E/DX2                !
 ! D27   D(7,8,9,10)           -28.1372         estimate D2E/DX2                !
 ! D28   D(7,8,9,14)           151.8485         estimate D2E/DX2                !
 ! D29   D(8,9,10,11)          179.5568         estimate D2E/DX2                !
 ! D30   D(8,9,10,23)           -1.476          estimate D2E/DX2                !
 ! D31   D(14,9,10,11)          -0.4288         estimate D2E/DX2                !
 ! D32   D(14,9,10,23)         178.5384         estimate D2E/DX2                !
 ! D33   D(8,9,14,13)          179.6879         estimate D2E/DX2                !
 ! D34   D(8,9,14,27)           -0.5977         estimate D2E/DX2                !
 ! D35   D(10,9,14,13)          -0.3265         estimate D2E/DX2                !
 ! D36   D(10,9,14,27)         179.3879         estimate D2E/DX2                !
 ! D37   D(9,10,11,12)           0.746          estimate D2E/DX2                !
 ! D38   D(9,10,11,24)        -179.9668         estimate D2E/DX2                !
 ! D39   D(23,10,11,12)       -178.2221         estimate D2E/DX2                !
 ! D40   D(23,10,11,24)          1.0651         estimate D2E/DX2                !
 ! D41   D(10,11,12,13)         -0.3056         estimate D2E/DX2                !
 ! D42   D(10,11,12,25)        179.7356         estimate D2E/DX2                !
 ! D43   D(24,11,12,13)       -179.5858         estimate D2E/DX2                !
 ! D44   D(24,11,12,25)          0.4554         estimate D2E/DX2                !
 ! D45   D(11,12,13,14)         -0.4632         estimate D2E/DX2                !
 ! D46   D(11,12,13,26)       -179.7643         estimate D2E/DX2                !
 ! D47   D(25,12,13,14)        179.4956         estimate D2E/DX2                !
 ! D48   D(25,12,13,26)          0.1945         estimate D2E/DX2                !
 ! D49   D(12,13,14,9)           0.7744         estimate D2E/DX2                !
 ! D50   D(12,13,14,27)       -178.936          estimate D2E/DX2                !
 ! D51   D(26,13,14,9)        -179.9179         estimate D2E/DX2                !
 ! D52   D(26,13,14,27)          0.3717         estimate D2E/DX2                !
 ! D53   D(2,15,16,17)        -179.0838         estimate D2E/DX2                !
 ! D54   D(2,15,16,28)           1.2321         estimate D2E/DX2                !
 ! D55   D(20,15,16,17)         -0.057          estimate D2E/DX2                !
 ! D56   D(20,15,16,28)       -179.7411         estimate D2E/DX2                !
 ! D57   D(2,15,20,19)         179.0648         estimate D2E/DX2                !
 ! D58   D(2,15,20,32)          -1.5486         estimate D2E/DX2                !
 ! D59   D(16,15,20,19)          0.019          estimate D2E/DX2                !
 ! D60   D(16,15,20,32)        179.4055         estimate D2E/DX2                !
 ! D61   D(15,16,17,18)          0.1088         estimate D2E/DX2                !
 ! D62   D(15,16,17,29)       -179.8222         estimate D2E/DX2                !
 ! D63   D(28,16,17,18)        179.7893         estimate D2E/DX2                !
 ! D64   D(28,16,17,29)         -0.1417         estimate D2E/DX2                !
 ! D65   D(16,17,18,19)         -0.1229         estimate D2E/DX2                !
 ! D66   D(16,17,18,30)        179.9494         estimate D2E/DX2                !
 ! D67   D(29,17,18,19)        179.8079         estimate D2E/DX2                !
 ! D68   D(29,17,18,30)         -0.1199         estimate D2E/DX2                !
 ! D69   D(17,18,19,20)          0.0844         estimate D2E/DX2                !
 ! D70   D(17,18,19,31)       -179.6894         estimate D2E/DX2                !
 ! D71   D(30,18,19,20)       -179.9877         estimate D2E/DX2                !
 ! D72   D(30,18,19,31)          0.2384         estimate D2E/DX2                !
 ! D73   D(18,19,20,15)         -0.0325         estimate D2E/DX2                !
 ! D74   D(18,19,20,32)       -179.4179         estimate D2E/DX2                !
 ! D75   D(31,19,20,15)        179.7421         estimate D2E/DX2                !
 ! D76   D(31,19,20,32)          0.3566         estimate D2E/DX2                !
 --------------------------------------------------------------------------------
 Trust Radius=3.00D-01 FncErr=1.00D-07 GrdErr=1.00D-06 EigMax=2.50D+02 EigMin=1.00D-04
 Number of steps in this run=    174 maximum allowed number of steps=    192.
 GradGradGradGradGradGradGradGradGradGradGradGradGradGradGradGradGradGrad

 Leave Link  103 at Thu Sep 24 14:39:41 2020, MaxMem=  2147483648 cpu:               0.1 elap:               0.0
 (Enter /prod/apps/gaussian/g16b1/l202.exe)
                          Input orientation:                          
 ---------------------------------------------------------------------
 Center     Atomic      Atomic             Coordinates (Angstroms)
 Number     Number       Type             X           Y           Z
 ---------------------------------------------------------------------
      1          8           0        2.291000   -0.790000    2.740000
      2         16           0        2.401000   -1.330000    1.355000
      3          7           0        1.019000   -1.757000    0.674000
      4          6           0       -0.065000   -0.904000    0.658000
      5          7           0       -0.136000    0.385000    1.137000
      6          7           0       -1.339000    0.873000    0.918000
      7          6           0       -1.310000   -1.209000    0.118000
      8          7           0       -2.061000   -0.087000    0.305000
      9          6           0       -3.411000    0.153000   -0.078000
     10          6           0       -3.946000   -0.510000   -1.187000
     11          6           0       -5.273000   -0.276000   -1.550000
     12          6           0       -6.057000    0.623000   -0.824000
     13          6           0       -5.509000    1.287000    0.277000
     14          6           0       -4.189000    1.051000    0.661000
     15          6           0        3.155000   -0.012000    0.369000
     16          6           0        3.210000    1.297000    0.852000
     17          6           0        3.780000    2.299000    0.063000
     18          6           0        4.289000    1.993000   -1.201000
     19          6           0        4.231000    0.679000   -1.679000
     20          6           0        3.664000   -0.326000   -0.896000
     21          8           0        3.309000   -2.498000    1.209000
     22          1           0       -1.698000   -2.109000   -0.329000
     23          1           0       -3.331000   -1.187000   -1.770000
     24          1           0       -5.687000   -0.792000   -2.411000
     25          1           0       -7.088000    0.805000   -1.113000
     26          1           0       -6.112000    1.985000    0.850000
     27          1           0       -3.761000    1.548000    1.523000
     28          1           0        2.815000    1.523000    1.836000
     29          1           0        3.827000    3.318000    0.437000
     30          1           0        4.731000    2.774000   -1.813000
     31          1           0        4.631000    0.438000   -2.660000
     32          1           0        3.626000   -1.348000   -1.260000
 ---------------------------------------------------------------------
                    Distance matrix (angstroms):
                    1          2          3          4          5
     1  O    0.000000
     2  S    1.490612   0.000000
     3  N    2.611787   1.598754   0.000000
     4  C    3.146181   2.597776   1.379464   0.000000
     5  N    3.136967   3.070036   2.477208   1.376954   0.000000
     6  N    4.388867   4.362543   3.540706   2.201909   1.316554
     7  C    4.474108   3.913608   2.456355   1.390917   2.226538
     8  N    5.036203   4.749420   3.522990   2.185432   2.149566
     9  C    6.429866   6.167019   4.882469   3.585340   3.500810
    10  C    7.375629   6.886115   5.446977   4.315255   4.551714
    11  C    8.711050   8.272860   6.835847   5.691477   5.834866
    12  C    9.186282   8.949861   7.614340   6.358625   6.241827
    13  C    8.439212   8.401123   7.213760   5.880712   5.515644
    14  C    7.049959   7.041228   5.916781   4.563925   4.134845
    15  C    2.640724   1.810479   2.774986   3.353742   3.402663
    16  C    2.960519   2.794391   3.762855   3.950653   3.479754
    17  C    4.350330   4.091521   4.944449   5.039569   4.489090
    18  C    5.221932   4.597827   5.317050   5.550298   5.256666
    19  C    5.044712   4.073099   4.667724   5.140338   5.204515
    20  C    3.914195   2.769510   3.392445   4.080985   4.367907
    21  O    2.509492   1.486608   2.465645   3.772044   4.492761
    22  H    5.202946   4.499389   2.917534   2.256742   3.287710
    23  H    7.218351   6.530076   5.022005   4.079464   4.596723
    24  H    9.496383   8.938006   7.444386   6.406106   6.692327
    25  H   10.264272  10.034459   8.687961   7.441751   7.319099
    26  H    9.048930   9.149613   8.055104   6.704431   6.193137
    27  H    6.601063   6.803040   5.873008   4.518954   3.826511
    28  H    2.538062   2.922733   3.915898   3.946190   3.239143
    29  H    4.953662   4.947737   5.804882   5.746459   4.979745
    30  H    6.275787   5.684007   6.363495   6.529559   6.172318
    31  H    6.011953   4.921275   5.383319   5.904448   6.094613
    32  H    4.253656   2.887763   3.271710   4.183221   4.785556
                    6          7          8          9         10
     6  N    0.000000
     7  C    2.230597   0.000000
     8  N    1.348574   1.363031   0.000000
     9  C    2.409066   2.511506   1.423653   0.000000
    10  C    3.624936   3.023263   2.440946   1.398455   0.000000
    11  C    4.784097   4.399782   3.713986   2.412026   1.395512
    12  C    5.035533   5.174707   4.212690   2.789038   2.423175
    13  C    4.239243   4.887422   3.711787   2.411138   2.795617
    14  C    2.867095   3.700147   2.439296   1.399217   2.431229
    15  C    4.613097   4.629475   5.216932   6.583266   7.286518
    16  C    4.569194   5.220076   5.477053   6.783161   7.657095
    17  C    5.382254   6.182005   6.314178   7.505710   8.315291
    18  C    6.117103   6.583416   6.849594   7.996045   8.606999
    19  C    6.148735   6.123433   6.641707   7.825602   8.277627
    20  C    5.455108   5.152530   5.854498   7.138220   7.617784
    21  O    5.749107   4.918024   5.955421   7.337750   7.894807
    22  H    3.252109   1.077197   2.149932   2.848511   2.889026
    23  H    3.928996   2.765767   2.669930   2.159830   1.084640
    24  H    5.723598   5.072264   4.584927   3.393537   2.146807
    25  H    6.097589   6.241542   5.298784   3.875133   3.406885
    26  H    4.901295   5.813490   4.582664   3.393053   3.881488
    27  H    2.586065   3.947464   2.654571   2.152145   3.407886
    28  H    4.303596   5.237459   5.358305   6.656078   7.680022
    29  H    5.735586   6.854506   6.802940   7.916508   8.815355
    30  H    6.922215   7.489107   7.668279   8.727659   9.298756
    31  H    6.973680   6.762054   7.338236   8.451137   8.754048
    32  H    5.858989   5.126627   6.031693   7.291741   7.618580
                   11         12         13         14         15
    11  C    0.000000
    12  C    1.396400   0.000000
    13  C    2.415904   1.397641   0.000000
    14  C    2.797232   2.424424   1.394830   0.000000
    15  C    8.647742   9.310608   8.761322   7.426276   0.000000
    16  C    8.955737   9.441427   8.737945   7.405552   1.396351
    17  C    9.549304  10.018099   9.346414   8.088267   2.413500
    18  C    9.833718  10.443120   9.933968   8.731030   2.787630
    19  C    9.552732  10.323619   9.953050   8.747021   2.414448
    20  C    8.961037   9.767478   9.387312   8.123422   1.399251
    21  O    9.284400  10.079469   9.641160   8.313586   2.628595
    22  H    4.198971   5.168146   5.140406   4.143764   5.332562
    23  H    2.156313   3.406184   3.880022   3.413879   6.929945
    24  H    1.085805   2.158169   3.402832   3.883019   9.301493
    25  H    2.157256   1.086097   2.158162   3.407608  10.381853
    26  H    3.402358   2.158783   1.085883   2.146161   9.491926
    27  H    3.880264   3.411107   2.162439   1.083161   7.183061
    28  H    8.950818   9.305804   8.472022   7.117543   2.150329
    29  H    9.983737  10.322141   9.555703   8.333410   3.397809
    30  H   10.461916  11.044721  10.556366   9.415721   3.873848
    31  H    9.991552  10.846127  10.590863   9.444427   3.399400
    32  H    8.968026   9.891179   9.630878   8.397599   2.158791
                   16         17         18         19         20
    16  C    0.000000
    17  C    1.396934   0.000000
    18  C    2.421459   1.396572   0.000000
    19  C    2.798272   2.421232   1.399444   0.000000
    20  C    2.428116   2.797099   2.421035   1.394490   0.000000
    21  O    3.813040   4.954429   5.190143   4.391350   3.045428
    22  H    6.089668   7.042202   7.309648   6.689431   5.679051
    23  H    7.471936   8.128863   8.276507   7.789357   7.101776
    24  H    9.704004  10.261532  10.427891  10.053178   9.484386
    25  H   10.495337  11.033061  11.439197  11.333843  10.813499
    26  H    9.347354   9.928224  10.601295  10.727494  10.196049
    27  H    7.007716   7.717660   8.510035   8.653325   8.030820
    28  H    1.084139   2.162621   3.408364   3.882347   3.406380
    29  H    2.153452   1.086483   2.156876   3.406610   3.883580
    30  H    3.405465   2.156247   1.086218   2.158004   3.404318
    31  H    3.884748   3.406208   2.159553   1.086481   2.151855
    32  H    3.410224   3.882609   3.406660   2.156459   1.085552
                   21         22         23         24         25
    21  O    0.000000
    22  H    5.252315   0.000000
    23  H    7.394779   2.365006   0.000000
    24  H    9.845956   4.688426   2.473387   0.000000
    25  H   11.153435   6.177229   4.302878   2.489581   0.000000
    26  H   10.439416   6.134678   4.965878   4.304239   2.489648
    27  H    8.151908   4.589065   4.302206   4.966028   4.309231
    28  H    4.099464   6.184320   7.623690   9.781628  10.357680
    29  H    5.889836   7.782333   8.740872  10.747995  11.307294
    30  H    6.240878   8.208409   8.982606  11.027633  12.002322
    31  H    5.033581   7.209508   8.174727  10.394038  11.826363
    32  H    2.742070   5.458100   6.977526   9.400314  10.929173
                   26         27         28         29         30
    26  H    0.000000
    27  H    2.484170   0.000000
    28  H    8.993162   6.583492   0.000000
    29  H   10.036492   7.867022   2.490657   0.000000
    30  H   11.193067   9.205761   4.307117   2.485086   0.000000
    31  H   11.407250   9.442206   4.968812   4.304907   2.486826
    32  H   10.506647   8.408310   4.299486   4.969081   4.303222
                   31         32
    31  H    0.000000
    32  H    2.481899   0.000000
 Symmetry turned off by external request.
 Stoichiometry    C14H11N4O2S(1-)
 Framework group  C1[X(C14H11N4O2S)]
 Deg. of freedom    90
 Full point group                 C1      NOp   1
 Rotational constants (GHZ):           0.6206947           0.1338842           0.1247994
 Leave Link  202 at Thu Sep 24 14:39:41 2020, MaxMem=  2147483648 cpu:               0.0 elap:               0.0
 (Enter /prod/apps/gaussian/g16b1/l301.exe)
 Standard basis: 6-31G(d) (6D, 7F)
 Ernie: Thresh=  0.10000D-02 Tol=  0.10000D-05 Strict=F.
   341 basis functions,   656 primitive gaussians,   341 cartesian basis functions
    78 alpha electrons       78 beta electrons
       nuclear repulsion energy      1691.6119904965 Hartrees.
 IExCor=  402 DFT=T Ex+Corr=B3LYP ExCW=0 ScaHFX=  0.200000
 ScaDFX=  0.800000  0.720000  1.000000  0.810000 ScalE2=  1.000000  1.000000
 IRadAn=      5 IRanWt=     -1 IRanGd=            0 ICorTp=0 IEmpDi=  4
 NAtoms=   32 NActive=   32 NUniq=   32 SFac= 1.00D+00 NAtFMM=   60 NAOKFM=F Big=F
 Integral buffers will be    131072 words long.
 Raffenetti 2 integral format.
 Two-electron integral symmetry is turned off.
 Using the following non-standard input for PCM:
 MSTModel=DFT cav MSTcharged
 --- end of non-standard input.
 MST model for solvation energy: B3LYP parametrization.
 MST cavity parameters:
 ISph   IAn     Re0     Alpha   Atom Type   QCorr
 ------------------------------------------------
   1      8     1.40     1.25      O          F
   2     16     1.75     1.25      S          F
   3      7     1.40     1.15      N          T
   4      6     1.50     1.25      C          F
   5      7     1.40     1.25      N          F
   6      7     1.40     1.25      N          F
   7      6     1.50     1.25      CH         F
   8      7     1.40     1.25      N          F
   9      6     1.50     1.25      C          F
  10      6     1.50     1.25      CH         F
  11      6     1.50     1.25      CH         F
  12      6     1.50     1.25      CH         F
  13      6     1.50     1.25      CH         F
  14      6     1.50     1.25      CH         F
  15      6     1.50     1.25      C          F
  16      6     1.50     1.25      CH         F
  17      6     1.50     1.25      CH         F
  18      6     1.50     1.25      CH         F
  19      6     1.50     1.25      CH         F
  20      6     1.50     1.25      CH         F
  21      8     1.40     1.25      O          F
  22      1     1.20     1.25      CH         F
  23      1     1.20     1.25      CH         F
  24      1     1.20     1.25      CH         F
  25      1     1.20     1.25      CH         F
  26      1     1.20     1.25      CH         F
  27      1     1.20     1.25      CH         F
  28      1     1.20     1.25      CH         F
  29      1     1.20     1.25      CH         F
  30      1     1.20     1.25      CH         F
  31      1     1.20     1.25      CH         F
  32      1     1.20     1.25      CH         F
 ------------------------------------------------------------------------------
 Polarizable Continuum Model (PCM)
 =================================
 Model                : PCM.
 Atomic radii         : MST.
 Polarization charges : Total charges.
 Charge compensation  : None.
 Solution method      : On-the-fly selection.
 Cavity type          : Scaled VdW (van der Waals Surface) (Alpha=1.250).
 Cavity algorithm     : GePol (No added spheres)
                        Default sphere list used, NSphG=   32.
                        Lebedev-Laikov grids with approx.  5.0 points / Ang**2.
                        Smoothing algorithm: York/Karplus (Gamma=1.0000).
                        Polarization charges: spherical gaussians, with
                                              point-specific exponents (IZeta= 3).
                        Self-potential: point-specific (ISelfS= 7).
                        Self-field    : sphere-specific E.n sum rule (ISelfD= 2).
 1st derivatives      : Analytical E(r).r(x)/FMM algorithm (CHGder, D1EAlg=3).
                        Cavity 1st derivative terms included.
 Solvent              : Water, Eps=  78.355300 Eps(inf)=   1.777849
 ------------------------------------------------------------------------------
 GePol: Number of generator spheres                  =      32
 GePol: Total number of spheres                      =      32
 GePol: Number of exposed spheres                    =      32 (100.00%)
 GePol: Number of points                             =    2618
 GePol: Average weight of points                     =       0.13
 GePol: Minimum weight of points                     =   0.31D-09
 GePol: Maximum weight of points                     =    0.22001
 GePol: Number of points with low weight             =     173
 GePol: Fraction of low-weight points (<1% of avg)   =       6.61%
 GePol: Cavity surface area                          =    335.965 Ang**2
 GePol: Cavity volume                                =    318.072 Ang**3
 PCM non-electrostatic energy =         0.0038962499 Hartrees.
 Nuclear repulsion after PCM non-electrostatic terms =     1691.6158867464 Hartrees.
 Leave Link  301 at Thu Sep 24 14:39:41 2020, MaxMem=  2147483648 cpu:               0.3 elap:               0.1
 (Enter /prod/apps/gaussian/g16b1/l302.exe)
 NPDir=0 NMtPBC=     1 NCelOv=     1 NCel=       1 NClECP=     1 NCelD=      1
         NCelK=      1 NCelE2=     1 NClLst=     1 CellRange=     0.0.
 One-electron integrals computed using PRISM.
 NBasis=   341 RedAO= T EigKep=  4.71D-04  NBF=   341
 NBsUse=   341 1.00D-06 EigRej= -1.00D+00 NBFU=   341
 Precomputing XC quadrature grid using
 IXCGrd= 4 IRadAn=           5 IRanWt=          -1 IRanGd=           0 AccXCQ= 0.00D+00.
 Generated NRdTot=       0 NPtTot=           0 NUsed=           0 NTot=          32
 NSgBfM=   336   336   336   336   336 MxSgAt=    32 MxSgA2=    32.
 Leave Link  302 at Thu Sep 24 14:39:42 2020, MaxMem=  2147483648 cpu:               1.6 elap:               0.4
 (Enter /prod/apps/gaussian/g16b1/l303.exe)
 DipDrv:  MaxL=1.
 Leave Link  303 at Thu Sep 24 14:39:42 2020, MaxMem=  2147483648 cpu:               0.1 elap:               0.1
 (Enter /prod/apps/gaussian/g16b1/l401.exe)
 ExpMin= 1.17D-01 ExpMax= 2.19D+04 ExpMxC= 3.30D+03 IAcc=3 IRadAn=         5 AccDes= 0.00D+00
 Harris functional with IExCor=  402 and IRadAn=       5 diagonalized for initial guess.
 HarFok:  IExCor=  402 AccDes= 0.00D+00 IRadAn=         5 IDoV= 1 UseB2=F ITyADJ=14
 ICtDFT=  3500011 ScaDFX=  1.000000  1.000000  1.000000  1.000000
 FoFCou: FMM=F IPFlag=           0 FMFlag=      100000 FMFlg1=           0
         NFxFlg=           0 DoJE=T BraDBF=F KetDBF=T FulRan=T
         wScrn=  0.000000 ICntrl=       500 IOpCl=  0 I1Cent=   200000004 NGrid=           0
         NMat0=    1 NMatS0=      1 NMatT0=    0 NMatD0=    1 NMtDS0=    0 NMtDT0=    0
 Symmetry not used in FoFCou.
 Harris En= -1307.83652803079    
 JPrj=0 DoOrth=F DoCkMO=F.
 Leave Link  401 at Thu Sep 24 14:39:44 2020, MaxMem=  2147483648 cpu:               8.4 elap:               2.1
 (Enter /prod/apps/gaussian/g16b1/l502.exe)
 Two-electron integral symmetry not used.
 Closed shell SCF:
 Using DIIS extrapolation, IDIIS=  1040.
 NGot=  2147483648 LenX=  2147246177 LenY=  2147129455
 Requested convergence on RMS density matrix=1.00D-08 within2000 cycles.
 Requested convergence on MAX density matrix=1.00D-06.
 Requested convergence on             energy=1.00D-06.
 No special actions if energy rises.

 Cycle   1  Pass 1  IDiag  1:
 FoFJK:  IHMeth= 1 ICntrl=       0 DoSepK=F KAlg= 0 I1Cent=           0 FoldK=F
 IRaf= 710000000 NMat=       1 IRICut=       1 DoRegI=T DoRafI=F ISym2E= 0 IDoP0=0 IntGTp=1.
 FoFCou: FMM=F IPFlag=           0 FMFlag=      100000 FMFlg1=           0
         NFxFlg=           0 DoJE=F BraDBF=F KetDBF=F FulRan=T
         wScrn=  0.000000 ICntrl=         0 IOpCl=  0 I1Cent=           0 NGrid=           0
         NMat0=    1 NMatS0=      1 NMatT0=    0 NMatD0=    1 NMtDS0=    0 NMtDT0=    0
 Symmetry not used in FoFCou.
 Inv3:  Mode=1 IEnd=    20561772.
 Iteration    1 A*A^-1 deviation from unit magnitude is 3.33D-15 for   2166.
 Iteration    1 A*A^-1 deviation from orthogonality  is 4.00D-15 for   2456    844.
 Iteration    1 A^-1*A deviation from unit magnitude is 3.44D-15 for   1387.
 Iteration    1 A^-1*A deviation from orthogonality  is 7.88D-15 for   2475   2456.
 E= -1307.19804460031    
 DIIS: error= 2.71D-02 at cycle   1 NSaved=   1.
 NSaved= 1 IEnMin= 1 EnMin= -1307.19804460031     IErMin= 1 ErrMin= 2.71D-02
 ErrMax= 2.71D-02  0.00D+00 EMaxC= 1.00D-01 BMatC= 6.82D-01 BMatP= 6.82D-01
 IDIUse=3 WtCom= 7.29D-01 WtEn= 2.71D-01
 Coeff-Com:  0.100D+01
 Coeff-En:   0.100D+01
 Coeff:      0.100D+01
 Gap=     0.208 Goal=   None    Shift=    0.000
 GapD=    0.208 DampG=1.000 DampE=0.500 DampFc=0.5000 IDamp=-1.
 Damping current iteration by 5.00D-01
 RMSDP=5.89D-03 MaxDP=5.17D-01              OVMax= 2.00D-01

 Cycle   2  Pass 1  IDiag  1:
 E= -1307.38596444867     Delta-E=       -0.187919848360 Rises=F Damp=T
 DIIS: error= 1.09D-02 at cycle   2 NSaved=   2.
 NSaved= 2 IEnMin= 2 EnMin= -1307.38596444867     IErMin= 2 ErrMin= 1.09D-02
 ErrMax= 1.09D-02  0.00D+00 EMaxC= 1.00D-01 BMatC= 8.46D-02 BMatP= 6.82D-01
 IDIUse=3 WtCom= 8.91D-01 WtEn= 1.09D-01
 Coeff-Com:  0.192D+00 0.808D+00
 Coeff-En:   0.308D+00 0.692D+00
 Coeff:      0.205D+00 0.795D+00
 Gap=     0.192 Goal=   None    Shift=    0.000
 RMSDP=1.67D-03 MaxDP=1.25D-01 DE=-1.88D-01 OVMax= 1.70D-01

 Cycle   3  Pass 1  IDiag  1:
 E= -1307.75894394122     Delta-E=       -0.372979492553 Rises=F Damp=F
 DIIS: error= 7.15D-03 at cycle   3 NSaved=   3.
 NSaved= 3 IEnMin= 3 EnMin= -1307.75894394122     IErMin= 3 ErrMin= 7.15D-03
 ErrMax= 7.15D-03  0.00D+00 EMaxC= 1.00D-01 BMatC= 4.13D-02 BMatP= 8.46D-02
 IDIUse=3 WtCom= 9.29D-01 WtEn= 7.15D-02
 Coeff-Com:  0.415D-01 0.408D+00 0.550D+00
 Coeff-En:   0.000D+00 0.000D+00 0.100D+01
 Coeff:      0.385D-01 0.379D+00 0.582D+00
 Gap=     0.160 Goal=   None    Shift=    0.000
 RMSDP=8.73D-04 MaxDP=3.58D-02 DE=-3.73D-01 OVMax= 4.50D-02

 Cycle   4  Pass 1  IDiag  1:
 E= -1307.79178634126     Delta-E=       -0.032842400035 Rises=F Damp=F
 DIIS: error= 2.94D-03 at cycle   4 NSaved=   4.
 NSaved= 4 IEnMin= 4 EnMin= -1307.79178634126     IErMin= 4 ErrMin= 2.94D-03
 ErrMax= 2.94D-03  0.00D+00 EMaxC= 1.00D-01 BMatC= 6.88D-03 BMatP= 4.13D-02
 IDIUse=3 WtCom= 9.71D-01 WtEn= 2.94D-02
 Coeff-Com:  0.182D-02 0.976D-01 0.315D+00 0.585D+00
 Coeff-En:   0.000D+00 0.000D+00 0.126D+00 0.874D+00
 Coeff:      0.177D-02 0.947D-01 0.310D+00 0.594D+00
 Gap=     0.157 Goal=   None    Shift=    0.000
 RMSDP=2.99D-04 MaxDP=1.36D-02 DE=-3.28D-02 OVMax= 1.88D-02

 Cycle   5  Pass 1  IDiag  1:
 E= -1307.79754118141     Delta-E=       -0.005754840150 Rises=F Damp=F
 DIIS: error= 9.75D-04 at cycle   5 NSaved=   5.
 NSaved= 5 IEnMin= 5 EnMin= -1307.79754118141     IErMin= 5 ErrMin= 9.75D-04
 ErrMax= 9.75D-04  0.00D+00 EMaxC= 1.00D-01 BMatC= 7.12D-04 BMatP= 6.88D-03
 IDIUse=3 WtCom= 9.90D-01 WtEn= 9.75D-03
 Coeff-Com: -0.251D-02 0.183D-01 0.119D+00 0.328D+00 0.537D+00
 Coeff-En:   0.000D+00 0.000D+00 0.000D+00 0.227D-01 0.977D+00
 Coeff:     -0.248D-02 0.181D-01 0.118D+00 0.325D+00 0.541D+00
 Gap=     0.159 Goal=   None    Shift=    0.000
 RMSDP=9.28D-05 MaxDP=5.42D-03 DE=-5.75D-03 OVMax= 6.72D-03

 Cycle   6  Pass 1  IDiag  1:
 E= -1307.79814613195     Delta-E=       -0.000604950536 Rises=F Damp=F
 DIIS: error= 1.94D-04 at cycle   6 NSaved=   6.
 NSaved= 6 IEnMin= 6 EnMin= -1307.79814613195     IErMin= 6 ErrMin= 1.94D-04
 ErrMax= 1.94D-04  0.00D+00 EMaxC= 1.00D-01 BMatC= 5.07D-05 BMatP= 7.12D-04
 IDIUse=3 WtCom= 9.98D-01 WtEn= 1.94D-03
 Coeff-Com: -0.149D-02 0.346D-02 0.414D-01 0.131D+00 0.291D+00 0.535D+00
 Coeff-En:   0.000D+00 0.000D+00 0.000D+00 0.000D+00 0.000D+00 0.100D+01
 Coeff:     -0.149D-02 0.346D-02 0.413D-01 0.130D+00 0.291D+00 0.535D+00
 Gap=     0.159 Goal=   None    Shift=    0.000
 RMSDP=2.44D-05 MaxDP=1.26D-03 DE=-6.05D-04 OVMax= 1.95D-03

 Cycle   7  Pass 1  IDiag  1:
 E= -1307.79818762898     Delta-E=       -0.000041497030 Rises=F Damp=F
 DIIS: error= 5.10D-05 at cycle   7 NSaved=   7.
 NSaved= 7 IEnMin= 7 EnMin= -1307.79818762898     IErMin= 7 ErrMin= 5.10D-05
 ErrMax= 5.10D-05  0.00D+00 EMaxC= 1.00D-01 BMatC= 3.66D-06 BMatP= 5.07D-05
 IDIUse=1 WtCom= 1.00D+00 WtEn= 0.00D+00
 Coeff-Com: -0.629D-03 0.358D-03 0.129D-01 0.444D-01 0.115D+00 0.287D+00
 Coeff-Com:  0.541D+00
 Coeff:     -0.629D-03 0.358D-03 0.129D-01 0.444D-01 0.115D+00 0.287D+00
 Coeff:      0.541D+00
 Gap=     0.159 Goal=   None    Shift=    0.000
 RMSDP=6.83D-06 MaxDP=3.17D-04 DE=-4.15D-05 OVMax= 4.52D-04

 Cycle   8  Pass 1  IDiag  1:
 E= -1307.79819050498     Delta-E=       -0.000002876001 Rises=F Damp=F
 DIIS: error= 3.00D-05 at cycle   8 NSaved=   8.
 NSaved= 8 IEnMin= 8 EnMin= -1307.79819050498     IErMin= 8 ErrMin= 3.00D-05
 ErrMax= 3.00D-05  0.00D+00 EMaxC= 1.00D-01 BMatC= 4.30D-07 BMatP= 3.66D-06
 IDIUse=1 WtCom= 1.00D+00 WtEn= 0.00D+00
 Coeff-Com: -0.207D-03-0.205D-03 0.282D-02 0.112D-01 0.349D-01 0.105D+00
 Coeff-Com:  0.305D+00 0.541D+00
 Coeff:     -0.207D-03-0.205D-03 0.282D-02 0.112D-01 0.349D-01 0.105D+00
 Coeff:      0.305D+00 0.541D+00
 Gap=     0.159 Goal=   None    Shift=    0.000
 RMSDP=2.54D-06 MaxDP=1.04D-04 DE=-2.88D-06 OVMax= 2.05D-04

 Cycle   9  Pass 1  IDiag  1:
 E= -1307.79819087108     Delta-E=       -0.000000366104 Rises=F Damp=F
 DIIS: error= 8.07D-06 at cycle   9 NSaved=   9.
 NSaved= 9 IEnMin= 9 EnMin= -1307.79819087108     IErMin= 9 ErrMin= 8.07D-06
 ErrMax= 8.07D-06  0.00D+00 EMaxC= 1.00D-01 BMatC= 4.78D-08 BMatP= 4.30D-07
 IDIUse=1 WtCom= 1.00D+00 WtEn= 0.00D+00
 Coeff-Com: -0.183D-04-0.124D-03-0.320D-03-0.521D-03 0.192D-02 0.143D-01
 Coeff-Com:  0.836D-01 0.295D+00 0.606D+00
 Coeff:     -0.183D-04-0.124D-03-0.320D-03-0.521D-03 0.192D-02 0.143D-01
 Coeff:      0.836D-01 0.295D+00 0.606D+00
 Gap=     0.159 Goal=   None    Shift=    0.000
 RMSDP=8.10D-07 MaxDP=4.59D-05 DE=-3.66D-07 OVMax= 7.61D-05

 Cycle  10  Pass 1  IDiag  1:
 E= -1307.79819091159     Delta-E=       -0.000000040512 Rises=F Damp=F
 DIIS: error= 3.17D-06 at cycle  10 NSaved=  10.
 NSaved=10 IEnMin=10 EnMin= -1307.79819091159     IErMin=10 ErrMin= 3.17D-06
 ErrMax= 3.17D-06  0.00D+00 EMaxC= 1.00D-01 BMatC= 6.18D-09 BMatP= 4.78D-08
 IDIUse=1 WtCom= 1.00D+00 WtEn= 0.00D+00
 Coeff-Com: -0.997D-07-0.646D-04-0.367D-03-0.103D-02-0.101D-02 0.180D-02
 Coeff-Com:  0.310D-01 0.145D+00 0.371D+00 0.454D+00
 Coeff:     -0.997D-07-0.646D-04-0.367D-03-0.103D-02-0.101D-02 0.180D-02
 Coeff:      0.310D-01 0.145D+00 0.371D+00 0.454D+00
 Gap=     0.159 Goal=   None    Shift=    0.000
 RMSDP=2.61D-07 MaxDP=1.40D-05 DE=-4.05D-08 OVMax= 2.17D-05

 Cycle  11  Pass 1  IDiag  1:
 E= -1307.79819091714     Delta-E=       -0.000000005548 Rises=F Damp=F
 DIIS: error= 4.72D-07 at cycle  11 NSaved=  11.
 NSaved=11 IEnMin=11 EnMin= -1307.79819091714     IErMin=11 ErrMin= 4.72D-07
 ErrMax= 4.72D-07  0.00D+00 EMaxC= 1.00D-01 BMatC= 2.66D-10 BMatP= 6.18D-09
 IDIUse=1 WtCom= 1.00D+00 WtEn= 0.00D+00
 Coeff-Com:  0.202D-05-0.967D-05-0.142D-03-0.468D-03-0.846D-03-0.137D-02
 Coeff-Com:  0.295D-02 0.280D-01 0.942D-01 0.198D+00 0.680D+00
 Coeff:      0.202D-05-0.967D-05-0.142D-03-0.468D-03-0.846D-03-0.137D-02
 Coeff:      0.295D-02 0.280D-01 0.942D-01 0.198D+00 0.680D+00
 Gap=     0.159 Goal=   None    Shift=    0.000
 RMSDP=7.10D-08 MaxDP=2.56D-06 DE=-5.55D-09 OVMax= 5.75D-06

 Cycle  12  Pass 1  IDiag  1:
 E= -1307.79819091734     Delta-E=       -0.000000000197 Rises=F Damp=F
 DIIS: error= 2.84D-07 at cycle  12 NSaved=  12.
 NSaved=12 IEnMin=12 EnMin= -1307.79819091734     IErMin=12 ErrMin= 2.84D-07
 ErrMax= 2.84D-07  0.00D+00 EMaxC= 1.00D-01 BMatC= 8.36D-11 BMatP= 2.66D-10
 IDIUse=1 WtCom= 1.00D+00 WtEn= 0.00D+00
 Coeff-Com:  0.923D-06 0.166D-05-0.424D-04-0.157D-03-0.368D-03-0.976D-03
 Coeff-Com: -0.159D-02 0.755D-03 0.143D-01 0.623D-01 0.413D+00 0.513D+00
 Coeff:      0.923D-06 0.166D-05-0.424D-04-0.157D-03-0.368D-03-0.976D-03
 Coeff:     -0.159D-02 0.755D-03 0.143D-01 0.623D-01 0.413D+00 0.513D+00
 Gap=     0.159 Goal=   None    Shift=    0.000
 RMSDP=3.00D-08 MaxDP=1.59D-06 DE=-1.97D-10 OVMax= 3.03D-06

 Cycle  13  Pass 1  IDiag  1:
 E= -1307.79819091741     Delta-E=       -0.000000000070 Rises=F Damp=F
 DIIS: error= 6.40D-08 at cycle  13 NSaved=  13.
 NSaved=13 IEnMin=13 EnMin= -1307.79819091741     IErMin=13 ErrMin= 6.40D-08
 ErrMax= 6.40D-08  0.00D+00 EMaxC= 1.00D-01 BMatC= 3.19D-12 BMatP= 8.36D-11
 IDIUse=1 WtCom= 1.00D+00 WtEn= 0.00D+00
 Coeff-Com:  0.219D-06 0.153D-05-0.735D-05-0.316D-04-0.954D-04-0.326D-03
 Coeff-Com: -0.946D-03-0.192D-02-0.208D-02 0.856D-02 0.120D+00 0.223D+00
 Coeff-Com:  0.654D+00
 Coeff:      0.219D-06 0.153D-05-0.735D-05-0.316D-04-0.954D-04-0.326D-03
 Coeff:     -0.946D-03-0.192D-02-0.208D-02 0.856D-02 0.120D+00 0.223D+00
 Coeff:      0.654D+00
 Gap=     0.159 Goal=   None    Shift=    0.000
 RMSDP=8.17D-09 MaxDP=3.80D-07 DE=-7.00D-11 OVMax= 5.32D-07

 Error on total polarization charges =  0.02489
 SCF Done:  E(RB3LYP) =  -1307.79819092     A.U. after   13 cycles
            NFock= 13  Conv=0.82D-08     -V/T= 2.0077
 KE= 1.297763756476D+03 PE=-6.467440812169D+03 EE= 2.170262978030D+03
 Leave Link  502 at Thu Sep 24 14:40:55 2020, MaxMem=  2147483648 cpu:             283.4 elap:              70.9
 (Enter /prod/apps/gaussian/g16b1/l601.exe)
 Copying SCF densities to generalized density rwf, IOpCl= 0 IROHF=0.

 **********************************************************************

            Population analysis using the SCF Density.

 **********************************************************************

 Alpha  occ. eigenvalues --  -89.08572 -19.11585 -19.11335 -14.42912 -14.38478
 Alpha  occ. eigenvalues --  -14.34572 -14.29826 -10.24524 -10.24074 -10.21408
 Alpha  occ. eigenvalues --  -10.21159 -10.20183 -10.19999 -10.19958 -10.19873
 Alpha  occ. eigenvalues --  -10.19837 -10.19815 -10.19622 -10.19562 -10.19557
 Alpha  occ. eigenvalues --  -10.19517  -8.10946  -6.07442  -6.07348  -6.07312
 Alpha  occ. eigenvalues --   -1.09089  -1.07647  -0.96347  -0.92646  -0.88311
 Alpha  occ. eigenvalues --   -0.85992  -0.85215  -0.78550  -0.75898  -0.75585
 Alpha  occ. eigenvalues --   -0.75086  -0.74970  -0.65852  -0.65169  -0.62418
 Alpha  occ. eigenvalues --   -0.60936  -0.60149  -0.58808  -0.56581  -0.54740
 Alpha  occ. eigenvalues --   -0.51850  -0.49868  -0.48428  -0.47600  -0.46940
 Alpha  occ. eigenvalues --   -0.46311  -0.45321  -0.44612  -0.44356  -0.43651
 Alpha  occ. eigenvalues --   -0.42878  -0.42550  -0.42395  -0.38290  -0.37594
 Alpha  occ. eigenvalues --   -0.36885  -0.36744  -0.35784  -0.34973  -0.34565
 Alpha  occ. eigenvalues --   -0.33242  -0.31765  -0.31331  -0.29600  -0.28954
 Alpha  occ. eigenvalues --   -0.28356  -0.27683  -0.26106  -0.25830  -0.25686
 Alpha  occ. eigenvalues --   -0.24744  -0.24330  -0.19192
 Alpha virt. eigenvalues --   -0.03314  -0.01984  -0.01094  -0.00652   0.02463
 Alpha virt. eigenvalues --    0.06474   0.08627   0.09457   0.11688   0.12500
 Alpha virt. eigenvalues --    0.13444   0.13682   0.14924   0.15252   0.15314
 Alpha virt. eigenvalues --    0.15981   0.16573   0.17276   0.18699   0.18974
 Alpha virt. eigenvalues --    0.19168   0.19498   0.20293   0.21013   0.22826
 Alpha virt. eigenvalues --    0.24085   0.26018   0.28562   0.29906   0.30258
 Alpha virt. eigenvalues --    0.30609   0.31550   0.31819   0.33360   0.34132
 Alpha virt. eigenvalues --    0.34468   0.37277   0.38813   0.39564   0.43268
 Alpha virt. eigenvalues --    0.44088   0.46219   0.48537   0.50165   0.51080
 Alpha virt. eigenvalues --    0.51976   0.52550   0.53052   0.53502   0.54982
 Alpha virt. eigenvalues --    0.55571   0.56107   0.56610   0.57124   0.58178
 Alpha virt. eigenvalues --    0.58290   0.58550   0.58807   0.59064   0.59205
 Alpha virt. eigenvalues --    0.60082   0.60520   0.60798   0.60959   0.61323
 Alpha virt. eigenvalues --    0.61343   0.62648   0.63397   0.63606   0.64003
 Alpha virt. eigenvalues --    0.64673   0.66233   0.68010   0.69691   0.71097
 Alpha virt. eigenvalues --    0.73063   0.73378   0.76268   0.76777   0.78324
 Alpha virt. eigenvalues --    0.79246   0.79402   0.80991   0.82297   0.82658
 Alpha virt. eigenvalues --    0.83870   0.83982   0.84216   0.84358   0.84816
 Alpha virt. eigenvalues --    0.84895   0.86559   0.87532   0.88031   0.90457
 Alpha virt. eigenvalues --    0.90779   0.91535   0.92221   0.92396   0.93335
 Alpha virt. eigenvalues --    0.94123   0.94730   0.94907   0.96337   0.98436
 Alpha virt. eigenvalues --    0.99598   1.00447   1.00871   1.02915   1.04281
 Alpha virt. eigenvalues --    1.04771   1.06027   1.06568   1.06987   1.08741
 Alpha virt. eigenvalues --    1.10020   1.11516   1.13358   1.14962   1.15501
 Alpha virt. eigenvalues --    1.16042   1.17011   1.18023   1.19500   1.21134
 Alpha virt. eigenvalues --    1.22769   1.23414   1.26102   1.26373   1.27115
 Alpha virt. eigenvalues --    1.27801   1.32004   1.34137   1.35139   1.38784
 Alpha virt. eigenvalues --    1.39959   1.42120   1.42395   1.43012   1.43422
 Alpha virt. eigenvalues --    1.44118   1.45107   1.46579   1.47071   1.48293
 Alpha virt. eigenvalues --    1.48602   1.49969   1.50371   1.50536   1.54810
 Alpha virt. eigenvalues --    1.57378   1.59297   1.60134   1.64178   1.67167
 Alpha virt. eigenvalues --    1.70071   1.74002   1.76594   1.78256   1.79114
 Alpha virt. eigenvalues --    1.80272   1.80815   1.81324   1.82764   1.83394
 Alpha virt. eigenvalues --    1.83778   1.86401   1.87105   1.88732   1.88997
 Alpha virt. eigenvalues --    1.89681   1.92149   1.93235   1.94692   1.95342
 Alpha virt. eigenvalues --    1.96670   1.97741   1.98667   2.01297   2.01622
 Alpha virt. eigenvalues --    2.02470   2.05702   2.07634   2.10154   2.10620
 Alpha virt. eigenvalues --    2.11414   2.12437   2.13050   2.13499   2.14325
 Alpha virt. eigenvalues --    2.14782   2.15341   2.15900   2.16340   2.18965
 Alpha virt. eigenvalues --    2.20917   2.24082   2.24403   2.25386   2.28299
 Alpha virt. eigenvalues --    2.29164   2.29919   2.30151   2.32100   2.32249
 Alpha virt. eigenvalues --    2.33270   2.34366   2.36348   2.48302   2.49290
 Alpha virt. eigenvalues --    2.51952   2.54809   2.55301   2.58039   2.58273
 Alpha virt. eigenvalues --    2.59031   2.61594   2.64352   2.64523   2.65818
 Alpha virt. eigenvalues --    2.67238   2.68151   2.71036   2.71164   2.72665
 Alpha virt. eigenvalues --    2.72898   2.73295   2.74154   2.76177   2.78008
 Alpha virt. eigenvalues --    2.81554   2.82932   2.85117   2.88585   2.90072
 Alpha virt. eigenvalues --    3.03810   3.04408   3.07638   3.16157   3.26254
 Alpha virt. eigenvalues --    3.37741   3.42147   3.64018   3.81489   3.96248
 Alpha virt. eigenvalues --    4.03432   4.06175   4.07995   4.09032   4.10541
 Alpha virt. eigenvalues --    4.10821   4.11711   4.14224   4.16093   4.22041
 Alpha virt. eigenvalues --    4.28122   4.32054   4.33010   4.36286   4.40346
 Alpha virt. eigenvalues --    4.49194   4.66530   4.71286
          Condensed to atoms (all electrons):
               1          2          3          4          5          6
     1  O    8.399038   0.395258  -0.057154  -0.001366   0.001107   0.000043
     2  S    0.395258  13.678860   0.298530  -0.021534   0.003131   0.000291
     3  N   -0.057154   0.298530   7.437533   0.356617  -0.074807   0.005718
     4  C   -0.001366  -0.021534   0.356617   4.541251   0.337329  -0.079059
     5  N    0.001107   0.003131  -0.074807   0.337329   7.057779   0.262373
     6  N    0.000043   0.000291   0.005718  -0.079059   0.262373   6.842889
     7  C   -0.000106  -0.000689  -0.066273   0.504975  -0.078722  -0.098133
     8  N    0.000001   0.000344   0.002371  -0.026584  -0.095474   0.226347
     9  C    0.000000  -0.000012  -0.000087   0.003894   0.006726  -0.041286
    10  C   -0.000000   0.000000   0.000001   0.000799  -0.000311   0.002588
    11  C   -0.000000  -0.000000   0.000000  -0.000007   0.000002  -0.000074
    12  C    0.000000  -0.000000  -0.000000   0.000000  -0.000000   0.000019
    13  C    0.000000  -0.000000  -0.000000   0.000005  -0.000004   0.000262
    14  C   -0.000000  -0.000000  -0.000000  -0.000408   0.000295   0.000869
    15  C   -0.059553   0.141408  -0.068269  -0.002083  -0.002232  -0.000004
    16  C    0.000738  -0.021565  -0.001251  -0.000051   0.002598  -0.000081
    17  C    0.000586   0.001872  -0.000091  -0.000023  -0.000121   0.000002
    18  C   -0.000004  -0.000563  -0.000002   0.000005   0.000003   0.000000
    19  C   -0.000050   0.002438  -0.000080  -0.000008  -0.000005  -0.000000
    20  C    0.002142  -0.019347  -0.002026   0.000003  -0.000027  -0.000004
    21  O   -0.051425   0.440621  -0.070849   0.001221  -0.000039   0.000000
    22  H    0.000001  -0.000077  -0.000025  -0.028282   0.005292   0.003990
    23  H   -0.000000  -0.000000  -0.000005   0.000007  -0.000004  -0.000105
    24  H   -0.000000   0.000000   0.000000   0.000000  -0.000000   0.000001
    25  H    0.000000  -0.000000  -0.000000  -0.000000   0.000000   0.000000
    26  H    0.000000   0.000000   0.000000  -0.000000   0.000000  -0.000008
    27  H    0.000000  -0.000000  -0.000000   0.000026  -0.000345   0.015443
    28  H    0.012283  -0.002490   0.000164   0.000003   0.002012  -0.000015
    29  H    0.000002  -0.000016   0.000001   0.000000  -0.000007   0.000000
    30  H   -0.000000   0.000005  -0.000000  -0.000000   0.000000  -0.000000
    31  H    0.000000  -0.000029   0.000002  -0.000000  -0.000000   0.000000
    32  H    0.000090   0.001302   0.000390   0.000032  -0.000007   0.000000
               7          8          9         10         11         12
     1  O   -0.000106   0.000001   0.000000  -0.000000  -0.000000   0.000000
     2  S   -0.000689   0.000344  -0.000012   0.000000  -0.000000  -0.000000
     3  N   -0.066273   0.002371  -0.000087   0.000001   0.000000  -0.000000
     4  C    0.504975  -0.026584   0.003894   0.000799  -0.000007   0.000000
     5  N   -0.078722  -0.095474   0.006726  -0.000311   0.000002  -0.000000
     6  N   -0.098133   0.226347  -0.041286   0.002588  -0.000074   0.000019
     7  C    5.114780   0.313449  -0.030562  -0.006488   0.000013   0.000017
     8  N    0.313449   6.875436   0.208796  -0.052038   0.004781   0.000306
     9  C   -0.030562   0.208796   4.630644   0.526226  -0.010620  -0.038147
    10  C   -0.006488  -0.052038   0.526226   5.000283   0.523171  -0.040923
    11  C    0.000013   0.004781  -0.010620   0.523171   4.873853   0.543135
    12  C    0.000017   0.000306  -0.038147  -0.040923   0.543135   4.878510
    13  C   -0.000096   0.004656  -0.011418  -0.041468  -0.025652   0.538497
    14  C    0.006984  -0.062077   0.509968  -0.070488  -0.041338  -0.039362
    15  C   -0.000340  -0.000007   0.000000   0.000000   0.000000  -0.000000
    16  C    0.000004   0.000004  -0.000000   0.000000  -0.000000  -0.000000
    17  C   -0.000001  -0.000000   0.000000  -0.000000   0.000000   0.000000
    18  C    0.000000   0.000000   0.000000  -0.000000  -0.000000   0.000000
    19  C    0.000000   0.000000  -0.000000   0.000000  -0.000000  -0.000000
    20  C   -0.000034   0.000000   0.000000  -0.000000   0.000000  -0.000000
    21  O   -0.000050   0.000000  -0.000000   0.000000  -0.000000  -0.000000
    22  H    0.362232  -0.038008  -0.000988   0.001883   0.000137  -0.000001
    23  H    0.006276  -0.008853  -0.038841   0.354102  -0.036586   0.004377
    24  H   -0.000004  -0.000107   0.003443  -0.037711   0.363007  -0.040064
    25  H   -0.000000   0.000003   0.000480   0.004788  -0.041400   0.365403
    26  H    0.000001  -0.000103   0.003537   0.000684   0.004477  -0.040442
    27  H    0.000183  -0.012744  -0.040773   0.005678   0.000084   0.004610
    28  H    0.000006   0.000002  -0.000000   0.000000  -0.000000  -0.000000
    29  H   -0.000000   0.000000   0.000000  -0.000000  -0.000000   0.000000
    30  H    0.000000  -0.000000  -0.000000   0.000000   0.000000  -0.000000
    31  H    0.000000  -0.000000   0.000000  -0.000000  -0.000000   0.000000
    32  H   -0.000000  -0.000000   0.000000  -0.000000  -0.000000   0.000000
              13         14         15         16         17         18
     1  O    0.000000  -0.000000  -0.059553   0.000738   0.000586  -0.000004
     2  S   -0.000000  -0.000000   0.141408  -0.021565   0.001872  -0.000563
     3  N   -0.000000  -0.000000  -0.068269  -0.001251  -0.000091  -0.000002
     4  C    0.000005  -0.000408  -0.002083  -0.000051  -0.000023   0.000005
     5  N   -0.000004   0.000295  -0.002232   0.002598  -0.000121   0.000003
     6  N    0.000262   0.000869  -0.000004  -0.000081   0.000002   0.000000
     7  C   -0.000096   0.006984  -0.000340   0.000004  -0.000001   0.000000
     8  N    0.004656  -0.062077  -0.000007   0.000004  -0.000000   0.000000
     9  C   -0.011418   0.509968   0.000000  -0.000000   0.000000   0.000000
    10  C   -0.041468  -0.070488   0.000000   0.000000  -0.000000  -0.000000
    11  C   -0.025652  -0.041338   0.000000  -0.000000   0.000000  -0.000000
    12  C    0.538497  -0.039362  -0.000000  -0.000000   0.000000   0.000000
    13  C    4.887802   0.516075   0.000000   0.000000  -0.000000  -0.000000
    14  C    0.516075   5.009303   0.000000   0.000000   0.000000  -0.000000
    15  C    0.000000   0.000000   5.415092   0.501063  -0.030655  -0.039640
    16  C    0.000000   0.000000   0.501063   4.969811   0.495432  -0.032225
    17  C   -0.000000   0.000000  -0.030655   0.495432   4.911819   0.542277
    18  C   -0.000000  -0.000000  -0.039640  -0.032225   0.542277   4.876032
    19  C    0.000000   0.000000  -0.027212  -0.037391  -0.034154   0.537073
    20  C    0.000000   0.000000   0.465469  -0.041735  -0.035745  -0.030448
    21  O   -0.000000   0.000000  -0.063881   0.000880  -0.000054  -0.000007
    22  H   -0.000006  -0.000095  -0.000001  -0.000000   0.000000  -0.000000
    23  H    0.000197   0.005491   0.000000   0.000000   0.000000  -0.000000
    24  H    0.004447   0.000707  -0.000000   0.000000  -0.000000   0.000000
    25  H   -0.041581   0.004604   0.000000   0.000000   0.000000  -0.000000
    26  H    0.363254  -0.037771  -0.000000   0.000000   0.000000   0.000000
    27  H   -0.038611   0.356247   0.000000   0.000000   0.000000  -0.000000
    28  H    0.000000  -0.000000  -0.047464   0.357774  -0.038091   0.004446
    29  H   -0.000000  -0.000000   0.004830  -0.041622   0.365350  -0.042251
    30  H    0.000000   0.000000   0.000423   0.004693  -0.041617   0.364096
    31  H   -0.000000  -0.000000   0.005033   0.000576   0.004428  -0.041986
    32  H   -0.000000  -0.000000  -0.051917   0.004645   0.000383   0.004353
              19         20         21         22         23         24
     1  O   -0.000050   0.002142  -0.051425   0.000001  -0.000000  -0.000000
     2  S    0.002438  -0.019347   0.440621  -0.000077  -0.000000   0.000000
     3  N   -0.000080  -0.002026  -0.070849  -0.000025  -0.000005   0.000000
     4  C   -0.000008   0.000003   0.001221  -0.028282   0.000007   0.000000
     5  N   -0.000005  -0.000027  -0.000039   0.005292  -0.000004  -0.000000
     6  N   -0.000000  -0.000004   0.000000   0.003990  -0.000105   0.000001
     7  C    0.000000  -0.000034  -0.000050   0.362232   0.006276  -0.000004
     8  N    0.000000   0.000000   0.000000  -0.038008  -0.008853  -0.000107
     9  C   -0.000000   0.000000  -0.000000  -0.000988  -0.038841   0.003443
    10  C    0.000000  -0.000000   0.000000   0.001883   0.354102  -0.037711
    11  C   -0.000000   0.000000  -0.000000   0.000137  -0.036586   0.363007
    12  C   -0.000000  -0.000000  -0.000000  -0.000001   0.004377  -0.040064
    13  C    0.000000   0.000000  -0.000000  -0.000006   0.000197   0.004447
    14  C    0.000000   0.000000   0.000000  -0.000095   0.005491   0.000707
    15  C   -0.027212   0.465469  -0.063881  -0.000001   0.000000  -0.000000
    16  C   -0.037391  -0.041735   0.000880  -0.000000   0.000000   0.000000
    17  C   -0.034154  -0.035745  -0.000054   0.000000   0.000000  -0.000000
    18  C    0.537073  -0.030448  -0.000007  -0.000000  -0.000000   0.000000
    19  C    4.903775   0.507296   0.000430   0.000000   0.000000   0.000000
    20  C    0.507296   4.985311   0.001540   0.000000   0.000000  -0.000000
    21  O    0.000430   0.001540   8.374413  -0.000001   0.000000  -0.000000
    22  H    0.000000   0.000000  -0.000001   0.498423   0.001338  -0.000001
    23  H    0.000000   0.000000   0.000000   0.001338   0.546787  -0.005203
    24  H    0.000000  -0.000000  -0.000000  -0.000001  -0.005203   0.555690
    25  H   -0.000000   0.000000  -0.000000  -0.000000  -0.000145  -0.005071
    26  H   -0.000000   0.000000   0.000000   0.000000   0.000013  -0.000166
    27  H   -0.000000   0.000000  -0.000000  -0.000011  -0.000127   0.000013
    28  H    0.000252   0.005055   0.000087  -0.000000   0.000000   0.000000
    29  H    0.004481   0.000539   0.000000   0.000000  -0.000000  -0.000000
    30  H   -0.041822   0.004855  -0.000000   0.000000   0.000000   0.000000
    31  H    0.365019  -0.041866   0.000002  -0.000000  -0.000000  -0.000000
    32  H   -0.037116   0.361825   0.005995   0.000000  -0.000000  -0.000000
              25         26         27         28         29         30
     1  O    0.000000   0.000000   0.000000   0.012283   0.000002  -0.000000
     2  S   -0.000000   0.000000  -0.000000  -0.002490  -0.000016   0.000005
     3  N   -0.000000   0.000000  -0.000000   0.000164   0.000001  -0.000000
     4  C   -0.000000  -0.000000   0.000026   0.000003   0.000000  -0.000000
     5  N    0.000000   0.000000  -0.000345   0.002012  -0.000007   0.000000
     6  N    0.000000  -0.000008   0.015443  -0.000015   0.000000  -0.000000
     7  C   -0.000000   0.000001   0.000183   0.000006  -0.000000   0.000000
     8  N    0.000003  -0.000103  -0.012744   0.000002   0.000000  -0.000000
     9  C    0.000480   0.003537  -0.040773  -0.000000   0.000000  -0.000000
    10  C    0.004788   0.000684   0.005678   0.000000  -0.000000   0.000000
    11  C   -0.041400   0.004477   0.000084  -0.000000  -0.000000   0.000000
    12  C    0.365403  -0.040442   0.004610  -0.000000   0.000000  -0.000000
    13  C   -0.041581   0.363254  -0.038611   0.000000  -0.000000   0.000000
    14  C    0.004604  -0.037771   0.356247  -0.000000  -0.000000   0.000000
    15  C    0.000000  -0.000000   0.000000  -0.047464   0.004830   0.000423
    16  C    0.000000   0.000000   0.000000   0.357774  -0.041622   0.004693
    17  C    0.000000   0.000000   0.000000  -0.038091   0.365350  -0.041617
    18  C   -0.000000   0.000000  -0.000000   0.004446  -0.042251   0.364096
    19  C   -0.000000  -0.000000  -0.000000   0.000252   0.004481  -0.041822
    20  C    0.000000   0.000000   0.000000   0.005055   0.000539   0.004855
    21  O   -0.000000   0.000000  -0.000000   0.000087   0.000000  -0.000000
    22  H   -0.000000   0.000000  -0.000011  -0.000000   0.000000   0.000000
    23  H   -0.000145   0.000013  -0.000127   0.000000  -0.000000   0.000000
    24  H   -0.005071  -0.000166   0.000013   0.000000  -0.000000   0.000000
    25  H    0.561437  -0.005071  -0.000136  -0.000000  -0.000000   0.000000
    26  H   -0.005071   0.556349  -0.005254   0.000000  -0.000000   0.000000
    27  H   -0.000136  -0.005254   0.547992  -0.000000  -0.000000   0.000000
    28  H   -0.000000   0.000000  -0.000000   0.547986  -0.005363  -0.000146
    29  H   -0.000000  -0.000000  -0.000000  -0.005363   0.562472  -0.005253
    30  H    0.000000   0.000000   0.000000  -0.000146  -0.005253   0.563079
    31  H   -0.000000  -0.000000  -0.000000   0.000014  -0.000163  -0.005183
    32  H    0.000000   0.000000  -0.000000  -0.000160   0.000015  -0.000151
              31         32
     1  O    0.000000   0.000090
     2  S   -0.000029   0.001302
     3  N    0.000002   0.000390
     4  C   -0.000000   0.000032
     5  N   -0.000000  -0.000007
     6  N    0.000000   0.000000
     7  C    0.000000  -0.000000
     8  N   -0.000000  -0.000000
     9  C    0.000000   0.000000
    10  C   -0.000000  -0.000000
    11  C   -0.000000  -0.000000
    12  C    0.000000   0.000000
    13  C   -0.000000  -0.000000
    14  C   -0.000000  -0.000000
    15  C    0.005033  -0.051917
    16  C    0.000576   0.004645
    17  C    0.004428   0.000383
    18  C   -0.041986   0.004353
    19  C    0.365019  -0.037116
    20  C   -0.041866   0.361825
    21  O    0.000002   0.005995
    22  H   -0.000000   0.000000
    23  H   -0.000000  -0.000000
    24  H   -0.000000  -0.000000
    25  H   -0.000000   0.000000
    26  H   -0.000000   0.000000
    27  H   -0.000000  -0.000000
    28  H    0.000014  -0.000160
    29  H   -0.000163   0.000015
    30  H   -0.005183  -0.000151
    31  H    0.562239  -0.005478
    32  H   -0.005478   0.549442
 Mulliken charges:
               1
     1  O   -0.641629
     2  S    1.102265
     3  N   -0.760408
     4  C    0.413239
     5  N   -0.426540
     6  N   -0.142065
     7  C   -0.027423
     8  N   -0.340500
     9  C    0.319019
    10  C   -0.170776
    11  C   -0.156982
    12  C   -0.135934
    13  C   -0.156357
    14  C   -0.159001
    15  C   -0.140060
    16  C   -0.162295
    17  C   -0.141596
    18  C   -0.141160
    19  C   -0.142926
    20  C   -0.162804
    21  O   -0.638883
    22  H    0.194201
    23  H    0.171280
    24  H    0.161019
    25  H    0.156688
    26  H    0.160499
    27  H    0.167726
    28  H    0.163645
    29  H    0.156987
    30  H    0.157021
    31  H    0.157393
    32  H    0.166358
 Sum of Mulliken charges =  -1.00000
 Mulliken charges with hydrogens summed into heavy atoms:
               1
     1  O   -0.641629
     2  S    1.102265
     3  N   -0.760408
     4  C    0.413239
     5  N   -0.426540
     6  N   -0.142065
     7  C    0.166777
     8  N   -0.340500
     9  C    0.319019
    10  C    0.000504
    11  C    0.004038
    12  C    0.020754
    13  C    0.004142
    14  C    0.008725
    15  C   -0.140060
    16  C    0.001350
    17  C    0.015391
    18  C    0.015861
    19  C    0.014467
    20  C    0.003554
    21  O   -0.638883
 Electronic spatial extent (au):  <R**2>=           8597.0981
 Charge=             -1.0000 electrons
 Dipole moment (field-independent basis, Debye):
    X=            -11.5974    Y=              6.8609    Z=            -11.0324  Tot=             17.4151
 Quadrupole moment (field-independent basis, Debye-Ang):
   XX=           -129.7964   YY=           -142.6333   ZZ=           -141.7009
   XY=             26.7124   XZ=            -18.8393   YZ=             13.4600
 Traceless Quadrupole moment (field-independent basis, Debye-Ang):
   XX=              8.2471   YY=             -4.5898   ZZ=             -3.6573
   XY=             26.7124   XZ=            -18.8393   YZ=             13.4600
 Octapole moment (field-independent basis, Debye-Ang**2):
  XXX=           -223.7082  YYY=             71.5729  ZZZ=           -152.6415  XYY=            -44.7158
  XXY=            103.9630  XXZ=           -131.6969  XZZ=            -45.9858  YZZ=             20.2082
  YYZ=            -54.8642  XYZ=             12.2794
 Hexadecapole moment (field-independent basis, Debye-Ang**3):
 XXXX=          -8612.3643 YYYY=          -1394.1551 ZZZZ=          -1244.8609 XXXY=            220.3922
 XXXZ=           -420.4818 YYYX=            337.6439 YYYZ=            222.1456 ZZZX=           -438.5808
 ZZZY=            213.5261 XXYY=          -1793.4681 XXZZ=          -1684.4421 YYZZ=           -423.6434
 XXYZ=            201.3736 YYXZ=           -189.4543 ZZXY=            123.6692
 N-N= 1.691615886746D+03 E-N=-6.467440804214D+03  KE= 1.297763756476D+03
 No NMR shielding tensors so no spin-rotation constants.
 Leave Link  601 at Thu Sep 24 14:40:55 2020, MaxMem=  2147483648 cpu:               0.4 elap:               0.1
 (Enter /prod/apps/gaussian/g16b1/l701.exe)
 ... and contract with generalized density number  0.
 Compute integral first derivatives.
 D1PCM: PCM CHGder 1st derivatives, ID1Alg=3 FixD1E=F DoIter=F DoCFld=F I1PDM=0.
 GePol: Maximum number of non-zero 1st derivatives   =     176
 Leave Link  701 at Thu Sep 24 14:40:58 2020, MaxMem=  2147483648 cpu:              10.3 elap:               2.6
 (Enter /prod/apps/gaussian/g16b1/l702.exe)
 L702 exits ... SP integral derivatives will be done elsewhere.
 Leave Link  702 at Thu Sep 24 14:40:58 2020, MaxMem=  2147483648 cpu:               0.1 elap:               0.0
 (Enter /prod/apps/gaussian/g16b1/l703.exe)
 Integral derivatives from FoFJK, PRISM(SPDF).
 Compute integral first derivatives, UseDBF=F ICtDFT=           0.
 Calling FoFJK, ICntrl=      2127 FMM=F ISym2X=0 I1Cent= 0 IOpClX= 0 NMat=1 NMatS=1 NMatT=0.
 FoFJK:  IHMeth= 1 ICntrl=    2127 DoSepK=F KAlg= 0 I1Cent=           0 FoldK=F
 IRaf=         0 NMat=       1 IRICut=       1 DoRegI=T DoRafI=F ISym2E= 0 IDoP0=0 IntGTp=1.
 FoFCou: FMM=F IPFlag=           0 FMFlag=      100000 FMFlg1=         800
         NFxFlg=           0 DoJE=F BraDBF=F KetDBF=F FulRan=T
         wScrn=  0.000000 ICntrl=      2127 IOpCl=  0 I1Cent=           0 NGrid=           0
         NMat0=    1 NMatS0=      1 NMatT0=    0 NMatD0=    1 NMtDS0=    0 NMtDT0=    0
 Symmetry not used in FoFCou.
 Leave Link  703 at Thu Sep 24 14:41:14 2020, MaxMem=  2147483648 cpu:              64.9 elap:              16.3
 (Enter /prod/apps/gaussian/g16b1/l716.exe)
 Dipole        =-4.56275506D+00 2.69929729D+00-4.34046935D+00
 -------------------------------------------------------------------
 Center     Atomic                   Forces (Hartrees/Bohr)
 Number     Number              X              Y              Z
 -------------------------------------------------------------------
      1        8           0.000197665    0.000299171   -0.001088521
      2       16          -0.000471671    0.000633522   -0.000570804
      3        7          -0.000286308    0.001390387    0.000507901
      4        6           0.000808953   -0.000309546   -0.000007627
      5        7          -0.000172942   -0.000086434   -0.000089398
      6        7          -0.000303460   -0.001044421   -0.000122600
      7        6          -0.000378605   -0.000607858   -0.000268029
      8        7           0.000023809    0.000471291    0.000048335
      9        6          -0.000091682    0.000094276    0.000362220
     10        6          -0.000380993   -0.000039629   -0.000356121
     11        6           0.000322753   -0.000161488   -0.000151061
     12        6          -0.000403714    0.000298573    0.000284246
     13        6           0.000915358   -0.000123465    0.000284220
     14        6          -0.000638885   -0.000154497   -0.000679669
     15        6           0.000012144    0.000214821    0.000214099
     16        6          -0.000279234   -0.000507691    0.000189358
     17        6           0.000267543    0.000097626   -0.000502839
     18        6          -0.000236004   -0.000430789    0.000099720
     19        6           0.000176154    0.000765651    0.000027342
     20        6           0.000070964   -0.000305036   -0.000192385
     21        8          -0.000274339    0.000412899   -0.000050683
     22        1          -0.000035745    0.001019919   -0.000000034
     23        1           0.000005613    0.000348345    0.000966320
     24        1           0.000335281    0.000435340    0.000747978
     25        1           0.000956286   -0.000160433    0.000236440
     26        1           0.000494097   -0.000652039   -0.000525839
     27        1           0.000128159   -0.000396823   -0.000627365
     28        1           0.000260682   -0.000785116   -0.000662315
     29        1          -0.000094322   -0.001162542   -0.000284347
     30        1          -0.000358563   -0.000677453    0.000591588
     31        1          -0.000453739    0.000180882    0.001031617
     32        1          -0.000115257    0.000942558    0.000588254
 -------------------------------------------------------------------
 Cartesian Forces:  Max     0.001390387 RMS     0.000496294
 Leave Link  716 at Thu Sep 24 14:41:14 2020, MaxMem=  2147483648 cpu:               0.1 elap:               0.0
 (Enter /prod/apps/gaussian/g16b1/l103.exe)

 GradGradGradGradGradGradGradGradGradGradGradGradGradGradGradGradGradGrad
 Berny optimization.
 FormGI is forming the generalized inverse of G from B-inverse, IUseBI=4.
 Internal  Forces:  Max     0.002130369 RMS     0.000596638
 Search for a local minimum.
 Step number   1 out of a maximum of  174
 All quantities printed in internal units (Hartrees-Bohrs-Radians)
 RMS Force = .59664D-03 SwitMx=.10000D-02 MixMth= 2
 Mixed Optimization -- En-DIIS/RFO-DIIS
 Second derivative matrix not updated -- first step.
 ITU=  0
[...]
      2         16           0       -2.424740   -1.469313   -0.213973
      3          7           0       -1.017907   -1.605836    0.528011
      4          6           0        0.089679   -0.918110    0.084676
      5          7           0        0.150680    0.032469   -0.909805
      6          7           0        1.384305    0.475822   -1.020538
      7          6           0        1.372868   -1.053117    0.601486
      8          7           0        2.134652   -0.176171   -0.111480
      9          6           0        3.523872    0.098130    0.014694
     10          6           0        4.201750   -0.267835    1.181083
     11          6           0        5.565933   -0.001096    1.291743
     12          6           0        6.249007    0.635951    0.254501
     13          6           0        5.558733    1.003023   -0.903177
     14          6           0        4.199061    0.731860   -1.032665
     15          6           0       -3.071122    0.193439    0.062959
     16          6           0       -3.229647    1.071527   -1.008014
     17          6           0       -3.725046    2.356113   -0.776783
     18          6           0       -4.056059    2.756165    0.518391
     19          6           0       -3.894787    1.869847    1.587560
     20          6           0       -3.401812    0.585723    1.363468
     21          8           0       -3.358370   -2.379237    0.499832
     22          1           0        1.774795   -1.692589    1.367196
     23          1           0        3.670334   -0.744300    1.995941
     24          1           0        6.090346   -0.287173    2.196926
     25          1           0        7.309368    0.844363    0.346934
     26          1           0        6.081112    1.495899   -1.715869
     27          1           0        3.655702    1.000606   -1.928691
     28          1           0       -2.970155    0.740466   -2.005984
     29          1           0       -3.851876    3.041600   -1.608009
     30          1           0       -4.440159    3.755003    0.696593
     31          1           0       -4.155170    2.178421    2.594451
     32          1           0       -3.279855   -0.107204    2.188486
 ---------------------------------------------------------------------
 Rotational constants (GHZ):           0.6303500           0.1336116           0.1241984
 Leave Link  202 at Thu Sep 24 15:45:05 2020, MaxMem=   262144000 cpu:               0.0 elap:               0.0
 (Enter /prod/apps/gaussian/g16b1/l301.exe)
 Standard basis: Aug-CC-pVDZ (5D, 7F)
 Ernie: Thresh=  0.10000D-02 Tol=  0.10000D-05 Strict=F.
 Ernie:  50 primitive shells out of 630 were deleted.
 There are   628 symmetry adapted cartesian basis functions of A   symmetry.
 There are   586 symmetry adapted basis functions of A   symmetry.
   586 basis functions,  1062 primitive gaussians,   628 cartesian basis functions
    78 alpha electrons       78 beta electrons
       nuclear repulsion energy      1693.2053789087 Hartrees.
 IExCor=    0 DFT=F Ex=HF Corr=None ExCW=0 ScaHFX=  1.000000
 ScaDFX=  1.000000  1.000000  1.000000  1.000000 ScalE2=  1.000000  1.000000
 IRadAn=      5 IRanWt=     -1 IRanGd=            0 ICorTp=0 IEmpDi=  4
 NAtoms=   32 NActive=   32 NUniq=   32 SFac= 1.00D+00 NAtFMM=   60 NAOKFM=F Big=F
 Integral buffers will be    131072 words long.
 Raffenetti 1 integral format.
 Two-electron integral symmetry is turned on.
 Leave Link  301 at Thu Sep 24 15:45:05 2020, MaxMem=   262144000 cpu:               0.3 elap:               0.1
 (Enter /prod/apps/gaussian/g16b1/l302.exe)
 NPDir=0 NMtPBC=     1 NCelOv=     1 NCel=       1 NClECP=     1 NCelD=      1
         NCelK=      1 NCelE2=     1 NClLst=     1 CellRange=     0.0.
 One-electron integrals computed using PRISM.
 One-electron integral symmetry used in STVInt
 NBasis=   586 RedAO= T EigKep=  1.87D-06  NBF=   586
 NBsUse=   586 1.00D-06 EigRej= -1.00D+00 NBFU=   586
 Leave Link  302 at Thu Sep 24 15:45:05 2020, MaxMem=   262144000 cpu:               1.7 elap:               0.5
 (Enter /prod/apps/gaussian/g16b1/l303.exe)
 DipDrv:  MaxL=1.
 Leave Link  303 at Thu Sep 24 15:45:06 2020, MaxMem=   262144000 cpu:               0.4 elap:               0.1
 (Enter /prod/apps/gaussian/g16b1/l401.exe)
 ExpMin= 2.97D-02 ExpMax= 1.11D+05 ExpMxC= 1.07D+03 IAcc=3 IRadAn=         5 AccDes= 0.00D+00
 Harris functional with IExCor=  205 and IRadAn=       5 diagonalized for initial guess.
 HarFok:  IExCor=  205 AccDes= 0.00D+00 IRadAn=         5 IDoV= 1 UseB2=F ITyADJ=14
 ICtDFT=  3500011 ScaDFX=  1.000000  1.000000  1.000000  1.000000
 FoFCou: FMM=F IPFlag=           0 FMFlag=      100000 FMFlg1=           0
         NFxFlg=           0 DoJE=T BraDBF=F KetDBF=T FulRan=T
         wScrn=  0.000000 ICntrl=       500 IOpCl=  0 I1Cent=   200000004 NGrid=           0
         NMat0=    1 NMatS0=      1 NMatT0=    0 NMatD0=    1 NMtDS0=    0 NMtDT0=    0
 Petite list used in FoFCou.
 Harris En= -1302.36311469146    
 JPrj=0 DoOrth=F DoCkMO=F.
 Leave Link  401 at Thu Sep 24 15:45:09 2020, MaxMem=   262144000 cpu:              13.1 elap:               3.3
 (Enter /prod/apps/gaussian/g16b1/l502.exe)
 Integral symmetry usage will be decided dynamically.
 Closed shell SCF:
 Using DIIS extrapolation, IDIIS=  1040.
 NGot=   262144000 LenX=   261345706 LenY=   260950694
 Requested convergence on RMS density matrix=1.00D-08 within2000 cycles.
 Requested convergence on MAX density matrix=1.00D-06.
 Requested convergence on             energy=1.00D-06.
 No special actions if energy rises.

 Cycle   1  Pass 1  IDiag  1:
 FoFJK:  IHMeth= 1 ICntrl=       0 DoSepK=F KAlg= 0 I1Cent=           0 FoldK=F
 IRaf= 880000000 NMat=       1 IRICut=       1 DoRegI=T DoRafI=F ISym2E= 0 IDoP0=0 IntGTp=1.
 FoFCou: FMM=F IPFlag=           0 FMFlag=      100000 FMFlg1=           0
         NFxFlg=           0 DoJE=F BraDBF=F KetDBF=F FulRan=T
         wScrn=  0.000000 ICntrl=         0 IOpCl=  0 I1Cent=           0 NGrid=           0
         NMat0=    1 NMatS0=      1 NMatT0=    0 NMatD0=    1 NMtDS0=    0 NMtDT0=    0
 Symmetry not used in FoFCou.
 E= -1300.78201236212    
 DIIS: error= 2.31D-02 at cycle   1 NSaved=   1.
 NSaved= 1 IEnMin= 1 EnMin= -1300.78201236212     IErMin= 1 ErrMin= 2.31D-02
 ErrMax= 2.31D-02  0.00D+00 EMaxC= 1.00D-01 BMatC= 1.13D+00 BMatP= 1.13D+00
 IDIUse=3 WtCom= 7.69D-01 WtEn= 2.31D-01
 Coeff-Com:  0.100D+01
 Coeff-En:   0.100D+01
 Coeff:      0.100D+01
 Gap=     0.432 Goal=   None    Shift=    0.000
 GapD=    0.432 DampG=2.000 DampE=0.500 DampFc=1.0000 IDamp=-1.
 RMSDP=5.04D-02 MaxDP=3.22D+00              OVMax= 1.49D-01

 Cycle   2  Pass 1  IDiag  1:
 E= -1301.39947451030     Delta-E=       -0.617462148178 Rises=F Damp=F
 DIIS: error= 1.37D-02 at cycle   2 NSaved=   2.
 NSaved= 2 IEnMin= 2 EnMin= -1301.39947451030     IErMin= 2 ErrMin= 1.37D-02
 ErrMax= 1.37D-02  0.00D+00 EMaxC= 1.00D-01 BMatC= 2.51D-01 BMatP= 1.13D+00
 IDIUse=3 WtCom= 8.63D-01 WtEn= 1.37D-01
 Coeff-Com:  0.279D+00 0.721D+00
 Coeff-En:   0.000D+00 0.100D+01
 Coeff:      0.241D+00 0.759D+00
 Gap=     0.240 Goal=   None    Shift=    0.000
 RMSDP=5.47D-03 MaxDP=3.11D-01 DE=-6.17D-01 OVMax= 6.50D-02

 Cycle   3  Pass 1  IDiag  1:
 E= -1301.58830837377     Delta-E=       -0.188833863474 Rises=F Damp=F
 DIIS: error= 3.36D-03 at cycle   3 NSaved=   3.
 NSaved= 3 IEnMin= 3 EnMin= -1301.58830837377     IErMin= 3 ErrMin= 3.36D-03
 ErrMax= 3.36D-03  0.00D+00 EMaxC= 1.00D-01 BMatC= 2.71D-02 BMatP= 2.51D-01
 IDIUse=3 WtCom= 9.66D-01 WtEn= 3.36D-02
 Coeff-Com: -0.118D-01 0.223D+00 0.789D+00
 Coeff-En:   0.000D+00 0.000D+00 0.100D+01
 Coeff:     -0.114D-01 0.215D+00 0.796D+00
 Gap=     0.248 Goal=   None    Shift=    0.000
 RMSDP=1.75D-03 MaxDP=1.04D-01 DE=-1.89D-01 OVMax= 2.82D-02

 Cycle   4  Pass 1  IDiag  1:
 E= -1301.61020270414     Delta-E=       -0.021894330365 Rises=F Damp=F
 DIIS: error= 7.30D-04 at cycle   4 NSaved=   4.
 NSaved= 4 IEnMin= 4 EnMin= -1301.61020270414     IErMin= 4 ErrMin= 7.30D-04
 ErrMax= 7.30D-04  0.00D+00 EMaxC= 1.00D-01 BMatC= 1.44D-03 BMatP= 2.71D-02
 IDIUse=3 WtCom= 9.93D-01 WtEn= 7.30D-03
 Coeff-Com: -0.145D-01 0.364D-01 0.253D+00 0.725D+00
 Coeff-En:   0.000D+00 0.000D+00 0.000D+00 0.100D+01
 Coeff:     -0.144D-01 0.362D-01 0.252D+00 0.727D+00
 Gap=     0.240 Goal=   None    Shift=    0.000
 RMSDP=5.91D-04 MaxDP=4.39D-02 DE=-2.19D-02 OVMax= 7.02D-03

 Cycle   5  Pass 1  IDiag  1:
 E= -1301.61170025988     Delta-E=       -0.001497555746 Rises=F Damp=F
 DIIS: error= 2.72D-04 at cycle   5 NSaved=   5.
 NSaved= 5 IEnMin= 5 EnMin= -1301.61170025988     IErMin= 5 ErrMin= 2.72D-04
 ErrMax= 2.72D-04  0.00D+00 EMaxC= 1.00D-01 BMatC= 8.77D-05 BMatP= 1.44D-03
 IDIUse=3 WtCom= 9.97D-01 WtEn= 2.72D-03
 Coeff-Com: -0.822D-03-0.137D-01-0.373D-01 0.999D-01 0.952D+00
 Coeff-En:   0.000D+00 0.000D+00 0.000D+00 0.000D+00 0.100D+01
 Coeff:     -0.820D-03-0.137D-01-0.372D-01 0.997D-01 0.952D+00
 Gap=     0.240 Goal=   None    Shift=    0.000
 RMSDP=1.44D-04 MaxDP=1.29D-02 DE=-1.50D-03 OVMax= 3.78D-03

 Cycle   6  Pass 1  IDiag  1:
 E= -1301.61186355691     Delta-E=       -0.000163297029 Rises=F Damp=F
 DIIS: error= 8.29D-05 at cycle   6 NSaved=   6.
 NSaved= 6 IEnMin= 6 EnMin= -1301.61186355691     IErMin= 6 ErrMin= 8.29D-05
 ErrMax= 8.29D-05  0.00D+00 EMaxC= 1.00D-01 BMatC= 1.89D-05 BMatP= 8.77D-05
 IDIUse=1 WtCom= 1.00D+00 WtEn= 0.00D+00
 Coeff-Com:  0.126D-02-0.775D-02-0.380D-01-0.604D-01 0.248D+00 0.857D+00
 Coeff:      0.126D-02-0.775D-02-0.380D-01-0.604D-01 0.248D+00 0.857D+00
 Gap=     0.241 Goal=   None    Shift=    0.000
 RMSDP=5.87D-05 MaxDP=6.02D-03 DE=-1.63D-04 OVMax= 1.84D-03

 Cycle   7  Pass 1  IDiag  1:
 E= -1301.61189738130     Delta-E=       -0.000033824389 Rises=F Damp=F
 DIIS: error= 4.35D-05 at cycle   7 NSaved=   7.
 NSaved= 7 IEnMin= 7 EnMin= -1301.61189738130     IErMin= 7 ErrMin= 4.35D-05
 ErrMax= 4.35D-05  0.00D+00 EMaxC= 1.00D-01 BMatC= 2.96D-06 BMatP= 1.89D-05
 IDIUse=1 WtCom= 1.00D+00 WtEn= 0.00D+00
 Coeff-Com:  0.488D-03 0.100D-03-0.354D-02-0.338D-01-0.818D-01 0.178D+00
 Coeff-Com:  0.940D+00
 Coeff:      0.488D-03 0.100D-03-0.354D-02-0.338D-01-0.818D-01 0.178D+00
 Coeff:      0.940D+00
 Gap=     0.241 Goal=   None    Shift=    0.000
 RMSDP=3.87D-05 MaxDP=6.57D-03 DE=-3.38D-05 OVMax= 1.42D-03

 Cycle   8  Pass 1  IDiag  1:
 E= -1301.61190662621     Delta-E=       -0.000009244910 Rises=F Damp=F
 DIIS: error= 2.54D-05 at cycle   8 NSaved=   8.
 NSaved= 8 IEnMin= 8 EnMin= -1301.61190662621     IErMin= 8 ErrMin= 2.54D-05
 ErrMax= 2.54D-05  0.00D+00 EMaxC= 1.00D-01 BMatC= 8.26D-07 BMatP= 2.96D-06
 IDIUse=1 WtCom= 1.00D+00 WtEn= 0.00D+00
 Coeff-Com: -0.202D-03 0.158D-02 0.769D-02 0.779D-02-0.504D-01-0.188D+00
 Coeff-Com:  0.111D+00 0.111D+01
 Coeff:     -0.202D-03 0.158D-02 0.769D-02 0.779D-02-0.504D-01-0.188D+00
 Coeff:      0.111D+00 0.111D+01
 Gap=     0.241 Goal=   None    Shift=    0.000
 RMSDP=1.97D-05 MaxDP=2.75D-03 DE=-9.24D-06 OVMax= 9.11D-04

 Cycle   9  Pass 1  IDiag  1:
 E= -1301.61190961290     Delta-E=       -0.000002986694 Rises=F Damp=F
 DIIS: error= 9.83D-06 at cycle   9 NSaved=   9.
 NSaved= 9 IEnMin= 9 EnMin= -1301.61190961290     IErMin= 9 ErrMin= 9.83D-06
 ErrMax= 9.83D-06  0.00D+00 EMaxC= 1.00D-01 BMatC= 1.36D-07 BMatP= 8.26D-07
 IDIUse=1 WtCom= 1.00D+00 WtEn= 0.00D+00
 Coeff-Com: -0.159D-03 0.322D-03 0.261D-02 0.947D-02 0.129D-01-0.833D-01
 Coeff-Com: -0.190D+00 0.181D+00 0.107D+01
 Coeff:     -0.159D-03 0.322D-03 0.261D-02 0.947D-02 0.129D-01-0.833D-01
 Coeff:     -0.190D+00 0.181D+00 0.107D+01
 Gap=     0.241 Goal=   None    Shift=    0.000
 RMSDP=9.33D-06 MaxDP=1.10D-03 DE=-2.99D-06 OVMax= 5.36D-04

 Cycle  10  Pass 1  IDiag  1:
 E= -1301.61191026890     Delta-E=       -0.000000655998 Rises=F Damp=F
 DIIS: error= 5.21D-06 at cycle  10 NSaved=  10.
 NSaved=10 IEnMin=10 EnMin= -1301.61191026890     IErMin=10 ErrMin= 5.21D-06
 ErrMax= 5.21D-06  0.00D+00 EMaxC= 1.00D-01 BMatC= 2.26D-08 BMatP= 1.36D-07
 IDIUse=1 WtCom= 1.00D+00 WtEn= 0.00D+00
 Coeff-Com:  0.174D-04-0.208D-03-0.968D-03-0.846D-03 0.730D-02 0.217D-01
 Coeff-Com: -0.155D-01-0.166D+00 0.263D-01 0.113D+01
 Coeff:      0.174D-04-0.208D-03-0.968D-03-0.846D-03 0.730D-02 0.217D-01
 Coeff:     -0.155D-01-0.166D+00 0.263D-01 0.113D+01
 Gap=     0.241 Goal=   None    Shift=    0.000
 RMSDP=3.66D-06 MaxDP=3.80D-04 DE=-6.56D-07 OVMax= 1.95D-04

 Cycle  11  Pass 1  IDiag  1:
 E= -1301.61191037194     Delta-E=       -0.000000103035 Rises=F Damp=F
 DIIS: error= 1.64D-06 at cycle  11 NSaved=  11.
 NSaved=11 IEnMin=11 EnMin= -1301.61191037194     IErMin=11 ErrMin= 1.64D-06
 ErrMax= 1.64D-06  0.00D+00 EMaxC= 1.00D-01 BMatC= 4.30D-09 BMatP= 2.26D-08
 IDIUse=1 WtCom= 1.00D+00 WtEn= 0.00D+00
 Coeff-Com:  0.417D-04-0.108D-03-0.783D-03-0.249D-02-0.205D-02 0.237D-01
 Coeff-Com:  0.476D-01-0.689D-01-0.248D+00 0.158D+00 0.109D+01
 Coeff:      0.417D-04-0.108D-03-0.783D-03-0.249D-02-0.205D-02 0.237D-01
 Coeff:      0.476D-01-0.689D-01-0.248D+00 0.158D+00 0.109D+01
 Gap=     0.241 Goal=   None    Shift=    0.000
 RMSDP=1.68D-06 MaxDP=1.82D-04 DE=-1.03D-07 OVMax= 9.21D-05

 Cycle  12  Pass 1  IDiag  1:
 E= -1301.61191039100     Delta-E=       -0.000000019059 Rises=F Damp=F
 DIIS: error= 7.26D-07 at cycle  12 NSaved=  12.
 NSaved=12 IEnMin=12 EnMin= -1301.61191039100     IErMin=12 ErrMin= 7.26D-07
 ErrMax= 7.26D-07  0.00D+00 EMaxC= 1.00D-01 BMatC= 6.03D-10 BMatP= 4.30D-09
 IDIUse=1 WtCom= 1.00D+00 WtEn= 0.00D+00
 Coeff-Com:  0.810D-06 0.173D-04 0.636D-04-0.381D-04-0.105D-02-0.133D-02
 Coeff-Com:  0.462D-02 0.148D-01-0.200D-01-0.145D+00 0.909D-01 0.106D+01
 Coeff:      0.810D-06 0.173D-04 0.636D-04-0.381D-04-0.105D-02-0.133D-02
 Coeff:      0.462D-02 0.148D-01-0.200D-01-0.145D+00 0.909D-01 0.106D+01
 Gap=     0.241 Goal=   None    Shift=    0.000
 RMSDP=6.51D-07 MaxDP=5.59D-05 DE=-1.91D-08 OVMax= 2.29D-05

 Cycle  13  Pass 1  IDiag  1:
 E= -1301.61191039318     Delta-E=       -0.000000002185 Rises=F Damp=F
 DIIS: error= 3.00D-07 at cycle  13 NSaved=  13.
 NSaved=13 IEnMin=13 EnMin= -1301.61191039318     IErMin=13 ErrMin= 3.00D-07
 ErrMax= 3.00D-07  0.00D+00 EMaxC= 1.00D-01 BMatC= 1.44D-10 BMatP= 6.03D-10
 IDIUse=1 WtCom= 1.00D+00 WtEn= 0.00D+00
 Coeff-Com: -0.762D-05 0.261D-04 0.166D-03 0.468D-03 0.641D-04-0.483D-02
 Coeff-Com: -0.777D-02 0.179D-01 0.442D-01-0.692D-01-0.185D+00 0.325D+00
 Coeff-Com:  0.879D+00
 Coeff:     -0.762D-05 0.261D-04 0.166D-03 0.468D-03 0.641D-04-0.483D-02
 Coeff:     -0.777D-02 0.179D-01 0.442D-01-0.692D-01-0.185D+00 0.325D+00
 Coeff:      0.879D+00
 Gap=     0.241 Goal=   None    Shift=    0.000
 RMSDP=2.24D-07 MaxDP=1.36D-05 DE=-2.18D-09 OVMax= 8.64D-06

 Cycle  14  Pass 1  IDiag  1:
 E= -1301.61191039363     Delta-E=       -0.000000000452 Rises=F Damp=F
 DIIS: error= 1.81D-07 at cycle  14 NSaved=  14.
 NSaved=14 IEnMin=14 EnMin= -1301.61191039363     IErMin=14 ErrMin= 1.81D-07
 ErrMax= 1.81D-07  0.00D+00 EMaxC= 1.00D-01 BMatC= 2.29D-11 BMatP= 1.44D-10
 IDIUse=1 WtCom= 1.00D+00 WtEn= 0.00D+00
 Coeff-Com:  0.681D-06-0.558D-05-0.315D-04-0.419D-04 0.160D-03 0.960D-03
 Coeff-Com: -0.375D-03-0.513D-02-0.881D-03 0.342D-01-0.467D-02-0.219D+00
 Coeff-Com: -0.995D-01 0.129D+01
 Coeff:      0.681D-06-0.558D-05-0.315D-04-0.419D-04 0.160D-03 0.960D-03
 Coeff:     -0.375D-03-0.513D-02-0.881D-03 0.342D-01-0.467D-02-0.219D+00
 Coeff:     -0.995D-01 0.129D+01
 Gap=     0.241 Goal=   None    Shift=    0.000
 RMSDP=1.36D-07 MaxDP=8.42D-06 DE=-4.52D-10 OVMax= 5.97D-06

 Cycle  15  Pass 1  IDiag  1:
 E= -1301.61191039372     Delta-E=       -0.000000000087 Rises=F Damp=F
 DIIS: error= 6.60D-08 at cycle  15 NSaved=  15.
 NSaved=15 IEnMin=15 EnMin= -1301.61191039372     IErMin=15 ErrMin= 6.60D-08
 ErrMax= 6.60D-08  0.00D+00 EMaxC= 1.00D-01 BMatC= 4.51D-12 BMatP= 2.29D-11
 IDIUse=1 WtCom= 1.00D+00 WtEn= 0.00D+00
 Coeff-Com:  0.164D-05-0.590D-05-0.389D-04-0.102D-03 0.268D-05 0.119D-02
 Coeff-Com:  0.146D-02-0.436D-02-0.867D-02 0.197D-01 0.360D-01-0.898D-01
 Coeff-Com: -0.194D+00 0.177D+00 0.106D+01
 Coeff:      0.164D-05-0.590D-05-0.389D-04-0.102D-03 0.268D-05 0.119D-02
 Coeff:      0.146D-02-0.436D-02-0.867D-02 0.197D-01 0.360D-01-0.898D-01
 Coeff:     -0.194D+00 0.177D+00 0.106D+01
 Gap=     0.241 Goal=   None    Shift=    0.000
 RMSDP=5.81D-08 MaxDP=5.31D-06 DE=-8.69D-11 OVMax= 2.40D-06

 Cycle  16  Pass 1  IDiag  1:
 E= -1301.61191039377     Delta-E=       -0.000000000048 Rises=F Damp=F
 DIIS: error= 2.56D-08 at cycle  16 NSaved=  16.
 NSaved=16 IEnMin=16 EnMin= -1301.61191039377     IErMin=16 ErrMin= 2.56D-08
 ErrMax= 2.56D-08  0.00D+00 EMaxC= 1.00D-01 BMatC= 8.60D-13 BMatP= 4.51D-12
 IDIUse=1 WtCom= 1.00D+00 WtEn= 0.00D+00
 Coeff-Com:  0.176D-06 0.371D-07-0.151D-05-0.110D-04-0.343D-04 0.574D-04
 Coeff-Com:  0.302D-03 0.197D-03-0.148D-02-0.338D-02 0.729D-02 0.293D-01
 Coeff-Com: -0.214D-01-0.234D+00 0.224D+00 0.999D+00
 Coeff:      0.176D-06 0.371D-07-0.151D-05-0.110D-04-0.343D-04 0.574D-04
 Coeff:      0.302D-03 0.197D-03-0.148D-02-0.338D-02 0.729D-02 0.293D-01
 Coeff:     -0.214D-01-0.234D+00 0.224D+00 0.999D+00
 Gap=     0.241 Goal=   None    Shift=    0.000
 RMSDP=2.56D-08 MaxDP=1.55D-06 DE=-4.77D-11 OVMax= 1.12D-06

 Cycle  17  Pass 1  IDiag  1:
 E= -1301.61191039374     Delta-E=        0.000000000023 Rises=F Damp=F
 DIIS: error= 7.12D-09 at cycle  17 NSaved=  17.
 NSaved=17 IEnMin=16 EnMin= -1301.61191039377     IErMin=17 ErrMin= 7.12D-09
 ErrMax= 7.12D-09  0.00D+00 EMaxC= 1.00D-01 BMatC= 9.11D-14 BMatP= 8.60D-13
 IDIUse=1 WtCom= 1.00D+00 WtEn= 0.00D+00
 Coeff-Com: -0.210D-06 0.876D-06 0.525D-05 0.137D-04-0.616D-05-0.159D-03
 Coeff-Com: -0.195D-03 0.673D-03 0.106D-02-0.314D-02-0.456D-02 0.162D-01
 Coeff-Com:  0.250D-01-0.527D-01-0.122D+00 0.767D-01 0.106D+01
 Coeff:     -0.210D-06 0.876D-06 0.525D-05 0.137D-04-0.616D-05-0.159D-03
 Coeff:     -0.195D-03 0.673D-03 0.106D-02-0.314D-02-0.456D-02 0.162D-01
 Coeff:      0.250D-01-0.527D-01-0.122D+00 0.767D-01 0.106D+01
 Gap=     0.241 Goal=   None    Shift=    0.000
 RMSDP=7.55D-09 MaxDP=3.95D-07 DE= 2.32D-11 OVMax= 3.35D-07

 SCF Done:  E(RHF) =  -1301.61191039     A.U. after   17 cycles
            NFock= 17  Conv=0.76D-08     -V/T= 2.0011
 KE= 1.300146414823D+03 PE=-6.465874049109D+03 EE= 2.170910344984D+03
 Leave Link  502 at Thu Sep 24 16:00:23 2020, MaxMem=   262144000 cpu:            3656.1 elap:             914.2
 (Enter /prod/apps/gaussian/g16b1/l801.exe)
 ExpMin= 2.97D-02 ExpMax= 1.11D+05 ExpMxC= 1.07D+03 IAcc=3 IRadAn=         5 AccDes= 0.00D+00
 HarFok:  IExCor=  205 AccDes= 0.00D+00 IRadAn=         5 IDoV=-2 UseB2=F ITyADJ=14
 ICtDFT= 12500011 ScaDFX=  1.000000  1.000000  1.000000  1.000000
 GSVD:  LWork=        -825 too small for GESVD, short by        3500 words or        3500 for optimal perf.
 Largest valence mixing into a core orbital is  3.64D-04
 Largest core mixing into a valence orbital is  9.21D-05
 Range of M.O.s used for correlation:    26   586
 NBasis=   586 NAE=    78 NBE=    78 NFC=    25 NFV=     0
 NROrb=    561 NOA=    53 NOB=    53 NVA=   508 NVB=   508

 **** Warning!!: The largest alpha MO coefficient is  0.11141333D+03

 Leave Link  801 at Thu Sep 24 16:00:23 2020, MaxMem=   262144000 cpu:               1.0 elap:               0.3
 (Enter /prod/apps/gaussian/g16b1/l906.exe)
 FulOut=F Deriv=F AODrv=F NAtomX=    32
   MMem=           3  MDisk=          53 MDiskD=          53
  W3Min=    16908272 MinDsk=    17079970 NBas6D=         628
 NBas2D=      198394    NTT=      197506    LW2=     2000000
    MDV=   259890186 MDiskM=        5703 NBas2p=      168241
 Disk-based method using OVN memory for 53 occupieds at a time.
 Estimated scratch disk usage= 13848885100 words.
 IMap=   1   2   3   4   5   6   7   8   9  10  11  12  13  14  15  16  17  18  19  20
 IMap=  21  22  23  24  25  26  27  28  29  30  31  32  33  34  35  36  37  38  39  40
 IMap=  41  42  43  44  45  46  47  48  49  50  51  52  53
 Actual    scratch disk usage= 13624698220 words.
 JobTyp=1 Pass  1:  I=   1 to  53 NPSUse=  4 ParTrn=T ParDer=T DoDerP=F.
Errofd = 4
orig len = 8384512 left = 4944344
g_write
