 Entering Gaussian System, Link 0=g16
 Initial command:
 /prod/apps/gaussian/g16b1/l1.exe "/tmp/ubafar01/1460649/Gau-3161.inp" -scrdir="/tmp/ubafar01/1460649/"
 Entering Link 1 = /prod/apps/gaussian/g16b1/l1.exe PID=      3162.
  
 Copyright (c) 1988-2017, Gaussian, Inc.  All Rights Reserved.
  
 This is part of the Gaussian(R) 16 program.  It is based on
 the Gaussian(R) 09 system (copyright 2009, Gaussian, Inc.),
 the Gaussian(R) 03 system (copyright 2003, Gaussian, Inc.),
 the Gaussian(R) 98 system (copyright 1998, Gaussian, Inc.),
 the Gaussian(R) 94 system (copyright 1995, Gaussian, Inc.),
 the Gaussian 92(TM) system (copyright 1992, Gaussian, Inc.),
 the Gaussian 90(TM) system (copyright 1990, Gaussian, Inc.),
 the Gaussian 88(TM) system (copyright 1988, Gaussian, Inc.),
 the Gaussian 86(TM) system (copyright 1986, Carnegie Mellon
 University), and the Gaussian 82(TM) system (copyright 1983,
 Carnegie Mellon University). Gaussian is a federally registered
 trademark of Gaussian, Inc.
  
 This software contains proprietary and confidential information,
 including trade secrets, belonging to Gaussian, Inc.
  
 This software is provided under written license and may be
 used, copied, transmitted, or stored only in accord with that
 written license.
  
 The following legend is applicable only to US Government
 contracts under FAR:
  
                    RESTRICTED RIGHTS LEGEND
  
 Use, reproduction and disclosure by the US Government is
 subject to restrictions as set forth in subparagraphs (a)
 and (c) of the Commercial Computer Software - Restricted
 Rights clause in FAR 52.227-19.
  
 Gaussian, Inc.
 340 Quinnipiac St., Bldg. 40, Wallingford CT 06492
  
  
 ---------------------------------------------------------------
 Warning -- This program may not be used in any manner that
 competes with the business of Gaussian, Inc. or will provide
 assistance to any competitor of Gaussian, Inc.  The licensee
 of this program is prohibited from giving any competitor of
 Gaussian, Inc. access to this program.  By using this program,
 the user acknowledges that Gaussian, Inc. is engaged in the
 business of creating and licensing software in the field of
 computational chemistry and represents and warrants to the
 licensee that it is not a competitor of Gaussian, Inc. and that
 it will not use this program in any manner prohibited above.
 ---------------------------------------------------------------
  

 Cite this work as:
 Gaussian 16, Revision B.01,
 M. J. Frisch, G. W. Trucks, H. B. Schlegel, G. E. Scuseria, 
 M. A. Robb, J. R. Cheeseman, G. Scalmani, V. Barone, 
 G. A. Petersson, H. Nakatsuji, X. Li, M. Caricato, A. V. Marenich, 
 J. Bloino, B. G. Janesko, R. Gomperts, B. Mennucci, H. P. Hratchian, 
 J. V. Ortiz, A. F. Izmaylov, J. L. Sonnenberg, D. Williams-Young, 
 F. Ding, F. Lipparini, F. Egidi, J. Goings, B. Peng, A. Petrone, 
 T. Henderson, D. Ranasinghe, V. G. Zakrzewski, J. Gao, N. Rega, 
 G. Zheng, W. Liang, M. Hada, M. Ehara, K. Toyota, R. Fukuda, 
 J. Hasegawa, M. Ishida, T. Nakajima, Y. Honda, O. Kitao, H. Nakai, 
 T. Vreven, K. Throssell, J. A. Montgomery, Jr., J. E. Peralta, 
 F. Ogliaro, M. J. Bearpark, J. J. Heyd, E. N. Brothers, K. N. Kudin, 
 V. N. Staroverov, T. A. Keith, R. Kobayashi, J. Normand, 
 K. Raghavachari, A. P. Rendell, J. C. Burant, S. S. Iyengar, 
 J. Tomasi, M. Cossi, J. M. Millam, M. Klene, C. Adamo, R. Cammi, 
 J. W. Ochterski, R. L. Martin, K. Morokuma, O. Farkas, 
 J. B. Foresman, and D. J. Fox, Gaussian, Inc., Wallingford CT, 2016.
 
 ******************************************
 Gaussian 16:  ES64L-G16RevB.01 20-Dec-2017
                23-Sep-2020 
 ******************************************
 %nproc=4
 Will use up to    4 processors via shared memory.
 %Chk=SM45_m0.n.5.pdb.xyz.mst.n.w.chk
 %mem=16GB
 ----------------------------------------------------------------------
 #p b3lyp/6-31G(d) opt freq NoSymm scf=(MaxCycle=2000,NoVarAcc,NoIncFoc
 k) scrf=(iefpcm,read,solvent=water)
 ----------------------------------------------------------------------
 1/18=20,19=15,26=3,38=1,40=2/1,3;
 2/9=110,12=2,15=1,17=6,18=5,40=1/2;
 3/5=1,6=6,7=1,11=2,25=1,30=1,70=2203,71=1,72=1,74=-5/1,2,3;
 4//1;
 5/5=100002,7=2000,38=1,53=1/2;
 6/7=2,8=2,9=2,10=2,28=1/1;
 7/30=1/1,2,3,16;
 1/18=20,19=15,26=3/3(2);
 2/9=110,15=1/2;
 99//99;
 2/9=110,15=1/2;
 3/5=1,6=6,7=1,11=2,25=1,30=1,70=2205,71=1,72=1,74=-5/1,2,3;
 4/5=5,16=3,69=1/1;
 5/5=100002,7=2000,38=1,53=1/2;
 7/30=1/1,2,3,16;
 1/18=20,19=15,26=3/3(-5);
 2/9=110,15=1/2;
 6/7=2,8=2,9=2,10=2,19=2,28=1/1;
 99/9=1/99;
 Leave Link    1 at Wed Sep 23 06:01:29 2020, MaxMem=  2147483648 cpu:               0.1 elap:               0.0
 (Enter /prod/apps/gaussian/g16b1/l101.exe)
 -------------------
 SM45_m0.n.5.pdb.xyz
 -------------------
 Symbolic Z-matrix:
 Charge =  0 Multiplicity = 1
 O                    -3.928    -1.528    -0.82 
 S                    -2.759    -1.169    -0.008 
 N                    -1.428    -1.663    -0.95 
 C                    -0.123    -1.446    -0.468 
 N                     0.427    -2.244     0.49 
 N                     1.65     -1.845     0.717 
 C                     0.811    -0.509    -0.857 
 N                     1.901    -0.797    -0.106 
 C                     3.175    -0.158    -0.105 
 C                     3.624     0.486    -1.259 
 C                     4.868     1.115    -1.244 
 C                     5.659     1.088    -0.094 
 C                     5.2       0.432     1.049 
 C                     3.952    -0.189     1.055 
 C                    -2.703     0.606     0.15 
 C                    -3.32      1.388    -0.828 
 C                    -3.255     2.777    -0.717 
 C                    -2.578     3.362     0.356 
 C                    -1.966     2.565     1.327 
 C                    -2.024     1.175     1.23 
 O                    -2.566    -1.754     1.323 
 H                    -1.564    -1.363    -1.917 
 H                     0.775     0.301    -1.565 
 H                     3.018     0.484    -2.158 
 H                     5.22      1.617    -2.139 
 H                     6.628     1.574    -0.09 
 H                     5.808     0.411     1.946 
 H                     3.577    -0.688     1.939 
 H                    -3.849     0.916    -1.646 
 H                    -3.734     3.397    -1.465 
 H                    -2.531     4.441     0.438 
 H                    -1.449     3.024     2.162 
 H                    -1.57      0.542     1.981 
 
 ITRead=  0  0  0  0  0  0  0  0  0  0  0  0  0  0  0  0  0  0  0  0
 ITRead=  0  0  0  0  0  0  0  0  0  0  0  0  0
 MicOpt= -1 -1 -1 -1 -1 -1 -1 -1 -1 -1 -1 -1 -1 -1 -1 -1 -1 -1 -1 -1
 MicOpt= -1 -1 -1 -1 -1 -1 -1 -1 -1 -1 -1 -1 -1
 NAtoms=     33 NQM=       33 NQMF=       0 NMMI=      0 NMMIF=      0
                NMic=       0 NMicF=      0.
                    Isotopes and Nuclear Properties:
 (Nuclear quadrupole moments (NQMom) in fm**2, nuclear magnetic moments (NMagM)
  in nuclear magnetons)

  Atom         1           2           3           4           5           6           7           8           9          10
 IAtWgt=          16          32          14          12          14          14          12          14          12          12
 AtmWgt=  15.9949146  31.9720718  14.0030740  12.0000000  14.0030740  14.0030740  12.0000000  14.0030740  12.0000000  12.0000000
 NucSpn=           0           0           2           0           2           2           0           2           0           0
 AtZEff=  -0.0000000  -0.0000000  -0.0000000  -0.0000000  -0.0000000  -0.0000000  -0.0000000  -0.0000000  -0.0000000  -0.0000000
 NQMom=    0.0000000   0.0000000   2.0440000   0.0000000   2.0440000   2.0440000   0.0000000   2.0440000   0.0000000   0.0000000
 NMagM=    0.0000000   0.0000000   0.4037610   0.0000000   0.4037610   0.4037610   0.0000000   0.4037610   0.0000000   0.0000000
 AtZNuc=   8.0000000  16.0000000   7.0000000   6.0000000   7.0000000   7.0000000   6.0000000   7.0000000   6.0000000   6.0000000

  Atom        11          12          13          14          15          16          17          18          19          20
 IAtWgt=          12          12          12          12          12          12          12          12          12          12
 AtmWgt=  12.0000000  12.0000000  12.0000000  12.0000000  12.0000000  12.0000000  12.0000000  12.0000000  12.0000000  12.0000000
 NucSpn=           0           0           0           0           0           0           0           0           0           0
 AtZEff=  -0.0000000  -0.0000000  -0.0000000  -0.0000000  -0.0000000  -0.0000000  -0.0000000  -0.0000000  -0.0000000  -0.0000000
 NQMom=    0.0000000   0.0000000   0.0000000   0.0000000   0.0000000   0.0000000   0.0000000   0.0000000   0.0000000   0.0000000
 NMagM=    0.0000000   0.0000000   0.0000000   0.0000000   0.0000000   0.0000000   0.0000000   0.0000000   0.0000000   0.0000000
 AtZNuc=   6.0000000   6.0000000   6.0000000   6.0000000   6.0000000   6.0000000   6.0000000   6.0000000   6.0000000   6.0000000

  Atom        21          22          23          24          25          26          27          28          29          30
 IAtWgt=          16           1           1           1           1           1           1           1           1           1
 AtmWgt=  15.9949146   1.0078250   1.0078250   1.0078250   1.0078250   1.0078250   1.0078250   1.0078250   1.0078250   1.0078250
 NucSpn=           0           1           1           1           1           1           1           1           1           1
 AtZEff=  -0.0000000  -0.0000000  -0.0000000  -0.0000000  -0.0000000  -0.0000000  -0.0000000  -0.0000000  -0.0000000  -0.0000000
 NQMom=    0.0000000   0.0000000   0.0000000   0.0000000   0.0000000   0.0000000   0.0000000   0.0000000   0.0000000   0.0000000
 NMagM=    0.0000000   2.7928460   2.7928460   2.7928460   2.7928460   2.7928460   2.7928460   2.7928460   2.7928460   2.7928460
 AtZNuc=   8.0000000   1.0000000   1.0000000   1.0000000   1.0000000   1.0000000   1.0000000   1.0000000   1.0000000   1.0000000

  Atom        31          32          33
 IAtWgt=           1           1           1
 AtmWgt=   1.0078250   1.0078250   1.0078250
 NucSpn=           1           1           1
 AtZEff=  -0.0000000  -0.0000000  -0.0000000
 NQMom=    0.0000000   0.0000000   0.0000000
 NMagM=    2.7928460   2.7928460   2.7928460
 AtZNuc=   1.0000000   1.0000000   1.0000000
 Leave Link  101 at Wed Sep 23 06:01:29 2020, MaxMem=  2147483648 cpu:               1.4 elap:               0.4
 (Enter /prod/apps/gaussian/g16b1/l103.exe)

 GradGradGradGradGradGradGradGradGradGradGradGradGradGradGradGradGradGrad
 Berny optimization.
 Initialization pass.
                           ----------------------------
                           !    Initial Parameters    !
                           ! (Angstroms and Degrees)  !
 --------------------------                            --------------------------
 ! Name  Definition              Value          Derivative Info.                !
 --------------------------------------------------------------------------------
 ! R1    R(1,2)                  1.4679         estimate D2E/DX2                !
 ! R2    R(2,3)                  1.7038         estimate D2E/DX2                !
 ! R3    R(2,15)                 1.7829         estimate D2E/DX2                !
 ! R4    R(2,21)                 1.4666         estimate D2E/DX2                !
 ! R5    R(3,4)                  1.408          estimate D2E/DX2                !
 ! R6    R(3,22)                 1.0216         estimate D2E/DX2                !
 ! R7    R(4,5)                  1.3627         estimate D2E/DX2                !
 ! R8    R(4,7)                  1.379          estimate D2E/DX2                !
 ! R9    R(5,6)                  1.3063         estimate D2E/DX2                !
 ! R10   R(6,8)                  1.356          estimate D2E/DX2                !
 ! R11   R(7,8)                  1.3546         estimate D2E/DX2                !
 ! R12   R(7,23)                 1.0764         estimate D2E/DX2                !
 ! R13   R(8,9)                  1.4253         estimate D2E/DX2                !
 ! R14   R(9,10)                 1.3957         estimate D2E/DX2                !
 ! R15   R(9,14)                 1.3965         estimate D2E/DX2                !
 ! R16   R(10,11)                1.3941         estimate D2E/DX2                !
 ! R17   R(10,24)                1.0842         estimate D2E/DX2                !
 ! R18   R(11,12)                1.396          estimate D2E/DX2                !
 ! R19   R(11,25)                1.0849         estimate D2E/DX2                !
 ! R20   R(12,13)                1.3955         estimate D2E/DX2                !
 ! R21   R(12,26)                1.0841         estimate D2E/DX2                !
 ! R22   R(13,14)                1.394          estimate D2E/DX2                !
 ! R23   R(13,27)                1.0838         estimate D2E/DX2                !
 ! R24   R(14,28)                1.0822         estimate D2E/DX2                !
 ! R25   R(15,16)                1.396          estimate D2E/DX2                !
 ! R26   R(15,20)                1.3969         estimate D2E/DX2                !
 ! R27   R(16,17)                1.3949         estimate D2E/DX2                !
 ! R28   R(16,29)                1.0825         estimate D2E/DX2                !
 ! R29   R(17,18)                1.3971         estimate D2E/DX2                !
 ! R30   R(17,30)                1.0832         estimate D2E/DX2                !
 ! R31   R(18,19)                1.3974         estimate D2E/DX2                !
 ! R32   R(18,31)                1.0831         estimate D2E/DX2                !
 ! R33   R(19,20)                1.3946         estimate D2E/DX2                !
 ! R34   R(19,32)                1.0841         estimate D2E/DX2                !
 ! R35   R(20,33)                1.082          estimate D2E/DX2                !
 ! A1    A(1,2,3)              104.2038         estimate D2E/DX2                !
 ! A2    A(1,2,15)             108.5127         estimate D2E/DX2                !
 ! A3    A(1,2,21)             120.614          estimate D2E/DX2                !
 ! A4    A(3,2,15)             108.247          estimate D2E/DX2                !
 ! A5    A(3,2,21)             106.4572         estimate D2E/DX2                !
 ! A6    A(15,2,21)            108.2128         estimate D2E/DX2                !
 ! A7    A(2,3,4)              119.3469         estimate D2E/DX2                !
 ! A8    A(2,3,22)             109.5242         estimate D2E/DX2                !
 ! A9    A(4,3,22)             113.7145         estimate D2E/DX2                !
 ! A10   A(3,4,5)              121.6334         estimate D2E/DX2                !
 ! A11   A(3,4,7)              129.4877         estimate D2E/DX2                !
 ! A12   A(5,4,7)              108.8347         estimate D2E/DX2                !
 ! A13   A(4,5,6)              108.7329         estimate D2E/DX2                !
 ! A14   A(5,6,8)              107.6921         estimate D2E/DX2                !
 ! A15   A(4,7,8)              104.131          estimate D2E/DX2                !
 ! A16   A(4,7,23)             132.3918         estimate D2E/DX2                !
 ! A17   A(8,7,23)             123.4728         estimate D2E/DX2                !
 ! A18   A(6,8,7)              110.601          estimate D2E/DX2                !
 ! A19   A(6,8,9)              120.7669         estimate D2E/DX2                !
 ! A20   A(7,8,9)              128.6318         estimate D2E/DX2                !
 ! A21   A(8,9,10)             119.5932         estimate D2E/DX2                !
 ! A22   A(8,9,14)             119.2065         estimate D2E/DX2                !
 ! A23   A(10,9,14)            121.2003         estimate D2E/DX2                !
 ! A24   A(9,10,11)            119.1016         estimate D2E/DX2                !
 ! A25   A(9,10,24)            120.3265         estimate D2E/DX2                !
 ! A26   A(11,10,24)           120.5664         estimate D2E/DX2                !
 ! A27   A(10,11,12)           120.3813         estimate D2E/DX2                !
 ! A28   A(10,11,25)           119.3041         estimate D2E/DX2                !
 ! A29   A(12,11,25)           120.3114         estimate D2E/DX2                !
 ! A30   A(11,12,13)           119.8303         estimate D2E/DX2                !
 ! A31   A(11,12,26)           120.0555         estimate D2E/DX2                !
 ! A32   A(13,12,26)           120.1141         estimate D2E/DX2                !
 ! A33   A(12,13,14)           120.4911         estimate D2E/DX2                !
 ! A34   A(12,13,27)           120.1626         estimate D2E/DX2                !
 ! A35   A(14,13,27)           119.3424         estimate D2E/DX2                !
 ! A36   A(9,14,13)            118.9896         estimate D2E/DX2                !
 ! A37   A(9,14,28)            119.7332         estimate D2E/DX2                !
 ! A38   A(13,14,28)           121.2769         estimate D2E/DX2                !
 ! A39   A(2,15,16)            118.799          estimate D2E/DX2                !
 ! A40   A(2,15,20)            119.2962         estimate D2E/DX2                !
 ! A41   A(16,15,20)           121.893          estimate D2E/DX2                !
 ! A42   A(15,16,17)           118.7807         estimate D2E/DX2                !
 ! A43   A(15,16,29)           120.0766         estimate D2E/DX2                !
 ! A44   A(17,16,29)           121.1368         estimate D2E/DX2                !
 ! A45   A(16,17,18)           120.042          estimate D2E/DX2                !
 ! A46   A(16,17,30)           119.6289         estimate D2E/DX2                !
 ! A47   A(18,17,30)           120.3289         estimate D2E/DX2                !
 ! A48   A(17,18,19)           120.4702         estimate D2E/DX2                !
 ! A49   A(17,18,31)           119.7554         estimate D2E/DX2                !
 ! A50   A(19,18,31)           119.7738         estimate D2E/DX2                !
 ! A51   A(18,19,20)           120.1285         estimate D2E/DX2                !
 ! A52   A(18,19,32)           120.1729         estimate D2E/DX2                !
 ! A53   A(20,19,32)           119.6976         estimate D2E/DX2                !
 ! A54   A(15,20,19)           118.6852         estimate D2E/DX2                !
 ! A55   A(15,20,33)           120.1509         estimate D2E/DX2                !
 ! A56   A(19,20,33)           121.1552         estimate D2E/DX2                !
 ! D1    D(1,2,3,4)            179.0955         estimate D2E/DX2                !
 ! D2    D(1,2,3,22)            45.5516         estimate D2E/DX2                !
 ! D3    D(15,2,3,4)            63.7346         estimate D2E/DX2                !
 ! D4    D(15,2,3,22)          -69.8092         estimate D2E/DX2                !
 ! D5    D(21,2,3,4)           -52.404          estimate D2E/DX2                !
 ! D6    D(21,2,3,22)          174.0521         estimate D2E/DX2                !
 ! D7    D(1,2,15,16)          -24.6099         estimate D2E/DX2                !
 ! D8    D(1,2,15,20)          156.6157         estimate D2E/DX2                !
 ! D9    D(3,2,15,16)           87.9009         estimate D2E/DX2                !
 ! D10   D(3,2,15,20)          -90.8735         estimate D2E/DX2                !
 ! D11   D(21,2,15,16)        -157.1059         estimate D2E/DX2                !
 ! D12   D(21,2,15,20)          24.1196         estimate D2E/DX2                !
 ! D13   D(2,3,4,5)             77.4988         estimate D2E/DX2                !
 ! D14   D(2,3,4,7)           -105.2016         estimate D2E/DX2                !
 ! D15   D(22,3,4,5)          -150.7613         estimate D2E/DX2                !
 ! D16   D(22,3,4,7)            26.5382         estimate D2E/DX2                !
 ! D17   D(3,4,5,6)            178.0686         estimate D2E/DX2                !
 ! D18   D(7,4,5,6)              0.2703         estimate D2E/DX2                !
 ! D19   D(3,4,7,8)           -177.2615         estimate D2E/DX2                !
 ! D20   D(3,4,7,23)             3.5088         estimate D2E/DX2                !
 ! D21   D(5,4,7,8)              0.3093         estimate D2E/DX2                !
 ! D22   D(5,4,7,23)          -178.9204         estimate D2E/DX2                !
 ! D23   D(4,5,6,8)             -0.7419         estimate D2E/DX2                !
 ! D24   D(5,6,8,7)              0.9688         estimate D2E/DX2                !
 ! D25   D(5,6,8,9)           -178.8724         estimate D2E/DX2                !
 ! D26   D(4,7,8,6)             -0.7719         estimate D2E/DX2                !
 ! D27   D(4,7,8,9)            179.0534         estimate D2E/DX2                !
 ! D28   D(23,7,8,6)           178.5461         estimate D2E/DX2                !
 ! D29   D(23,7,8,9)            -1.6286         estimate D2E/DX2                !
 ! D30   D(6,8,9,10)           152.9394         estimate D2E/DX2                !
 ! D31   D(6,8,9,14)           -27.0567         estimate D2E/DX2                !
 ! D32   D(7,8,9,10)           -26.8703         estimate D2E/DX2                !
 ! D33   D(7,8,9,14)           153.1335         estimate D2E/DX2                !
 ! D34   D(8,9,10,11)          179.5947         estimate D2E/DX2                !
 ! D35   D(8,9,10,24)           -1.2509         estimate D2E/DX2                !
 ! D36   D(14,9,10,11)          -0.4093         estimate D2E/DX2                !
 ! D37   D(14,9,10,24)         178.7451         estimate D2E/DX2                !
 ! D38   D(8,9,14,13)          179.7007         estimate D2E/DX2                !
 ! D39   D(8,9,14,28)           -0.5174         estimate D2E/DX2                !
 ! D40   D(10,9,14,13)          -0.2954         estimate D2E/DX2                !
 ! D41   D(10,9,14,28)         179.4865         estimate D2E/DX2                !
 ! D42   D(9,10,11,12)           0.6778         estimate D2E/DX2                !
 ! D43   D(9,10,11,25)        -179.9685         estimate D2E/DX2                !
 ! D44   D(24,10,11,12)       -178.4745         estimate D2E/DX2                !
 ! D45   D(24,10,11,25)          0.8792         estimate D2E/DX2                !
 ! D46   D(10,11,12,13)         -0.2422         estimate D2E/DX2                !
 ! D47   D(10,11,12,26)        179.6476         estimate D2E/DX2                !
 ! D48   D(25,11,12,13)       -179.5894         estimate D2E/DX2                !
 ! D49   D(25,11,12,26)          0.3004         estimate D2E/DX2                !
 ! D50   D(11,12,13,14)         -0.4774         estimate D2E/DX2                !
 ! D51   D(11,12,13,27)       -179.7618         estimate D2E/DX2                !
 ! D52   D(26,12,13,14)        179.6329         estimate D2E/DX2                !
 ! D53   D(26,12,13,27)          0.3484         estimate D2E/DX2                !
 ! D54   D(12,13,14,9)           0.7398         estimate D2E/DX2                !
 ! D55   D(12,13,14,28)       -179.0386         estimate D2E/DX2                !
 ! D56   D(27,13,14,9)        -179.9699         estimate D2E/DX2                !
 ! D57   D(27,13,14,28)          0.2517         estimate D2E/DX2                !
 ! D58   D(2,15,16,17)        -178.8444         estimate D2E/DX2                !
 ! D59   D(2,15,16,29)           2.0243         estimate D2E/DX2                !
 ! D60   D(20,15,16,17)         -0.1033         estimate D2E/DX2                !
 ! D61   D(20,15,16,29)       -179.2345         estimate D2E/DX2                !
 ! D62   D(2,15,20,19)         178.7663         estimate D2E/DX2                !
 ! D63   D(2,15,20,33)          -2.2933         estimate D2E/DX2                !
 ! D64   D(16,15,20,19)          0.0312         estimate D2E/DX2                !
 ! D65   D(16,15,20,33)        178.9716         estimate D2E/DX2                !
 ! D66   D(15,16,17,18)          0.1996         estimate D2E/DX2                !
 ! D67   D(15,16,17,30)       -179.6379         estimate D2E/DX2                !
 ! D68   D(29,16,17,18)        179.3213         estimate D2E/DX2                !
 ! D69   D(29,16,17,30)         -0.5162         estimate D2E/DX2                !
 ! D70   D(16,17,18,19)         -0.2279         estimate D2E/DX2                !
 ! D71   D(16,17,18,31)       -179.9579         estimate D2E/DX2                !
 ! D72   D(30,17,18,19)        179.6084         estimate D2E/DX2                !
 ! D73   D(30,17,18,31)         -0.1216         estimate D2E/DX2                !
 ! D74   D(17,18,19,20)          0.1547         estimate D2E/DX2                !
 ! D75   D(17,18,19,32)       -179.4913         estimate D2E/DX2                !
 ! D76   D(31,18,19,20)        179.8846         estimate D2E/DX2                !
 ! D77   D(31,18,19,32)          0.2386         estimate D2E/DX2                !
 ! D78   D(18,19,20,15)         -0.0557         estimate D2E/DX2                !
 ! D79   D(18,19,20,33)       -178.985          estimate D2E/DX2                !
 ! D80   D(32,19,20,15)        179.592          estimate D2E/DX2                !
 ! D81   D(32,19,20,33)          0.6627         estimate D2E/DX2                !
 --------------------------------------------------------------------------------
 Trust Radius=3.00D-01 FncErr=1.00D-07 GrdErr=1.00D-06 EigMax=2.50D+02 EigMin=1.00D-04
 Number of steps in this run=    182 maximum allowed number of steps=    198.
 GradGradGradGradGradGradGradGradGradGradGradGradGradGradGradGradGradGrad

 Leave Link  103 at Wed Sep 23 06:01:29 2020, MaxMem=  2147483648 cpu:               0.1 elap:               0.0
 (Enter /prod/apps/gaussian/g16b1/l202.exe)
                          Input orientation:                          
 ---------------------------------------------------------------------
 Center     Atomic      Atomic             Coordinates (Angstroms)
 Number     Number       Type             X           Y           Z
 ---------------------------------------------------------------------
      1          8           0       -3.928000   -1.528000   -0.820000
      2         16           0       -2.759000   -1.169000   -0.008000
      3          7           0       -1.428000   -1.663000   -0.950000
      4          6           0       -0.123000   -1.446000   -0.468000
      5          7           0        0.427000   -2.244000    0.490000
      6          7           0        1.650000   -1.845000    0.717000
      7          6           0        0.811000   -0.509000   -0.857000
      8          7           0        1.901000   -0.797000   -0.106000
      9          6           0        3.175000   -0.158000   -0.105000
     10          6           0        3.624000    0.486000   -1.259000
     11          6           0        4.868000    1.115000   -1.244000
     12          6           0        5.659000    1.088000   -0.094000
     13          6           0        5.200000    0.432000    1.049000
     14          6           0        3.952000   -0.189000    1.055000
     15          6           0       -2.703000    0.606000    0.150000
     16          6           0       -3.320000    1.388000   -0.828000
     17          6           0       -3.255000    2.777000   -0.717000
     18          6           0       -2.578000    3.362000    0.356000
     19          6           0       -1.966000    2.565000    1.327000
     20          6           0       -2.024000    1.175000    1.230000
     21          8           0       -2.566000   -1.754000    1.323000
     22          1           0       -1.564000   -1.363000   -1.917000
     23          1           0        0.775000    0.301000   -1.565000
     24          1           0        3.018000    0.484000   -2.158000
     25          1           0        5.220000    1.617000   -2.139000
     26          1           0        6.628000    1.574000   -0.090000
     27          1           0        5.808000    0.411000    1.946000
     28          1           0        3.577000   -0.688000    1.939000
     29          1           0       -3.849000    0.916000   -1.646000
     30          1           0       -3.734000    3.397000   -1.465000
     31          1           0       -2.531000    4.441000    0.438000
     32          1           0       -1.449000    3.024000    2.162000
     33          1           0       -1.570000    0.542000    1.981000
 ---------------------------------------------------------------------
                    Distance matrix (angstroms):
                    1          2          3          4          5
     1  O    0.000000
     2  S    1.467919   0.000000
     3  N    2.507015   1.703808   0.000000
     4  C    3.822127   2.690135   1.407991   0.000000
     5  N    4.603779   3.399151   2.419129   1.362743   0.000000
     6  N    5.794561   4.519058   3.505153   2.169552   1.306315
     7  C    4.847458   3.728445   2.520612   1.379002   2.229818
     8  N    5.917888   4.675852   3.541826   2.156112   2.149814
     9  C    7.269163   6.020290   4.915960   3.559146   3.500989
    10  C    7.828258   6.711685   5.498762   4.289326   4.553319
    11  C    9.194283   8.057014   6.887912   5.663124   5.831991
    12  C    9.963990   8.715743   7.650249   6.323967   6.230337
    13  C    9.521300   8.186949   7.232939   5.844870   5.500453
    14  C    8.209930   6.864976   5.927656   4.528267   4.119208
    15  C    2.644897   1.782898   2.825595   3.353957   4.246763
    16  C    2.978722   2.743241   3.592095   4.287419   5.382245
    17  C    4.358505   4.039754   4.806851   5.263569   6.342272
    18  C    5.207454   4.549200   5.317778   5.461031   6.362014
    19  C    5.021126   4.043987   4.832200   4.765165   5.436313
    20  C    3.890235   2.750855   3.627928   3.656042   4.271365
    21  O    2.549229   1.466641   2.543591   3.044798   3.145161
    22  H    2.611346   2.260518   1.021560   2.045231   3.245596
    23  H    5.100831   4.132107   3.014752   2.249849   3.289552
    24  H    7.354271   6.381899   5.082892   4.055475   4.600779
    25  H    9.763027   8.715928   7.507864   6.381368   6.692668
    26  H   11.026533   9.779905   8.724500   7.405355   7.305198
    27  H   10.305347   8.927934   8.065233   6.667279   6.174473
    28  H    8.040069   6.645831   5.860629   4.478640   3.800426
    29  H    2.581018   2.866770   3.605121   4.566159   5.729945
    30  H    4.970844   4.890995   5.584484   6.122743   7.277144
    31  H    6.258046   5.632317   6.356254   6.424645   7.310383
    32  H    5.979839   4.899617   5.626096   5.353137   5.836676
    33  H    4.206027   2.880514   3.670552   3.470382   3.738032
                    6          7          8          9         10
     6  N    0.000000
     7  C    2.228518   0.000000
     8  N    1.355962   1.354638   0.000000
     9  C    2.418115   2.505434   1.425271   0.000000
    10  C    3.637968   3.010747   2.438079   1.395727   0.000000
    11  C    4.791935   4.387071   3.708622   2.405015   1.394060
    12  C    5.033119   5.160977   4.204276   2.779009   2.420920
    13  C    4.230538   4.876642   3.705114   2.404255   2.795274
    14  C    2.855833   3.691074   2.433965   1.396528   2.432654
    15  C    5.027673   3.821710   4.819830   5.932926   6.483102
    16  C    6.127007   4.545834   5.705642   6.715495   7.015590
    17  C    6.890447   5.229699   6.303264   7.094623   7.270701
    18  C    6.717079   5.285956   6.129614   6.760172   7.024557
    19  C    5.735473   4.683061   5.320735   5.991263   6.500595
    20  C    4.783497   3.902390   4.591220   5.530707   6.210455
    21  O    4.260302   4.207916   4.786646   6.127437   7.071098
    22  H    4.183309   2.737433   3.950481   5.214738   5.546811
    23  H    3.252455   1.076411   2.145265   2.846451   2.871352
    24  H    3.944780   2.747635   2.664461   2.156762   1.084178
    25  H    5.734726   5.059909   4.579983   3.386710   2.144942
    26  H    6.092725   6.226128   5.288329   3.863063   3.402105
    27  H    4.887631   5.802863   4.575436   3.385713   3.879111
    28  H    2.558371   3.937056   2.646296   2.149521   3.407006
    29  H    6.591350   4.936471   6.194229   7.270814   7.495358
    30  H    7.824778   6.023581   7.154701   7.888086   7.915587
    31  H    7.554628   6.111341   6.882965   7.348747   7.510383
    32  H    5.949705   5.167596   5.564743   6.053577   6.624199
    33  H    4.202840   3.850715   4.265716   5.230337   6.121958
                   11         12         13         14         15
    11  C    0.000000
    12  C    1.396034   0.000000
    13  C    2.415484   1.395516   0.000000
    14  C    2.797297   2.421731   1.393980   0.000000
    15  C    7.715073   8.379433   7.955871   6.763141   0.000000
    16  C    8.203105   9.013945   8.776529   7.675585   1.395957
    17  C    8.308014   9.093968   8.950129   7.992371   2.402006
    18  C    7.940524   8.556971   8.340410   7.465862   2.766514
    19  C    7.444199   7.895657   7.481880   6.533087   2.401287
    20  C    7.322837   7.796732   7.264364   6.132185   1.396854
    21  O    8.371679   8.816773   8.072449   6.708604   2.638996
    22  H    6.925607   7.842350   7.600716   6.374740   3.073560
    23  H    4.185485   5.161072   5.141088   4.147027   3.889824
    24  H    2.157790   3.405847   3.879262   3.413012   6.170218
    25  H    1.084865   2.157449   3.401172   3.882151   8.308765
    26  H    2.154065   1.084054   2.154221   3.402965   9.384145
    27  H    3.399311   2.154560   1.083842   2.144439   8.700618
    28  H    3.879301   3.409104   2.163476   1.082165   6.656828
    29  H    8.728533   9.635370   9.454189   8.328987   2.152912
    30  H    8.902290   9.769318   9.743089   8.847847   3.385390
    31  H    8.284721   8.865762   8.730049   7.990424   3.849643
    32  H    7.426278   7.704628   7.222633   6.381193   3.386353
    33  H    7.223351   7.540702   6.834737   5.646620   2.154146
                   16         17         18         19         20
    16  C    0.000000
    17  C    1.394943   0.000000
    18  C    2.418490   1.397098   0.000000
    19  C    2.804045   2.425778   1.397352   0.000000
    20  C    2.441383   2.805811   2.419455   1.394587   0.000000
    21  O    3.881685   5.016601   5.206601   4.360479   2.980177
    22  H    3.440561   4.630236   5.340445   5.110218   4.068987
    23  H    4.300438   4.805266   4.929764   4.582842   4.050963
    24  H    6.538835   6.832632   6.776304   6.427756   6.113738
    25  H    8.643076   8.671408   8.371311   8.034330   8.001316
    26  H    9.977071   9.975672   9.388626   8.766231   8.761205
    27  H    9.590098   9.737941   9.031140   8.090609   7.901682
    28  H    7.715872   8.107822   7.536074   6.456114   5.945137
    29  H    1.082474   2.163145   3.406811   3.886337   3.416004
    30  H    2.147847   1.083211   2.157221   3.407831   3.889011
    31  H    3.397953   2.151069   1.083132   2.151493   3.398686
    32  H    3.888089   3.407534   2.156507   1.084064   2.148965
    33  H    3.415947   3.887628   3.407211   2.162651   1.082038
                   21         22         23         24         25
    21  O    0.000000
    22  H    3.413867   0.000000
    23  H    4.870919   2.892010   0.000000
    24  H    6.950328   4.946131   2.327270   0.000000
    25  H    9.163563   7.412985   4.671119   2.476460   0.000000
    26  H    9.879362   8.892287   6.168773   4.300793   2.486506
    27  H    8.671749   8.509773   6.137614   4.963088   4.299698
    28  H    6.265162   6.461752   4.594273   4.297845   4.964127
    29  H    4.194037   3.238596   4.665422   6.899598   9.109402
    30  H    5.972434   5.250791   5.470493   7.386157   9.154059
    31  H    6.257993   6.337786   5.664031   7.293042   8.642564
    32  H    4.978041   5.991430   5.123615   6.713277   8.059393
    33  H    2.587778   4.338602   4.258077   6.179355   8.014619
                   26         27         28         29         30
    26  H    0.000000
    27  H    2.484002   0.000000
    28  H    4.306052   2.487008   0.000000
    29  H   10.612334  10.315771   8.400626   0.000000
    30  H   10.610608  10.564132   9.040197   2.490250   0.000000
    31  H    9.611751   9.383703   8.115868   4.301837   2.481643
    32  H    8.509520   7.716118   6.252148   4.970365   4.302962
    33  H    8.518290   7.379246   5.292095   4.299866   4.970798
                   31         32         33
    31  H    0.000000
    32  H    2.480078   0.000000
    33  H    4.301926   2.491531   0.000000
 Symmetry turned off by external request.
 Stoichiometry    C14H12N4O2S
 Framework group  C1[X(C14H12N4O2S)]
 Deg. of freedom    93
 Full point group                 C1      NOp   1
 Rotational constants (GHZ):           0.5106296           0.1627238           0.1390307
 Leave Link  202 at Wed Sep 23 06:01:29 2020, MaxMem=  2147483648 cpu:               0.0 elap:               0.0
 (Enter /prod/apps/gaussian/g16b1/l301.exe)
 Standard basis: 6-31G(d) (6D, 7F)
 Ernie: Thresh=  0.10000D-02 Tol=  0.10000D-05 Strict=F.
   343 basis functions,   660 primitive gaussians,   343 cartesian basis functions
    78 alpha electrons       78 beta electrons
       nuclear repulsion energy      1737.1534125548 Hartrees.
 IExCor=  402 DFT=T Ex+Corr=B3LYP ExCW=0 ScaHFX=  0.200000
 ScaDFX=  0.800000  0.720000  1.000000  0.810000 ScalE2=  1.000000  1.000000
 IRadAn=      5 IRanWt=     -1 IRanGd=            0 ICorTp=0 IEmpDi=  4
 NAtoms=   33 NActive=   33 NUniq=   33 SFac= 1.00D+00 NAtFMM=   60 NAOKFM=F Big=F
 Integral buffers will be    131072 words long.
 Raffenetti 2 integral format.
 Two-electron integral symmetry is turned off.
 Using the following non-standard input for PCM:
 MSTModel=DFT cav
 --- end of non-standard input.
 MST model for solvation energy: B3LYP parametrization.
 MST cavity parameters:
 ISph   IAn     Re0     Alpha   Atom Type   QCorr
 ------------------------------------------------
   1      8     1.40     1.25      O          F
   2     16     1.75     1.25      S          F
   3      7     1.50     1.25      NH         F
   4      6     1.50     1.25      C          F
   5      7     1.40     1.25      N          F
   6      7     1.40     1.25      N          F
   7      6     1.50     1.25      CH         F
   8      7     1.40     1.25      N          F
   9      6     1.50     1.25      C          F
  10      6     1.50     1.25      CH         F
  11      6     1.50     1.25      CH         F
  12      6     1.50     1.25      CH         F
  13      6     1.50     1.25      CH         F
  14      6     1.50     1.25      CH         F
  15      6     1.50     1.25      C          F
  16      6     1.50     1.25      CH         F
  17      6     1.50     1.25      CH         F
  18      6     1.50     1.25      CH         F
  19      6     1.50     1.25      CH         F
  20      6     1.50     1.25      CH         F
  21      8     1.40     1.25      O          F
  22      1     0.90     1.25      NH         F
  23      1     1.20     1.25      CH         F
  24      1     1.20     1.25      CH         F
  25      1     1.20     1.25      CH         F
  26      1     1.20     1.25      CH         F
  27      1     1.20     1.25      CH         F
  28      1     1.20     1.25      CH         F
  29      1     1.20     1.25      CH         F
  30      1     1.20     1.25      CH         F
  31      1     1.20     1.25      CH         F
  32      1     1.20     1.25      CH         F
  33      1     1.20     1.25      CH         F
 ------------------------------------------------------------------------------
 Polarizable Continuum Model (PCM)
 =================================
 Model                : PCM.
 Atomic radii         : MST.
 Polarization charges : Total charges.
 Charge compensation  : None.
 Solution method      : On-the-fly selection.
 Cavity type          : Scaled VdW (van der Waals Surface) (Alpha=1.250).
 Cavity algorithm     : GePol (No added spheres)
                        Default sphere list used, NSphG=   33.
                        Lebedev-Laikov grids with approx.  5.0 points / Ang**2.
                        Smoothing algorithm: York/Karplus (Gamma=1.0000).
                        Polarization charges: spherical gaussians, with
                                              point-specific exponents (IZeta= 3).
                        Self-potential: point-specific (ISelfS= 7).
                        Self-field    : sphere-specific E.n sum rule (ISelfD= 2).
 1st derivatives      : Analytical E(r).r(x)/FMM algorithm (CHGder, D1EAlg=3).
                        Cavity 1st derivative terms included.
 Solvent              : Water, Eps=  78.355300 Eps(inf)=   1.777849
 ------------------------------------------------------------------------------
 GePol: Number of generator spheres                  =      33
 GePol: Total number of spheres                      =      33
 GePol: Number of exposed spheres                    =      33 (100.00%)
 GePol: Number of points                             =    2648
 GePol: Average weight of points                     =       0.13
 GePol: Minimum weight of points                     =   0.10D-11
 GePol: Maximum weight of points                     =    0.22001
 GePol: Number of points with low weight             =     170
 GePol: Fraction of low-weight points (<1% of avg)   =       6.42%
 GePol: Cavity surface area                          =    340.421 Ang**2
 GePol: Cavity volume                                =    322.604 Ang**3
 PCM non-electrostatic energy =         0.0030344526 Hartrees.
 Nuclear repulsion after PCM non-electrostatic terms =     1737.1564470074 Hartrees.
 Leave Link  301 at Wed Sep 23 06:01:29 2020, MaxMem=  2147483648 cpu:               0.3 elap:               0.1
 (Enter /prod/apps/gaussian/g16b1/l302.exe)
 NPDir=0 NMtPBC=     1 NCelOv=     1 NCel=       1 NClECP=     1 NCelD=      1
         NCelK=      1 NCelE2=     1 NClLst=     1 CellRange=     0.0.
 One-electron integrals computed using PRISM.
 NBasis=   343 RedAO= T EigKep=  4.68D-04  NBF=   343
 NBsUse=   343 1.00D-06 EigRej= -1.00D+00 NBFU=   343
 Precomputing XC quadrature grid using
 IXCGrd= 4 IRadAn=           5 IRanWt=          -1 IRanGd=           0 AccXCQ= 0.00D+00.
 Generated NRdTot=       0 NPtTot=           0 NUsed=           0 NTot=          32
 NSgBfM=   341   341   341   341   341 MxSgAt=    33 MxSgA2=    33.
 Leave Link  302 at Wed Sep 23 06:01:30 2020, MaxMem=  2147483648 cpu:               1.7 elap:               0.4
 (Enter /prod/apps/gaussian/g16b1/l303.exe)
 DipDrv:  MaxL=1.
 Leave Link  303 at Wed Sep 23 06:01:30 2020, MaxMem=  2147483648 cpu:               0.2 elap:               0.1
 (Enter /prod/apps/gaussian/g16b1/l401.exe)
 ExpMin= 1.17D-01 ExpMax= 2.19D+04 ExpMxC= 3.30D+03 IAcc=3 IRadAn=         5 AccDes= 0.00D+00
 Harris functional with IExCor=  402 and IRadAn=       5 diagonalized for initial guess.
 HarFok:  IExCor=  402 AccDes= 0.00D+00 IRadAn=         5 IDoV= 1 UseB2=F ITyADJ=14
 ICtDFT=  3500011 ScaDFX=  1.000000  1.000000  1.000000  1.000000
 FoFCou: FMM=F IPFlag=           0 FMFlag=      100000 FMFlg1=           0
         NFxFlg=           0 DoJE=T BraDBF=F KetDBF=T FulRan=T
         wScrn=  0.000000 ICntrl=       500 IOpCl=  0 I1Cent=   200000004 NGrid=           0
         NMat0=    1 NMatS0=      1 NMatT0=    0 NMatD0=    1 NMtDS0=    0 NMtDT0=    0
 Symmetry not used in FoFCou.
 Harris En= -1308.24433153638    
 JPrj=0 DoOrth=F DoCkMO=F.
 Leave Link  401 at Wed Sep 23 06:01:32 2020, MaxMem=  2147483648 cpu:               9.7 elap:               2.5
 (Enter /prod/apps/gaussian/g16b1/l502.exe)
 Two-electron integral symmetry not used.
 Closed shell SCF:
 Using DIIS extrapolation, IDIIS=  1040.
 NGot=  2147483648 LenX=  2147243388 LenY=  2147125298
 Requested convergence on RMS density matrix=1.00D-08 within2000 cycles.
 Requested convergence on MAX density matrix=1.00D-06.
 Requested convergence on             energy=1.00D-06.
 No special actions if energy rises.

 Cycle   1  Pass 1  IDiag  1:
 FoFJK:  IHMeth= 1 ICntrl=       0 DoSepK=F KAlg= 0 I1Cent=           0 FoldK=F
 IRaf= 750000000 NMat=       1 IRICut=       1 DoRegI=T DoRafI=F ISym2E= 0 IDoP0=0 IntGTp=1.
 FoFCou: FMM=F IPFlag=           0 FMFlag=      100000 FMFlg1=           0
         NFxFlg=           0 DoJE=F BraDBF=F KetDBF=F FulRan=T
         wScrn=  0.000000 ICntrl=         0 IOpCl=  0 I1Cent=           0 NGrid=           0
         NMat0=    1 NMatS0=      1 NMatT0=    0 NMatD0=    1 NMtDS0=    0 NMtDT0=    0
 Symmetry not used in FoFCou.
 Inv3:  Mode=1 IEnd=    21035712.
 Iteration    1 A*A^-1 deviation from unit magnitude is 3.66D-15 for   2557.
 Iteration    1 A*A^-1 deviation from orthogonality  is 3.38D-15 for   2557    203.
 Iteration    1 A^-1*A deviation from unit magnitude is 3.55D-15 for   2380.
 Iteration    1 A^-1*A deviation from orthogonality  is 6.31D-14 for   2364   2324.
 E= -1307.69801405641    
 DIIS: error= 2.87D-02 at cycle   1 NSaved=   1.
 NSaved= 1 IEnMin= 1 EnMin= -1307.69801405641     IErMin= 1 ErrMin= 2.87D-02
 ErrMax= 2.87D-02  0.00D+00 EMaxC= 1.00D-01 BMatC= 6.46D-01 BMatP= 6.46D-01
 IDIUse=3 WtCom= 7.13D-01 WtEn= 2.87D-01
 Coeff-Com:  0.100D+01
 Coeff-En:   0.100D+01
 Coeff:      0.100D+01
 Gap=     0.264 Goal=   None    Shift=    0.000
 GapD=    0.264 DampG=1.000 DampE=0.500 DampFc=0.5000 IDamp=-1.
 Damping current iteration by 5.00D-01
 RMSDP=5.79D-03 MaxDP=5.65D-01              OVMax= 2.34D-01

 Cycle   2  Pass 1  IDiag  1:
 E= -1307.85022876113     Delta-E=       -0.152214704718 Rises=F Damp=T
 DIIS: error= 1.46D-02 at cycle   2 NSaved=   2.
 NSaved= 2 IEnMin= 2 EnMin= -1307.85022876113     IErMin= 2 ErrMin= 1.46D-02
 ErrMax= 1.46D-02  0.00D+00 EMaxC= 1.00D-01 BMatC= 9.94D-02 BMatP= 6.46D-01
 IDIUse=3 WtCom= 8.54D-01 WtEn= 1.46D-01
 Coeff-Com:  0.221D+00 0.779D+00
 Coeff-En:   0.351D+00 0.649D+00
 Coeff:      0.240D+00 0.760D+00
 Gap=     0.220 Goal=   None    Shift=    0.000
 RMSDP=1.70D-03 MaxDP=1.32D-01 DE=-1.52D-01 OVMax= 1.74D-01

 Cycle   3  Pass 1  IDiag  1:
 E= -1308.23002894322     Delta-E=       -0.379800182092 Rises=F Damp=F
 DIIS: error= 8.55D-03 at cycle   3 NSaved=   3.
 NSaved= 3 IEnMin= 3 EnMin= -1308.23002894322     IErMin= 3 ErrMin= 8.55D-03
 ErrMax= 8.55D-03  0.00D+00 EMaxC= 1.00D-01 BMatC= 4.53D-02 BMatP= 9.94D-02
 IDIUse=3 WtCom= 9.15D-01 WtEn= 8.55D-02
 Coeff-Com:  0.565D-01 0.401D+00 0.543D+00
 Coeff-En:   0.000D+00 0.000D+00 0.100D+01
 Coeff:      0.517D-01 0.367D+00 0.582D+00
 Gap=     0.201 Goal=   None    Shift=    0.000
 RMSDP=8.60D-04 MaxDP=3.46D-02 DE=-3.80D-01 OVMax= 4.53D-02

 Cycle   4  Pass 1  IDiag  1:
 E= -1308.26540340031     Delta-E=       -0.035374457095 Rises=F Damp=F
 DIIS: error= 2.90D-03 at cycle   4 NSaved=   4.
 NSaved= 4 IEnMin= 4 EnMin= -1308.26540340031     IErMin= 4 ErrMin= 2.90D-03
 ErrMax= 2.90D-03  0.00D+00 EMaxC= 1.00D-01 BMatC= 7.20D-03 BMatP= 4.53D-02
 IDIUse=3 WtCom= 9.71D-01 WtEn= 2.90D-02
 Coeff-Com:  0.303D-02 0.856D-01 0.308D+00 0.603D+00
 Coeff-En:   0.000D+00 0.000D+00 0.120D+00 0.880D+00
 Coeff:      0.295D-02 0.831D-01 0.303D+00 0.611D+00
 Gap=     0.199 Goal=   None    Shift=    0.000
 RMSDP=2.85D-04 MaxDP=1.31D-02 DE=-3.54D-02 OVMax= 1.65D-02

 Cycle   5  Pass 1  IDiag  1:
 E= -1308.27141635558     Delta-E=       -0.006012955266 Rises=F Damp=F
 DIIS: error= 7.64D-04 at cycle   5 NSaved=   5.
 NSaved= 5 IEnMin= 5 EnMin= -1308.27141635558     IErMin= 5 ErrMin= 7.64D-04
 ErrMax= 7.64D-04  0.00D+00 EMaxC= 1.00D-01 BMatC= 5.26D-04 BMatP= 7.20D-03
 IDIUse=3 WtCom= 9.92D-01 WtEn= 7.64D-03
 Coeff-Com: -0.273D-02 0.156D-01 0.112D+00 0.313D+00 0.563D+00
 Coeff-En:   0.000D+00 0.000D+00 0.000D+00 0.000D+00 0.100D+01
 Coeff:     -0.271D-02 0.155D-01 0.111D+00 0.310D+00 0.566D+00
 Gap=     0.198 Goal=   None    Shift=    0.000
 RMSDP=8.22D-05 MaxDP=4.12D-03 DE=-6.01D-03 OVMax= 6.17D-03

 Cycle   6  Pass 1  IDiag  1:
 E= -1308.27186909043     Delta-E=       -0.000452734852 Rises=F Damp=F
 DIIS: error= 2.15D-04 at cycle   6 NSaved=   6.
 NSaved= 6 IEnMin= 6 EnMin= -1308.27186909043     IErMin= 6 ErrMin= 2.15D-04
 ErrMax= 2.15D-04  0.00D+00 EMaxC= 1.00D-01 BMatC= 4.66D-05 BMatP= 5.26D-04
 IDIUse=3 WtCom= 9.98D-01 WtEn= 2.15D-03
 Coeff-Com: -0.168D-02 0.306D-02 0.382D-01 0.121D+00 0.305D+00 0.534D+00
 Coeff-En:   0.000D+00 0.000D+00 0.000D+00 0.000D+00 0.865D-04 0.100D+01
 Coeff:     -0.168D-02 0.305D-02 0.381D-01 0.121D+00 0.305D+00 0.535D+00
 Gap=     0.198 Goal=   None    Shift=    0.000
 RMSDP=2.44D-05 MaxDP=1.01D-03 DE=-4.53D-04 OVMax= 1.90D-03

 Cycle   7  Pass 1  IDiag  1:
 E= -1308.27191229452     Delta-E=       -0.000043204094 Rises=F Damp=F
 DIIS: error= 6.57D-05 at cycle   7 NSaved=   7.
 NSaved= 7 IEnMin= 7 EnMin= -1308.27191229452     IErMin= 7 ErrMin= 6.57D-05
 ErrMax= 6.57D-05  0.00D+00 EMaxC= 1.00D-01 BMatC= 3.68D-06 BMatP= 4.66D-05
 IDIUse=1 WtCom= 1.00D+00 WtEn= 0.00D+00
 Coeff-Com: -0.766D-03 0.235D-03 0.120D-01 0.418D-01 0.124D+00 0.291D+00
 Coeff-Com:  0.531D+00
 Coeff:     -0.766D-03 0.235D-03 0.120D-01 0.418D-01 0.124D+00 0.291D+00
 Coeff:      0.531D+00
 Gap=     0.198 Goal=   None    Shift=    0.000
 RMSDP=6.81D-06 MaxDP=4.43D-04 DE=-4.32D-05 OVMax= 5.31D-04

 Cycle   8  Pass 1  IDiag  1:
 E= -1308.27191529221     Delta-E=       -0.000002997683 Rises=F Damp=F
 DIIS: error= 2.77D-05 at cycle   8 NSaved=   8.
 NSaved= 8 IEnMin= 8 EnMin= -1308.27191529221     IErMin= 8 ErrMin= 2.77D-05
 ErrMax= 2.77D-05  0.00D+00 EMaxC= 1.00D-01 BMatC= 5.37D-07 BMatP= 3.68D-06
 IDIUse=1 WtCom= 1.00D+00 WtEn= 0.00D+00
 Coeff-Com: -0.239D-03-0.191D-03 0.228D-02 0.949D-02 0.356D-01 0.107D+00
 Coeff-Com:  0.315D+00 0.531D+00
 Coeff:     -0.239D-03-0.191D-03 0.228D-02 0.949D-02 0.356D-01 0.107D+00
 Coeff:      0.315D+00 0.531D+00
 Gap=     0.198 Goal=   None    Shift=    0.000
 RMSDP=2.31D-06 MaxDP=1.23D-04 DE=-3.00D-06 OVMax= 2.14D-04

 Cycle   9  Pass 1  IDiag  1:
 E= -1308.27191571359     Delta-E=       -0.000000421378 Rises=F Damp=F
 DIIS: error= 7.92D-06 at cycle   9 NSaved=   9.
 NSaved= 9 IEnMin= 9 EnMin= -1308.27191571359     IErMin= 9 ErrMin= 7.92D-06
 ErrMax= 7.92D-06  0.00D+00 EMaxC= 1.00D-01 BMatC= 4.87D-08 BMatP= 5.37D-07
 IDIUse=1 WtCom= 1.00D+00 WtEn= 0.00D+00
 Coeff-Com: -0.162D-04-0.136D-03-0.506D-03-0.107D-02 0.728D-03 0.135D-01
 Coeff-Com:  0.856D-01 0.281D+00 0.621D+00
 Coeff:     -0.162D-04-0.136D-03-0.506D-03-0.107D-02 0.728D-03 0.135D-01
 Coeff:      0.856D-01 0.281D+00 0.621D+00
 Gap=     0.198 Goal=   None    Shift=    0.000
 RMSDP=6.66D-07 MaxDP=4.14D-05 DE=-4.21D-07 OVMax= 4.60D-05

 Cycle  10  Pass 1  IDiag  1:
 E= -1308.27191575209     Delta-E=       -0.000000038509 Rises=F Damp=F
 DIIS: error= 1.90D-06 at cycle  10 NSaved=  10.
 NSaved=10 IEnMin=10 EnMin= -1308.27191575209     IErMin=10 ErrMin= 1.90D-06
 ErrMax= 1.90D-06  0.00D+00 EMaxC= 1.00D-01 BMatC= 3.61D-09 BMatP= 4.87D-08
 IDIUse=1 WtCom= 1.00D+00 WtEn= 0.00D+00
 Coeff-Com:  0.329D-05-0.560D-04-0.376D-03-0.106D-02-0.150D-02 0.159D-02
 Coeff-Com:  0.286D-01 0.124D+00 0.324D+00 0.525D+00
 Coeff:      0.329D-05-0.560D-04-0.376D-03-0.106D-02-0.150D-02 0.159D-02
 Coeff:      0.286D-01 0.124D+00 0.324D+00 0.525D+00
 Gap=     0.198 Goal=   None    Shift=    0.000
 RMSDP=2.13D-07 MaxDP=1.11D-05 DE=-3.85D-08 OVMax= 2.11D-05

 Cycle  11  Pass 1  IDiag  1:
 E= -1308.27191575502     Delta-E=       -0.000000002928 Rises=F Damp=F
 DIIS: error= 6.12D-07 at cycle  11 NSaved=  11.
 NSaved=11 IEnMin=11 EnMin= -1308.27191575502     IErMin=11 ErrMin= 6.12D-07
 ErrMax= 6.12D-07  0.00D+00 EMaxC= 1.00D-01 BMatC= 3.86D-10 BMatP= 3.61D-09
 IDIUse=1 WtCom= 1.00D+00 WtEn= 0.00D+00
 Coeff-Com:  0.348D-05-0.860D-05-0.117D-03-0.379D-03-0.873D-03-0.116D-02
 Coeff-Com:  0.173D-02 0.225D-01 0.666D-01 0.269D+00 0.643D+00
 Coeff:      0.348D-05-0.860D-05-0.117D-03-0.379D-03-0.873D-03-0.116D-02
 Coeff:      0.173D-02 0.225D-01 0.666D-01 0.269D+00 0.643D+00
 Gap=     0.198 Goal=   None    Shift=    0.000
 RMSDP=7.27D-08 MaxDP=3.71D-06 DE=-2.93D-09 OVMax= 7.34D-06

 Cycle  12  Pass 1  IDiag  1:
 E= -1308.27191575532     Delta-E=       -0.000000000300 Rises=F Damp=F
 DIIS: error= 2.79D-07 at cycle  12 NSaved=  12.
 NSaved=12 IEnMin=12 EnMin= -1308.27191575532     IErMin=12 ErrMin= 2.79D-07
 ErrMax= 2.79D-07  0.00D+00 EMaxC= 1.00D-01 BMatC= 8.58D-11 BMatP= 3.86D-10
 IDIUse=1 WtCom= 1.00D+00 WtEn= 0.00D+00
 Coeff-Com:  0.206D-05 0.819D-06-0.375D-04-0.137D-03-0.423D-03-0.963D-03
 Coeff-Com: -0.204D-02 0.113D-02 0.642D-02 0.116D+00 0.407D+00 0.474D+00
 Coeff:      0.206D-05 0.819D-06-0.375D-04-0.137D-03-0.423D-03-0.963D-03
 Coeff:     -0.204D-02 0.113D-02 0.642D-02 0.116D+00 0.407D+00 0.474D+00
 Gap=     0.198 Goal=   None    Shift=    0.000
 RMSDP=2.58D-08 MaxDP=1.36D-06 DE=-3.00D-10 OVMax= 2.26D-06

 Cycle  13  Pass 1  IDiag  1:
 E= -1308.27191575538     Delta-E=       -0.000000000062 Rises=F Damp=F
 DIIS: error= 5.37D-08 at cycle  13 NSaved=  13.
 NSaved=13 IEnMin=13 EnMin= -1308.27191575538     IErMin=13 ErrMin= 5.37D-08
 ErrMax= 5.37D-08  0.00D+00 EMaxC= 1.00D-01 BMatC= 1.91D-12 BMatP= 8.58D-11
 IDIUse=1 WtCom= 1.00D+00 WtEn= 0.00D+00
 Coeff-Com:  0.401D-06 0.974D-06-0.112D-05-0.848D-05-0.614D-04-0.239D-03
 Coeff-Com: -0.931D-03-0.201D-02-0.574D-02 0.128D-01 0.764D-01 0.161D+00
 Coeff-Com:  0.759D+00
 Coeff:      0.401D-06 0.974D-06-0.112D-05-0.848D-05-0.614D-04-0.239D-03
 Coeff:     -0.931D-03-0.201D-02-0.574D-02 0.128D-01 0.764D-01 0.161D+00
 Coeff:      0.759D+00
 Gap=     0.198 Goal=   None    Shift=    0.000
 RMSDP=6.38D-09 MaxDP=1.97D-07 DE=-6.23D-11 OVMax= 5.69D-07

 Error on total polarization charges =  0.02234
 SCF Done:  E(RB3LYP) =  -1308.27191576     A.U. after   13 cycles
            NFock= 13  Conv=0.64D-08     -V/T= 2.0077
 KE= 1.298237702074D+03 PE=-6.535094339026D+03 EE= 2.191428274189D+03
 Leave Link  502 at Wed Sep 23 06:02:53 2020, MaxMem=  2147483648 cpu:             320.6 elap:              80.2
 (Enter /prod/apps/gaussian/g16b1/l601.exe)
 Copying SCF densities to generalized density rwf, IOpCl= 0 IROHF=0.

 **********************************************************************

            Population analysis using the SCF Density.

 **********************************************************************

 Alpha  occ. eigenvalues --  -89.12635 -19.15936 -19.15882 -14.44656 -14.40470
 Alpha  occ. eigenvalues --  -14.38507 -14.37163 -10.26385 -10.25112 -10.24508
 Alpha  occ. eigenvalues --  -10.23424 -10.21473 -10.21456 -10.20748 -10.20683
 Alpha  occ. eigenvalues --  -10.20604 -10.20593 -10.20441 -10.20207 -10.20135
 Alpha  occ. eigenvalues --  -10.19898  -8.15185  -6.11670  -6.11622  -6.11472
 Alpha  occ. eigenvalues --   -1.12600  -1.11344  -1.01679  -0.95756  -0.93023
 Alpha  occ. eigenvalues --   -0.87687  -0.86142  -0.81110  -0.78092  -0.76473
 Alpha  occ. eigenvalues --   -0.76428  -0.75887  -0.68743  -0.66708  -0.64728
 Alpha  occ. eigenvalues --   -0.62436  -0.61598  -0.60896  -0.58544  -0.56644
 Alpha  occ. eigenvalues --   -0.55251  -0.52874  -0.52022  -0.49770  -0.49408
 Alpha  occ. eigenvalues --   -0.48615  -0.48247  -0.47498  -0.45736  -0.45501
 Alpha  occ. eigenvalues --   -0.45057  -0.44444  -0.43944  -0.43349  -0.39024
 Alpha  occ. eigenvalues --   -0.38899  -0.38191  -0.37296  -0.36475  -0.36283
 Alpha  occ. eigenvalues --   -0.36036  -0.34970  -0.34138  -0.33430  -0.32600
 Alpha  occ. eigenvalues --   -0.32079  -0.31683  -0.29137  -0.27407  -0.26979
 Alpha  occ. eigenvalues --   -0.26504  -0.26377  -0.24324
 Alpha virt. eigenvalues --   -0.04566  -0.04051  -0.01900  -0.01481   0.01178
 Alpha virt. eigenvalues --    0.02237   0.06374   0.08312   0.09025   0.09539
 Alpha virt. eigenvalues --    0.09998   0.11487   0.12550   0.13150   0.14428
 Alpha virt. eigenvalues --    0.15015   0.15031   0.15529   0.16226   0.16836
 Alpha virt. eigenvalues --    0.18378   0.18690   0.18955   0.19306   0.20113
 Alpha virt. eigenvalues --    0.21525   0.23375   0.24073   0.27069   0.28906
 Alpha virt. eigenvalues --    0.29227   0.29606   0.30116   0.30671   0.31642
 Alpha virt. eigenvalues --    0.33157   0.33591   0.34168   0.36288   0.38159
 Alpha virt. eigenvalues --    0.40987   0.42573   0.43140   0.47857   0.48288
 Alpha virt. eigenvalues --    0.49581   0.50408   0.51530   0.51886   0.52332
 Alpha virt. eigenvalues --    0.53307   0.54715   0.55013   0.55866   0.56313
 Alpha virt. eigenvalues --    0.57125   0.57468   0.57604   0.57944   0.58068
 Alpha virt. eigenvalues --    0.58587   0.59119   0.59848   0.60210   0.60509
 Alpha virt. eigenvalues --    0.60830   0.61052   0.61491   0.62700   0.62888
 Alpha virt. eigenvalues --    0.63357   0.63979   0.64862   0.67415   0.68356
 Alpha virt. eigenvalues --    0.69572   0.70301   0.70907   0.72572   0.74239
 Alpha virt. eigenvalues --    0.76953   0.77094   0.78185   0.78755   0.79465
 Alpha virt. eigenvalues --    0.81536   0.81863   0.82238   0.83403   0.83807
 Alpha virt. eigenvalues --    0.83883   0.84096   0.84188   0.85320   0.85770
 Alpha virt. eigenvalues --    0.86378   0.87871   0.88878   0.90192   0.90380
 Alpha virt. eigenvalues --    0.90998   0.92048   0.93115   0.93691   0.94278
 Alpha virt. eigenvalues --    0.95252   0.97660   0.98308   0.98694   0.99278
 Alpha virt. eigenvalues --    1.01785   1.02600   1.04016   1.05288   1.05898
 Alpha virt. eigenvalues --    1.06805   1.08322   1.09420   1.12218   1.13023
 Alpha virt. eigenvalues --    1.14479   1.15268   1.15389   1.16028   1.16905
 Alpha virt. eigenvalues --    1.18131   1.18852   1.19931   1.22595   1.24011
 Alpha virt. eigenvalues --    1.25296   1.25502   1.26366   1.31200   1.32720
 Alpha virt. eigenvalues --    1.34490   1.37477   1.39675   1.41361   1.41829
 Alpha virt. eigenvalues --    1.42319   1.42873   1.43831   1.44411   1.45621
 Alpha virt. eigenvalues --    1.45969   1.47415   1.47903   1.48974   1.49409
 Alpha virt. eigenvalues --    1.49920   1.50932   1.53247   1.57065   1.58341
 Alpha virt. eigenvalues --    1.61932   1.68140   1.68574   1.70942   1.74303
 Alpha virt. eigenvalues --    1.75833   1.78161   1.78608   1.79654   1.80233
 Alpha virt. eigenvalues --    1.80759   1.82858   1.83853   1.84617   1.85504
 Alpha virt. eigenvalues --    1.87214   1.87834   1.89843   1.90315   1.91478
 Alpha virt. eigenvalues --    1.93696   1.94410   1.96124   1.96582   1.97371
 Alpha virt. eigenvalues --    1.98977   2.02461   2.03755   2.05394   2.07058
 Alpha virt. eigenvalues --    2.08845   2.09264   2.10199   2.10873   2.12660
 Alpha virt. eigenvalues --    2.12880   2.13582   2.14123   2.14187   2.14913
 Alpha virt. eigenvalues --    2.15264   2.17104   2.19825   2.21087   2.23626
 Alpha virt. eigenvalues --    2.24413   2.26760   2.28268   2.28507   2.29089
 Alpha virt. eigenvalues --    2.30415   2.31034   2.31532   2.34869   2.37096
 Alpha virt. eigenvalues --    2.38189   2.47850   2.50868   2.51756   2.54405
 Alpha virt. eigenvalues --    2.56404   2.57369   2.58031   2.59199   2.63086
 Alpha virt. eigenvalues --    2.63869   2.63925   2.65257   2.66910   2.69618
 Alpha virt. eigenvalues --    2.70179   2.71274   2.72032   2.72452   2.73799
 Alpha virt. eigenvalues --    2.74914   2.75972   2.76672   2.77857   2.83178
 Alpha virt. eigenvalues --    2.86797   2.88859   3.00049   3.01989   3.05950
 Alpha virt. eigenvalues --    3.13190   3.25019   3.36934   3.42144   3.60679
 Alpha virt. eigenvalues --    3.76990   3.93333   3.96131   4.03459   4.07034
 Alpha virt. eigenvalues --    4.07491   4.08752   4.10160   4.10457   4.11338
 Alpha virt. eigenvalues --    4.14901   4.18326   4.21528   4.31450   4.31723
 Alpha virt. eigenvalues --    4.34662   4.39371   4.51354   4.65418   4.70968
          Condensed to atoms (all electrons):
               1          2          3          4          5          6
     1  O    8.267416   0.440704  -0.052199   0.001572  -0.000019   0.000000
     2  S    0.440704  13.679715   0.146184  -0.024457   0.002515   0.000144
     3  N   -0.052199   0.146184   7.352906   0.266647  -0.058184   0.005500
     4  C    0.001572  -0.024457   0.266647   4.653824   0.367322  -0.083858
     5  N   -0.000019   0.002515  -0.058184   0.367322   6.891429   0.304863
     6  N    0.000000   0.000144   0.005500  -0.083858   0.304863   6.772588
     7  C   -0.000029  -0.004590  -0.072626   0.520980  -0.072001  -0.098994
     8  N    0.000000   0.000290   0.003343  -0.034367  -0.096044   0.229158
     9  C   -0.000000  -0.000017  -0.000125   0.004137   0.006465  -0.042900
    10  C   -0.000000   0.000000   0.000004   0.000927  -0.000326   0.002810
    11  C    0.000000   0.000000   0.000000  -0.000008   0.000002  -0.000069
    12  C   -0.000000  -0.000000  -0.000000   0.000000  -0.000000   0.000018
    13  C   -0.000000  -0.000000  -0.000000   0.000006  -0.000004   0.000261
    14  C    0.000000   0.000000   0.000001  -0.000414   0.000352   0.000256
    15  C   -0.059044   0.190708  -0.061893  -0.001736  -0.000216  -0.000001
    16  C    0.002898  -0.024799  -0.001519   0.000073  -0.000005  -0.000000
    17  C    0.000497   0.002864  -0.000102  -0.000017   0.000000   0.000000
    18  C   -0.000005  -0.000317   0.000004   0.000005   0.000000   0.000000
    19  C   -0.000042   0.002415  -0.000097   0.000064   0.000004   0.000000
    20  C    0.001396  -0.024691  -0.002713   0.000932  -0.000097  -0.000029
    21  O   -0.040861   0.429587  -0.053228   0.001283   0.000931   0.000036
    22  H    0.001297  -0.004524   0.298720  -0.026654   0.001916  -0.000077
    23  H   -0.000001   0.000107  -0.000775  -0.025466   0.003989   0.003475
    24  H   -0.000000  -0.000000   0.000000   0.000016  -0.000007  -0.000082
    25  H   -0.000000   0.000000   0.000000   0.000000  -0.000000   0.000001
    26  H   -0.000000  -0.000000  -0.000000  -0.000000   0.000000   0.000000
    27  H    0.000000   0.000000   0.000000  -0.000000   0.000000  -0.000008
    28  H   -0.000000  -0.000000  -0.000000   0.000037  -0.000312   0.015065
    29  H    0.008414  -0.002729   0.000028   0.000006  -0.000000   0.000000
    30  H    0.000001  -0.000059   0.000001  -0.000000  -0.000000   0.000000
    31  H   -0.000000   0.000007  -0.000000  -0.000000   0.000000  -0.000000
    32  H    0.000000  -0.000056   0.000001  -0.000002  -0.000000   0.000000
    33  H    0.000064  -0.003112  -0.000075   0.000320   0.000278   0.000062
               7          8          9         10         11         12
     1  O   -0.000029   0.000000  -0.000000  -0.000000   0.000000  -0.000000
     2  S   -0.004590   0.000290  -0.000017   0.000000   0.000000  -0.000000
     3  N   -0.072626   0.003343  -0.000125   0.000004   0.000000  -0.000000
     4  C    0.520980  -0.034367   0.004137   0.000927  -0.000008   0.000000
     5  N   -0.072001  -0.096044   0.006465  -0.000326   0.000002  -0.000000
     6  N   -0.098994   0.229158  -0.042900   0.002810  -0.000069   0.000018
     7  C    5.000416   0.330123  -0.030270  -0.006935  -0.000005   0.000020
     8  N    0.330123   6.876634   0.198502  -0.050425   0.004695   0.000335
     9  C   -0.030270   0.198502   4.628099   0.529822  -0.010087  -0.038163
    10  C   -0.006935  -0.050425   0.529822   4.989767   0.526382  -0.041017
    11  C   -0.000005   0.004695  -0.010087   0.526382   4.866586   0.543119
    12  C    0.000020   0.000335  -0.038163  -0.041017   0.543119   4.870915
    13  C   -0.000090   0.004561  -0.010749  -0.042099  -0.024790   0.539730
    14  C    0.007083  -0.059450   0.513438  -0.070802  -0.041486  -0.039408
    15  C    0.001598  -0.000028  -0.000001   0.000000   0.000000   0.000000
    16  C    0.000219  -0.000000  -0.000000   0.000000   0.000000  -0.000000
    17  C    0.000004   0.000000  -0.000000   0.000000   0.000000  -0.000000
    18  C   -0.000017   0.000000   0.000000  -0.000000  -0.000000   0.000000
    19  C   -0.000020  -0.000007   0.000001  -0.000000  -0.000000   0.000000
    20  C    0.002190  -0.000141   0.000002   0.000000  -0.000000  -0.000000
    21  O   -0.000097   0.000004   0.000000  -0.000000  -0.000000   0.000000
    22  H   -0.001535   0.000006   0.000003  -0.000000  -0.000000  -0.000000
    23  H    0.363264  -0.034479  -0.001455   0.002062   0.000145  -0.000001
    24  H    0.005703  -0.009031  -0.039167   0.354490  -0.035043   0.004290
    25  H   -0.000004  -0.000109   0.003438  -0.037705   0.363552  -0.039541
    26  H   -0.000000   0.000003   0.000474   0.004875  -0.041406   0.366102
    27  H    0.000001  -0.000104   0.003555   0.000708   0.004483  -0.040147
    28  H    0.000221  -0.013049  -0.040015   0.005442   0.000093   0.004512
    29  H    0.000004  -0.000000  -0.000000   0.000000   0.000000  -0.000000
    30  H   -0.000000   0.000000  -0.000000  -0.000000   0.000000   0.000000
    31  H    0.000000  -0.000000   0.000000   0.000000  -0.000000  -0.000000
    32  H   -0.000004   0.000000  -0.000000  -0.000000   0.000000   0.000000
    33  H    0.000021  -0.000021  -0.000001   0.000000  -0.000000   0.000000
              13         14         15         16         17         18
     1  O   -0.000000   0.000000  -0.059044   0.002898   0.000497  -0.000005
     2  S   -0.000000   0.000000   0.190708  -0.024799   0.002864  -0.000317
     3  N   -0.000000   0.000001  -0.061893  -0.001519  -0.000102   0.000004
     4  C    0.000006  -0.000414  -0.001736   0.000073  -0.000017   0.000005
     5  N   -0.000004   0.000352  -0.000216  -0.000005   0.000000   0.000000
     6  N    0.000261   0.000256  -0.000001  -0.000000   0.000000   0.000000
     7  C   -0.000090   0.007083   0.001598   0.000219   0.000004  -0.000017
     8  N    0.004561  -0.059450  -0.000028  -0.000000   0.000000   0.000000
     9  C   -0.010749   0.513438  -0.000001  -0.000000  -0.000000   0.000000
    10  C   -0.042099  -0.070802   0.000000   0.000000   0.000000  -0.000000
    11  C   -0.024790  -0.041486   0.000000   0.000000   0.000000  -0.000000
    12  C    0.539730  -0.039408   0.000000  -0.000000  -0.000000   0.000000
    13  C    4.879471   0.518991   0.000000   0.000000   0.000000   0.000000
    14  C    0.518991   4.996067  -0.000000  -0.000000  -0.000000   0.000000
    15  C    0.000000  -0.000000   5.356052   0.480577  -0.028704  -0.038628
    16  C    0.000000  -0.000000   0.480577   4.943411   0.509710  -0.031513
    17  C    0.000000  -0.000000  -0.028704   0.509710   4.886675   0.537723
    18  C    0.000000   0.000000  -0.038628  -0.031513   0.537723   4.858453
    19  C   -0.000000   0.000000  -0.029731  -0.037384  -0.030801   0.538807
    20  C   -0.000000  -0.000000   0.484021  -0.034834  -0.037289  -0.032178
    21  O    0.000000  -0.000000  -0.057867   0.001556  -0.000046  -0.000003
    22  H   -0.000000   0.000000  -0.000351   0.000335   0.000025   0.000001
    23  H   -0.000005  -0.000087   0.000154   0.000038   0.000008   0.000002
    24  H    0.000197   0.005262  -0.000000  -0.000000  -0.000000   0.000000
    25  H    0.004426   0.000727  -0.000000  -0.000000   0.000000   0.000000
    26  H   -0.041543   0.004689   0.000000  -0.000000  -0.000000   0.000000
    27  H    0.364079  -0.037915  -0.000000  -0.000000   0.000000  -0.000000
    28  H   -0.037810   0.357347  -0.000000  -0.000000  -0.000000   0.000000
    29  H    0.000000  -0.000000  -0.049990   0.364107  -0.033633   0.004221
    30  H   -0.000000   0.000000   0.004806  -0.040894   0.367237  -0.040253
    31  H    0.000000   0.000000   0.000449   0.004815  -0.041018   0.365777
    32  H    0.000000  -0.000000   0.004794   0.000610   0.004267  -0.040190
    33  H   -0.000000   0.000000  -0.048882   0.004450   0.000266   0.004230
              19         20         21         22         23         24
     1  O   -0.000042   0.001396  -0.040861   0.001297  -0.000001  -0.000000
     2  S    0.002415  -0.024691   0.429587  -0.004524   0.000107  -0.000000
     3  N   -0.000097  -0.002713  -0.053228   0.298720  -0.000775   0.000000
     4  C    0.000064   0.000932   0.001283  -0.026654  -0.025466   0.000016
     5  N    0.000004  -0.000097   0.000931   0.001916   0.003989  -0.000007
     6  N    0.000000  -0.000029   0.000036  -0.000077   0.003475  -0.000082
     7  C   -0.000020   0.002190  -0.000097  -0.001535   0.363264   0.005703
     8  N   -0.000007  -0.000141   0.000004   0.000006  -0.034479  -0.009031
     9  C    0.000001   0.000002   0.000000   0.000003  -0.001455  -0.039167
    10  C   -0.000000   0.000000  -0.000000  -0.000000   0.002062   0.354490
    11  C   -0.000000  -0.000000  -0.000000  -0.000000   0.000145  -0.035043
    12  C    0.000000  -0.000000   0.000000  -0.000000  -0.000001   0.004290
    13  C   -0.000000  -0.000000   0.000000  -0.000000  -0.000005   0.000197
    14  C    0.000000  -0.000000  -0.000000   0.000000  -0.000087   0.005262
    15  C   -0.029731   0.484021  -0.057867  -0.000351   0.000154  -0.000000
    16  C   -0.037384  -0.034834   0.001556   0.000335   0.000038  -0.000000
    17  C   -0.030801  -0.037289  -0.000046   0.000025   0.000008  -0.000000
    18  C    0.538807  -0.032178  -0.000003   0.000001   0.000002   0.000000
    19  C    4.885844   0.510794   0.000468  -0.000002   0.000015   0.000000
    20  C    0.510794   4.939433   0.003140   0.000081   0.000070  -0.000000
    21  O    0.000468   0.003140   8.278611   0.001381   0.000000  -0.000000
    22  H   -0.000002   0.000081   0.001381   0.304836   0.000759   0.000000
    23  H    0.000015   0.000070   0.000000   0.000759   0.458144   0.001430
    24  H    0.000000  -0.000000  -0.000000   0.000000   0.001430   0.541189
    25  H   -0.000000  -0.000000   0.000000   0.000000  -0.000001  -0.005090
    26  H    0.000000  -0.000000   0.000000   0.000000  -0.000000  -0.000143
    27  H   -0.000000  -0.000000  -0.000000   0.000000   0.000000   0.000013
    28  H    0.000000  -0.000000   0.000000   0.000000  -0.000010  -0.000129
    29  H    0.000280   0.004409   0.000082   0.000107  -0.000001   0.000000
    30  H    0.004272   0.000602   0.000000  -0.000000  -0.000000   0.000000
    31  H   -0.040938   0.004827  -0.000000  -0.000000  -0.000000  -0.000000
    32  H    0.367076  -0.040740   0.000001   0.000000   0.000000   0.000000
    33  H   -0.033068   0.363022   0.008642  -0.000005  -0.000008   0.000000
              25         26         27         28         29         30
     1  O   -0.000000  -0.000000   0.000000  -0.000000   0.008414   0.000001
     2  S    0.000000  -0.000000   0.000000  -0.000000  -0.002729  -0.000059
     3  N    0.000000  -0.000000   0.000000  -0.000000   0.000028   0.000001
     4  C    0.000000  -0.000000  -0.000000   0.000037   0.000006  -0.000000
     5  N   -0.000000   0.000000   0.000000  -0.000312  -0.000000  -0.000000
     6  N    0.000001   0.000000  -0.000008   0.015065   0.000000   0.000000
     7  C   -0.000004  -0.000000   0.000001   0.000221   0.000004  -0.000000
     8  N   -0.000109   0.000003  -0.000104  -0.013049  -0.000000   0.000000
     9  C    0.003438   0.000474   0.003555  -0.040015  -0.000000  -0.000000
    10  C   -0.037705   0.004875   0.000708   0.005442   0.000000  -0.000000
    11  C    0.363552  -0.041406   0.004483   0.000093   0.000000   0.000000
    12  C   -0.039541   0.366102  -0.040147   0.004512  -0.000000   0.000000
    13  C    0.004426  -0.041543   0.364079  -0.037810   0.000000  -0.000000
    14  C    0.000727   0.004689  -0.037915   0.357347  -0.000000   0.000000
    15  C   -0.000000   0.000000  -0.000000  -0.000000  -0.049990   0.004806
    16  C   -0.000000  -0.000000  -0.000000  -0.000000   0.364107  -0.040894
    17  C    0.000000  -0.000000   0.000000  -0.000000  -0.033633   0.367237
    18  C    0.000000   0.000000  -0.000000   0.000000   0.004221  -0.040253
    19  C   -0.000000   0.000000  -0.000000   0.000000   0.000280   0.004272
    20  C   -0.000000  -0.000000  -0.000000  -0.000000   0.004409   0.000602
    21  O    0.000000   0.000000  -0.000000   0.000000   0.000082   0.000000
    22  H    0.000000   0.000000   0.000000   0.000000   0.000107  -0.000000
    23  H   -0.000001  -0.000000   0.000000  -0.000010  -0.000001  -0.000000
    24  H   -0.005090  -0.000143   0.000013  -0.000129   0.000000   0.000000
    25  H    0.551031  -0.005079  -0.000164   0.000013   0.000000   0.000000
    26  H   -0.005079   0.557121  -0.005136  -0.000135   0.000000   0.000000
    27  H   -0.000164  -0.005136   0.551848  -0.005128  -0.000000  -0.000000
    28  H    0.000013  -0.000135  -0.005128   0.539490   0.000000   0.000000
    29  H    0.000000   0.000000  -0.000000   0.000000   0.525701  -0.005121
    30  H    0.000000   0.000000  -0.000000   0.000000  -0.005121   0.544630
    31  H    0.000000  -0.000000   0.000000  -0.000000  -0.000140  -0.005123
    32  H    0.000000   0.000000  -0.000000   0.000000   0.000014  -0.000155
    33  H   -0.000000   0.000000  -0.000000   0.000000  -0.000141   0.000013
              31         32         33
     1  O   -0.000000   0.000000   0.000064
     2  S    0.000007  -0.000056  -0.003112
     3  N   -0.000000   0.000001  -0.000075
     4  C   -0.000000  -0.000002   0.000320
     5  N    0.000000  -0.000000   0.000278
     6  N   -0.000000   0.000000   0.000062
     7  C    0.000000  -0.000004   0.000021
     8  N   -0.000000   0.000000  -0.000021
     9  C    0.000000  -0.000000  -0.000001
    10  C    0.000000  -0.000000   0.000000
    11  C   -0.000000   0.000000  -0.000000
    12  C   -0.000000   0.000000   0.000000
    13  C    0.000000   0.000000  -0.000000
    14  C    0.000000  -0.000000   0.000000
    15  C    0.000449   0.004794  -0.048882
    16  C    0.004815   0.000610   0.004450
    17  C   -0.041018   0.004267   0.000266
    18  C    0.365777  -0.040190   0.004230
    19  C   -0.040938   0.367076  -0.033068
    20  C    0.004827  -0.040740   0.363022
    21  O   -0.000000   0.000001   0.008642
    22  H   -0.000000   0.000000  -0.000005
    23  H   -0.000000   0.000000  -0.000008
    24  H   -0.000000   0.000000   0.000000
    25  H    0.000000   0.000000  -0.000000
    26  H   -0.000000   0.000000   0.000000
    27  H    0.000000  -0.000000  -0.000000
    28  H   -0.000000   0.000000   0.000000
    29  H   -0.000140   0.000014  -0.000141
    30  H   -0.005123  -0.000155   0.000013
    31  H    0.547589  -0.005145  -0.000139
    32  H   -0.005145   0.544537  -0.005118
    33  H   -0.000139  -0.005118   0.524456
 Mulliken charges:
               1
     1  O   -0.572059
     2  S    1.194110
     3  N   -0.769803
     4  C    0.378827
     5  N   -0.352850
     6  N   -0.108220
     7  C    0.055369
     8  N   -0.350400
     9  C    0.325015
    10  C   -0.167979
    11  C   -0.156165
    12  C   -0.130761
    13  C   -0.154633
    14  C   -0.154651
    15  C   -0.146087
    16  C   -0.141851
    17  C   -0.137665
    18  C   -0.126118
    19  C   -0.137947
    20  C   -0.142206
    21  O   -0.573619
    22  H    0.423680
    23  H    0.228625
    24  H    0.176101
    25  H    0.164505
    26  H    0.160176
    27  H    0.163915
    28  H    0.174368
    29  H    0.184386
    30  H    0.170042
    31  H    0.169040
    32  H    0.170112
    33  H    0.184744
 Sum of Mulliken charges =  -0.00000
 Mulliken charges with hydrogens summed into heavy atoms:
               1
     1  O   -0.572059
     2  S    1.194110
     3  N   -0.346123
     4  C    0.378827
     5  N   -0.352850
     6  N   -0.108220
     7  C    0.283994
     8  N   -0.350400
     9  C    0.325015
    10  C    0.008122
    11  C    0.008340
    12  C    0.029415
    13  C    0.009282
    14  C    0.019716
    15  C   -0.146087
    16  C    0.042535
    17  C    0.032377
    18  C    0.042922
    19  C    0.032165
    20  C    0.042538
    21  O   -0.573619
 Electronic spatial extent (au):  <R**2>=           7635.5395
 Charge=             -0.0000 electrons
 Dipole moment (field-independent basis, Debye):
    X=              5.9971    Y=             11.3288    Z=             -5.5594  Tot=             13.9719
 Quadrupole moment (field-independent basis, Debye-Ang):
   XX=           -124.4706   YY=           -135.3293   ZZ=           -115.0773
   XY=            -12.2381   XZ=              4.2514   YZ=              5.7740
 Traceless Quadrupole moment (field-independent basis, Debye-Ang):
   XX=              0.4885   YY=            -10.3702   ZZ=              9.8818
   XY=            -12.2381   XZ=              4.2514   YZ=              5.7740
 Octapole moment (field-independent basis, Debye-Ang**2):
  XXX=            173.2935  YYY=             78.6592  ZZZ=            -19.1290  XYY=            -17.6137
  XXY=            106.0687  XXZ=            -12.8781  XZZ=             10.2127  YZZ=             13.4792
  YYZ=            -15.4483  XYZ=             -2.9981
 Hexadecapole moment (field-independent basis, Debye-Ang**3):
 XXXX=          -7064.9584 YYYY=          -1975.9293 ZZZZ=           -669.7484 XXXY=             75.3361
 XXXZ=             99.7533 YYYX=           -119.7639 YYYZ=             37.8773 ZZZX=             36.2087
 ZZZY=             12.7434 XXYY=          -1602.6954 XXZZ=          -1267.1234 YYZZ=           -458.0606
 XXYZ=            -89.5487 YYXZ=              0.8182 ZZXY=              3.1541
 N-N= 1.737156447007D+03 E-N=-6.535094330266D+03  KE= 1.298237702074D+03
 No NMR shielding tensors so no spin-rotation constants.
 Leave Link  601 at Wed Sep 23 06:02:53 2020, MaxMem=  2147483648 cpu:               0.4 elap:               0.1
 (Enter /prod/apps/gaussian/g16b1/l701.exe)
 ... and contract with generalized density number  0.
 Compute integral first derivatives.
 D1PCM: PCM CHGder 1st derivatives, ID1Alg=3 FixD1E=F DoIter=F DoCFld=F I1PDM=0.
 GePol: Maximum number of non-zero 1st derivatives   =     174
 Leave Link  701 at Wed Sep 23 06:02:56 2020, MaxMem=  2147483648 cpu:              10.9 elap:               2.7
 (Enter /prod/apps/gaussian/g16b1/l702.exe)
 L702 exits ... SP integral derivatives will be done elsewhere.
 Leave Link  702 at Wed Sep 23 06:02:56 2020, MaxMem=  2147483648 cpu:               0.1 elap:               0.0
 (Enter /prod/apps/gaussian/g16b1/l703.exe)
 Integral derivatives from FoFJK, PRISM(SPDF).
 Compute integral first derivatives, UseDBF=F ICtDFT=           0.
 Calling FoFJK, ICntrl=      2127 FMM=F ISym2X=0 I1Cent= 0 IOpClX= 0 NMat=1 NMatS=1 NMatT=0.
 FoFJK:  IHMeth= 1 ICntrl=    2127 DoSepK=F KAlg= 0 I1Cent=           0 FoldK=F
 IRaf=         0 NMat=       1 IRICut=       1 DoRegI=T DoRafI=F ISym2E= 0 IDoP0=0 IntGTp=1.
 FoFCou: FMM=F IPFlag=           0 FMFlag=      100000 FMFlg1=         800
         NFxFlg=           0 DoJE=F BraDBF=F KetDBF=F FulRan=T
         wScrn=  0.000000 ICntrl=      2127 IOpCl=  0 I1Cent=           0 NGrid=           0
         NMat0=    1 NMatS0=      1 NMatT0=    0 NMatD0=    1 NMtDS0=    0 NMtDT0=    0
 Symmetry not used in FoFCou.
 Leave Link  703 at Wed Sep 23 06:03:13 2020, MaxMem=  2147483648 cpu:              70.6 elap:              17.7
 (Enter /prod/apps/gaussian/g16b1/l716.exe)
 Dipole        = 2.35945411D+00 4.45709532D+00-2.18722892D+00
 -------------------------------------------------------------------
 Center     Atomic                   Forces (Hartrees/Bohr)
 Number     Number              X              Y              Z
 -------------------------------------------------------------------
      1        8          -0.000406619   -0.000237119   -0.000172863
      2       16          -0.000109239   -0.000983766    0.000396468
      3        7          -0.000282217    0.000232156    0.000379578
      4        6          -0.000220177   -0.001203013   -0.000153025
      5        7           0.000530872    0.000211814    0.000024626
      6        7          -0.000421223   -0.000226433   -0.000103588
      7        6          -0.000181262    0.000751882   -0.000520639
      8        7           0.000424836    0.000015371    0.000169884
      9        6          -0.000176680   -0.000247673    0.000297518
     10        6           0.000082650    0.000118135   -0.000533725
     11        6          -0.000126374    0.000269850   -0.000769519
     12        6           0.000261570    0.000309086   -0.000937387
[...]
 Alpha virt. eigenvalues --    3.93753   3.96140   4.05223   4.27151   4.40445
 Alpha virt. eigenvalues --    4.75347   4.87681
          Condensed to atoms (all electrons):
               1          2          3          4          5          6
     1  O    9.270822  -0.376948  -0.051230   0.205579  -0.027884   0.000642
     2  S   -0.376948  15.564347   0.663641  -1.953445   0.327219  -0.072173
     3  N   -0.051230   0.663641   8.631228  -2.699237   0.318028  -0.210032
     4  C    0.205579  -1.953445  -2.699237  19.631937  -2.236643   1.214593
     5  N   -0.027884   0.327219   0.318028  -2.236643   8.925900  -0.928923
     6  N    0.000642  -0.072173  -0.210032   1.214593  -0.928923   9.231145
     7  C   -0.039255   0.701669   1.289229  -9.742777   1.319658  -1.110407
     8  N   -0.001309   0.092834   0.035613  -0.306638   0.068699  -0.647594
     9  C    0.003365  -0.016175  -0.009908   0.753978   0.037787  -0.444465
    10  C   -0.001292   0.006621  -0.023381  -0.151086   0.044573  -0.091395
    11  C   -0.000161   0.003242  -0.010362   0.150378  -0.011246  -0.024557
    12  C    0.000012  -0.001417  -0.002065   0.015091  -0.006418   0.033796
    13  C    0.000046  -0.001787   0.002932  -0.039864  -0.015214  -0.018531
    14  C    0.000969  -0.023676   0.000894   0.020830  -0.096129   0.645094
    15  C    0.160499  -0.975093  -0.174869   0.815891  -0.164284   0.104532
    16  C    0.018569   0.111846   0.016762  -0.469040   0.047473  -0.031330
    17  C    0.004352  -0.544040  -0.021744   0.151964  -0.011642   0.008019
    18  C   -0.012831   0.285622   0.022081  -0.087926   0.005559  -0.002217
    19  C    0.009207  -0.309170   0.025896  -0.089441   0.003070   0.003565
    20  C   -0.083619   0.269407  -0.048394  -0.460127   0.106884  -0.074294
    21  O    0.033823  -0.341314  -0.072397   0.283945  -0.067920  -0.009290
    22  H    0.025124  -0.112104   0.380597  -0.104289   0.007588   0.020742
    23  H   -0.002153   0.018376  -0.078942   0.010967  -0.023342  -0.129356
    24  H    0.000138  -0.002402   0.002258  -0.051105   0.001439  -0.041049
    25  H   -0.000004   0.000075  -0.000166   0.003679  -0.000882   0.002411
    26  H    0.000001  -0.000077  -0.000071  -0.000074   0.000005   0.001910
    27  H   -0.000001   0.000081  -0.000049   0.000947   0.000355  -0.002729
    28  H    0.000163  -0.004353  -0.003691   0.040332  -0.015497   0.030277
    29  H    0.004561  -0.109779  -0.033671   0.015363   0.002995  -0.002124
    30  H   -0.000109   0.006193  -0.002006   0.004955  -0.000564   0.000493
    31  H   -0.000239   0.002454   0.001151  -0.001266   0.000283  -0.000113
    32  H    0.001148  -0.001287  -0.002215   0.008309  -0.001786   0.000286
    33  H    0.003994  -0.045036  -0.026009  -0.166915   0.031050  -0.002203
               7          8          9         10         11         12
     1  O   -0.039255  -0.001309   0.003365  -0.001292  -0.000161   0.000012
     2  S    0.701669   0.092834  -0.016175   0.006621   0.003242  -0.001417
     3  N    1.289229   0.035613  -0.009908  -0.023381  -0.010362  -0.002065
     4  C   -9.742777  -0.306638   0.753978  -0.151086   0.150378   0.015091
     5  N    1.319658   0.068699   0.037787   0.044573  -0.011246  -0.006418
     6  N   -1.110407  -0.647594  -0.444465  -0.091395  -0.024557   0.033796
     7  C   15.873864  -0.382530  -2.483489   0.753655  -0.286968  -0.009140
     8  N   -0.382530   9.578667  -0.719129   0.481328  -0.354935   0.352898
     9  C   -2.483489  -0.719129  15.559727  -5.831374   2.814032  -3.637470
    10  C    0.753655   0.481328  -5.831374  12.989826  -3.946037   3.134560
    11  C   -0.286968  -0.354935   2.814032  -3.946037  10.568197  -3.065364
    12  C   -0.009140   0.352898  -3.637470   3.134560  -3.065364   9.018340
    13  C    0.143250  -0.267061   2.775366  -3.383134   3.006302  -2.974868
    14  C   -0.248389  -0.088025  -5.272256   2.422179  -3.339214   2.962018
    15  C   -0.381542  -0.095159  -0.001466   0.016916   0.005119   0.000235
    16  C    0.128867   0.027813   0.002077  -0.003172  -0.004390  -0.000277
    17  C   -0.013320  -0.012727  -0.008833   0.011725   0.003057   0.001087
    18  C    0.053806  -0.008515  -0.001690  -0.009955  -0.002470  -0.001115
    19  C    0.041348   0.023453   0.010029  -0.006218   0.001423   0.001492
    20  C    0.011323   0.098767   0.052611  -0.008339  -0.009599  -0.000199
    21  O   -0.047212  -0.000801  -0.002936  -0.000316  -0.000058  -0.000002
    22  H   -0.070272   0.007723   0.004989  -0.001446   0.000149  -0.000159
    23  H   -0.607639   0.232280   0.203882   0.002981   0.083988  -0.004959
    24  H    0.186127  -0.237890   0.817565  -1.072325   0.245275  -0.181362
    25  H    0.007892   0.001704  -0.114486   0.700112  -0.830063   0.282471
    26  H   -0.001578  -0.003363   0.111538  -0.161556   0.365171  -0.647379
    27  H   -0.001759  -0.008471  -0.083707   0.117402  -0.214733   0.270955
    28  H   -0.030521  -0.224089   0.641464  -0.103220   0.124903  -0.167693
    29  H    0.000282   0.004576   0.003535   0.000412  -0.000498   0.000039
    30  H   -0.002840  -0.000606  -0.000667   0.000227   0.000070   0.000062
    31  H   -0.000531   0.000497   0.000769  -0.000241  -0.000189  -0.000117
    32  H   -0.000171  -0.000053   0.001681   0.000016   0.000738   0.000159
    33  H    0.123185   0.002273   0.006619  -0.002594  -0.002430   0.000130
              13         14         15         16         17         18
     1  O    0.000046   0.000969   0.160499   0.018569   0.004352  -0.012831
     2  S   -0.001787  -0.023676  -0.975093   0.111846  -0.544040   0.285622
     3  N    0.002932   0.000894  -0.174869   0.016762  -0.021744   0.022081
     4  C   -0.039864   0.020830   0.815891  -0.469040   0.151964  -0.087926
     5  N   -0.015214  -0.096129  -0.164284   0.047473  -0.011642   0.005559
     6  N   -0.018531   0.645094   0.104532  -0.031330   0.008019  -0.002217
     7  C    0.143250  -0.248389  -0.381542   0.128867  -0.013320   0.053806
     8  N   -0.267061  -0.088025  -0.095159   0.027813  -0.012727  -0.008515
     9  C    2.775366  -5.272256  -0.001466   0.002077  -0.008833  -0.001690
    10  C   -3.383134   2.422179   0.016916  -0.003172   0.011725  -0.009955
    11  C    3.006302  -3.339214   0.005119  -0.004390   0.003057  -0.002470
    12  C   -2.974868   2.962018   0.000235  -0.000277   0.001087  -0.001115
    13  C    9.766823  -3.485991  -0.004020  -0.000463  -0.001496   0.003821
    14  C   -3.485991  12.627414   0.009621  -0.005045   0.004105  -0.004268
    15  C   -0.004020   0.009621  15.815240  -6.591275   2.742802  -3.624659
    16  C   -0.000463  -0.005045  -6.591275  17.678460  -4.231846   3.498471
    17  C   -0.001496   0.004105   2.742802  -4.231846  11.208369  -3.506703
    18  C    0.003821  -0.004268  -3.624659   3.498471  -3.506703   9.688232
    19  C    0.003401   0.012518   2.385438  -4.328453   3.803694  -3.554443
    20  C   -0.002481  -0.019833  -6.016680   0.981443  -3.969409   3.096103
    21  O    0.000008   0.001288   0.211257  -0.064479   0.036467  -0.027280
    22  H    0.000010   0.000790   0.038887  -0.002303   0.012001  -0.000464
    23  H   -0.000898  -0.173194  -0.057768   0.027030  -0.004468   0.011878
    24  H    0.128853  -0.152527   0.000352  -0.001255   0.001192  -0.001248
    25  H   -0.232008   0.113226   0.000264  -0.000187   0.000059   0.000007
    26  H    0.399582  -0.115151   0.000037  -0.000015   0.000046  -0.000033
    27  H   -0.711468   0.582856   0.000061  -0.000038  -0.000019  -0.000020
    28  H    0.327430  -0.922051   0.002566  -0.000532   0.000616   0.000114
    29  H   -0.000055  -0.000398   0.785810  -1.199824   0.369113  -0.225598
    30  H   -0.000051   0.000348  -0.173377   0.541665  -0.765108   0.410197
    31  H    0.000187  -0.000394   0.059168  -0.116756   0.354143  -0.669499
    32  H   -0.000559   0.000476  -0.108053   0.099356  -0.236103   0.351875
    33  H    0.001056  -0.002611   0.428902  -0.189985   0.114352  -0.188501
              19         20         21         22         23         24
     1  O    0.009207  -0.083619   0.033823   0.025124  -0.002153   0.000138
     2  S   -0.309170   0.269407  -0.341314  -0.112104   0.018376  -0.002402
     3  N    0.025896  -0.048394  -0.072397   0.380597  -0.078942   0.002258
     4  C   -0.089441  -0.460127   0.283945  -0.104289   0.010967  -0.051105
     5  N    0.003070   0.106884  -0.067920   0.007588  -0.023342   0.001439
     6  N    0.003565  -0.074294  -0.009290   0.020742  -0.129356  -0.041049
     7  C    0.041348   0.011323  -0.047212  -0.070272  -0.607639   0.186127
     8  N    0.023453   0.098767  -0.000801   0.007723   0.232280  -0.237890
     9  C    0.010029   0.052611  -0.002936   0.004989   0.203882   0.817565
    10  C   -0.006218  -0.008339  -0.000316  -0.001446   0.002981  -1.072325
    11  C    0.001423  -0.009599  -0.000058   0.000149   0.083988   0.245275
    12  C    0.001492  -0.000199  -0.000002  -0.000159  -0.004959  -0.181362
    13  C    0.003401  -0.002481   0.000008   0.000010  -0.000898   0.128853
    14  C    0.012518  -0.019833   0.001288   0.000790  -0.173194  -0.152527
    15  C    2.385438  -6.016680   0.211257   0.038887  -0.057768   0.000352
    16  C   -4.328453   0.981443  -0.064479  -0.002303   0.027030  -0.001255
    17  C    3.803694  -3.969409   0.036467   0.012001  -0.004468   0.001192
    18  C   -3.554443   3.096103  -0.027280  -0.000464   0.011878  -0.001248
    19  C   11.815628  -4.295990  -0.039599  -0.001282   0.009610  -0.002488
    20  C   -4.295990  16.662370  -0.005673   0.013129   0.014219   0.003996
    21  O   -0.039599  -0.005673   9.282631   0.012815   0.000772   0.000162
    22  H   -0.001282   0.013129   0.012815   0.796521   0.000798   0.002534
    23  H    0.009610   0.014219   0.000772   0.000798   2.111626  -0.077882
    24  H   -0.002488   0.003996   0.000162   0.002534  -0.077882   2.222227
    25  H    0.000337  -0.000583  -0.000004  -0.000059   0.000819  -0.085641
    26  H    0.000001  -0.000010  -0.000000  -0.000004  -0.000292  -0.014927
    27  H   -0.000072   0.000046  -0.000007  -0.000001   0.000436   0.009989
    28  H    0.000448  -0.002039   0.000117  -0.000064  -0.005318  -0.017604
    29  H    0.155247  -0.102210   0.007207   0.007739   0.002145  -0.000172
    30  H   -0.274240   0.155112   0.001077   0.000540   0.000876   0.000093
    31  H    0.381332  -0.070984  -0.000443  -0.000071  -0.003256  -0.000010
    32  H   -0.763452   0.540680   0.000251   0.000453   0.001796   0.000095
    33  H    0.534900  -1.058522  -0.002548   0.000544   0.026445  -0.001334
              25         26         27         28         29         30
     1  O   -0.000004   0.000001  -0.000001   0.000163   0.004561  -0.000109
     2  S    0.000075  -0.000077   0.000081  -0.004353  -0.109779   0.006193
     3  N   -0.000166  -0.000071  -0.000049  -0.003691  -0.033671  -0.002006
     4  C    0.003679  -0.000074   0.000947   0.040332   0.015363   0.004955
     5  N   -0.000882   0.000005   0.000355  -0.015497   0.002995  -0.000564
     6  N    0.002411   0.001910  -0.002729   0.030277  -0.002124   0.000493
     7  C    0.007892  -0.001578  -0.001759  -0.030521   0.000282  -0.002840
     8  N    0.001704  -0.003363  -0.008471  -0.224089   0.004576  -0.000606
     9  C   -0.114486   0.111538  -0.083707   0.641464   0.003535  -0.000667
    10  C    0.700112  -0.161556   0.117402  -0.103220   0.000412   0.000227
    11  C   -0.830063   0.365171  -0.214733   0.124903  -0.000498   0.000070
    12  C    0.282471  -0.647379   0.270955  -0.167693   0.000039   0.000062
    13  C   -0.232008   0.399582  -0.711468   0.327430  -0.000055  -0.000051
    14  C    0.113226  -0.115151   0.582856  -0.922051  -0.000398   0.000348
    15  C    0.000264   0.000037   0.000061   0.002566   0.785810  -0.173377
    16  C   -0.000187  -0.000015  -0.000038  -0.000532  -1.199824   0.541665
    17  C    0.000059   0.000046  -0.000019   0.000616   0.369113  -0.765108
    18  C    0.000007  -0.000033  -0.000020   0.000114  -0.225598   0.410197
    19  C    0.000337   0.000001  -0.000072   0.000448   0.155247  -0.274240
    20  C   -0.000583  -0.000010   0.000046  -0.002039  -0.102210   0.155112
    21  O   -0.000004  -0.000000  -0.000007   0.000117   0.007207   0.001077
    22  H   -0.000059  -0.000004  -0.000001  -0.000064   0.007739   0.000540
    23  H    0.000819  -0.000292   0.000436  -0.005318   0.002145   0.000876
    24  H   -0.085641  -0.014927   0.009989  -0.017604  -0.000172   0.000093
    25  H    1.659943  -0.055249  -0.017408   0.009193  -0.000019   0.000002
    26  H   -0.055249   1.637393  -0.058312  -0.011247   0.000001   0.000003
    27  H   -0.017408  -0.058312   1.629385  -0.082410  -0.000003  -0.000000
    28  H    0.009193  -0.011247  -0.082410   1.960021   0.000041   0.000005
    29  H   -0.000019   0.000001  -0.000003   0.000041   2.039070  -0.103281
    30  H    0.000002   0.000003  -0.000000   0.000005  -0.103281   1.733869
    31  H    0.000001  -0.000003   0.000003   0.000022  -0.012320  -0.065223
    32  H   -0.000002   0.000003  -0.000026  -0.000227   0.009599  -0.020577
    33  H   -0.000022   0.000003   0.000131  -0.001666  -0.017682   0.009560
              31         32         33
     1  O   -0.000239   0.001148   0.003994
     2  S    0.002454  -0.001287  -0.045036
     3  N    0.001151  -0.002215  -0.026009
     4  C   -0.001266   0.008309  -0.166915
     5  N    0.000283  -0.001786   0.031050
     6  N   -0.000113   0.000286  -0.002203
     7  C   -0.000531  -0.000171   0.123185
     8  N    0.000497  -0.000053   0.002273
     9  C    0.000769   0.001681   0.006619
    10  C   -0.000241   0.000016  -0.002594
    11  C   -0.000189   0.000738  -0.002430
    12  C   -0.000117   0.000159   0.000130
    13  C    0.000187  -0.000559   0.001056
    14  C   -0.000394   0.000476  -0.002611
    15  C    0.059168  -0.108053   0.428902
    16  C   -0.116756   0.099356  -0.189985
    17  C    0.354143  -0.236103   0.114352
    18  C   -0.669499   0.351875  -0.188501
    19  C    0.381332  -0.763452   0.534900
    20  C   -0.070984   0.540680  -1.058522
    21  O   -0.000443   0.000251  -0.002548
    22  H   -0.000071   0.000453   0.000544
    23  H   -0.003256   0.001796   0.026445
    24  H   -0.000010   0.000095  -0.001334
    25  H    0.000001  -0.000002  -0.000022
    26  H   -0.000003   0.000003   0.000003
    27  H    0.000003  -0.000026   0.000131
    28  H    0.000022  -0.000227  -0.001666
    29  H   -0.012320   0.009599  -0.017682
    30  H   -0.065223  -0.020577   0.009560
    31  H    1.666914  -0.068433  -0.010801
    32  H   -0.068433   1.768586  -0.099582
    33  H   -0.010801  -0.099582   2.198609
 Mulliken charges:
               1
     1  O   -1.145978
     2  S    2.836650
     3  N   -0.919869
     4  C    1.231135
     5  N   -0.640189
     6  N   -0.454723
     7  C    0.826188
     8  N   -0.650229
     9  C    0.827036
    10  C    0.114548
    11  C    0.731231
    12  C    0.626660
    13  C    0.580882
    14  C    0.544525
    15  C    0.784649
    16  C    0.060833
    17  C    0.500295
    18  C    0.501669
    19  C    0.442810
    20  C    0.222897
    21  O   -1.189541
    22  H   -0.041158
    23  H   -0.591457
    24  H   -0.681074
    25  H   -0.445412
    26  H   -0.446352
    27  H   -0.431413
    28  H   -0.545490
    29  H   -0.600100
    30  H   -0.456696
    31  H   -0.446036
    32  H   -0.482980
    33  H   -0.663312
 Sum of Mulliken charges =  -0.00000
 Mulliken charges with hydrogens summed into heavy atoms:
               1
     1  O   -1.145978
     2  S    2.836650
     3  N   -0.961027
     4  C    1.231135
     5  N   -0.640189
     6  N   -0.454723
     7  C    0.234731
     8  N   -0.650229
     9  C    0.827036
    10  C   -0.566525
    11  C    0.285820
    12  C    0.180308
    13  C    0.149469
    14  C   -0.000965
    15  C    0.784649
    16  C   -0.539267
    17  C    0.043599
    18  C    0.055634
    19  C   -0.040170
    20  C   -0.440415
    21  O   -1.189541
 Electronic spatial extent (au):  <R**2>=           7638.7317
 Charge=              0.0000 electrons
 Dipole moment (field-independent basis, Debye):
    X=              5.0005    Y=              8.8709    Z=             -3.4846  Tot=             10.7630
 Quadrupole moment (field-independent basis, Debye-Ang):
   XX=           -131.2273   YY=           -138.0338   ZZ=           -120.3227
   XY=            -11.4565   XZ=              4.9832   YZ=              3.5350
 Traceless Quadrupole moment (field-independent basis, Debye-Ang):
   XX=             -1.3660   YY=             -8.1725   ZZ=              9.5385
   XY=            -11.4565   XZ=              4.9832   YZ=              3.5350
 Octapole moment (field-independent basis, Debye-Ang**2):
  XXX=            149.4746  YYY=             56.3104  ZZZ=            -11.2735  XYY=            -19.7860
  XXY=             90.7847  XXZ=             -0.5078  XZZ=              7.9644  YZZ=             10.7522
  YYZ=            -10.9479  XYZ=             -4.9641
 Hexadecapole moment (field-independent basis, Debye-Ang**3):
 XXXX=          -7451.0361 YYYY=          -2072.4072 ZZZZ=           -708.9024 XXXY=            100.3066
 XXXZ=            134.5211 YYYX=           -100.8232 YYYZ=             28.9452 ZZZX=             43.8756
 ZZZY=              4.7338 XXYY=          -1678.9869 XXZZ=          -1321.7963 YYZZ=           -481.1489
 XXYZ=           -104.0528 YYXZ=              0.3370 ZZXY=              0.6474
 N-N= 1.736401757055D+03 E-N=-6.531258691024D+03  KE= 1.300606581226D+03
 Leave Link  601 at Wed Sep 23 07:25:33 2020, MaxMem=   262144000 cpu:               3.4 elap:               1.2
 (Enter /prod/apps/gaussian/g16b1/l9999.exe)
 1\1\GINC-PIRINEUS9\SP\RMP2-FC\Aug-CC-pVDZ\C14H12N4O2S1\UBAFAR01\23-Sep
 -2020\0\\#p mp2/aug-cc-pVDZ scf=(MaxCycle=2000,NoVarAcc,NoIncFock) max
 disk=120GB geom=allcheck\\SM45_m0.n.5.pdb.xyz\\0,1\O,0,-3.9362447246,-
 1.5403838817,-0.7683448176\S,0,-2.7552492804,-1.1682900453,0.020772548
 7\N,0,-1.4374408652,-1.6737260033,-0.9335937748\C,0,-0.1245963393,-1.4
 646077832,-0.468322953\N,0,0.441957346,-2.2809728242,0.4641451442\N,0,
 1.6656088,-1.8822822058,0.6842415232\C,0,0.8005713507,-0.5132829758,-0
 .8473329294\N,0,1.9019731105,-0.813423869,-0.1168250147\C,0,3.17252755
 57,-0.1663196893,-0.1130623375\C,0,3.6061945169,0.5072480311,-1.256418
 6245\C,0,4.8441961599,1.1476886217,-1.238871652\C,0,5.6457467125,1.102
 9075213,-0.0966266585\C,0,5.2028231193,0.4169250144,1.0368417182\C,0,3
 .9610159769,-0.2163389836,1.039009568\C,0,-2.6976659392,0.6110710983,0
 .1552951454\C,0,-3.2718527166,1.3882020087,-0.853687905\C,0,-3.2023976
 532,2.7764928901,-0.7512329585\C,0,-2.565112043,3.3675988226,0.3434833
 544\C,0,-1.9966242294,2.5765047056,1.3439419143\C,0,-2.0581815438,1.18
 59264781,1.2551947503\O,0,-2.5420708519,-1.7322422298,1.3576911915\H,0
 ,-1.581220794,-1.3793434257,-1.9015144662\H,0,0.7528692972,0.312305019
 6,-1.5362338886\H,0,2.9924440947,0.5205803282,-2.1490687485\H,0,5.1833
 711783,1.6727811312,-2.1246897567\H,0,6.6098837203,1.5990872856,-0.089
 6566961\H,0,5.8193378711,0.38132947,1.9282380925\H,0,3.5980137898,-0.7
 389623855,1.9143898358\H,0,-3.772383788,0.9152322625,-1.6897596797\H,0
 ,-3.6493621665,3.3944949573,-1.5218096024\H,0,-2.5158440248,4.44838168
 75,0.4184470314\H,0,-1.5093579526,3.0388080809,2.1950229786\H,0,-1.636
 9296878,0.5546108873,2.0273376673\\Version=ES64L-G16RevB.01\State=1-A\
 HF=-1302.1584979\MP2=-1305.2935419\RMSD=5.997e-09\PG=C01 [X(C14H12N4O2
 S1)]\\@


 ... IT IS NO ONE DREAME THAT
     CAN PLEASE THESE ALL ...

                -- BEN JONSON
 Job cpu time:       0 days  3 hours 17 minutes  2.0 seconds.
 Elapsed time:       0 days  0 hours 54 minutes 44.8 seconds.
 File lengths (MBytes):  RWF= 113521 Int=      0 D2E=      0 Chk=     28 Scr=      1
 Normal termination of Gaussian 16 at Wed Sep 23 07:25:37 2020.
