 Entering Gaussian System, Link 0=g16
 Initial command:
 /prod/apps/gaussian/g16b1/l1.exe "/tmp/ubafar01/1460647/Gau-187915.inp" -scrdir="/tmp/ubafar01/1460647/"
 Entering Link 1 = /prod/apps/gaussian/g16b1/l1.exe PID=    187916.
  
 Copyright (c) 1988-2017, Gaussian, Inc.  All Rights Reserved.
  
 This is part of the Gaussian(R) 16 program.  It is based on
 the Gaussian(R) 09 system (copyright 2009, Gaussian, Inc.),
 the Gaussian(R) 03 system (copyright 2003, Gaussian, Inc.),
 the Gaussian(R) 98 system (copyright 1998, Gaussian, Inc.),
 the Gaussian(R) 94 system (copyright 1995, Gaussian, Inc.),
 the Gaussian 92(TM) system (copyright 1992, Gaussian, Inc.),
 the Gaussian 90(TM) system (copyright 1990, Gaussian, Inc.),
 the Gaussian 88(TM) system (copyright 1988, Gaussian, Inc.),
 the Gaussian 86(TM) system (copyright 1986, Carnegie Mellon
 University), and the Gaussian 82(TM) system (copyright 1983,
 Carnegie Mellon University). Gaussian is a federally registered
 trademark of Gaussian, Inc.
  
 This software contains proprietary and confidential information,
 including trade secrets, belonging to Gaussian, Inc.
  
 This software is provided under written license and may be
 used, copied, transmitted, or stored only in accord with that
 written license.
  
 The following legend is applicable only to US Government
 contracts under FAR:
  
                    RESTRICTED RIGHTS LEGEND
  
 Use, reproduction and disclosure by the US Government is
 subject to restrictions as set forth in subparagraphs (a)
 and (c) of the Commercial Computer Software - Restricted
 Rights clause in FAR 52.227-19.
  
 Gaussian, Inc.
 340 Quinnipiac St., Bldg. 40, Wallingford CT 06492
  
  
 ---------------------------------------------------------------
 Warning -- This program may not be used in any manner that
 competes with the business of Gaussian, Inc. or will provide
 assistance to any competitor of Gaussian, Inc.  The licensee
 of this program is prohibited from giving any competitor of
 Gaussian, Inc. access to this program.  By using this program,
 the user acknowledges that Gaussian, Inc. is engaged in the
 business of creating and licensing software in the field of
 computational chemistry and represents and warrants to the
 licensee that it is not a competitor of Gaussian, Inc. and that
 it will not use this program in any manner prohibited above.
 ---------------------------------------------------------------
  

 Cite this work as:
 Gaussian 16, Revision B.01,
 M. J. Frisch, G. W. Trucks, H. B. Schlegel, G. E. Scuseria, 
 M. A. Robb, J. R. Cheeseman, G. Scalmani, V. Barone, 
 G. A. Petersson, H. Nakatsuji, X. Li, M. Caricato, A. V. Marenich, 
 J. Bloino, B. G. Janesko, R. Gomperts, B. Mennucci, H. P. Hratchian, 
 J. V. Ortiz, A. F. Izmaylov, J. L. Sonnenberg, D. Williams-Young, 
 F. Ding, F. Lipparini, F. Egidi, J. Goings, B. Peng, A. Petrone, 
 T. Henderson, D. Ranasinghe, V. G. Zakrzewski, J. Gao, N. Rega, 
 G. Zheng, W. Liang, M. Hada, M. Ehara, K. Toyota, R. Fukuda, 
 J. Hasegawa, M. Ishida, T. Nakajima, Y. Honda, O. Kitao, H. Nakai, 
 T. Vreven, K. Throssell, J. A. Montgomery, Jr., J. E. Peralta, 
 F. Ogliaro, M. J. Bearpark, J. J. Heyd, E. N. Brothers, K. N. Kudin, 
 V. N. Staroverov, T. A. Keith, R. Kobayashi, J. Normand, 
 K. Raghavachari, A. P. Rendell, J. C. Burant, S. S. Iyengar, 
 J. Tomasi, M. Cossi, J. M. Millam, M. Klene, C. Adamo, R. Cammi, 
 J. W. Ochterski, R. L. Martin, K. Morokuma, O. Farkas, 
 J. B. Foresman, and D. J. Fox, Gaussian, Inc., Wallingford CT, 2016.
 
 ******************************************
 Gaussian 16:  ES64L-G16RevB.01 20-Dec-2017
                23-Sep-2020 
 ******************************************
 %nproc=4
 Will use up to    4 processors via shared memory.
 %Chk=SM45_m0.n.3.pdb.xyz.mst.n.w.chk
 %mem=16GB
 ----------------------------------------------------------------------
 #p b3lyp/6-31G(d) opt freq NoSymm scf=(MaxCycle=2000,NoVarAcc,NoIncFoc
 k) scrf=(iefpcm,read,solvent=water)
 ----------------------------------------------------------------------
 1/18=20,19=15,26=3,38=1,40=2/1,3;
 2/9=110,12=2,15=1,17=6,18=5,40=1/2;
 3/5=1,6=6,7=1,11=2,25=1,30=1,70=2203,71=1,72=1,74=-5/1,2,3;
 4//1;
 5/5=100002,7=2000,38=1,53=1/2;
 6/7=2,8=2,9=2,10=2,28=1/1;
 7/30=1/1,2,3,16;
 1/18=20,19=15,26=3/3(2);
 2/9=110,15=1/2;
 99//99;
 2/9=110,15=1/2;
 3/5=1,6=6,7=1,11=2,25=1,30=1,70=2205,71=1,72=1,74=-5/1,2,3;
 4/5=5,16=3,69=1/1;
 5/5=100002,7=2000,38=1,53=1/2;
 7/30=1/1,2,3,16;
 1/18=20,19=15,26=3/3(-5);
 2/9=110,15=1/2;
 6/7=2,8=2,9=2,10=2,19=2,28=1/1;
 99/9=1/99;
 Leave Link    1 at Wed Sep 23 06:01:27 2020, MaxMem=  2147483648 cpu:               0.3 elap:               0.1
 (Enter /prod/apps/gaussian/g16b1/l101.exe)
 -------------------
 SM45_m0.n.3.pdb.xyz
 -------------------
 Symbolic Z-matrix:
 Charge =  0 Multiplicity = 1
 O                    -3.941    -1.516    -0.779 
 S                    -2.753    -1.164     0.007 
 N                    -1.444    -1.664    -0.963 
 C                    -0.129    -1.465    -0.498 
 N                     0.444    -2.308     0.405 
 N                     1.667    -1.911     0.632 
 C                     0.79     -0.498    -0.851 
 N                     1.895    -0.816    -0.135 
 C                     3.161    -0.162    -0.115 
 C                     3.572     0.578    -1.226 
 C                     4.808     1.222    -1.192 
 C                     5.629     1.118    -0.069 
 C                     5.207     0.368     1.031 
 C                     3.969    -0.271     1.02 
 C                    -2.689     0.613     0.164 
 C                    -3.327     1.397    -0.799 
 C                    -3.257     2.783    -0.688 
 C                    -2.554     3.367     0.369 
 C                    -1.921     2.569     1.324 
 C                    -1.983     1.18      1.228 
 O                    -2.534    -1.749     1.334 
 H                    -1.592    -1.351    -1.924 
 H                     0.735     0.348    -1.514 
 H                     2.944     0.638    -2.107 
 H                     5.13      1.798    -2.053 
 H                     6.591     1.616    -0.049 
 H                     5.838     0.285     1.909 
 H                     3.623    -0.844     1.87 
 H                    -3.877     0.926    -1.604 
 H                    -3.755     3.407    -1.423 
 H                    -2.504     4.448     0.451 
 H                    -1.382     3.026     2.148 
 H                    -1.512     0.545     1.967 
 
 ITRead=  0  0  0  0  0  0  0  0  0  0  0  0  0  0  0  0  0  0  0  0
 ITRead=  0  0  0  0  0  0  0  0  0  0  0  0  0
 MicOpt= -1 -1 -1 -1 -1 -1 -1 -1 -1 -1 -1 -1 -1 -1 -1 -1 -1 -1 -1 -1
 MicOpt= -1 -1 -1 -1 -1 -1 -1 -1 -1 -1 -1 -1 -1
 NAtoms=     33 NQM=       33 NQMF=       0 NMMI=      0 NMMIF=      0
                NMic=       0 NMicF=      0.
                    Isotopes and Nuclear Properties:
 (Nuclear quadrupole moments (NQMom) in fm**2, nuclear magnetic moments (NMagM)
  in nuclear magnetons)

  Atom         1           2           3           4           5           6           7           8           9          10
 IAtWgt=          16          32          14          12          14          14          12          14          12          12
 AtmWgt=  15.9949146  31.9720718  14.0030740  12.0000000  14.0030740  14.0030740  12.0000000  14.0030740  12.0000000  12.0000000
 NucSpn=           0           0           2           0           2           2           0           2           0           0
 AtZEff=  -0.0000000  -0.0000000  -0.0000000  -0.0000000  -0.0000000  -0.0000000  -0.0000000  -0.0000000  -0.0000000  -0.0000000
 NQMom=    0.0000000   0.0000000   2.0440000   0.0000000   2.0440000   2.0440000   0.0000000   2.0440000   0.0000000   0.0000000
 NMagM=    0.0000000   0.0000000   0.4037610   0.0000000   0.4037610   0.4037610   0.0000000   0.4037610   0.0000000   0.0000000
 AtZNuc=   8.0000000  16.0000000   7.0000000   6.0000000   7.0000000   7.0000000   6.0000000   7.0000000   6.0000000   6.0000000

  Atom        11          12          13          14          15          16          17          18          19          20
 IAtWgt=          12          12          12          12          12          12          12          12          12          12
 AtmWgt=  12.0000000  12.0000000  12.0000000  12.0000000  12.0000000  12.0000000  12.0000000  12.0000000  12.0000000  12.0000000
 NucSpn=           0           0           0           0           0           0           0           0           0           0
 AtZEff=  -0.0000000  -0.0000000  -0.0000000  -0.0000000  -0.0000000  -0.0000000  -0.0000000  -0.0000000  -0.0000000  -0.0000000
 NQMom=    0.0000000   0.0000000   0.0000000   0.0000000   0.0000000   0.0000000   0.0000000   0.0000000   0.0000000   0.0000000
 NMagM=    0.0000000   0.0000000   0.0000000   0.0000000   0.0000000   0.0000000   0.0000000   0.0000000   0.0000000   0.0000000
 AtZNuc=   6.0000000   6.0000000   6.0000000   6.0000000   6.0000000   6.0000000   6.0000000   6.0000000   6.0000000   6.0000000

  Atom        21          22          23          24          25          26          27          28          29          30
 IAtWgt=          16           1           1           1           1           1           1           1           1           1
 AtmWgt=  15.9949146   1.0078250   1.0078250   1.0078250   1.0078250   1.0078250   1.0078250   1.0078250   1.0078250   1.0078250
 NucSpn=           0           1           1           1           1           1           1           1           1           1
 AtZEff=  -0.0000000  -0.0000000  -0.0000000  -0.0000000  -0.0000000  -0.0000000  -0.0000000  -0.0000000  -0.0000000  -0.0000000
 NQMom=    0.0000000   0.0000000   0.0000000   0.0000000   0.0000000   0.0000000   0.0000000   0.0000000   0.0000000   0.0000000
 NMagM=    0.0000000   2.7928460   2.7928460   2.7928460   2.7928460   2.7928460   2.7928460   2.7928460   2.7928460   2.7928460
 AtZNuc=   8.0000000   1.0000000   1.0000000   1.0000000   1.0000000   1.0000000   1.0000000   1.0000000   1.0000000   1.0000000

  Atom        31          32          33
 IAtWgt=           1           1           1
 AtmWgt=   1.0078250   1.0078250   1.0078250
 NucSpn=           1           1           1
 AtZEff=  -0.0000000  -0.0000000  -0.0000000
 NQMom=    0.0000000   0.0000000   0.0000000
 NMagM=    2.7928460   2.7928460   2.7928460
 AtZNuc=   1.0000000   1.0000000   1.0000000
 Leave Link  101 at Wed Sep 23 06:01:27 2020, MaxMem=  2147483648 cpu:               1.5 elap:               0.4
 (Enter /prod/apps/gaussian/g16b1/l103.exe)

 GradGradGradGradGradGradGradGradGradGradGradGradGradGradGradGradGradGrad
 Berny optimization.
 Initialization pass.
                           ----------------------------
                           !    Initial Parameters    !
                           ! (Angstroms and Degrees)  !
 --------------------------                            --------------------------
 ! Name  Definition              Value          Derivative Info.                !
 --------------------------------------------------------------------------------
 ! R1    R(1,2)                  1.4673         estimate D2E/DX2                !
 ! R2    R(2,3)                  1.7042         estimate D2E/DX2                !
 ! R3    R(2,15)                 1.7851         estimate D2E/DX2                !
 ! R4    R(2,21)                 1.4667         estimate D2E/DX2                !
 ! R5    R(3,4)                  1.4089         estimate D2E/DX2                !
 ! R6    R(3,22)                 1.0215         estimate D2E/DX2                !
 ! R7    R(4,5)                  1.3618         estimate D2E/DX2                !
 ! R8    R(4,7)                  1.3799         estimate D2E/DX2                !
 ! R9    R(5,6)                  1.3057         estimate D2E/DX2                !
 ! R10   R(6,8)                  1.3562         estimate D2E/DX2                !
 ! R11   R(7,8)                  1.3545         estimate D2E/DX2                !
 ! R12   R(7,23)                 1.0762         estimate D2E/DX2                !
 ! R13   R(8,9)                  1.4251         estimate D2E/DX2                !
 ! R14   R(9,10)                 1.3967         estimate D2E/DX2                !
 ! R15   R(9,14)                 1.3975         estimate D2E/DX2                !
 ! R16   R(10,11)                1.3941         estimate D2E/DX2                !
 ! R17   R(10,24)                1.0836         estimate D2E/DX2                !
 ! R18   R(11,12)                1.395          estimate D2E/DX2                !
 ! R19   R(11,25)                1.0848         estimate D2E/DX2                !
 ! R20   R(12,13)                1.3966         estimate D2E/DX2                !
 ! R21   R(12,26)                1.0834         estimate D2E/DX2                !
 ! R22   R(13,14)                1.3932         estimate D2E/DX2                !
 ! R23   R(13,27)                1.0844         estimate D2E/DX2                !
 ! R24   R(14,28)                1.0819         estimate D2E/DX2                !
 ! R25   R(15,16)                1.3961         estimate D2E/DX2                !
 ! R26   R(15,20)                1.3971         estimate D2E/DX2                !
 ! R27   R(16,17)                1.3922         estimate D2E/DX2                !
 ! R28   R(16,29)                1.0828         estimate D2E/DX2                !
 ! R29   R(17,18)                1.3973         estimate D2E/DX2                !
 ! R30   R(17,30)                1.0852         estimate D2E/DX2                !
 ! R31   R(18,19)                1.3963         estimate D2E/DX2                !
 ! R32   R(18,31)                1.0853         estimate D2E/DX2                !
 ! R33   R(19,20)                1.3937         estimate D2E/DX2                !
 ! R34   R(19,32)                1.0855         estimate D2E/DX2                !
 ! R35   R(20,33)                1.0822         estimate D2E/DX2                !
 ! A1    A(1,2,3)              104.2767         estimate D2E/DX2                !
 ! A2    A(1,2,15)             108.3577         estimate D2E/DX2                !
 ! A3    A(1,2,21)             120.655          estimate D2E/DX2                !
 ! A4    A(3,2,15)             108.3357         estimate D2E/DX2                !
 ! A5    A(3,2,21)             106.4549         estimate D2E/DX2                !
 ! A6    A(15,2,21)            108.1877         estimate D2E/DX2                !
 ! A7    A(2,3,4)              119.183          estimate D2E/DX2                !
 ! A8    A(2,3,22)             109.5295         estimate D2E/DX2                !
 ! A9    A(4,3,22)             113.7317         estimate D2E/DX2                !
 ! A10   A(3,4,5)              121.6109         estimate D2E/DX2                !
 ! A11   A(3,4,7)              129.5033         estimate D2E/DX2                !
 ! A12   A(5,4,7)              108.8569         estimate D2E/DX2                !
 ! A13   A(4,5,6)              108.7347         estimate D2E/DX2                !
 ! A14   A(5,6,8)              107.7362         estimate D2E/DX2                !
 ! A15   A(4,7,8)              104.096          estimate D2E/DX2                !
 ! A16   A(4,7,23)             132.4065         estimate D2E/DX2                !
 ! A17   A(8,7,23)             123.4943         estimate D2E/DX2                !
 ! A18   A(6,8,7)              110.5697         estimate D2E/DX2                !
 ! A19   A(6,8,9)              120.7933         estimate D2E/DX2                !
 ! A20   A(7,8,9)              128.6369         estimate D2E/DX2                !
 ! A21   A(8,9,10)             119.5635         estimate D2E/DX2                !
 ! A22   A(8,9,14)             119.2907         estimate D2E/DX2                !
 ! A23   A(10,9,14)            121.1457         estimate D2E/DX2                !
 ! A24   A(9,10,11)            119.0927         estimate D2E/DX2                !
 ! A25   A(9,10,24)            120.3657         estimate D2E/DX2                !
 ! A26   A(11,10,24)           120.5357         estimate D2E/DX2                !
 ! A27   A(10,11,12)           120.4627         estimate D2E/DX2                !
 ! A28   A(10,11,25)           119.2804         estimate D2E/DX2                !
 ! A29   A(12,11,25)           120.2542         estimate D2E/DX2                !
 ! A30   A(11,12,13)           119.7523         estimate D2E/DX2                !
 ! A31   A(11,12,26)           120.2093         estimate D2E/DX2                !
 ! A32   A(13,12,26)           120.0384         estimate D2E/DX2                !
 ! A33   A(12,13,14)           120.5685         estimate D2E/DX2                !
 ! A34   A(12,13,27)           120.1972         estimate D2E/DX2                !
 ! A35   A(14,13,27)           119.2317         estimate D2E/DX2                !
 ! A36   A(9,14,13)            118.9732         estimate D2E/DX2                !
 ! A37   A(9,14,28)            119.6356         estimate D2E/DX2                !
 ! A38   A(13,14,28)           121.391          estimate D2E/DX2                !
 ! A39   A(2,15,16)            118.8146         estimate D2E/DX2                !
 ! A40   A(2,15,20)            119.2807         estimate D2E/DX2                !
 ! A41   A(16,15,20)           121.8927         estimate D2E/DX2                !
 ! A42   A(15,16,17)           118.7569         estimate D2E/DX2                !
 ! A43   A(15,16,29)           120.0454         estimate D2E/DX2                !
 ! A44   A(17,16,29)           121.1902         estimate D2E/DX2                !
 ! A45   A(16,17,18)           120.1118         estimate D2E/DX2                !
 ! A46   A(16,17,30)           119.6952         estimate D2E/DX2                !
 ! A47   A(18,17,30)           120.1923         estimate D2E/DX2                !
 ! A48   A(17,18,19)           120.4382         estimate D2E/DX2                !
 ! A49   A(17,18,31)           119.7777         estimate D2E/DX2                !
 ! A50   A(19,18,31)           119.7833         estimate D2E/DX2                !
 ! A51   A(18,19,20)           120.1539         estimate D2E/DX2                !
 ! A52   A(18,19,32)           120.2445         estimate D2E/DX2                !
 ! A53   A(20,19,32)           119.6009         estimate D2E/DX2                !
 ! A54   A(15,20,19)           118.646          estimate D2E/DX2                !
 ! A55   A(15,20,33)           120.1213         estimate D2E/DX2                !
 ! A56   A(19,20,33)           121.2241         estimate D2E/DX2                !
 ! D1    D(1,2,3,4)            179.7809         estimate D2E/DX2                !
 ! D2    D(1,2,3,22)            46.3719         estimate D2E/DX2                !
 ! D3    D(15,2,3,4)            64.5226         estimate D2E/DX2                !
 ! D4    D(15,2,3,22)          -68.8863         estimate D2E/DX2                !
 ! D5    D(21,2,3,4)           -51.6292         estimate D2E/DX2                !
 ! D6    D(21,2,3,22)          174.9618         estimate D2E/DX2                !
 ! D7    D(1,2,15,16)          -24.524          estimate D2E/DX2                !
 ! D8    D(1,2,15,20)          156.7082         estimate D2E/DX2                !
 ! D9    D(3,2,15,16)           88.0389         estimate D2E/DX2                !
 ! D10   D(3,2,15,20)          -90.7289         estimate D2E/DX2                !
 ! D11   D(21,2,15,16)        -156.9377         estimate D2E/DX2                !
 ! D12   D(21,2,15,20)          24.2944         estimate D2E/DX2                !
 ! D13   D(2,3,4,5)             80.0728         estimate D2E/DX2                !
 ! D14   D(2,3,4,7)           -102.1127         estimate D2E/DX2                !
 ! D15   D(22,3,4,5)          -148.3375         estimate D2E/DX2                !
 ! D16   D(22,3,4,7)            29.477          estimate D2E/DX2                !
 ! D17   D(3,4,5,6)            178.4112         estimate D2E/DX2                !
 ! D18   D(7,4,5,6)              0.193          estimate D2E/DX2                !
 ! D19   D(3,4,7,8)           -177.7181         estimate D2E/DX2                !
 ! D20   D(3,4,7,23)             2.9333         estimate D2E/DX2                !
 ! D21   D(5,4,7,8)              0.3152         estimate D2E/DX2                !
 ! D22   D(5,4,7,23)          -179.0335         estimate D2E/DX2                !
 ! D23   D(4,5,6,8)             -0.6258         estimate D2E/DX2                !
 ! D24   D(5,6,8,7)              0.853          estimate D2E/DX2                !
 ! D25   D(5,6,8,9)           -179.2264         estimate D2E/DX2                !
 ! D26   D(4,7,8,6)             -0.7056         estimate D2E/DX2                !
 ! D27   D(4,7,8,9)            179.3817         estimate D2E/DX2                !
 ! D28   D(23,7,8,6)           178.7177         estimate D2E/DX2                !
 ! D29   D(23,7,8,9)            -1.195          estimate D2E/DX2                !
 ! D30   D(6,8,9,10)           154.5196         estimate D2E/DX2                !
 ! D31   D(6,8,9,14)           -25.6156         estimate D2E/DX2                !
 ! D32   D(7,8,9,10)           -25.5756         estimate D2E/DX2                !
 ! D33   D(7,8,9,14)           154.2893         estimate D2E/DX2                !
 ! D34   D(8,9,10,11)          179.526          estimate D2E/DX2                !
 ! D35   D(8,9,10,24)           -1.3476         estimate D2E/DX2                !
 ! D36   D(14,9,10,11)          -0.3362         estimate D2E/DX2                !
 ! D37   D(14,9,10,24)         178.7901         estimate D2E/DX2                !
 ! D38   D(8,9,14,13)          179.8251         estimate D2E/DX2                !
 ! D39   D(8,9,14,28)           -0.3493         estimate D2E/DX2                !
 ! D40   D(10,9,14,13)          -0.3123         estimate D2E/DX2                !
 ! D41   D(10,9,14,28)         179.5133         estimate D2E/DX2                !
 ! D42   D(9,10,11,12)           0.6283         estimate D2E/DX2                !
 ! D43   D(9,10,11,25)        -179.9676         estimate D2E/DX2                !
 ! D44   D(24,10,11,12)       -178.4965         estimate D2E/DX2                !
 ! D45   D(24,10,11,25)          0.9076         estimate D2E/DX2                !
 ! D46   D(10,11,12,13)         -0.2705         estimate D2E/DX2                !
 ! D47   D(10,11,12,26)        179.6843         estimate D2E/DX2                !
 ! D48   D(25,11,12,13)       -179.6688         estimate D2E/DX2                !
 ! D49   D(25,11,12,26)          0.2859         estimate D2E/DX2                !
 ! D50   D(11,12,13,14)         -0.3929         estimate D2E/DX2                !
 ! D51   D(11,12,13,27)       -179.7977         estimate D2E/DX2                !
 ! D52   D(26,12,13,14)        179.6522         estimate D2E/DX2                !
 ! D53   D(26,12,13,27)          0.2474         estimate D2E/DX2                !
 ! D54   D(12,13,14,9)           0.6779         estimate D2E/DX2                !
 ! D55   D(12,13,14,28)       -179.1445         estimate D2E/DX2                !
 ! D56   D(27,13,14,9)        -179.9116         estimate D2E/DX2                !
 ! D57   D(27,13,14,28)          0.2659         estimate D2E/DX2                !
 ! D58   D(2,15,16,17)        -178.9164         estimate D2E/DX2                !
 ! D59   D(2,15,16,29)           2.072          estimate D2E/DX2                !
 ! D60   D(20,15,16,17)         -0.1822         estimate D2E/DX2                !
 ! D61   D(20,15,16,29)       -179.1938         estimate D2E/DX2                !
 ! D62   D(2,15,20,19)         178.8344         estimate D2E/DX2                !
 ! D63   D(2,15,20,33)          -2.219          estimate D2E/DX2                !
 ! D64   D(16,15,20,19)          0.1059         estimate D2E/DX2                !
 ! D65   D(16,15,20,33)        179.0526         estimate D2E/DX2                !
 ! D66   D(15,16,17,18)          0.2447         estimate D2E/DX2                !
 ! D67   D(15,16,17,30)       -179.4426         estimate D2E/DX2                !
 ! D68   D(29,16,17,18)        179.2445         estimate D2E/DX2                !
 ! D69   D(29,16,17,30)         -0.4427         estimate D2E/DX2                !
 ! D70   D(16,17,18,19)         -0.2372         estimate D2E/DX2                !
 ! D71   D(16,17,18,31)       -179.9217         estimate D2E/DX2                !
 ! D72   D(30,17,18,19)        179.4485         estimate D2E/DX2                !
 ! D73   D(30,17,18,31)         -0.2361         estimate D2E/DX2                !
 ! D74   D(17,18,19,20)          0.1595         estimate D2E/DX2                !
 ! D75   D(17,18,19,32)       -179.5401         estimate D2E/DX2                !
 ! D76   D(31,18,19,20)        179.844          estimate D2E/DX2                !
 ! D77   D(31,18,19,32)          0.1445         estimate D2E/DX2                !
 ! D78   D(18,19,20,15)         -0.0923         estimate D2E/DX2                !
 ! D79   D(18,19,20,33)       -179.0269         estimate D2E/DX2                !
 ! D80   D(32,19,20,15)        179.6092         estimate D2E/DX2                !
 ! D81   D(32,19,20,33)          0.6746         estimate D2E/DX2                !
 --------------------------------------------------------------------------------
 Trust Radius=3.00D-01 FncErr=1.00D-07 GrdErr=1.00D-06 EigMax=2.50D+02 EigMin=1.00D-04
 Number of steps in this run=    182 maximum allowed number of steps=    198.
 GradGradGradGradGradGradGradGradGradGradGradGradGradGradGradGradGradGrad

 Leave Link  103 at Wed Sep 23 06:01:27 2020, MaxMem=  2147483648 cpu:               0.1 elap:               0.0
 (Enter /prod/apps/gaussian/g16b1/l202.exe)
                          Input orientation:                          
 ---------------------------------------------------------------------
 Center     Atomic      Atomic             Coordinates (Angstroms)
 Number     Number       Type             X           Y           Z
 ---------------------------------------------------------------------
      1          8           0       -3.941000   -1.516000   -0.779000
      2         16           0       -2.753000   -1.164000    0.007000
      3          7           0       -1.444000   -1.664000   -0.963000
      4          6           0       -0.129000   -1.465000   -0.498000
      5          7           0        0.444000   -2.308000    0.405000
      6          7           0        1.667000   -1.911000    0.632000
      7          6           0        0.790000   -0.498000   -0.851000
      8          7           0        1.895000   -0.816000   -0.135000
      9          6           0        3.161000   -0.162000   -0.115000
     10          6           0        3.572000    0.578000   -1.226000
     11          6           0        4.808000    1.222000   -1.192000
     12          6           0        5.629000    1.118000   -0.069000
     13          6           0        5.207000    0.368000    1.031000
     14          6           0        3.969000   -0.271000    1.020000
     15          6           0       -2.689000    0.613000    0.164000
     16          6           0       -3.327000    1.397000   -0.799000
     17          6           0       -3.257000    2.783000   -0.688000
     18          6           0       -2.554000    3.367000    0.369000
     19          6           0       -1.921000    2.569000    1.324000
     20          6           0       -1.983000    1.180000    1.228000
     21          8           0       -2.534000   -1.749000    1.334000
     22          1           0       -1.592000   -1.351000   -1.924000
     23          1           0        0.735000    0.348000   -1.514000
     24          1           0        2.944000    0.638000   -2.107000
     25          1           0        5.130000    1.798000   -2.053000
     26          1           0        6.591000    1.616000   -0.049000
     27          1           0        5.838000    0.285000    1.909000
     28          1           0        3.623000   -0.844000    1.870000
     29          1           0       -3.877000    0.926000   -1.604000
     30          1           0       -3.755000    3.407000   -1.423000
     31          1           0       -2.504000    4.448000    0.451000
     32          1           0       -1.382000    3.026000    2.148000
     33          1           0       -1.512000    0.545000    1.967000
 ---------------------------------------------------------------------
                    Distance matrix (angstroms):
                    1          2          3          4          5
     1  O    0.000000
     2  S    1.467325   0.000000
     3  N    2.508141   1.704224   0.000000
     4  C    3.822683   2.689052   1.408918   0.000000
     5  N    4.610569   3.418764   2.418823   1.361759   0.000000
     6  N    5.796258   4.526040   3.504762   2.168279   1.305706
     7  C    4.839821   3.705748   2.522470   1.379949   2.230101
     8  N    5.913005   4.663172   3.543107   2.156281   2.150131
     9  C    7.260345   5.999524   4.917432   3.559297   3.501115
    10  C    7.812158   6.675364   5.500544   4.289666   4.557800
    11  C    9.176721   8.018686   6.889771   5.663530   5.835735
    12  C    9.951229   8.687418   7.652848   6.325385   6.232686
    13  C    9.513751   8.170508   7.234698   5.845565   5.499002
    14  C    8.206980   6.856304   5.930709   4.530294   4.117429
    15  C    2.643746   1.785070   2.829290   3.363024   4.290223
    16  C    2.977073   2.745511   3.597542   4.302191   5.421908
    17  C    4.354025   4.039288   4.810239   5.278824   6.388296
    18  C    5.204360   4.549792   5.321399   5.475449   6.418327
    19  C    5.018987   4.044997   4.834893   4.775364   5.497537
    20  C    3.889760   2.752831   3.630336   3.662297   4.328256
    21  O    2.549256   1.466668   2.543921   3.036594   3.169228
    22  H    2.618406   2.260896   1.021467   2.046177   3.238115
    23  H    5.087209   4.094598   3.016585   2.250716   3.289617
    24  H    7.335293   6.338139   5.085517   4.056454   4.608585
    25  H    9.741084   8.669414   7.509395   6.381401   6.697731
    26  H   11.012055   9.748942   8.726684   7.406252   7.306812
    27  H   10.300378   8.917538   8.066877   6.667926   6.170972
    28  H    8.042567   6.650304   5.862830   4.480019   3.794148
    29  H    2.578388   2.868239   3.610882   4.581225   5.758982
    30  H    4.968426   4.893153   5.591723   6.143280   7.323552
    31  H    6.256770   5.635040   6.362353   6.442422   7.371320
    32  H    5.978760   4.900982   5.628345   5.361008   5.901176
    33  H    4.205743   2.881382   3.670042   3.468287   3.795443
                    6          7          8          9         10
     6  N    0.000000
     7  C    2.228225   0.000000
     8  N    1.356207   1.354550   0.000000
     9  C    2.418480   2.505241   1.425087   0.000000
    10  C    3.643667   3.006314   2.438411   1.396725   0.000000
    11  C    4.796722   4.383949   3.708944   2.405825   1.394126
    12  C    5.036237   5.161289   4.205647   2.780565   2.421053
    13  C    4.229024   4.878706   3.705503   2.404232   2.794884
    14  C    2.852954   3.695702   2.435678   1.397487   2.433706
    15  C    5.056119   3.790513   4.810873   5.907704   6.413536
    16  C    6.158787   4.532485   5.710302   6.707643   6.960552
    17  C    6.929777   5.212460   6.308860   7.084637   7.196298
    18  C    6.763379   5.254423   6.127406   6.734191   6.917400
    19  C    5.781264   4.635368   5.305541   5.946075   6.374922
    20  C    4.819958   3.850643   4.569537   5.483188   6.102667
    21  O    4.262329   4.169916   4.758623   6.086969   7.017960
    22  H    4.179452   2.748247   3.955492   5.222759   5.556540
    23  H    3.252233   1.076248   2.145259   2.846538   2.860841
    24  H    3.953511   2.740027   2.665202   2.157580   1.083580
    25  H    5.740930   5.054901   4.580059   3.387389   2.144689
    26  H    6.095020   6.226058   5.289086   3.864006   3.402519
    27  H    4.883686   5.806289   4.575739   3.385663   3.879282
    28  H    2.548935   3.943279   2.647035   2.149138   3.407330
    29  H    6.616963   4.937173   6.205522   7.275597   7.466699
    30  H    7.867797   6.019405   7.170437   7.891748   7.856652
    31  H    7.607029   6.083466   6.885078   7.325618   7.396418
    32  H    5.997385   5.111767   5.541821   5.993610   6.474465
    33  H    4.233226   3.785258   4.228283   5.164446   6.003615
                   11         12         13         14         15
    11  C    0.000000
    12  C    1.394986   0.000000
    13  C    2.414590   1.396633   0.000000
    14  C    2.797484   2.422982   1.393229   0.000000
    15  C    7.642946   8.336572   7.947234   6.770757   0.000000
    16  C    8.146367   8.990032   8.788452   7.702117   1.396091
    17  C    8.230125   9.061809   8.968081   8.028652   2.399464
    18  C    7.825394   8.497725   8.346578   7.497224   2.764917
    19  C    7.309180   7.813344   7.465831   6.546000   2.400283
    20  C    7.209428   7.721956   7.238387   6.129842   1.397147
    21  O    8.313392   8.764854   8.030976   6.676233   2.640449
    22  H    6.936581   7.853651   7.610085   6.384219   3.069275
    23  H    4.178144   5.160636   5.145504   4.154885   3.822262
    24  H    2.157030   3.404860   3.878287   3.413947   6.073611
    25  H    1.084795   2.155843   3.400277   3.882269   8.213165
    26  H    2.154246   1.083443   2.153917   3.402707   9.336476
    27  H    3.399275   2.156398   1.084405   2.143039   8.709899
    28  H    3.879230   3.410748   2.163775   1.081917   6.698853
    29  H    8.699804   9.631050   9.474896   8.359300   2.152937
    30  H    8.840393   9.753578   9.776251   8.896972   3.385463
    31  H    8.159159   8.803692   8.743130   8.030719   3.850171
    32  H    7.261275   7.596688   7.192188   6.385593   3.386307
    33  H    7.097888   7.447651   6.786191   5.621746   2.154243
                   16         17         18         19         20
    16  C    0.000000
    17  C    1.392199   0.000000
    18  C    2.417158   1.397324   0.000000
    19  C    2.803132   2.424631   1.396251   0.000000
    20  C    2.441752   2.804236   2.418035   1.393693   0.000000
    21  O    3.882764   5.015001   5.206254   4.361306   2.982261
    22  H    3.439092   4.624919   5.333181   5.101387   4.061274
    23  H    4.255757   4.748428   4.845366   4.476765   3.949470
    24  H    6.450766   6.713195   6.618612   6.258494   5.974221
    25  H    8.558865   8.554252   8.208027   7.855900   7.857586
    26  H    9.948728   9.937470   9.320502   8.674531   8.679533
    27  H    9.621176   9.782813   9.071714   8.109313   7.901445
    28  H    7.774840   8.187362   7.625015   6.533194   5.994662
    29  H    1.082759   2.161459   3.406103   3.885688   3.416427
    30  H    2.147710   1.085175   2.157606   3.407610   3.889385
    31  H    3.398298   2.153266   1.085258   2.152361   3.399264
    32  H    3.888634   3.408456   2.157477   1.085516   2.148329
    33  H    3.416268   3.886218   3.406325   2.162708   1.082214
                   21         22         23         24         25
    21  O    0.000000
    22  H    3.414723   0.000000
    23  H    4.816106   2.910263   0.000000
    24  H    6.895414   4.956300   2.305522   0.000000
    25  H    9.098894   7.424158   4.659297   2.475300   0.000000
    26  H    9.823520   8.903943   6.168208   4.300286   2.486697
    27  H    8.634707   8.518996   6.145039   4.962671   4.299753
    28  H    6.246196   6.468981   4.605743   4.298127   4.963984
    29  H    4.194177   3.241659   4.648949   6.845582   9.060245
    30  H    5.972958   5.250537   5.433771   7.280922   9.051464
    31  H    6.259664   6.332517   5.582324   7.123213   8.459933
    32  H    4.978988   5.981924   5.006358   6.520878   7.846179
    33  H    2.589905   4.329099   4.147913   6.038382   7.864259
                   26         27         28         29         30
    26  H    0.000000
    27  H    2.484418   0.000000
    28  H    4.306180   2.486441   0.000000
    29  H   10.605336  10.350521   8.452903   0.000000
    30  H   10.589394  10.624253   9.129608   2.490583   0.000000
    31  H    9.538828   9.436382   8.219425   4.302632   2.482047
    32  H    8.389496   7.726487   6.332788   4.971170   4.304455
    33  H    8.418427   7.354826   5.320428   4.300050   4.971337
                   31         32         33
    31  H    0.000000
    32  H    2.482091   0.000000
    33  H    4.302991   2.490988   0.000000
 Symmetry turned off by external request.
 Stoichiometry    C14H12N4O2S
 Framework group  C1[X(C14H12N4O2S)]
 Deg. of freedom    93
 Full point group                 C1      NOp   1
 Rotational constants (GHZ):           0.5075523           0.1643743           0.1393084
 Leave Link  202 at Wed Sep 23 06:01:27 2020, MaxMem=  2147483648 cpu:               0.1 elap:               0.0
 (Enter /prod/apps/gaussian/g16b1/l301.exe)
 Standard basis: 6-31G(d) (6D, 7F)
 Ernie: Thresh=  0.10000D-02 Tol=  0.10000D-05 Strict=F.
   343 basis functions,   660 primitive gaussians,   343 cartesian basis functions
    78 alpha electrons       78 beta electrons
       nuclear repulsion energy      1738.0271000513 Hartrees.
 IExCor=  402 DFT=T Ex+Corr=B3LYP ExCW=0 ScaHFX=  0.200000
 ScaDFX=  0.800000  0.720000  1.000000  0.810000 ScalE2=  1.000000  1.000000
 IRadAn=      5 IRanWt=     -1 IRanGd=            0 ICorTp=0 IEmpDi=  4
 NAtoms=   33 NActive=   33 NUniq=   33 SFac= 1.00D+00 NAtFMM=   60 NAOKFM=F Big=F
 Integral buffers will be    131072 words long.
 Raffenetti 2 integral format.
 Two-electron integral symmetry is turned off.
 Using the following non-standard input for PCM:
 MSTModel=DFT cav
 --- end of non-standard input.
 MST model for solvation energy: B3LYP parametrization.
 MST cavity parameters:
 ISph   IAn     Re0     Alpha   Atom Type   QCorr
 ------------------------------------------------
   1      8     1.40     1.25      O          F
   2     16     1.75     1.25      S          F
   3      7     1.50     1.25      NH         F
   4      6     1.50     1.25      C          F
   5      7     1.40     1.25      N          F
   6      7     1.40     1.25      N          F
   7      6     1.50     1.25      CH         F
   8      7     1.40     1.25      N          F
   9      6     1.50     1.25      C          F
  10      6     1.50     1.25      CH         F
  11      6     1.50     1.25      CH         F
  12      6     1.50     1.25      CH         F
  13      6     1.50     1.25      CH         F
  14      6     1.50     1.25      CH         F
  15      6     1.50     1.25      C          F
  16      6     1.50     1.25      CH         F
  17      6     1.50     1.25      CH         F
  18      6     1.50     1.25      CH         F
  19      6     1.50     1.25      CH         F
  20      6     1.50     1.25      CH         F
  21      8     1.40     1.25      O          F
  22      1     0.90     1.25      NH         F
  23      1     1.20     1.25      CH         F
  24      1     1.20     1.25      CH         F
  25      1     1.20     1.25      CH         F
  26      1     1.20     1.25      CH         F
  27      1     1.20     1.25      CH         F
  28      1     1.20     1.25      CH         F
  29      1     1.20     1.25      CH         F
  30      1     1.20     1.25      CH         F
  31      1     1.20     1.25      CH         F
  32      1     1.20     1.25      CH         F
  33      1     1.20     1.25      CH         F
 ------------------------------------------------------------------------------
 Polarizable Continuum Model (PCM)
 =================================
 Model                : PCM.
 Atomic radii         : MST.
 Polarization charges : Total charges.
 Charge compensation  : None.
 Solution method      : On-the-fly selection.
 Cavity type          : Scaled VdW (van der Waals Surface) (Alpha=1.250).
 Cavity algorithm     : GePol (No added spheres)
                        Default sphere list used, NSphG=   33.
                        Lebedev-Laikov grids with approx.  5.0 points / Ang**2.
                        Smoothing algorithm: York/Karplus (Gamma=1.0000).
                        Polarization charges: spherical gaussians, with
                                              point-specific exponents (IZeta= 3).
                        Self-potential: point-specific (ISelfS= 7).
                        Self-field    : sphere-specific E.n sum rule (ISelfD= 2).
 1st derivatives      : Analytical E(r).r(x)/FMM algorithm (CHGder, D1EAlg=3).
                        Cavity 1st derivative terms included.
 Solvent              : Water, Eps=  78.355300 Eps(inf)=   1.777849
 ------------------------------------------------------------------------------
 GePol: Number of generator spheres                  =      33
 GePol: Total number of spheres                      =      33
 GePol: Number of exposed spheres                    =      33 (100.00%)
 GePol: Number of points                             =    2663
 GePol: Average weight of points                     =       0.13
 GePol: Minimum weight of points                     =   0.16D-09
 GePol: Maximum weight of points                     =    0.22001
 GePol: Number of points with low weight             =     185
 GePol: Fraction of low-weight points (<1% of avg)   =       6.95%
 GePol: Cavity surface area                          =    339.708 Ang**2
 GePol: Cavity volume                                =    322.265 Ang**3
 PCM non-electrostatic energy =         0.0030317152 Hartrees.
 Nuclear repulsion after PCM non-electrostatic terms =     1738.0301317665 Hartrees.
 Leave Link  301 at Wed Sep 23 06:01:27 2020, MaxMem=  2147483648 cpu:               0.3 elap:               0.1
 (Enter /prod/apps/gaussian/g16b1/l302.exe)
 NPDir=0 NMtPBC=     1 NCelOv=     1 NCel=       1 NClECP=     1 NCelD=      1
         NCelK=      1 NCelE2=     1 NClLst=     1 CellRange=     0.0.
 One-electron integrals computed using PRISM.
 NBasis=   343 RedAO= T EigKep=  4.69D-04  NBF=   343
 NBsUse=   343 1.00D-06 EigRej= -1.00D+00 NBFU=   343
 Precomputing XC quadrature grid using
 IXCGrd= 4 IRadAn=           5 IRanWt=          -1 IRanGd=           0 AccXCQ= 0.00D+00.
 Generated NRdTot=       0 NPtTot=           0 NUsed=           0 NTot=          32
 NSgBfM=   341   341   341   341   341 MxSgAt=    33 MxSgA2=    33.
 Leave Link  302 at Wed Sep 23 06:01:28 2020, MaxMem=  2147483648 cpu:               1.8 elap:               0.5
 (Enter /prod/apps/gaussian/g16b1/l303.exe)
 DipDrv:  MaxL=1.
 Leave Link  303 at Wed Sep 23 06:01:28 2020, MaxMem=  2147483648 cpu:               0.2 elap:               0.1
 (Enter /prod/apps/gaussian/g16b1/l401.exe)
 ExpMin= 1.17D-01 ExpMax= 2.19D+04 ExpMxC= 3.30D+03 IAcc=3 IRadAn=         5 AccDes= 0.00D+00
 Harris functional with IExCor=  402 and IRadAn=       5 diagonalized for initial guess.
 HarFok:  IExCor=  402 AccDes= 0.00D+00 IRadAn=         5 IDoV= 1 UseB2=F ITyADJ=14
 ICtDFT=  3500011 ScaDFX=  1.000000  1.000000  1.000000  1.000000
 FoFCou: FMM=F IPFlag=           0 FMFlag=      100000 FMFlg1=           0
         NFxFlg=           0 DoJE=T BraDBF=F KetDBF=T FulRan=T
         wScrn=  0.000000 ICntrl=       500 IOpCl=  0 I1Cent=   200000004 NGrid=           0
         NMat0=    1 NMatS0=      1 NMatT0=    0 NMatD0=    1 NMtDS0=    0 NMtDT0=    0
 Symmetry not used in FoFCou.
 Harris En= -1308.24427370408    
 JPrj=0 DoOrth=F DoCkMO=F.
 Leave Link  401 at Wed Sep 23 06:01:30 2020, MaxMem=  2147483648 cpu:               9.9 elap:               2.5
 (Enter /prod/apps/gaussian/g16b1/l502.exe)
 Two-electron integral symmetry not used.
 Closed shell SCF:
 Using DIIS extrapolation, IDIIS=  1040.
 NGot=  2147483648 LenX=  2147243388 LenY=  2147125298
 Requested convergence on RMS density matrix=1.00D-08 within2000 cycles.
 Requested convergence on MAX density matrix=1.00D-06.
 Requested convergence on             energy=1.00D-06.
 No special actions if energy rises.

 Cycle   1  Pass 1  IDiag  1:
 FoFJK:  IHMeth= 1 ICntrl=       0 DoSepK=F KAlg= 0 I1Cent=           0 FoldK=F
 IRaf= 750000000 NMat=       1 IRICut=       1 DoRegI=T DoRafI=F ISym2E= 0 IDoP0=0 IntGTp=1.
 FoFCou: FMM=F IPFlag=           0 FMFlag=      100000 FMFlg1=           0
         NFxFlg=           0 DoJE=F BraDBF=F KetDBF=F FulRan=T
         wScrn=  0.000000 ICntrl=         0 IOpCl=  0 I1Cent=           0 NGrid=           0
         NMat0=    1 NMatS0=      1 NMatT0=    0 NMatD0=    1 NMtDS0=    0 NMtDT0=    0
 Symmetry not used in FoFCou.
 Inv3:  Mode=1 IEnd=    21274707.
 Iteration    1 A*A^-1 deviation from unit magnitude is 3.77D-15 for    561.
 Iteration    1 A*A^-1 deviation from orthogonality  is 2.33D-15 for   2484    568.
 Iteration    1 A^-1*A deviation from unit magnitude is 4.22D-15 for    203.
 Iteration    1 A^-1*A deviation from orthogonality  is 1.68D-14 for   2404   2344.
 E= -1307.69743759709    
 DIIS: error= 2.70D-02 at cycle   1 NSaved=   1.
 NSaved= 1 IEnMin= 1 EnMin= -1307.69743759709     IErMin= 1 ErrMin= 2.70D-02
 ErrMax= 2.70D-02  0.00D+00 EMaxC= 1.00D-01 BMatC= 6.46D-01 BMatP= 6.46D-01
 IDIUse=3 WtCom= 7.30D-01 WtEn= 2.70D-01
 Coeff-Com:  0.100D+01
 Coeff-En:   0.100D+01
 Coeff:      0.100D+01
 Gap=     0.266 Goal=   None    Shift=    0.000
 GapD=    0.266 DampG=1.000 DampE=0.500 DampFc=0.5000 IDamp=-1.
 Damping current iteration by 5.00D-01
 RMSDP=5.79D-03 MaxDP=5.65D-01              OVMax= 2.34D-01

 Cycle   2  Pass 1  IDiag  1:
 E= -1307.85006233855     Delta-E=       -0.152624741456 Rises=F Damp=T
 DIIS: error= 1.29D-02 at cycle   2 NSaved=   2.
 NSaved= 2 IEnMin= 2 EnMin= -1307.85006233855     IErMin= 2 ErrMin= 1.29D-02
 ErrMax= 1.29D-02  0.00D+00 EMaxC= 1.00D-01 BMatC= 9.92D-02 BMatP= 6.46D-01
 IDIUse=3 WtCom= 8.71D-01 WtEn= 1.29D-01
 Coeff-Com:  0.221D+00 0.779D+00
 Coeff-En:   0.351D+00 0.649D+00
 Coeff:      0.237D+00 0.763D+00
 Gap=     0.219 Goal=   None    Shift=    0.000
 RMSDP=1.71D-03 MaxDP=1.33D-01 DE=-1.53D-01 OVMax= 1.75D-01

 Cycle   3  Pass 1  IDiag  1:
 E= -1308.22948049740     Delta-E=       -0.379418158851 Rises=F Damp=F
 DIIS: error= 7.78D-03 at cycle   3 NSaved=   3.
 NSaved= 3 IEnMin= 3 EnMin= -1308.22948049740     IErMin= 3 ErrMin= 7.78D-03
 ErrMax= 7.78D-03  0.00D+00 EMaxC= 1.00D-01 BMatC= 4.61D-02 BMatP= 9.92D-02
 IDIUse=3 WtCom= 9.22D-01 WtEn= 7.78D-02
 Coeff-Com:  0.549D-01 0.403D+00 0.542D+00
 Coeff-En:   0.000D+00 0.000D+00 0.100D+01
 Coeff:      0.507D-01 0.372D+00 0.577D+00
 Gap=     0.201 Goal=   None    Shift=    0.000
 RMSDP=8.57D-04 MaxDP=3.44D-02 DE=-3.79D-01 OVMax= 4.40D-02

 Cycle   4  Pass 1  IDiag  1:
 E= -1308.26563347658     Delta-E=       -0.036152979186 Rises=F Damp=F
 DIIS: error= 2.85D-03 at cycle   4 NSaved=   4.
 NSaved= 4 IEnMin= 4 EnMin= -1308.26563347658     IErMin= 4 ErrMin= 2.85D-03
 ErrMax= 2.85D-03  0.00D+00 EMaxC= 1.00D-01 BMatC= 6.89D-03 BMatP= 4.61D-02
 IDIUse=3 WtCom= 9.71D-01 WtEn= 2.85D-02
 Coeff-Com:  0.178D-02 0.877D-01 0.304D+00 0.607D+00
 Coeff-En:   0.000D+00 0.000D+00 0.110D+00 0.890D+00
 Coeff:      0.172D-02 0.852D-01 0.298D+00 0.615D+00
 Gap=     0.199 Goal=   None    Shift=    0.000
 RMSDP=2.80D-04 MaxDP=1.28D-02 DE=-3.62D-02 OVMax= 1.63D-02

 Cycle   5  Pass 1  IDiag  1:
 E= -1308.27138000644     Delta-E=       -0.005746529855 Rises=F Damp=F
 DIIS: error= 7.46D-04 at cycle   5 NSaved=   5.
 NSaved= 5 IEnMin= 5 EnMin= -1308.27138000644     IErMin= 5 ErrMin= 7.46D-04
 ErrMax= 7.46D-04  0.00D+00 EMaxC= 1.00D-01 BMatC= 5.20D-04 BMatP= 6.89D-03
 IDIUse=3 WtCom= 9.93D-01 WtEn= 7.46D-03
 Coeff-Com: -0.325D-02 0.165D-01 0.109D+00 0.314D+00 0.564D+00
 Coeff-En:   0.000D+00 0.000D+00 0.000D+00 0.000D+00 0.100D+01
 Coeff:     -0.322D-02 0.163D-01 0.109D+00 0.311D+00 0.567D+00
 Gap=     0.198 Goal=   None    Shift=    0.000
 RMSDP=8.18D-05 MaxDP=4.17D-03 DE=-5.75D-03 OVMax= 6.03D-03

 Cycle   6  Pass 1  IDiag  1:
 E= -1308.27182834013     Delta-E=       -0.000448333695 Rises=F Damp=F
 DIIS: error= 2.22D-04 at cycle   6 NSaved=   6.
 NSaved= 6 IEnMin= 6 EnMin= -1308.27182834013     IErMin= 6 ErrMin= 2.22D-04
 ErrMax= 2.22D-04  0.00D+00 EMaxC= 1.00D-01 BMatC= 4.57D-05 BMatP= 5.20D-04
 IDIUse=3 WtCom= 9.98D-01 WtEn= 2.22D-03
 Coeff-Com: -0.187D-02 0.336D-02 0.370D-01 0.121D+00 0.305D+00 0.535D+00
 Coeff-En:   0.000D+00 0.000D+00 0.000D+00 0.000D+00 0.000D+00 0.100D+01
 Coeff:     -0.187D-02 0.335D-02 0.370D-01 0.121D+00 0.304D+00 0.537D+00
 Gap=     0.198 Goal=   None    Shift=    0.000
 RMSDP=2.41D-05 MaxDP=1.02D-03 DE=-4.48D-04 OVMax= 1.86D-03

 Cycle   7  Pass 1  IDiag  1:
 E= -1308.27187074384     Delta-E=       -0.000042403711 Rises=F Damp=F
 DIIS: error= 7.22D-05 at cycle   7 NSaved=   7.
 NSaved= 7 IEnMin= 7 EnMin= -1308.27187074384     IErMin= 7 ErrMin= 7.22D-05
 ErrMax= 7.22D-05  0.00D+00 EMaxC= 1.00D-01 BMatC= 3.55D-06 BMatP= 4.57D-05
 IDIUse=1 WtCom= 1.00D+00 WtEn= 0.00D+00
 Coeff-Com: -0.828D-03 0.340D-03 0.114D-01 0.414D-01 0.123D+00 0.290D+00
 Coeff-Com:  0.535D+00
 Coeff:     -0.828D-03 0.340D-03 0.114D-01 0.414D-01 0.123D+00 0.290D+00
 Coeff:      0.535D+00
 Gap=     0.198 Goal=   None    Shift=    0.000
 RMSDP=6.73D-06 MaxDP=4.42D-04 DE=-4.24D-05 OVMax= 5.06D-04

 Cycle   8  Pass 1  IDiag  1:
 E= -1308.27187364277     Delta-E=       -0.000002898923 Rises=F Damp=F
 DIIS: error= 3.37D-05 at cycle   8 NSaved=   8.
 NSaved= 8 IEnMin= 8 EnMin= -1308.27187364277     IErMin= 8 ErrMin= 3.37D-05
 ErrMax= 3.37D-05  0.00D+00 EMaxC= 1.00D-01 BMatC= 5.26D-07 BMatP= 3.55D-06
 IDIUse=1 WtCom= 1.00D+00 WtEn= 0.00D+00
 Coeff-Com: -0.254D-03-0.160D-03 0.214D-02 0.939D-02 0.352D-01 0.107D+00
 Coeff-Com:  0.317D+00 0.530D+00
 Coeff:     -0.254D-03-0.160D-03 0.214D-02 0.939D-02 0.352D-01 0.107D+00
 Coeff:      0.317D+00 0.530D+00
 Gap=     0.198 Goal=   None    Shift=    0.000
 RMSDP=2.30D-06 MaxDP=1.30D-04 DE=-2.90D-06 OVMax= 2.10D-04

 Cycle   9  Pass 1  IDiag  1:
 E= -1308.27187405472     Delta-E=       -0.000000411954 Rises=F Damp=F
 DIIS: error= 8.13D-06 at cycle   9 NSaved=   9.
 NSaved= 9 IEnMin= 9 EnMin= -1308.27187405472     IErMin= 9 ErrMin= 8.13D-06
 ErrMax= 8.13D-06  0.00D+00 EMaxC= 1.00D-01 BMatC= 4.97D-08 BMatP= 5.26D-07
 IDIUse=1 WtCom= 1.00D+00 WtEn= 0.00D+00
 Coeff-Com: -0.153D-04-0.137D-03-0.518D-03-0.111D-02 0.629D-03 0.134D-01
 Coeff-Com:  0.867D-01 0.284D+00 0.617D+00
 Coeff:     -0.153D-04-0.137D-03-0.518D-03-0.111D-02 0.629D-03 0.134D-01
 Coeff:      0.867D-01 0.284D+00 0.617D+00
 Gap=     0.198 Goal=   None    Shift=    0.000
 RMSDP=6.69D-07 MaxDP=4.18D-05 DE=-4.12D-07 OVMax= 4.63D-05

 Cycle  10  Pass 1  IDiag  1:
 E= -1308.27187409405     Delta-E=       -0.000000039332 Rises=F Damp=F
 DIIS: error= 2.10D-06 at cycle  10 NSaved=  10.
 NSaved=10 IEnMin=10 EnMin= -1308.27187409405     IErMin=10 ErrMin= 2.10D-06
 ErrMax= 2.10D-06  0.00D+00 EMaxC= 1.00D-01 BMatC= 3.52D-09 BMatP= 4.97D-08
 IDIUse=1 WtCom= 1.00D+00 WtEn= 0.00D+00
 Coeff-Com:  0.448D-05-0.579D-04-0.372D-03-0.107D-02-0.153D-02 0.155D-02
 Coeff-Com:  0.290D-01 0.125D+00 0.320D+00 0.527D+00
 Coeff:      0.448D-05-0.579D-04-0.372D-03-0.107D-02-0.153D-02 0.155D-02
 Coeff:      0.290D-01 0.125D+00 0.320D+00 0.527D+00
 Gap=     0.198 Goal=   None    Shift=    0.000
 RMSDP=2.10D-07 MaxDP=1.14D-05 DE=-3.93D-08 OVMax= 2.05D-05

 Cycle  11  Pass 1  IDiag  1:
 E= -1308.27187409691     Delta-E=       -0.000000002855 Rises=F Damp=F
 DIIS: error= 6.90D-07 at cycle  11 NSaved=  11.
 NSaved=11 IEnMin=11 EnMin= -1308.27187409691     IErMin=11 ErrMin= 6.90D-07
 ErrMax= 6.90D-07  0.00D+00 EMaxC= 1.00D-01 BMatC= 3.80D-10 BMatP= 3.52D-09
 IDIUse=1 WtCom= 1.00D+00 WtEn= 0.00D+00
 Coeff-Com:  0.402D-05-0.930D-05-0.113D-03-0.376D-03-0.868D-03-0.118D-02
 Coeff-Com:  0.170D-02 0.222D-01 0.644D-01 0.269D+00 0.645D+00
 Coeff:      0.402D-05-0.930D-05-0.113D-03-0.376D-03-0.868D-03-0.118D-02
 Coeff:      0.170D-02 0.222D-01 0.644D-01 0.269D+00 0.645D+00
 Gap=     0.198 Goal=   None    Shift=    0.000
 RMSDP=7.20D-08 MaxDP=3.70D-06 DE=-2.86D-09 OVMax= 7.13D-06

 Cycle  12  Pass 1  IDiag  1:
 E= -1308.27187409718     Delta-E=       -0.000000000275 Rises=F Damp=F
 DIIS: error= 2.51D-07 at cycle  12 NSaved=  12.
 NSaved=12 IEnMin=12 EnMin= -1308.27187409718     IErMin=12 ErrMin= 2.51D-07
 ErrMax= 2.51D-07  0.00D+00 EMaxC= 1.00D-01 BMatC= 8.41D-11 BMatP= 3.80D-10
 IDIUse=1 WtCom= 1.00D+00 WtEn= 0.00D+00
 Coeff-Com:  0.231D-05 0.377D-06-0.360D-04-0.137D-03-0.422D-03-0.969D-03
 Coeff-Com: -0.202D-02 0.118D-02 0.631D-02 0.117D+00 0.408D+00 0.471D+00
 Coeff:      0.231D-05 0.377D-06-0.360D-04-0.137D-03-0.422D-03-0.969D-03
 Coeff:     -0.202D-02 0.118D-02 0.631D-02 0.117D+00 0.408D+00 0.471D+00
 Gap=     0.198 Goal=   None    Shift=    0.000
 RMSDP=2.57D-08 MaxDP=1.38D-06 DE=-2.75D-10 OVMax= 2.24D-06

 Cycle  13  Pass 1  IDiag  1:
 E= -1308.27187409726     Delta-E=       -0.000000000070 Rises=F Damp=F
 DIIS: error= 5.56D-08 at cycle  13 NSaved=  13.
 NSaved=13 IEnMin=13 EnMin= -1308.27187409726     IErMin=13 ErrMin= 5.56D-08
 ErrMax= 5.56D-08  0.00D+00 EMaxC= 1.00D-01 BMatC= 1.94D-12 BMatP= 8.41D-11
 IDIUse=1 WtCom= 1.00D+00 WtEn= 0.00D+00
 Coeff-Com:  0.436D-06 0.910D-06-0.741D-06-0.792D-05-0.598D-04-0.238D-03
 Coeff-Com: -0.930D-03-0.205D-02-0.577D-02 0.126D-01 0.758D-01 0.162D+00
 Coeff-Com:  0.759D+00
 Coeff:      0.436D-06 0.910D-06-0.741D-06-0.792D-05-0.598D-04-0.238D-03
 Coeff:     -0.930D-03-0.205D-02-0.577D-02 0.126D-01 0.758D-01 0.162D+00
 Coeff:      0.759D+00
 Gap=     0.198 Goal=   None    Shift=    0.000
 RMSDP=6.37D-09 MaxDP=1.92D-07 DE=-7.05D-11 OVMax= 5.27D-07

 Error on total polarization charges =  0.02229
 SCF Done:  E(RB3LYP) =  -1308.27187410     A.U. after   13 cycles
            NFock= 13  Conv=0.64D-08     -V/T= 2.0077
 KE= 1.298237046144D+03 PE=-6.536800405361D+03 EE= 2.192261353354D+03
 Leave Link  502 at Wed Sep 23 06:02:51 2020, MaxMem=  2147483648 cpu:             323.4 elap:              80.9
 (Enter /prod/apps/gaussian/g16b1/l601.exe)
 Copying SCF densities to generalized density rwf, IOpCl= 0 IROHF=0.

 **********************************************************************

            Population analysis using the SCF Density.

 **********************************************************************

 Alpha  occ. eigenvalues --  -89.12619 -19.15947 -19.15877 -14.44703 -14.40484
 Alpha  occ. eigenvalues --  -14.38486 -14.37198 -10.26377 -10.25150 -10.24558
 Alpha  occ. eigenvalues --  -10.23423 -10.21464 -10.21427 -10.20755 -10.20699
 Alpha  occ. eigenvalues --  -10.20594 -10.20585 -10.20445 -10.20207 -10.20147
 Alpha  occ. eigenvalues --  -10.19899  -8.15170  -6.11654  -6.11607  -6.11457
 Alpha  occ. eigenvalues --   -1.12603  -1.11386  -1.01692  -0.95753  -0.93041
 Alpha  occ. eigenvalues --   -0.87705  -0.86148  -0.81116  -0.78061  -0.76501
 Alpha  occ. eigenvalues --   -0.76435  -0.75899  -0.68720  -0.66723  -0.64741
 Alpha  occ. eigenvalues --   -0.62407  -0.61565  -0.60882  -0.58566  -0.56646
 Alpha  occ. eigenvalues --   -0.55304  -0.52855  -0.52032  -0.49784  -0.49401
 Alpha  occ. eigenvalues --   -0.48615  -0.48308  -0.47507  -0.45696  -0.45513
 Alpha  occ. eigenvalues --   -0.45068  -0.44443  -0.43952  -0.43361  -0.39029
 Alpha  occ. eigenvalues --   -0.38905  -0.38192  -0.37326  -0.36477  -0.36244
 Alpha  occ. eigenvalues --   -0.36013  -0.34992  -0.34069  -0.33403  -0.32608
 Alpha  occ. eigenvalues --   -0.32052  -0.31729  -0.29143  -0.27407  -0.26996
 Alpha  occ. eigenvalues --   -0.26536  -0.26396  -0.24382
 Alpha virt. eigenvalues --   -0.04616  -0.04059  -0.01855  -0.01484   0.01193
 Alpha virt. eigenvalues --    0.02207   0.06324   0.08352   0.09009   0.09491
 Alpha virt. eigenvalues --    0.09961   0.11504   0.12471   0.13211   0.14402
 Alpha virt. eigenvalues --    0.15009   0.15044   0.15586   0.16247   0.16832
 Alpha virt. eigenvalues --    0.18333   0.18673   0.18951   0.19304   0.20080
 Alpha virt. eigenvalues --    0.21460   0.23347   0.24151   0.27062   0.28924
 Alpha virt. eigenvalues --    0.29222   0.29654   0.30126   0.30727   0.31648
 Alpha virt. eigenvalues --    0.33100   0.33603   0.34192   0.36260   0.38083
 Alpha virt. eigenvalues --    0.40964   0.42600   0.43160   0.47805   0.48352
 Alpha virt. eigenvalues --    0.49551   0.50337   0.51534   0.51925   0.52320
 Alpha virt. eigenvalues --    0.53293   0.54752   0.55041   0.55872   0.56349
 Alpha virt. eigenvalues --    0.57203   0.57455   0.57627   0.57940   0.58055
 Alpha virt. eigenvalues --    0.58597   0.59139   0.59887   0.60199   0.60527
 Alpha virt. eigenvalues --    0.60803   0.61035   0.61457   0.62714   0.62912
 Alpha virt. eigenvalues --    0.63341   0.63950   0.64987   0.67731   0.68246
 Alpha virt. eigenvalues --    0.69499   0.70344   0.71023   0.72573   0.74250
 Alpha virt. eigenvalues --    0.76838   0.77036   0.78164   0.78724   0.79410
 Alpha virt. eigenvalues --    0.81618   0.81947   0.82275   0.83334   0.83814
 Alpha virt. eigenvalues --    0.83878   0.84082   0.84178   0.85239   0.85910
 Alpha virt. eigenvalues --    0.86279   0.87876   0.88866   0.90177   0.90303
 Alpha virt. eigenvalues --    0.90891   0.91991   0.93109   0.93739   0.94198
 Alpha virt. eigenvalues --    0.95116   0.97643   0.98239   0.98510   0.99401
 Alpha virt. eigenvalues --    1.01910   1.02788   1.04260   1.05173   1.05804
 Alpha virt. eigenvalues --    1.06685   1.08300   1.09814   1.12271   1.13070
 Alpha virt. eigenvalues --    1.14330   1.15381   1.15463   1.16169   1.16968
 Alpha virt. eigenvalues --    1.18021   1.18796   1.19767   1.22638   1.24006
 Alpha virt. eigenvalues --    1.25247   1.25416   1.26554   1.30981   1.32752
 Alpha virt. eigenvalues --    1.34839   1.37411   1.39632   1.41361   1.41755
 Alpha virt. eigenvalues --    1.42446   1.42891   1.43740   1.44464   1.45678
 Alpha virt. eigenvalues --    1.46007   1.47425   1.47856   1.48981   1.49464
 Alpha virt. eigenvalues --    1.49923   1.51032   1.53318   1.57252   1.58209
 Alpha virt. eigenvalues --    1.61842   1.68274   1.68490   1.70853   1.74227
 Alpha virt. eigenvalues --    1.75860   1.78126   1.78493   1.79632   1.80126
 Alpha virt. eigenvalues --    1.80832   1.82857   1.83903   1.84718   1.85478
 Alpha virt. eigenvalues --    1.87221   1.87816   1.89861   1.90276   1.91482
 Alpha virt. eigenvalues --    1.93667   1.94431   1.96091   1.96594   1.97327
 Alpha virt. eigenvalues --    1.99112   2.02550   2.03874   2.05407   2.07107
 Alpha virt. eigenvalues --    2.08958   2.09342   2.09996   2.10882   2.12682
 Alpha virt. eigenvalues --    2.12964   2.13648   2.14196   2.14294   2.14943
 Alpha virt. eigenvalues --    2.15290   2.17012   2.19793   2.20724   2.23434
 Alpha virt. eigenvalues --    2.24387   2.26612   2.28388   2.28536   2.29128
 Alpha virt. eigenvalues --    2.30426   2.31113   2.31590   2.35100   2.36975
 Alpha virt. eigenvalues --    2.38260   2.48152   2.50884   2.51829   2.54353
 Alpha virt. eigenvalues --    2.56289   2.57445   2.58039   2.59277   2.63222
 Alpha virt. eigenvalues --    2.63439   2.64029   2.65251   2.66827   2.69470
 Alpha virt. eigenvalues --    2.70255   2.71238   2.72073   2.72528   2.73880
 Alpha virt. eigenvalues --    2.74902   2.75825   2.76726   2.78016   2.83181
 Alpha virt. eigenvalues --    2.86847   2.88909   2.99944   3.02083   3.06062
 Alpha virt. eigenvalues --    3.13138   3.25136   3.37044   3.42108   3.60613
 Alpha virt. eigenvalues --    3.76962   3.93076   3.96167   4.03403   4.07045
 Alpha virt. eigenvalues --    4.07480   4.08802   4.10230   4.10444   4.11332
 Alpha virt. eigenvalues --    4.14875   4.18422   4.22020   4.31413   4.31712
 Alpha virt. eigenvalues --    4.34674   4.39441   4.51920   4.65465   4.70971
          Condensed to atoms (all electrons):
               1          2          3          4          5          6
     1  O    8.266656   0.440907  -0.052171   0.001576  -0.000018   0.000000
     2  S    0.440907  13.678742   0.146449  -0.024192   0.002359   0.000121
     3  N   -0.052171   0.146449   7.351430   0.267851  -0.057870   0.005486
     4  C    0.001576  -0.024192   0.267851   4.657989   0.367939  -0.084336
     5  N   -0.000018   0.002359  -0.057870   0.367939   6.889844   0.305343
     6  N    0.000000   0.000121   0.005486  -0.084336   0.305343   6.771690
     7  C   -0.000031  -0.004806  -0.073035   0.518708  -0.073056  -0.098566
     8  N    0.000000   0.000302   0.003344  -0.034783  -0.095765   0.229176
     9  C   -0.000000  -0.000018  -0.000124   0.004202   0.006469  -0.043123
    10  C   -0.000000   0.000000   0.000004   0.000934  -0.000331   0.002880
    11  C    0.000000   0.000000   0.000000  -0.000008   0.000002  -0.000068
    12  C   -0.000000  -0.000000  -0.000000   0.000000  -0.000000   0.000017
    13  C   -0.000000  -0.000000  -0.000000   0.000006  -0.000004   0.000275
    14  C    0.000000   0.000000   0.000001  -0.000406   0.000360  -0.000022
    15  C   -0.059107   0.191643  -0.061633  -0.002258  -0.000158   0.000003
    16  C    0.002870  -0.024906  -0.001505   0.000065  -0.000005  -0.000000
    17  C    0.000506   0.002859  -0.000101  -0.000017  -0.000000   0.000000
    18  C   -0.000005  -0.000315   0.000003   0.000005   0.000000   0.000000
    19  C   -0.000043   0.002416  -0.000096   0.000068   0.000003   0.000000
    20  C    0.001413  -0.024612  -0.002648   0.000744  -0.000078  -0.000025
    21  O   -0.040782   0.429418  -0.053348   0.002008   0.000788   0.000028
    22  H    0.001273  -0.004834   0.298796  -0.026741   0.001828  -0.000076
    23  H   -0.000001   0.000111  -0.000730  -0.025489   0.003975   0.003473
    24  H   -0.000000  -0.000000   0.000000   0.000036  -0.000007  -0.000083
    25  H   -0.000000   0.000000   0.000000   0.000000  -0.000000   0.000001
    26  H   -0.000000  -0.000000  -0.000000  -0.000000   0.000000   0.000000
    27  H    0.000000   0.000000   0.000000  -0.000000   0.000000  -0.000008
    28  H   -0.000000  -0.000000  -0.000000   0.000040  -0.000317   0.015547
    29  H    0.008479  -0.002778   0.000032   0.000005  -0.000000   0.000000
    30  H    0.000001  -0.000060   0.000001  -0.000000  -0.000000   0.000000
    31  H   -0.000000   0.000007  -0.000000  -0.000000   0.000000  -0.000000
    32  H    0.000000  -0.000057   0.000001  -0.000002  -0.000000   0.000000
    33  H    0.000064  -0.003148  -0.000082   0.000341   0.000191   0.000052
               7          8          9         10         11         12
     1  O   -0.000031   0.000000  -0.000000  -0.000000   0.000000  -0.000000
     2  S   -0.004806   0.000302  -0.000018   0.000000   0.000000  -0.000000
     3  N   -0.073035   0.003344  -0.000124   0.000004   0.000000  -0.000000
     4  C    0.518708  -0.034783   0.004202   0.000934  -0.000008   0.000000
     5  N   -0.073056  -0.095765   0.006469  -0.000331   0.000002  -0.000000
     6  N   -0.098566   0.229176  -0.043123   0.002880  -0.000068   0.000017
     7  C    5.000446   0.331189  -0.030759  -0.006916  -0.000001   0.000020
     8  N    0.331189   6.877274   0.198174  -0.050325   0.004670   0.000336
     9  C   -0.030759   0.198174   4.628613   0.529313  -0.009869  -0.038184
    10  C   -0.006916  -0.050325   0.529313   4.991355   0.526448  -0.040992
    11  C   -0.000001   0.004670  -0.009869   0.526448   4.865371   0.543587
    12  C    0.000020   0.000336  -0.038184  -0.040992   0.543587   4.870625
    13  C   -0.000088   0.004555  -0.010594  -0.042228  -0.024655   0.539085
    14  C    0.007096  -0.058981   0.512847  -0.070962  -0.041407  -0.039385
    15  C    0.001752  -0.000030  -0.000001   0.000000   0.000000   0.000000
    16  C    0.000217   0.000000  -0.000000   0.000000   0.000000  -0.000000
    17  C    0.000004   0.000000  -0.000000   0.000000   0.000000  -0.000000
    18  C   -0.000019   0.000000   0.000000  -0.000000  -0.000000   0.000000
    19  C   -0.000030  -0.000009   0.000001  -0.000000  -0.000000   0.000000
    20  C    0.002377  -0.000152   0.000003   0.000000  -0.000000  -0.000000
    21  O   -0.000159   0.000004   0.000000  -0.000000  -0.000000   0.000000
    22  H   -0.001450   0.000005   0.000003  -0.000000   0.000000  -0.000000
    23  H    0.363183  -0.034349  -0.001636   0.002126   0.000156  -0.000001
    24  H    0.005701  -0.009073  -0.039235   0.354470  -0.034944   0.004285
    25  H   -0.000004  -0.000109   0.003440  -0.037766   0.363581  -0.039617
    26  H   -0.000000   0.000003   0.000468   0.004879  -0.041372   0.366249
    27  H    0.000001  -0.000104   0.003561   0.000710   0.004484  -0.040058
    28  H    0.000222  -0.013268  -0.039870   0.005443   0.000085   0.004500
    29  H    0.000004  -0.000000  -0.000000   0.000000   0.000000  -0.000000
    30  H   -0.000000   0.000000  -0.000000  -0.000000   0.000000   0.000000
    31  H    0.000000  -0.000000   0.000000   0.000000  -0.000000  -0.000000
    32  H   -0.000005   0.000000  -0.000000  -0.000000   0.000000   0.000000
    33  H    0.000035  -0.000018  -0.000000   0.000000  -0.000000   0.000000
              13         14         15         16         17         18
     1  O   -0.000000   0.000000  -0.059107   0.002870   0.000506  -0.000005
     2  S   -0.000000   0.000000   0.191643  -0.024906   0.002859  -0.000315
     3  N   -0.000000   0.000001  -0.061633  -0.001505  -0.000101   0.000003
     4  C    0.000006  -0.000406  -0.002258   0.000065  -0.000017   0.000005
     5  N   -0.000004   0.000360  -0.000158  -0.000005  -0.000000   0.000000
     6  N    0.000275  -0.000022   0.000003  -0.000000   0.000000   0.000000
     7  C   -0.000088   0.007096   0.001752   0.000217   0.000004  -0.000019
     8  N    0.004555  -0.058981  -0.000030   0.000000   0.000000   0.000000
     9  C   -0.010594   0.512847  -0.000001  -0.000000  -0.000000   0.000000
    10  C   -0.042228  -0.070962   0.000000   0.000000   0.000000  -0.000000
    11  C   -0.024655  -0.041407   0.000000   0.000000   0.000000  -0.000000
    12  C    0.539085  -0.039385   0.000000  -0.000000  -0.000000   0.000000
    13  C    4.880167   0.519436   0.000000   0.000000   0.000000   0.000000
    14  C    0.519436   4.996012  -0.000000  -0.000000  -0.000000   0.000000
    15  C    0.000000  -0.000000   5.355509   0.480724  -0.028707  -0.038798
    16  C    0.000000  -0.000000   0.480724   4.942360   0.510586  -0.031712
    17  C    0.000000  -0.000000  -0.028707   0.510586   4.886530   0.537580
    18  C    0.000000   0.000000  -0.038798  -0.031712   0.537580   4.858662
    19  C   -0.000000   0.000000  -0.029703  -0.037359  -0.030915   0.539565
    20  C   -0.000000  -0.000000   0.483943  -0.035060  -0.037293  -0.032406
    21  O    0.000000  -0.000000  -0.057649   0.001555  -0.000046  -0.000003
    22  H   -0.000000   0.000000  -0.000325   0.000342   0.000026   0.000001
    23  H   -0.000004  -0.000095   0.000199   0.000043   0.000010   0.000004
    24  H    0.000199   0.005233  -0.000000  -0.000000  -0.000000   0.000000
    25  H    0.004442   0.000727  -0.000000  -0.000000   0.000000   0.000000
    26  H   -0.041574   0.004685   0.000000  -0.000000  -0.000000   0.000000
    27  H    0.363972  -0.037996  -0.000000  -0.000000   0.000000  -0.000000
    28  H   -0.037850   0.357204  -0.000000  -0.000000  -0.000000   0.000000
    29  H    0.000000  -0.000000  -0.049922   0.364080  -0.033713   0.004234
    30  H   -0.000000   0.000000   0.004811  -0.040885   0.366960  -0.040194
    31  H    0.000000  -0.000000   0.000451   0.004800  -0.040819   0.365506
    32  H    0.000000  -0.000000   0.004797   0.000612   0.004261  -0.040097
    33  H   -0.000000   0.000000  -0.048829   0.004445   0.000267   0.004235
              19         20         21         22         23         24
     1  O   -0.000043   0.001413  -0.040782   0.001273  -0.000001  -0.000000
     2  S    0.002416  -0.024612   0.429418  -0.004834   0.000111  -0.000000
     3  N   -0.000096  -0.002648  -0.053348   0.298796  -0.000730   0.000000
     4  C    0.000068   0.000744   0.002008  -0.026741  -0.025489   0.000036
     5  N    0.000003  -0.000078   0.000788   0.001828   0.003975  -0.000007
     6  N    0.000000  -0.000025   0.000028  -0.000076   0.003473  -0.000083
     7  C   -0.000030   0.002377  -0.000159  -0.001450   0.363183   0.005701
     8  N   -0.000009  -0.000152   0.000004   0.000005  -0.034349  -0.009073
     9  C    0.000001   0.000003   0.000000   0.000003  -0.001636  -0.039235
    10  C   -0.000000   0.000000  -0.000000  -0.000000   0.002126   0.354470
    11  C   -0.000000  -0.000000  -0.000000   0.000000   0.000156  -0.034944
    12  C    0.000000  -0.000000   0.000000  -0.000000  -0.000001   0.004285
    13  C   -0.000000  -0.000000   0.000000  -0.000000  -0.000004   0.000199
    14  C    0.000000  -0.000000  -0.000000   0.000000  -0.000095   0.005233
    15  C   -0.029703   0.483943  -0.057649  -0.000325   0.000199  -0.000000
    16  C   -0.037359  -0.035060   0.001555   0.000342   0.000043  -0.000000
    17  C   -0.030915  -0.037293  -0.000046   0.000026   0.000010  -0.000000
    18  C    0.539565  -0.032406  -0.000003   0.000001   0.000004   0.000000
    19  C    4.885194   0.511033   0.000466  -0.000002   0.000025  -0.000000
    20  C    0.511033   4.939208   0.003142   0.000084   0.000114  -0.000000
    21  O    0.000466   0.003142   8.278634   0.001385   0.000000  -0.000000
    22  H   -0.000002   0.000084   0.001385   0.305379   0.000707   0.000000
    23  H    0.000025   0.000114   0.000000   0.000707   0.457706   0.001468
    24  H   -0.000000  -0.000000  -0.000000   0.000000   0.001468   0.541068
    25  H   -0.000000  -0.000000   0.000000   0.000000  -0.000001  -0.005100
    26  H    0.000000  -0.000000   0.000000   0.000000  -0.000000  -0.000143
    27  H   -0.000000  -0.000000  -0.000000   0.000000   0.000000   0.000013
    28  H    0.000000  -0.000000   0.000000   0.000000  -0.000010  -0.000128
    29  H    0.000278   0.004406   0.000082   0.000108  -0.000001   0.000000
    30  H    0.004269   0.000607   0.000000  -0.000000  -0.000000   0.000000
    31  H   -0.040848   0.004810  -0.000000  -0.000000  -0.000000  -0.000000
    32  H    0.366846  -0.040786   0.000001   0.000000   0.000000   0.000000
    33  H   -0.033043   0.363078   0.008641  -0.000005  -0.000008   0.000000
              25         26         27         28         29         30
     1  O   -0.000000  -0.000000   0.000000  -0.000000   0.008479   0.000001
     2  S    0.000000  -0.000000   0.000000  -0.000000  -0.002778  -0.000060
     3  N    0.000000  -0.000000   0.000000  -0.000000   0.000032   0.000001
     4  C    0.000000  -0.000000  -0.000000   0.000040   0.000005  -0.000000
     5  N   -0.000000   0.000000   0.000000  -0.000317  -0.000000  -0.000000
     6  N    0.000001   0.000000  -0.000008   0.015547   0.000000   0.000000
     7  C   -0.000004  -0.000000   0.000001   0.000222   0.000004  -0.000000
     8  N   -0.000109   0.000003  -0.000104  -0.013268  -0.000000   0.000000
     9  C    0.003440   0.000468   0.003561  -0.039870  -0.000000  -0.000000
    10  C   -0.037766   0.004879   0.000710   0.005443   0.000000  -0.000000
    11  C    0.363581  -0.041372   0.004484   0.000085   0.000000   0.000000
    12  C   -0.039617   0.366249  -0.040058   0.004500  -0.000000   0.000000
    13  C    0.004442  -0.041574   0.363972  -0.037850   0.000000  -0.000000
    14  C    0.000727   0.004685  -0.037996   0.357204  -0.000000   0.000000
    15  C   -0.000000   0.000000  -0.000000  -0.000000  -0.049922   0.004811
    16  C   -0.000000  -0.000000  -0.000000  -0.000000   0.364080  -0.040885
    17  C    0.000000  -0.000000   0.000000  -0.000000  -0.033713   0.366960
    18  C    0.000000   0.000000  -0.000000   0.000000   0.004234  -0.040194
    19  C   -0.000000   0.000000  -0.000000   0.000000   0.000278   0.004269
    20  C   -0.000000  -0.000000  -0.000000  -0.000000   0.004406   0.000607
    21  O    0.000000   0.000000  -0.000000   0.000000   0.000082   0.000000
    22  H    0.000000   0.000000   0.000000   0.000000   0.000108  -0.000000
    23  H   -0.000001  -0.000000   0.000000  -0.000010  -0.000001  -0.000000
    24  H   -0.005100  -0.000143   0.000013  -0.000128   0.000000   0.000000
    25  H    0.551184  -0.005089  -0.000165   0.000013   0.000000   0.000000
    26  H   -0.005089   0.556790  -0.005119  -0.000134   0.000000   0.000000
    27  H   -0.000165  -0.005119   0.551986  -0.005136  -0.000000  -0.000000
    28  H    0.000013  -0.000134  -0.005136   0.538936   0.000000   0.000000
    29  H    0.000000   0.000000  -0.000000   0.000000   0.525839  -0.005155
    30  H    0.000000   0.000000  -0.000000   0.000000  -0.005155   0.545044
    31  H    0.000000  -0.000000   0.000000  -0.000000  -0.000140  -0.005118
    32  H    0.000000   0.000000  -0.000000   0.000000   0.000014  -0.000155
    33  H   -0.000000   0.000000  -0.000000   0.000000  -0.000141   0.000013
              31         32         33
     1  O   -0.000000   0.000000   0.000064
     2  S    0.000007  -0.000057  -0.003148
     3  N   -0.000000   0.000001  -0.000082
     4  C   -0.000000  -0.000002   0.000341
     5  N    0.000000  -0.000000   0.000191
     6  N   -0.000000   0.000000   0.000052
     7  C    0.000000  -0.000005   0.000035
     8  N   -0.000000   0.000000  -0.000018
     9  C    0.000000  -0.000000  -0.000000
    10  C    0.000000  -0.000000   0.000000
    11  C   -0.000000   0.000000  -0.000000
    12  C   -0.000000   0.000000   0.000000
    13  C    0.000000   0.000000  -0.000000
    14  C   -0.000000  -0.000000   0.000000
    15  C    0.000451   0.004797  -0.048829
    16  C    0.004800   0.000612   0.004445
    17  C   -0.040819   0.004261   0.000267
    18  C    0.365506  -0.040097   0.004235
    19  C   -0.040848   0.366846  -0.033043
    20  C    0.004810  -0.040786   0.363078
    21  O   -0.000000   0.000001   0.008641
    22  H   -0.000000   0.000000  -0.000005
    23  H   -0.000000   0.000000  -0.000008
    24  H   -0.000000   0.000000   0.000000
    25  H    0.000000   0.000000  -0.000000
    26  H   -0.000000   0.000000   0.000000
    27  H    0.000000  -0.000000  -0.000000
    28  H   -0.000000   0.000000   0.000000
    29  H   -0.000140   0.000014  -0.000141
    30  H   -0.005118  -0.000155   0.000013
    31  H    0.547595  -0.005135  -0.000139
    32  H   -0.005135   0.544851  -0.005133
    33  H   -0.000139  -0.005133   0.524491
 Mulliken charges:
               1
     1  O   -0.571590
     2  S    1.194390
     3  N   -0.770056
     4  C    0.375718
     5  N   -0.351494
     6  N   -0.107785
     7  C    0.057971
     8  N   -0.352069
     9  C    0.326321
    10  C   -0.169042
    11  C   -0.156060
    12  C   -0.130464
    13  C   -0.155137
    14  C   -0.154345
    15  C   -0.146709
    16  C   -0.141265
    17  C   -0.137976
    18  C   -0.126247
    19  C   -0.138116
    20  C   -0.141901
    21  O   -0.574164
    22  H    0.423495
    23  H    0.229025
    24  H    0.176241
    25  H    0.164462
    26  H    0.160356
    27  H    0.163857
    28  H    0.174724
    29  H    0.184291
    30  H    0.169861
    31  H    0.169030
    32  H    0.169986
    33  H    0.184692
 Sum of Mulliken charges =  -0.00000
 Mulliken charges with hydrogens summed into heavy atoms:
               1
     1  O   -0.571590
     2  S    1.194390
     3  N   -0.346561
     4  C    0.375718
     5  N   -0.351494
     6  N   -0.107785
     7  C    0.286996
     8  N   -0.352069
     9  C    0.326321
    10  C    0.007199
    11  C    0.008402
    12  C    0.029892
    13  C    0.008720
    14  C    0.020379
    15  C   -0.146709
    16  C    0.043025
    17  C    0.031885
    18  C    0.042783
    19  C    0.031870
    20  C    0.042791
    21  O   -0.574164
 Electronic spatial extent (au):  <R**2>=           7604.4064
 Charge=             -0.0000 electrons
 Dipole moment (field-independent basis, Debye):
    X=              5.9042    Y=             11.5127    Z=             -5.3723  Tot=             14.0094
 Quadrupole moment (field-independent basis, Debye-Ang):
   XX=           -124.6036   YY=           -135.5047   ZZ=           -115.4562
   XY=            -11.8633   XZ=              5.0954   YZ=              4.9819
 Traceless Quadrupole moment (field-independent basis, Debye-Ang):
   XX=              0.5846   YY=            -10.3166   ZZ=              9.7320
   XY=            -11.8633   XZ=              5.0954   YZ=              4.9819
 Octapole moment (field-independent basis, Debye-Ang**2):
  XXX=            170.6747  YYY=             82.3415  ZZZ=            -18.1405  XYY=            -16.3434
  XXY=            105.3586  XXZ=            -10.5539  XZZ=              8.3369  YZZ=             12.1043
  YYZ=            -15.3748  XYZ=             -5.2540
 Hexadecapole moment (field-independent basis, Debye-Ang**3):
 XXXX=          -7014.8031 YYYY=          -2023.4350 ZZZZ=           -651.5921 XXXY=             67.0980
 XXXZ=            122.5757 YYYX=           -111.1591 YYYZ=             35.2243 ZZZX=             40.0471
 ZZZY=             10.1908 XXYY=          -1589.6169 XXZZ=          -1263.5268 YYZZ=           -458.0739
 XXYZ=            -96.7834 YYXZ=             -1.4712 ZZXY=              2.6766
 N-N= 1.738030131767D+03 E-N=-6.536800396747D+03  KE= 1.298237046144D+03
 No NMR shielding tensors so no spin-rotation constants.
 Leave Link  601 at Wed Sep 23 06:02:52 2020, MaxMem=  2147483648 cpu:               0.5 elap:               0.2
 (Enter /prod/apps/gaussian/g16b1/l701.exe)
 ... and contract with generalized density number  0.
 Compute integral first derivatives.
 D1PCM: PCM CHGder 1st derivatives, ID1Alg=3 FixD1E=F DoIter=F DoCFld=F I1PDM=0.
 GePol: Maximum number of non-zero 1st derivatives   =     177
 Leave Link  701 at Wed Sep 23 06:02:54 2020, MaxMem=  2147483648 cpu:              11.5 elap:               2.9
 (Enter /prod/apps/gaussian/g16b1/l702.exe)
 L702 exits ... SP integral derivatives will be done elsewhere.
 Leave Link  702 at Wed Sep 23 06:02:54 2020, MaxMem=  2147483648 cpu:               0.1 elap:               0.0
 (Enter /prod/apps/gaussian/g16b1/l703.exe)
 Integral derivatives from FoFJK, PRISM(SPDF).
 Compute integral first derivatives, UseDBF=F ICtDFT=           0.
 Calling FoFJK, ICntrl=      2127 FMM=F ISym2X=0 I1Cent= 0 IOpClX= 0 NMat=1 NMatS=1 NMatT=0.
 FoFJK:  IHMeth= 1 ICntrl=    2127 DoSepK=F KAlg= 0 I1Cent=           0 FoldK=F
 IRaf=         0 NMat=       1 IRICut=       1 DoRegI=T DoRafI=F ISym2E= 0 IDoP0=0 IntGTp=1.
 FoFCou: FMM=F IPFlag=           0 FMFlag=      100000 FMFlg1=         800
         NFxFlg=           0 DoJE=F BraDBF=F KetDBF=F FulRan=T
         wScrn=  0.000000 ICntrl=      2127 IOpCl=  0 I1Cent=           0 NGrid=           0
         NMat0=    1 NMatS0=      1 NMatT0=    0 NMatD0=    1 NMtDS0=    0 NMtDT0=    0
 Symmetry not used in FoFCou.
 Leave Link  703 at Wed Sep 23 06:03:12 2020, MaxMem=  2147483648 cpu:              71.4 elap:              17.9
 (Enter /prod/apps/gaussian/g16b1/l716.exe)
 Dipole        = 2.32287240D+00 4.52942551D+00-2.11364438D+00
 -------------------------------------------------------------------
 Center     Atomic                   Forces (Hartrees/Bohr)
 Number     Number              X              Y              Z
 -------------------------------------------------------------------
      1        8          -0.000885776   -0.000588866   -0.000524802
      2       16           0.000249758    0.000148041    0.000552400
      3        7          -0.000020157    0.000202118    0.000709882
      4        6          -0.000686820   -0.000003289   -0.001033017
      5        7           0.000393690   -0.000099747    0.000260056
      6        7           0.000154534   -0.000293852    0.000415798
      7        6          -0.000347254    0.000033823   -0.000116684
      8        7           0.000081116    0.000015134    0.000007311
      9        6           0.000621455    0.000392161   -0.000233194
     10        6           0.000108744   -0.000436335    0.000638861
     11        6          -0.000311418    0.000578148   -0.001439057
     12        6          -0.000288347   -0.000464289    0.000611931
[...]
 Alpha virt. eigenvalues --    3.93735   3.96127   4.05221   4.27121   4.40382
 Alpha virt. eigenvalues --    4.75321   4.87686
          Condensed to atoms (all electrons):
               1          2          3          4          5          6
     1  O    9.270317  -0.376035  -0.051284   0.205563  -0.027908   0.000594
     2  S   -0.376035  15.562366   0.663257  -1.951891   0.326869  -0.071923
     3  N   -0.051284   0.663257   8.628904  -2.691237   0.317035  -0.210400
     4  C    0.205563  -1.951891  -2.691237  19.590920  -2.232538   1.217435
     5  N   -0.027908   0.326869   0.317035  -2.232538   8.922103  -0.926414
     6  N    0.000594  -0.071923  -0.210400   1.217435  -0.926414   9.228041
     7  C   -0.039216   0.700813   1.285493  -9.717096   1.320244  -1.114352
     8  N   -0.001285   0.092559   0.035281  -0.306076   0.067448  -0.644944
     9  C    0.003375  -0.016382  -0.009475   0.749049   0.036465  -0.447455
    10  C   -0.001294   0.006695  -0.023506  -0.150388   0.043764  -0.089006
    11  C   -0.000161   0.003277  -0.010296   0.150764  -0.011233  -0.025521
    12  C    0.000012  -0.001428  -0.002082   0.015063  -0.006519   0.034448
    13  C    0.000046  -0.001788   0.002941  -0.039383  -0.014299  -0.018267
    14  C    0.000968  -0.023801   0.000710   0.022411  -0.095681   0.645440
    15  C    0.160444  -0.976282  -0.175530   0.817885  -0.164354   0.104322
    16  C    0.018213   0.115870   0.016937  -0.469371   0.047459  -0.031382
    17  C    0.004389  -0.544409  -0.021979   0.152458  -0.011652   0.008020
    18  C   -0.012873   0.286342   0.022251  -0.088272   0.005580  -0.002216
    19  C    0.009231  -0.309726   0.025761  -0.089458   0.003288   0.003324
    20  C   -0.083642   0.267688  -0.048590  -0.459195   0.106407  -0.073897
    21  O    0.033714  -0.341275  -0.072475   0.283679  -0.067843  -0.009377
    22  H    0.025136  -0.112194   0.380438  -0.104101   0.007536   0.020754
    23  H   -0.002148   0.018784  -0.078653   0.008865  -0.023168  -0.129922
    24  H    0.000138  -0.002428   0.002161  -0.050275   0.001294  -0.040987
    25  H   -0.000004   0.000076  -0.000162   0.003650  -0.000873   0.002386
    26  H    0.000001  -0.000077  -0.000072  -0.000067  -0.000000   0.001910
    27  H   -0.000001   0.000082  -0.000047   0.000947   0.000356  -0.002794
    28  H    0.000164  -0.004370  -0.003694   0.040461  -0.015242   0.030689
    29  H    0.004689  -0.110232  -0.033637   0.015463   0.003003  -0.002127
    30  H   -0.000104   0.006188  -0.002001   0.004937  -0.000564   0.000493
    31  H   -0.000243   0.002468   0.001151  -0.001263   0.000282  -0.000112
    32  H    0.001148  -0.001329  -0.002224   0.008340  -0.001781   0.000281
    33  H    0.003934  -0.044048  -0.026000  -0.166745   0.031016  -0.002355
               7          8          9         10         11         12
     1  O   -0.039216  -0.001285   0.003375  -0.001294  -0.000161   0.000012
     2  S    0.700813   0.092559  -0.016382   0.006695   0.003277  -0.001428
     3  N    1.285493   0.035281  -0.009475  -0.023506  -0.010296  -0.002082
     4  C   -9.717096  -0.306076   0.749049  -0.150388   0.150764   0.015063
     5  N    1.320244   0.067448   0.036465   0.043764  -0.011233  -0.006519
     6  N   -1.114352  -0.644944  -0.447455  -0.089006  -0.025521   0.034448
     7  C   15.844211  -0.379637  -2.471796   0.752412  -0.286235  -0.009171
     8  N   -0.379637   9.573023  -0.716576   0.478550  -0.355201   0.352970
     9  C   -2.471796  -0.716576  15.565427  -5.835832   2.820436  -3.642780
    10  C    0.752412   0.478550  -5.835832  12.989878  -3.948031   3.137552
    11  C   -0.286235  -0.355201   2.820436  -3.948031  10.568167  -3.067876
    12  C   -0.009171   0.352970  -3.642780   3.137552  -3.067876   9.020618
    13  C    0.141416  -0.268262   2.779803  -3.385742   3.009284  -2.977402
    14  C   -0.250410  -0.085227  -5.283965   2.429549  -3.345565   2.966655
    15  C   -0.381574  -0.094982  -0.001766   0.017027   0.004962   0.000269
    16  C    0.128341   0.027799   0.002255  -0.003233  -0.004310  -0.000295
    17  C   -0.013243  -0.012708  -0.008840   0.011709   0.003006   0.001091
    18  C    0.053594  -0.008486  -0.001629  -0.009938  -0.002388  -0.001126
    19  C    0.042201   0.023520   0.009723  -0.006111   0.001331   0.001530
    20  C    0.010875   0.098368   0.052901  -0.008597  -0.009431  -0.000256
    21  O   -0.047130  -0.000753  -0.002897  -0.000312  -0.000056  -0.000003
    22  H   -0.070333   0.007717   0.004949  -0.001427   0.000146  -0.000158
    23  H   -0.603467   0.231171   0.204620   0.002729   0.084288  -0.004981
    24  H    0.185162  -0.237482   0.817470  -1.073082   0.246475  -0.181580
    25  H    0.007753   0.001721  -0.114544   0.699328  -0.829416   0.282773
    26  H   -0.001610  -0.003379   0.111631  -0.161797   0.365288  -0.647550
    27  H   -0.001749  -0.008434  -0.083982   0.117468  -0.214499   0.271594
    28  H   -0.030707  -0.224308   0.642237  -0.102892   0.125011  -0.167917
    29  H    0.000326   0.004565   0.003541   0.000404  -0.000496   0.000038
    30  H   -0.002845  -0.000602  -0.000665   0.000226   0.000067   0.000062
    31  H   -0.000529   0.000496   0.000776  -0.000247  -0.000184  -0.000119
    32  H   -0.000156  -0.000059   0.001651   0.000030   0.000719   0.000165
    33  H    0.122878   0.002372   0.006637  -0.002545  -0.002397   0.000124
              13         14         15         16         17         18
     1  O    0.000046   0.000968   0.160444   0.018213   0.004389  -0.012873
     2  S   -0.001788  -0.023801  -0.976282   0.115870  -0.544409   0.286342
     3  N    0.002941   0.000710  -0.175530   0.016937  -0.021979   0.022251
     4  C   -0.039383   0.022411   0.817885  -0.469371   0.152458  -0.088272
     5  N   -0.014299  -0.095681  -0.164354   0.047459  -0.011652   0.005580
     6  N   -0.018267   0.645440   0.104322  -0.031382   0.008020  -0.002216
     7  C    0.141416  -0.250410  -0.381574   0.128341  -0.013243   0.053594
     8  N   -0.268262  -0.085227  -0.094982   0.027799  -0.012708  -0.008486
     9  C    2.779803  -5.283965  -0.001766   0.002255  -0.008840  -0.001629
    10  C   -3.385742   2.429549   0.017027  -0.003233   0.011709  -0.009938
    11  C    3.009284  -3.345565   0.004962  -0.004310   0.003006  -0.002388
    12  C   -2.977402   2.966655   0.000269  -0.000295   0.001091  -0.001126
    13  C    9.762538  -3.482799  -0.004020  -0.000450  -0.001497   0.003833
    14  C   -3.482799  12.629546   0.009883  -0.005239   0.004198  -0.004405
    15  C   -0.004020   0.009883  15.808576  -6.583816   2.744988  -3.625038
    16  C   -0.000450  -0.005239  -6.583816  17.668060  -4.232574   3.499600
    17  C   -0.001497   0.004198   2.744988  -4.232574  11.207950  -3.507884
    18  C    0.003833  -0.004405  -3.625038   3.499600  -3.507884   9.687997
    19  C    0.003354   0.012775   2.385795  -4.327725   3.805424  -3.556906
    20  C   -0.002416  -0.020113  -6.019445   0.979936  -3.968923   3.097811
    21  O    0.000006   0.001258   0.211897  -0.064908   0.036557  -0.027333
    22  H    0.000005   0.000799   0.038672  -0.002043   0.012116  -0.000450
    23  H   -0.000941  -0.173923  -0.058208   0.027132  -0.004760   0.012055
    24  H    0.128982  -0.152952   0.000425  -0.001300   0.001227  -0.001276
    25  H   -0.232180   0.113442   0.000255  -0.000183   0.000056   0.000011
    26  H    0.399918  -0.115212   0.000038  -0.000016   0.000046  -0.000034
    27  H   -0.710286   0.581185   0.000060  -0.000037  -0.000019  -0.000020
    28  H    0.326588  -0.922604   0.002571  -0.000547   0.000620   0.000111
    29  H   -0.000053  -0.000404   0.787263  -1.201122   0.369271  -0.225925
    30  H   -0.000051   0.000353  -0.174036   0.542197  -0.765182   0.410478
    31  H    0.000189  -0.000399   0.059419  -0.116879   0.354733  -0.669600
    32  H   -0.000568   0.000501  -0.108116   0.099271  -0.236011   0.351923
    33  H    0.001050  -0.002672   0.427972  -0.189069   0.114097  -0.188422
              19         20         21         22         23         24
     1  O    0.009231  -0.083642   0.033714   0.025136  -0.002148   0.000138
     2  S   -0.309726   0.267688  -0.341275  -0.112194   0.018784  -0.002428
     3  N    0.025761  -0.048590  -0.072475   0.380438  -0.078653   0.002161
     4  C   -0.089458  -0.459195   0.283679  -0.104101   0.008865  -0.050275
     5  N    0.003288   0.106407  -0.067843   0.007536  -0.023168   0.001294
     6  N    0.003324  -0.073897  -0.009377   0.020754  -0.129922  -0.040987
     7  C    0.042201   0.010875  -0.047130  -0.070333  -0.603467   0.185162
     8  N    0.023520   0.098368  -0.000753   0.007717   0.231171  -0.237482
     9  C    0.009723   0.052901  -0.002897   0.004949   0.204620   0.817470
    10  C   -0.006111  -0.008597  -0.000312  -0.001427   0.002729  -1.073082
    11  C    0.001331  -0.009431  -0.000056   0.000146   0.084288   0.246475
    12  C    0.001530  -0.000256  -0.000003  -0.000158  -0.004981  -0.181580
    13  C    0.003354  -0.002416   0.000006   0.000005  -0.000941   0.128982
    14  C    0.012775  -0.020113   0.001258   0.000799  -0.173923  -0.152952
    15  C    2.385795  -6.019445   0.211897   0.038672  -0.058208   0.000425
    16  C   -4.327725   0.979936  -0.064908  -0.002043   0.027132  -0.001300
    17  C    3.805424  -3.968923   0.036557   0.012116  -0.004760   0.001227
    18  C   -3.556906   3.097811  -0.027333  -0.000450   0.012055  -0.001276
    19  C   11.815815  -4.296536  -0.039436  -0.001306   0.009564  -0.002418
    20  C   -4.296536  16.664885  -0.005369   0.013051   0.014493   0.003892
    21  O   -0.039436  -0.005369   9.282533   0.012861   0.000767   0.000160
    22  H   -0.001306   0.013051   0.012861   0.796650   0.000815   0.002529
    23  H    0.009564   0.014493   0.000767   0.000815   2.109915  -0.077115
    24  H   -0.002418   0.003892   0.000160   0.002529  -0.077115   2.221455
    25  H    0.000329  -0.000572  -0.000004  -0.000059   0.000867  -0.085831
    26  H    0.000003  -0.000012  -0.000000  -0.000004  -0.000296  -0.014910
    27  H   -0.000075   0.000050  -0.000007  -0.000001   0.000432   0.009993
    28  H    0.000465  -0.002056   0.000118  -0.000064  -0.005293  -0.017650
    29  H    0.155545  -0.102503   0.007203   0.007717   0.002165  -0.000176
    30  H   -0.274232   0.155222   0.001079   0.000539   0.000883   0.000095
    31  H    0.381241  -0.071474  -0.000444  -0.000070  -0.003254  -0.000012
    32  H   -0.763492   0.540682   0.000256   0.000453   0.001793   0.000097
    33  H    0.535292  -1.058457  -0.002944   0.000529   0.026313  -0.001321
              25         26         27         28         29         30
     1  O   -0.000004   0.000001  -0.000001   0.000164   0.004689  -0.000104
     2  S    0.000076  -0.000077   0.000082  -0.004370  -0.110232   0.006188
     3  N   -0.000162  -0.000072  -0.000047  -0.003694  -0.033637  -0.002001
     4  C    0.003650  -0.000067   0.000947   0.040461   0.015463   0.004937
     5  N   -0.000873  -0.000000   0.000356  -0.015242   0.003003  -0.000564
     6  N    0.002386   0.001910  -0.002794   0.030689  -0.002127   0.000493
     7  C    0.007753  -0.001610  -0.001749  -0.030707   0.000326  -0.002845
     8  N    0.001721  -0.003379  -0.008434  -0.224308   0.004565  -0.000602
     9  C   -0.114544   0.111631  -0.083982   0.642237   0.003541  -0.000665
    10  C    0.699328  -0.161797   0.117468  -0.102892   0.000404   0.000226
    11  C   -0.829416   0.365288  -0.214499   0.125011  -0.000496   0.000067
    12  C    0.282773  -0.647550   0.271594  -0.167917   0.000038   0.000062
    13  C   -0.232180   0.399918  -0.710286   0.326588  -0.000053  -0.000051
    14  C    0.113442  -0.115212   0.581185  -0.922604  -0.000404   0.000353
    15  C    0.000255   0.000038   0.000060   0.002571   0.787263  -0.174036
    16  C   -0.000183  -0.000016  -0.000037  -0.000547  -1.201122   0.542197
    17  C    0.000056   0.000046  -0.000019   0.000620   0.369271  -0.765182
    18  C    0.000011  -0.000034  -0.000020   0.000111  -0.225925   0.410478
    19  C    0.000329   0.000003  -0.000075   0.000465   0.155545  -0.274232
    20  C   -0.000572  -0.000012   0.000050  -0.002056  -0.102503   0.155222
    21  O   -0.000004  -0.000000  -0.000007   0.000118   0.007203   0.001079
    22  H   -0.000059  -0.000004  -0.000001  -0.000064   0.007717   0.000539
    23  H    0.000867  -0.000296   0.000432  -0.005293   0.002165   0.000883
    24  H   -0.085831  -0.014910   0.009993  -0.017650  -0.000176   0.000095
    25  H    1.660074  -0.055299  -0.017410   0.009208  -0.000019   0.000002
    26  H   -0.055299   1.637447  -0.058339  -0.011263   0.000001   0.000003
    27  H   -0.017410  -0.058339   1.629228  -0.082427  -0.000003  -0.000000
    28  H    0.009208  -0.011263  -0.082427   1.960070   0.000041   0.000006
    29  H   -0.000019   0.000001  -0.000003   0.000041   2.039700  -0.103376
    30  H    0.000002   0.000003  -0.000000   0.000006  -0.103376   1.733822
    31  H    0.000002  -0.000003   0.000003   0.000022  -0.012337  -0.065239
    32  H   -0.000003   0.000003  -0.000026  -0.000228   0.009607  -0.020578
    33  H   -0.000021   0.000002   0.000130  -0.001651  -0.017650   0.009551
              31         32         33
     1  O   -0.000243   0.001148   0.003934
     2  S    0.002468  -0.001329  -0.044048
     3  N    0.001151  -0.002224  -0.026000
     4  C   -0.001263   0.008340  -0.166745
     5  N    0.000282  -0.001781   0.031016
     6  N   -0.000112   0.000281  -0.002355
     7  C   -0.000529  -0.000156   0.122878
     8  N    0.000496  -0.000059   0.002372
     9  C    0.000776   0.001651   0.006637
    10  C   -0.000247   0.000030  -0.002545
    11  C   -0.000184   0.000719  -0.002397
    12  C   -0.000119   0.000165   0.000124
    13  C    0.000189  -0.000568   0.001050
    14  C   -0.000399   0.000501  -0.002672
    15  C    0.059419  -0.108116   0.427972
    16  C   -0.116879   0.099271  -0.189069
    17  C    0.354733  -0.236011   0.114097
    18  C   -0.669600   0.351923  -0.188422
    19  C    0.381241  -0.763492   0.535292
    20  C   -0.071474   0.540682  -1.058457
    21  O   -0.000444   0.000256  -0.002944
    22  H   -0.000070   0.000453   0.000529
    23  H   -0.003254   0.001793   0.026313
    24  H   -0.000012   0.000097  -0.001321
    25  H    0.000002  -0.000003  -0.000021
    26  H   -0.000003   0.000003   0.000002
    27  H    0.000003  -0.000026   0.000130
    28  H    0.000022  -0.000228  -0.001651
    29  H   -0.012337   0.009607  -0.017650
    30  H   -0.065239  -0.020578   0.009551
    31  H    1.666970  -0.068422  -0.010810
    32  H   -0.068422   1.768523  -0.099546
    33  H   -0.010810  -0.099546   2.197674
 Mulliken charges:
               1
     1  O   -1.145879
     2  S    2.836285
     3  N   -0.918974
     4  C    1.229467
     5  N   -0.640080
     6  N   -0.454688
     7  C    0.825538
     8  N   -0.649159
     9  C    0.825640
    10  C    0.116658
    11  C    0.730074
    12  C    0.626277
    13  C    0.580452
    14  C    0.545699
    15  C    0.784445
    16  C    0.061431
    17  C    0.497726
    18  C    0.502635
    19  C    0.441911
    20  C    0.225226
    21  O   -1.189521
    22  H   -0.041204
    23  H   -0.591521
    24  H   -0.680757
    25  H   -0.445353
    26  H   -0.446350
    27  H   -0.431371
    28  H   -0.545468
    29  H   -0.600481
    30  H   -0.456726
    31  H   -0.446110
    32  H   -0.482906
    33  H   -0.662918
 Sum of Mulliken charges =  -0.00000
 Mulliken charges with hydrogens summed into heavy atoms:
               1
     1  O   -1.145879
     2  S    2.836285
     3  N   -0.960178
     4  C    1.229467
     5  N   -0.640080
     6  N   -0.454688
     7  C    0.234017
     8  N   -0.649159
     9  C    0.825640
    10  C   -0.564099
    11  C    0.284721
    12  C    0.179927
    13  C    0.149081
    14  C    0.000231
    15  C    0.784445
    16  C   -0.539050
    17  C    0.041000
    18  C    0.056525
    19  C   -0.040995
    20  C   -0.437692
    21  O   -1.189521
 Electronic spatial extent (au):  <R**2>=           7639.2054
 Charge=              0.0000 electrons
 Dipole moment (field-independent basis, Debye):
    X=              5.0010    Y=              8.8765    Z=             -3.4816  Tot=             10.7668
 Quadrupole moment (field-independent basis, Debye-Ang):
   XX=           -131.2353   YY=           -138.0556   ZZ=           -120.2947
   XY=            -11.4438   XZ=              4.9696   YZ=              3.5339
 Traceless Quadrupole moment (field-independent basis, Debye-Ang):
   XX=             -1.3734   YY=             -8.1938   ZZ=              9.5672
   XY=            -11.4438   XZ=              4.9696   YZ=              3.5339
 Octapole moment (field-independent basis, Debye-Ang**2):
  XXX=            149.6281  YYY=             56.3420  ZZZ=            -11.2398  XYY=            -19.8007
  XXY=             90.7952  XXZ=             -0.5261  XZZ=              7.9726  YZZ=             10.7986
  YYZ=            -10.9325  XYZ=             -4.8972
 Hexadecapole moment (field-independent basis, Debye-Ang**3):
 XXXX=          -7452.2620 YYYY=          -2072.2143 ZZZZ=           -709.2204 XXXY=            101.0822
 XXXZ=            133.8673 YYYX=           -100.7534 YYYZ=             28.8327 ZZZX=             43.8128
 ZZZY=              4.7432 XXYY=          -1679.4560 XXZZ=          -1321.4735 YYZZ=           -481.2028
 XXYZ=           -103.7267 YYXZ=              0.3845 ZZXY=              0.5624
 N-N= 1.736353549087D+03 E-N=-6.531161441623D+03  KE= 1.300605677913D+03
 Leave Link  601 at Wed Sep 23 07:12:00 2020, MaxMem=   262144000 cpu:               0.7 elap:               0.3
 (Enter /prod/apps/gaussian/g16b1/l9999.exe)
 1\1\GINC-PIRINEUS15\SP\RMP2-FC\Aug-CC-pVDZ\C14H12N4O2S1\UBAFAR01\23-Se
 p-2020\0\\#p mp2/aug-cc-pVDZ scf=(MaxCycle=2000,NoVarAcc,NoIncFock) ma
 xdisk=120GB geom=allcheck\\SM45_m0.n.3.pdb.xyz\\0,1\O,0,-3.9407405931,
 -1.5246291697,-0.7882871594\S,0,-2.7573733233,-1.1666570157,0.00377939
 28\N,0,-1.4423096035,-1.6515934252,-0.965111454\C,0,-0.1279269082,-1.4
 514319981,-0.5000579903\N,0,0.4421877694,-2.2862777025,0.413667617\N,0
 ,1.6664736105,-1.8915690027,0.6376411367\C,0,0.7955813046,-0.492117725
 5,-0.8627852667\N,0,1.8996299197,-0.8065529152,-0.1423727256\C,0,3.169
 9948103,-0.1590817529,-0.1301064465\C,0,3.600708727,0.5347163584,-1.26
 24309088\C,0,4.8383735497,1.1755163375,-1.2364053105\C,0,5.6425099126,
 1.1111390361,-0.0969263006\C,0,5.2026254569,0.4049635778,1.0252791314\
 C,0,3.9611525213,-0.2289514875,1.0191299491\C,0,-2.7006717804,0.609782
 5755,0.1723741528\C,0,-3.2762169913,1.4056497861,-0.821142891\C,0,-3.2
 066747053,2.7917887429,-0.6927800609\C,0,-2.567872671,3.3623001087,0.4
 119694417\C,0,-1.9979979891,2.552642157,1.3966576285\C,0,-2.0595996918
 ,1.1639317033,1.2819064007\O,0,-2.5390513137,-1.7562169326,1.328749317
 7\H,0,-1.5894545731,-1.3371825067,-1.9261653931\H,0,0.7452139505,0.347
 341715,-1.5345106805\H,0,2.9850638051,0.5631736478,-2.1534508827\H,0,5
 .1752310544,1.71633824,-2.1135917964\H,0,6.6063569593,1.6077624007,-0.
 0834042303\H,0,5.8212330819,0.3540978063,1.9144824955\H,0,3.6004797194
 ,-0.7670559706,1.8860737621\H,0,-3.7779756832,0.9484416057,-1.66518898
 43\H,0,-3.6546523126,3.4241109981,-1.4510292305\H,0,-2.5184980413,4.44
 14816842,0.507015636\H,0,-1.5095334401,2.9989126837,2.2555708535\H,0,-
 1.6372665319,0.5182264401,2.0414507964\\Version=ES64L-G16RevB.01\State
 =1-A\HF=-1302.1584928\MP2=-1305.2935455\RMSD=6.300e-09\PG=C01 [X(C14H1
 2N4O2S1)]\\@


 YOU CANNOT THROW TO THE GROUND THE LETTERS OF
 THE GREEK ALPHABET AND PICK UP THE ILIAD.
        - RUFUS CHOATE, 1799-1859
 Job cpu time:       0 days  2 hours 45 minutes  0.2 seconds.
 Elapsed time:       0 days  0 hours 44 minutes  3.3 seconds.
 File lengths (MBytes):  RWF= 113533 Int=      0 D2E=      0 Chk=     28 Scr=      1
 Normal termination of Gaussian 16 at Wed Sep 23 07:12:04 2020.
