 Entering Gaussian System, Link 0=g16
 Initial command:
 /prod/apps/gaussian/g16b1/l1.exe "/tmp/ubafar01/1461363/Gau-212522.inp" -scrdir="/tmp/ubafar01/1461363/"
 Entering Link 1 = /prod/apps/gaussian/g16b1/l1.exe PID=    212524.
  
 Copyright (c) 1988-2017, Gaussian, Inc.  All Rights Reserved.
  
 This is part of the Gaussian(R) 16 program.  It is based on
 the Gaussian(R) 09 system (copyright 2009, Gaussian, Inc.),
 the Gaussian(R) 03 system (copyright 2003, Gaussian, Inc.),
 the Gaussian(R) 98 system (copyright 1998, Gaussian, Inc.),
 the Gaussian(R) 94 system (copyright 1995, Gaussian, Inc.),
 the Gaussian 92(TM) system (copyright 1992, Gaussian, Inc.),
 the Gaussian 90(TM) system (copyright 1990, Gaussian, Inc.),
 the Gaussian 88(TM) system (copyright 1988, Gaussian, Inc.),
 the Gaussian 86(TM) system (copyright 1986, Carnegie Mellon
 University), and the Gaussian 82(TM) system (copyright 1983,
 Carnegie Mellon University). Gaussian is a federally registered
 trademark of Gaussian, Inc.
  
 This software contains proprietary and confidential information,
 including trade secrets, belonging to Gaussian, Inc.
  
 This software is provided under written license and may be
 used, copied, transmitted, or stored only in accord with that
 written license.
  
 The following legend is applicable only to US Government
 contracts under FAR:
  
                    RESTRICTED RIGHTS LEGEND
  
 Use, reproduction and disclosure by the US Government is
 subject to restrictions as set forth in subparagraphs (a)
 and (c) of the Commercial Computer Software - Restricted
 Rights clause in FAR 52.227-19.
  
 Gaussian, Inc.
 340 Quinnipiac St., Bldg. 40, Wallingford CT 06492
  
  
 ---------------------------------------------------------------
 Warning -- This program may not be used in any manner that
 competes with the business of Gaussian, Inc. or will provide
 assistance to any competitor of Gaussian, Inc.  The licensee
 of this program is prohibited from giving any competitor of
 Gaussian, Inc. access to this program.  By using this program,
 the user acknowledges that Gaussian, Inc. is engaged in the
 business of creating and licensing software in the field of
 computational chemistry and represents and warrants to the
 licensee that it is not a competitor of Gaussian, Inc. and that
 it will not use this program in any manner prohibited above.
 ---------------------------------------------------------------
  

 Cite this work as:
 Gaussian 16, Revision B.01,
 M. J. Frisch, G. W. Trucks, H. B. Schlegel, G. E. Scuseria, 
 M. A. Robb, J. R. Cheeseman, G. Scalmani, V. Barone, 
 G. A. Petersson, H. Nakatsuji, X. Li, M. Caricato, A. V. Marenich, 
 J. Bloino, B. G. Janesko, R. Gomperts, B. Mennucci, H. P. Hratchian, 
 J. V. Ortiz, A. F. Izmaylov, J. L. Sonnenberg, D. Williams-Young, 
 F. Ding, F. Lipparini, F. Egidi, J. Goings, B. Peng, A. Petrone, 
 T. Henderson, D. Ranasinghe, V. G. Zakrzewski, J. Gao, N. Rega, 
 G. Zheng, W. Liang, M. Hada, M. Ehara, K. Toyota, R. Fukuda, 
 J. Hasegawa, M. Ishida, T. Nakajima, Y. Honda, O. Kitao, H. Nakai, 
 T. Vreven, K. Throssell, J. A. Montgomery, Jr., J. E. Peralta, 
 F. Ogliaro, M. J. Bearpark, J. J. Heyd, E. N. Brothers, K. N. Kudin, 
 V. N. Staroverov, T. A. Keith, R. Kobayashi, J. Normand, 
 K. Raghavachari, A. P. Rendell, J. C. Burant, S. S. Iyengar, 
 J. Tomasi, M. Cossi, J. M. Millam, M. Klene, C. Adamo, R. Cammi, 
 J. W. Ochterski, R. L. Martin, K. Morokuma, O. Farkas, 
 J. B. Foresman, and D. J. Fox, Gaussian, Inc., Wallingford CT, 2016.
 
 ******************************************
 Gaussian 16:  ES64L-G16RevB.01 20-Dec-2017
                24-Sep-2020 
 ******************************************
 %nproc=4
 Will use up to    4 processors via shared memory.
 %Chk=SM45_m1.a.3.pdb.xyz.mst.a.w.chk
 %mem=16GB
 ----------------------------------------------------------------------
 #p b3lyp/6-31G(d) opt freq NoSymm scf=(MaxCycle=2000,NoVarAcc,NoIncFoc
 k) scrf=(iefpcm,read,solvent=water)
 ----------------------------------------------------------------------
 1/18=20,19=15,26=3,38=1,40=2/1,3;
 2/9=110,12=2,15=1,17=6,18=5,40=1/2;
 3/5=1,6=6,7=1,11=2,25=1,30=1,70=2203,71=1,72=1,74=-5/1,2,3;
 4//1;
 5/5=100002,7=2000,38=1,53=1/2;
 6/7=2,8=2,9=2,10=2,28=1/1;
 7/30=1/1,2,3,16;
 1/18=20,19=15,26=3/3(2);
 2/9=110,15=1/2;
 99//99;
 2/9=110,15=1/2;
 3/5=1,6=6,7=1,11=2,25=1,30=1,70=2205,71=1,72=1,74=-5/1,2,3;
 4/5=5,16=3,69=1/1;
 5/5=100002,7=2000,38=1,53=1/2;
 7/30=1/1,2,3,16;
 1/18=20,19=15,26=3/3(-5);
 2/9=110,15=1/2;
 6/7=2,8=2,9=2,10=2,19=2,28=1/1;
 99/9=1/99;
 Leave Link    1 at Thu Sep 24 14:39:38 2020, MaxMem=  2147483648 cpu:               0.1 elap:               0.0
 (Enter /prod/apps/gaussian/g16b1/l101.exe)
 -------------------
 SM45_m1.a.3.pdb.xyz
 -------------------
 Symbolic Z-matrix:
 Charge = -1 Multiplicity = 1
 O                    -3.592    -1.248    -1.558 
 S                    -2.539    -1.005    -0.536 
 N                    -1.165    -0.845    -1.339 
 C                     0.016    -0.595    -0.671 
 N                     0.197    -0.408     0.681 
 N                     1.468    -0.167     0.928 
 C                     1.262    -0.458    -1.274 
 N                     2.122    -0.192    -0.251 
 C                     3.527     0.028    -0.306 
 C                     4.289    -0.591    -1.301 
 C                     5.664    -0.359    -1.354 
 C                     6.279     0.47     -0.413 
 C                     5.508     1.076     0.584 
 C                     4.131     0.865     0.639 
 C                    -2.959     0.585     0.22 
 C                    -3.194     1.687    -0.611 
 C                    -3.519     2.919    -0.044 
 C                    -3.609     3.051     1.346 
 C                    -3.374     1.947     2.169 
 C                    -3.047     0.71      1.608 
 O                    -2.513    -1.992     0.58 
 H                     1.569    -0.493    -2.307 
 H                     3.818    -1.257    -2.016 
 H                     6.255    -0.839    -2.128 
 H                     7.35      0.644    -0.456 
 H                     5.977     1.725     1.317 
 H                     3.523     1.345     1.397 
 H                    -3.126     1.581    -1.689 
 H                    -3.704     3.775    -0.686 
 H                    -3.863     4.012     1.784 
 H                    -3.445     2.047     3.248 
 H                    -2.863    -0.155     2.235 
 
 ITRead=  0  0  0  0  0  0  0  0  0  0  0  0  0  0  0  0  0  0  0  0
 ITRead=  0  0  0  0  0  0  0  0  0  0  0  0
 MicOpt= -1 -1 -1 -1 -1 -1 -1 -1 -1 -1 -1 -1 -1 -1 -1 -1 -1 -1 -1 -1
 MicOpt= -1 -1 -1 -1 -1 -1 -1 -1 -1 -1 -1 -1
 NAtoms=     32 NQM=       32 NQMF=       0 NMMI=      0 NMMIF=      0
                NMic=       0 NMicF=      0.
                    Isotopes and Nuclear Properties:
 (Nuclear quadrupole moments (NQMom) in fm**2, nuclear magnetic moments (NMagM)
  in nuclear magnetons)

  Atom         1           2           3           4           5           6           7           8           9          10
 IAtWgt=          16          32          14          12          14          14          12          14          12          12
 AtmWgt=  15.9949146  31.9720718  14.0030740  12.0000000  14.0030740  14.0030740  12.0000000  14.0030740  12.0000000  12.0000000
 NucSpn=           0           0           2           0           2           2           0           2           0           0
 AtZEff=  -0.0000000  -0.0000000  -0.0000000  -0.0000000  -0.0000000  -0.0000000  -0.0000000  -0.0000000  -0.0000000  -0.0000000
 NQMom=    0.0000000   0.0000000   2.0440000   0.0000000   2.0440000   2.0440000   0.0000000   2.0440000   0.0000000   0.0000000
 NMagM=    0.0000000   0.0000000   0.4037610   0.0000000   0.4037610   0.4037610   0.0000000   0.4037610   0.0000000   0.0000000
 AtZNuc=   8.0000000  16.0000000   7.0000000   6.0000000   7.0000000   7.0000000   6.0000000   7.0000000   6.0000000   6.0000000

  Atom        11          12          13          14          15          16          17          18          19          20
 IAtWgt=          12          12          12          12          12          12          12          12          12          12
 AtmWgt=  12.0000000  12.0000000  12.0000000  12.0000000  12.0000000  12.0000000  12.0000000  12.0000000  12.0000000  12.0000000
 NucSpn=           0           0           0           0           0           0           0           0           0           0
 AtZEff=  -0.0000000  -0.0000000  -0.0000000  -0.0000000  -0.0000000  -0.0000000  -0.0000000  -0.0000000  -0.0000000  -0.0000000
 NQMom=    0.0000000   0.0000000   0.0000000   0.0000000   0.0000000   0.0000000   0.0000000   0.0000000   0.0000000   0.0000000
 NMagM=    0.0000000   0.0000000   0.0000000   0.0000000   0.0000000   0.0000000   0.0000000   0.0000000   0.0000000   0.0000000
 AtZNuc=   6.0000000   6.0000000   6.0000000   6.0000000   6.0000000   6.0000000   6.0000000   6.0000000   6.0000000   6.0000000

  Atom        21          22          23          24          25          26          27          28          29          30
 IAtWgt=          16           1           1           1           1           1           1           1           1           1
 AtmWgt=  15.9949146   1.0078250   1.0078250   1.0078250   1.0078250   1.0078250   1.0078250   1.0078250   1.0078250   1.0078250
 NucSpn=           0           1           1           1           1           1           1           1           1           1
 AtZEff=  -0.0000000  -0.0000000  -0.0000000  -0.0000000  -0.0000000  -0.0000000  -0.0000000  -0.0000000  -0.0000000  -0.0000000
 NQMom=    0.0000000   0.0000000   0.0000000   0.0000000   0.0000000   0.0000000   0.0000000   0.0000000   0.0000000   0.0000000
 NMagM=    0.0000000   2.7928460   2.7928460   2.7928460   2.7928460   2.7928460   2.7928460   2.7928460   2.7928460   2.7928460
 AtZNuc=   8.0000000   1.0000000   1.0000000   1.0000000   1.0000000   1.0000000   1.0000000   1.0000000   1.0000000   1.0000000

  Atom        31          32
 IAtWgt=           1           1
 AtmWgt=   1.0078250   1.0078250
 NucSpn=           1           1
 AtZEff=  -0.0000000  -0.0000000
 NQMom=    0.0000000   0.0000000
 NMagM=    2.7928460   2.7928460
 AtZNuc=   1.0000000   1.0000000
 Leave Link  101 at Thu Sep 24 14:39:38 2020, MaxMem=  2147483648 cpu:               2.1 elap:               0.5
 (Enter /prod/apps/gaussian/g16b1/l103.exe)

 GradGradGradGradGradGradGradGradGradGradGradGradGradGradGradGradGradGrad
 Berny optimization.
 Initialization pass.
                           ----------------------------
                           !    Initial Parameters    !
                           ! (Angstroms and Degrees)  !
 --------------------------                            --------------------------
 ! Name  Definition              Value          Derivative Info.                !
 --------------------------------------------------------------------------------
 ! R1    R(1,2)                  1.4874         estimate D2E/DX2                !
 ! R2    R(2,3)                  1.5995         estimate D2E/DX2                !
 ! R3    R(2,15)                 1.81           estimate D2E/DX2                !
 ! R4    R(2,21)                 1.4901         estimate D2E/DX2                !
 ! R5    R(3,4)                  1.3797         estimate D2E/DX2                !
 ! R6    R(4,5)                  1.3768         estimate D2E/DX2                !
 ! R7    R(4,7)                  1.391          estimate D2E/DX2                !
 ! R8    R(5,6)                  1.317          estimate D2E/DX2                !
 ! R9    R(6,8)                  1.3485         estimate D2E/DX2                !
 ! R10   R(7,8)                  1.3627         estimate D2E/DX2                !
 ! R11   R(7,22)                 1.0782         estimate D2E/DX2                !
 ! R12   R(8,9)                  1.4232         estimate D2E/DX2                !
 ! R13   R(9,10)                 1.3978         estimate D2E/DX2                !
 ! R14   R(9,14)                 1.3994         estimate D2E/DX2                !
 ! R15   R(10,11)                1.3954         estimate D2E/DX2                !
 ! R16   R(10,23)                1.0847         estimate D2E/DX2                !
 ! R17   R(11,12)                1.3968         estimate D2E/DX2                !
 ! R18   R(11,24)                1.0857         estimate D2E/DX2                !
 ! R19   R(12,13)                1.3985         estimate D2E/DX2                !
 ! R20   R(12,25)                1.0859         estimate D2E/DX2                !
 ! R21   R(13,14)                1.3942         estimate D2E/DX2                !
 ! R22   R(13,26)                1.0856         estimate D2E/DX2                !
 ! R23   R(14,27)                1.0838         estimate D2E/DX2                !
 ! R24   R(15,16)                1.4001         estimate D2E/DX2                !
 ! R25   R(15,20)                1.3964         estimate D2E/DX2                !
 ! R26   R(16,17)                1.3946         estimate D2E/DX2                !
 ! R27   R(16,28)                1.0853         estimate D2E/DX2                !
 ! R28   R(17,18)                1.3992         estimate D2E/DX2                !
 ! R29   R(17,29)                1.0859         estimate D2E/DX2                !
 ! R30   R(18,19)                1.3969         estimate D2E/DX2                !
 ! R31   R(18,30)                1.0862         estimate D2E/DX2                !
 ! R32   R(19,20)                1.3971         estimate D2E/DX2                !
 ! R33   R(19,31)                1.0859         estimate D2E/DX2                !
 ! R34   R(20,32)                1.0841         estimate D2E/DX2                !
 ! A1    A(1,2,3)              106.2328         estimate D2E/DX2                !
 ! A2    A(1,2,15)             105.4402         estimate D2E/DX2                !
 ! A3    A(1,2,21)             114.7559         estimate D2E/DX2                !
 ! A4    A(3,2,15)             108.7329         estimate D2E/DX2                !
 ! A5    A(3,2,21)             115.2952         estimate D2E/DX2                !
 ! A6    A(15,2,21)            105.8489         estimate D2E/DX2                !
 ! A7    A(2,3,4)              120.6897         estimate D2E/DX2                !
 ! A8    A(3,4,5)              127.7769         estimate D2E/DX2                !
 ! A9    A(3,4,7)              125.0805         estimate D2E/DX2                !
 ! A10   A(5,4,7)              107.1305         estimate D2E/DX2                !
 ! A11   A(4,5,6)              109.6265         estimate D2E/DX2                !
 ! A12   A(5,6,8)              107.4984         estimate D2E/DX2                !
 ! A13   A(4,7,8)              105.017          estimate D2E/DX2                !
 ! A14   A(4,7,22)             131.8488         estimate D2E/DX2                !
 ! A15   A(8,7,22)             123.0851         estimate D2E/DX2                !
 ! A16   A(6,8,7)              110.7268         estimate D2E/DX2                !
 ! A17   A(6,8,9)              120.6451         estimate D2E/DX2                !
 ! A18   A(7,8,9)              128.6243         estimate D2E/DX2                !
 ! A19   A(8,9,10)             119.8171         estimate D2E/DX2                !
 ! A20   A(8,9,14)             119.5017         estimate D2E/DX2                !
 ! A21   A(10,9,14)            120.6812         estimate D2E/DX2                !
 ! A22   A(9,10,11)            119.3781         estimate D2E/DX2                !
 ! A23   A(9,10,23)            120.2914         estimate D2E/DX2                !
 ! A24   A(11,10,23)           120.3244         estimate D2E/DX2                !
 ! A25   A(10,11,12)           120.4603         estimate D2E/DX2                !
 ! A26   A(10,11,24)           119.337          estimate D2E/DX2                !
 ! A27   A(12,11,24)           120.1988         estimate D2E/DX2                !
 ! A28   A(11,12,13)           119.6527         estimate D2E/DX2                !
 ! A29   A(11,12,25)           120.1781         estimate D2E/DX2                !
 ! A30   A(13,12,25)           120.1691         estimate D2E/DX2                !
 ! A31   A(12,13,14)           120.4694         estimate D2E/DX2                !
 ! A32   A(12,13,26)           120.1499         estimate D2E/DX2                !
 ! A33   A(14,13,26)           119.3774         estimate D2E/DX2                !
 ! A34   A(9,14,13)            119.3519         estimate D2E/DX2                !
 ! A35   A(9,14,27)            119.6727         estimate D2E/DX2                !
 ! A36   A(13,14,27)           120.9738         estimate D2E/DX2                !
 ! A37   A(2,15,16)            118.8473         estimate D2E/DX2                !
 ! A38   A(2,15,20)            120.5595         estimate D2E/DX2                !
 ! A39   A(16,15,20)           120.5932         estimate D2E/DX2                !
 ! A40   A(15,16,17)           119.5466         estimate D2E/DX2                !
 ! A41   A(15,16,28)           120.1419         estimate D2E/DX2                !
 ! A42   A(17,16,28)           120.3113         estimate D2E/DX2                !
 ! A43   A(16,17,18)           120.1482         estimate D2E/DX2                !
 ! A44   A(16,17,29)           119.7172         estimate D2E/DX2                !
 ! A45   A(18,17,29)           120.1345         estimate D2E/DX2                !
 ! A46   A(17,18,19)           119.9947         estimate D2E/DX2                !
 ! A47   A(17,18,30)           119.9407         estimate D2E/DX2                !
 ! A48   A(19,18,30)           120.0645         estimate D2E/DX2                !
 ! A49   A(18,19,20)           120.1694         estimate D2E/DX2                !
 ! A50   A(18,19,31)           120.1067         estimate D2E/DX2                !
 ! A51   A(20,19,31)           119.7239         estimate D2E/DX2                !
 ! A52   A(15,20,19)           119.5478         estimate D2E/DX2                !
 ! A53   A(15,20,32)           119.5232         estimate D2E/DX2                !
 ! A54   A(19,20,32)           120.9288         estimate D2E/DX2                !
 ! D1    D(1,2,3,4)            179.3997         estimate D2E/DX2                !
 ! D2    D(15,2,3,4)            66.3498         estimate D2E/DX2                !
 ! D3    D(21,2,3,4)           -52.2851         estimate D2E/DX2                !
 ! D4    D(1,2,15,16)          -51.4193         estimate D2E/DX2                !
 ! D5    D(1,2,15,20)          128.5816         estimate D2E/DX2                !
 ! D6    D(3,2,15,16)           62.1523         estimate D2E/DX2                !
 ! D7    D(3,2,15,20)         -117.8468         estimate D2E/DX2                !
 ! D8    D(21,2,15,16)        -173.4256         estimate D2E/DX2                !
 ! D9    D(21,2,15,20)           6.5754         estimate D2E/DX2                !
 ! D10   D(2,3,4,5)             -2.3411         estimate D2E/DX2                !
 ! D11   D(2,3,4,7)            179.0861         estimate D2E/DX2                !
 ! D12   D(3,4,5,6)           -178.7243         estimate D2E/DX2                !
 ! D13   D(7,4,5,6)              0.0536         estimate D2E/DX2                !
 ! D14   D(3,4,7,8)            178.6324         estimate D2E/DX2                !
 ! D15   D(3,4,7,22)             1.1907         estimate D2E/DX2                !
 ! D16   D(5,4,7,8)             -0.1873         estimate D2E/DX2                !
 ! D17   D(5,4,7,22)          -177.629          estimate D2E/DX2                !
 ! D18   D(4,5,6,8)              0.106          estimate D2E/DX2                !
 ! D19   D(5,6,8,7)             -0.233          estimate D2E/DX2                !
 ! D20   D(5,6,8,9)           -179.588          estimate D2E/DX2                !
 ! D21   D(4,7,8,6)              0.2596         estimate D2E/DX2                !
 ! D22   D(4,7,8,9)            179.5494         estimate D2E/DX2                !
 ! D23   D(22,7,8,6)           177.9853         estimate D2E/DX2                !
 ! D24   D(22,7,8,9)            -2.725          estimate D2E/DX2                !
 ! D25   D(6,8,9,10)           149.2537         estimate D2E/DX2                !
 ! D26   D(6,8,9,14)           -30.7999         estimate D2E/DX2                !
 ! D27   D(7,8,9,10)           -29.9742         estimate D2E/DX2                !
 ! D28   D(7,8,9,14)           149.9722         estimate D2E/DX2                !
 ! D29   D(8,9,10,11)          179.4052         estimate D2E/DX2                !
 ! D30   D(8,9,10,23)           -1.4997         estimate D2E/DX2                !
 ! D31   D(14,9,10,11)          -0.5405         estimate D2E/DX2                !
 ! D32   D(14,9,10,23)         178.5546         estimate D2E/DX2                !
 ! D33   D(8,9,14,13)          179.8602         estimate D2E/DX2                !
 ! D34   D(8,9,14,27)           -0.5958         estimate D2E/DX2                !
 ! D35   D(10,9,14,13)          -0.1938         estimate D2E/DX2                !
 ! D36   D(10,9,14,27)         179.3502         estimate D2E/DX2                !
 ! D37   D(9,10,11,12)           0.8038         estimate D2E/DX2                !
 ! D38   D(9,10,11,24)        -179.912          estimate D2E/DX2                !
 ! D39   D(23,10,11,12)       -178.291          estimate D2E/DX2                !
 ! D40   D(23,10,11,24)          0.9932         estimate D2E/DX2                !
 ! D41   D(10,11,12,13)         -0.332          estimate D2E/DX2                !
 ! D42   D(10,11,12,25)        179.739          estimate D2E/DX2                !
 ! D43   D(24,11,12,13)       -179.61           estimate D2E/DX2                !
 ! D44   D(24,11,12,25)          0.461          estimate D2E/DX2                !
 ! D45   D(11,12,13,14)         -0.4149         estimate D2E/DX2                !
 ! D46   D(11,12,13,26)       -179.7512         estimate D2E/DX2                !
 ! D47   D(25,12,13,14)        179.5141         estimate D2E/DX2                !
 ! D48   D(25,12,13,26)          0.1778         estimate D2E/DX2                !
 ! D49   D(12,13,14,9)           0.6738         estimate D2E/DX2                !
 ! D50   D(12,13,14,27)       -178.8641         estimate D2E/DX2                !
 ! D51   D(26,13,14,9)        -179.9848         estimate D2E/DX2                !
 ! D52   D(26,13,14,27)          0.4773         estimate D2E/DX2                !
 ! D53   D(2,15,16,17)         179.9843         estimate D2E/DX2                !
 ! D54   D(2,15,16,28)           0.1506         estimate D2E/DX2                !
 ! D55   D(20,15,16,17)         -0.0167         estimate D2E/DX2                !
 ! D56   D(20,15,16,28)       -179.8503         estimate D2E/DX2                !
 ! D57   D(2,15,20,19)        -179.9373         estimate D2E/DX2                !
 ! D58   D(2,15,20,32)          -0.0898         estimate D2E/DX2                !
 ! D59   D(16,15,20,19)          0.0636         estimate D2E/DX2                !
 ! D60   D(16,15,20,32)        179.9112         estimate D2E/DX2                !
 ! D61   D(15,16,17,18)          0.0072         estimate D2E/DX2                !
 ! D62   D(15,16,17,29)       -179.8636         estimate D2E/DX2                !
 ! D63   D(28,16,17,18)        179.8406         estimate D2E/DX2                !
 ! D64   D(28,16,17,29)         -0.0302         estimate D2E/DX2                !
 ! D65   D(16,17,18,19)         -0.045          estimate D2E/DX2                !
 ! D66   D(16,17,18,30)       -179.9606         estimate D2E/DX2                !
 ! D67   D(29,17,18,19)        179.8252         estimate D2E/DX2                !
 ! D68   D(29,17,18,30)         -0.0904         estimate D2E/DX2                !
 ! D69   D(17,18,19,20)          0.0924         estimate D2E/DX2                !
 ! D70   D(17,18,19,31)       -179.8971         estimate D2E/DX2                !
 ! D71   D(30,18,19,20)       -179.9921         estimate D2E/DX2                !
 ! D72   D(30,18,19,31)          0.0184         estimate D2E/DX2                !
 ! D73   D(18,19,20,15)         -0.1013         estimate D2E/DX2                !
 ! D74   D(18,19,20,32)       -179.9467         estimate D2E/DX2                !
 ! D75   D(31,19,20,15)        179.8882         estimate D2E/DX2                !
 ! D76   D(31,19,20,32)          0.0428         estimate D2E/DX2                !
 --------------------------------------------------------------------------------
 Trust Radius=3.00D-01 FncErr=1.00D-07 GrdErr=1.00D-06 EigMax=2.50D+02 EigMin=1.00D-04
 Number of steps in this run=    174 maximum allowed number of steps=    192.
 GradGradGradGradGradGradGradGradGradGradGradGradGradGradGradGradGradGrad

 Leave Link  103 at Thu Sep 24 14:39:38 2020, MaxMem=  2147483648 cpu:               0.0 elap:               0.0
 (Enter /prod/apps/gaussian/g16b1/l202.exe)
                          Input orientation:                          
 ---------------------------------------------------------------------
 Center     Atomic      Atomic             Coordinates (Angstroms)
 Number     Number       Type             X           Y           Z
 ---------------------------------------------------------------------
      1          8           0       -3.592000   -1.248000   -1.558000
      2         16           0       -2.539000   -1.005000   -0.536000
      3          7           0       -1.165000   -0.845000   -1.339000
      4          6           0        0.016000   -0.595000   -0.671000
      5          7           0        0.197000   -0.408000    0.681000
      6          7           0        1.468000   -0.167000    0.928000
      7          6           0        1.262000   -0.458000   -1.274000
      8          7           0        2.122000   -0.192000   -0.251000
      9          6           0        3.527000    0.028000   -0.306000
     10          6           0        4.289000   -0.591000   -1.301000
     11          6           0        5.664000   -0.359000   -1.354000
     12          6           0        6.279000    0.470000   -0.413000
     13          6           0        5.508000    1.076000    0.584000
     14          6           0        4.131000    0.865000    0.639000
     15          6           0       -2.959000    0.585000    0.220000
     16          6           0       -3.194000    1.687000   -0.611000
     17          6           0       -3.519000    2.919000   -0.044000
     18          6           0       -3.609000    3.051000    1.346000
     19          6           0       -3.374000    1.947000    2.169000
     20          6           0       -3.047000    0.710000    1.608000
     21          8           0       -2.513000   -1.992000    0.580000
     22          1           0        1.569000   -0.493000   -2.307000
     23          1           0        3.818000   -1.257000   -2.016000
     24          1           0        6.255000   -0.839000   -2.128000
     25          1           0        7.350000    0.644000   -0.456000
     26          1           0        5.977000    1.725000    1.317000
     27          1           0        3.523000    1.345000    1.397000
     28          1           0       -3.126000    1.581000   -1.689000
     29          1           0       -3.704000    3.775000   -0.686000
     30          1           0       -3.863000    4.012000    1.784000
     31          1           0       -3.445000    2.047000    3.248000
     32          1           0       -2.863000   -0.155000    2.235000
 ---------------------------------------------------------------------
                    Distance matrix (angstroms):
                    1          2          3          4          5
     1  O    0.000000
     2  S    1.487394   0.000000
     3  N    2.469959   1.599464   0.000000
     4  C    3.772379   2.591206   1.379668   0.000000
     5  N    4.480540   3.053391   2.475159   1.376820   0.000000
     6  N    5.740414   4.347596   3.540009   2.201883   1.317016
     7  C    4.926060   3.910429   2.458520   1.391005   2.226825
     8  N    5.955937   4.739949   3.523425   2.184959   2.149629
     9  C    7.340016   6.157625   4.883040   3.584477   3.500452
    10  C    7.912513   6.883183   5.460044   4.319195   4.550415
    11  C    9.300832   8.268957   6.846288   5.694040   5.833671
    12  C   10.084602   8.941358   7.615762   6.358141   6.241670
    13  C    9.633231   8.386845   7.205352   5.876166   5.515287
    14  C    8.302789   7.026124   5.906285   4.558610   4.135051
    15  C    2.630943   1.809982   2.773773   3.322184   3.340495
    16  C    3.109572   2.771554   3.325334   3.938937   4.190128
    17  C    4.434119   4.074339   4.624504   5.023699   5.040160
    18  C    5.187958   4.597604   5.325521   5.522882   5.185802
    19  C    4.913866   4.090056   4.998101   5.100928   4.529041
    20  C    3.762226   2.792136   3.826847   4.034704   3.554263
    21  O    2.507752   1.490067   2.610608   3.148405   3.140598
    22  H    5.269435   4.502694   2.921589   2.258032   3.289035
    23  H    7.424146   6.531872   5.045628   4.086866   4.594154
    24  H    9.871960   8.938482   7.461833   6.411514   6.691458
    25  H   11.158917  10.025863   8.689191   7.441028   7.318803
    26  H   10.424496   9.132840   8.041604   6.698363   6.193754
    27  H    8.128893   6.782834   5.853131   4.509908   3.827263
    28  H    2.870115   2.891604   3.139028   3.955182   4.540413
    29  H    5.099358   4.922207   5.311999   5.738948   5.880814
    30  H    6.237788   5.683807   6.373600   6.503700   6.102181
    31  H    5.828917   4.945118   5.882400   5.858092   5.087306
    32  H    4.014093   2.916491   4.016563   4.114253   3.441297
                    6          7          8          9         10
     6  N    0.000000
     7  C    2.230677   0.000000
     8  N    1.348474   1.362676   0.000000
     9  C    2.408373   2.510666   1.423183   0.000000
    10  C    3.620257   3.030041   2.440817   1.397795   0.000000
    11  C    4.780251   4.403840   3.713524   2.411398   1.395442
    12  C    5.034856   5.174243   4.212498   2.789322   2.423709
    13  C    4.240871   4.881991   3.710801   2.411382   2.796082
    14  C    2.870560   3.693380   2.438325   1.399432   2.430741
    15  C    4.545888   4.597470   5.161602   6.531089   7.498661
    16  C    5.247864   4.989642   5.649787   6.929441   7.852431
    17  C    5.944607   5.981220   6.445312   7.620541   8.652457
    18  C    6.025461   6.550124   6.775826   7.924022   9.091159
    19  C    5.427158   6.255459   6.374773   7.578389   8.786576
    20  C    4.649382   5.313909   5.566691   6.880843   7.998236
    21  O    4.393187   4.476728   5.041209   6.430163   7.195010
    22  H    3.252953   1.078222   2.150243   2.847667   2.901731
    23  H    3.921446   2.778867   2.669432   2.158705   1.084722
    24  H    5.718924   5.079816   4.585131   3.393134   2.147228
    25  H    6.096811   6.240775   5.298387   3.875214   3.407194
    26  H    4.905310   5.806031   4.581980   3.393588   3.881639
    27  H    2.594057   3.936645   2.653502   2.152839   3.407940
    28  H    5.568575   4.856366   5.723013   6.970431   7.736301
    29  H    6.700294   6.551732   7.061770   8.153022   9.128430
    30  H    6.827616   7.456399   7.591776   8.651731   9.856974
    31  H    5.867006   6.991377   6.946050   8.081835   9.352390
    32  H    4.523931   5.424068   5.570618   6.879118   7.990275
                   11         12         13         14         15
    11  C    0.000000
    12  C    1.396763   0.000000
    13  C    2.416486   1.398458   0.000000
    14  C    2.796482   2.424177   1.394157   0.000000
    15  C    8.816164   9.260376   8.489032   7.107887   0.000000
    16  C    9.121531   9.552906   8.804894   7.476216   1.400068
    17  C    9.838134  10.106165   9.234596   7.950340   2.414716
    18  C   10.242394  10.369580   9.359538   8.073788   2.787747
    19  C    9.970687  10.100924   9.064259   7.735415   2.413684
    20  C    9.262706   9.545487   8.623837   7.244768   1.396393
    21  O    8.559812   9.184049   8.587729   7.232473   2.639971
    22  H    4.206565   5.167079   5.131799   4.133633   5.296281
    23  H    2.156934   3.407148   3.880591   3.413192   7.370237
    24  H    1.085706   2.157610   3.402966   3.882175   9.614503
    25  H    2.157547   1.085894   2.158978   3.407320  10.331309
    26  H    3.402244   2.158502   1.085565   2.146392   9.074971
    27  H    3.880141   3.411343   2.161841   1.083803   6.631686
    28  H    9.007770   9.555968   8.942455   7.654821   2.159673
    29  H   10.261365  10.519403   9.682894   8.462325   3.398818
    30  H   10.941500  10.965069   9.893217   8.667103   3.873970
    31  H   10.485281  10.509330   9.391270   8.099369   3.397414
    32  H    9.253770   9.538275   8.620603   7.245940   2.148730
                   16         17         18         19         20
    16  C    0.000000
    17  C    1.394610   0.000000
    18  C    2.421274   1.399151   0.000000
    19  C    2.797928   2.421400   1.396914   0.000000
    20  C    2.429012   2.798494   2.421729   1.397075   0.000000
    21  O    3.926485   5.051666   5.217262   4.333816   2.939854
    22  H    5.505905   6.530747   7.260580   7.100805   6.171053
    23  H    7.733648   8.669448   9.220750   8.916541   8.008164
    24  H    9.897756  10.676924  11.157924  10.906129  10.143190
    25  H   10.596594  11.112179  11.364002  11.117221  10.600097
    26  H    9.371546   9.667056   9.677320   9.392358   9.085564
    27  H    7.019054   7.358242   7.333380   6.966132   6.603987
    28  H    1.085331   2.156552   3.406672   3.883249   3.411025
    29  H    2.150690   1.085875   2.159219   3.406099   3.884367
    30  H    3.404293   2.157445   1.086223   2.156750   3.405883
    31  H    3.883875   3.406336   2.156969   1.085948   2.153038
    32  H    3.406206   3.882480   3.409585   2.164228   1.084071
                   21         22         23         24         25
    21  O    0.000000
    22  H    5.219626   0.000000
    23  H    6.881933   2.392985   0.000000
    24  H    9.248811   4.702165   2.475124   0.000000
    25  H   10.261606   6.175673   4.303769   2.488754   0.000000
    26  H    9.297277   6.122366   4.966135   4.303418   2.489421
    27  H    6.945240   4.573399   4.301860   4.965814   4.309401
    28  H    4.276735   5.169761   7.508682   9.698056  10.589846
    29  H    6.023249   6.974811   9.147153  11.070232  11.491170
    30  H    6.270577   8.157079  10.059827  11.883176  11.920251
    31  H    4.929540   7.902520   9.559146  11.459510  11.498698
    32  H    2.497217   6.355048   7.995071  10.131217  10.591754
                   26         27         28         29         30
    26  H    0.000000
    27  H    2.484535   0.000000
    28  H    9.587564   7.334050   0.000000
    29  H   10.096349   7.904006   2.480671   0.000000
    30  H   10.113064   7.862293   4.302866   2.486433   0.000000
    31  H    9.623229   7.243758   4.969194   4.304581   2.485809
    32  H    9.084202   6.613111   4.298912   4.968342   4.308978
                   31         32
    31  H    0.000000
    32  H    2.492729   0.000000
 Symmetry turned off by external request.
 Stoichiometry    C14H11N4O2S(1-)
 Framework group  C1[X(C14H11N4O2S)]
 Deg. of freedom    90
 Full point group                 C1      NOp   1
 Rotational constants (GHZ):           0.6172144           0.1379295           0.1235967
 Leave Link  202 at Thu Sep 24 14:39:38 2020, MaxMem=  2147483648 cpu:               0.0 elap:               0.0
 (Enter /prod/apps/gaussian/g16b1/l301.exe)
 Standard basis: 6-31G(d) (6D, 7F)
 Ernie: Thresh=  0.10000D-02 Tol=  0.10000D-05 Strict=F.
   341 basis functions,   656 primitive gaussians,   341 cartesian basis functions
    78 alpha electrons       78 beta electrons
       nuclear repulsion energy      1693.9739644172 Hartrees.
 IExCor=  402 DFT=T Ex+Corr=B3LYP ExCW=0 ScaHFX=  0.200000
 ScaDFX=  0.800000  0.720000  1.000000  0.810000 ScalE2=  1.000000  1.000000
 IRadAn=      5 IRanWt=     -1 IRanGd=            0 ICorTp=0 IEmpDi=  4
 NAtoms=   32 NActive=   32 NUniq=   32 SFac= 1.00D+00 NAtFMM=   60 NAOKFM=F Big=F
 Integral buffers will be    131072 words long.
 Raffenetti 2 integral format.
 Two-electron integral symmetry is turned off.
 Using the following non-standard input for PCM:
 MSTModel=DFT cav MSTcharged
 --- end of non-standard input.
 MST model for solvation energy: B3LYP parametrization.
 MST cavity parameters:
 ISph   IAn     Re0     Alpha   Atom Type   QCorr
 ------------------------------------------------
   1      8     1.40     1.25      O          F
   2     16     1.75     1.25      S          F
   3      7     1.40     1.15      N          T
   4      6     1.50     1.25      C          F
   5      7     1.40     1.25      N          F
   6      7     1.40     1.25      N          F
   7      6     1.50     1.25      CH         F
   8      7     1.40     1.25      N          F
   9      6     1.50     1.25      C          F
  10      6     1.50     1.25      CH         F
  11      6     1.50     1.25      CH         F
  12      6     1.50     1.25      CH         F
  13      6     1.50     1.25      CH         F
  14      6     1.50     1.25      CH         F
  15      6     1.50     1.25      C          F
  16      6     1.50     1.25      CH         F
  17      6     1.50     1.25      CH         F
  18      6     1.50     1.25      CH         F
  19      6     1.50     1.25      CH         F
  20      6     1.50     1.25      CH         F
  21      8     1.40     1.25      O          F
  22      1     1.20     1.25      CH         F
  23      1     1.20     1.25      CH         F
  24      1     1.20     1.25      CH         F
  25      1     1.20     1.25      CH         F
  26      1     1.20     1.25      CH         F
  27      1     1.20     1.25      CH         F
  28      1     1.20     1.25      CH         F
  29      1     1.20     1.25      CH         F
  30      1     1.20     1.25      CH         F
  31      1     1.20     1.25      CH         F
  32      1     1.20     1.25      CH         F
 ------------------------------------------------------------------------------
 Polarizable Continuum Model (PCM)
 =================================
 Model                : PCM.
 Atomic radii         : MST.
 Polarization charges : Total charges.
 Charge compensation  : None.
 Solution method      : On-the-fly selection.
 Cavity type          : Scaled VdW (van der Waals Surface) (Alpha=1.250).
 Cavity algorithm     : GePol (No added spheres)
                        Default sphere list used, NSphG=   32.
                        Lebedev-Laikov grids with approx.  5.0 points / Ang**2.
                        Smoothing algorithm: York/Karplus (Gamma=1.0000).
                        Polarization charges: spherical gaussians, with
                                              point-specific exponents (IZeta= 3).
                        Self-potential: point-specific (ISelfS= 7).
                        Self-field    : sphere-specific E.n sum rule (ISelfD= 2).
 1st derivatives      : Analytical E(r).r(x)/FMM algorithm (CHGder, D1EAlg=3).
                        Cavity 1st derivative terms included.
 Solvent              : Water, Eps=  78.355300 Eps(inf)=   1.777849
 ------------------------------------------------------------------------------
 GePol: Number of generator spheres                  =      32
 GePol: Total number of spheres                      =      32
 GePol: Number of exposed spheres                    =      32 (100.00%)
 GePol: Number of points                             =    2616
 GePol: Average weight of points                     =       0.13
 GePol: Minimum weight of points                     =   0.16D-09
 GePol: Maximum weight of points                     =    0.22001
 GePol: Number of points with low weight             =     167
 GePol: Fraction of low-weight points (<1% of avg)   =       6.38%
 GePol: Cavity surface area                          =    337.828 Ang**2
 GePol: Cavity volume                                =    318.824 Ang**3
 PCM non-electrostatic energy =         0.0038922319 Hartrees.
 Nuclear repulsion after PCM non-electrostatic terms =     1693.9778566491 Hartrees.
 Leave Link  301 at Thu Sep 24 14:39:38 2020, MaxMem=  2147483648 cpu:               0.3 elap:               0.1
 (Enter /prod/apps/gaussian/g16b1/l302.exe)
 NPDir=0 NMtPBC=     1 NCelOv=     1 NCel=       1 NClECP=     1 NCelD=      1
         NCelK=      1 NCelE2=     1 NClLst=     1 CellRange=     0.0.
 One-electron integrals computed using PRISM.
 NBasis=   341 RedAO= T EigKep=  4.71D-04  NBF=   341
 NBsUse=   341 1.00D-06 EigRej= -1.00D+00 NBFU=   341
 Precomputing XC quadrature grid using
 IXCGrd= 4 IRadAn=           5 IRanWt=          -1 IRanGd=           0 AccXCQ= 0.00D+00.
 Generated NRdTot=       0 NPtTot=           0 NUsed=           0 NTot=          32
 NSgBfM=   336   336   336   336   336 MxSgAt=    32 MxSgA2=    32.
 Leave Link  302 at Thu Sep 24 14:39:39 2020, MaxMem=  2147483648 cpu:               1.5 elap:               0.4
 (Enter /prod/apps/gaussian/g16b1/l303.exe)
 DipDrv:  MaxL=1.
 Leave Link  303 at Thu Sep 24 14:39:39 2020, MaxMem=  2147483648 cpu:               0.2 elap:               0.0
 (Enter /prod/apps/gaussian/g16b1/l401.exe)
 ExpMin= 1.17D-01 ExpMax= 2.19D+04 ExpMxC= 3.30D+03 IAcc=3 IRadAn=         5 AccDes= 0.00D+00
 Harris functional with IExCor=  402 and IRadAn=       5 diagonalized for initial guess.
 HarFok:  IExCor=  402 AccDes= 0.00D+00 IRadAn=         5 IDoV= 1 UseB2=F ITyADJ=14
 ICtDFT=  3500011 ScaDFX=  1.000000  1.000000  1.000000  1.000000
 FoFCou: FMM=F IPFlag=           0 FMFlag=      100000 FMFlg1=           0
         NFxFlg=           0 DoJE=T BraDBF=F KetDBF=T FulRan=T
         wScrn=  0.000000 ICntrl=       500 IOpCl=  0 I1Cent=   200000004 NGrid=           0
         NMat0=    1 NMatS0=      1 NMatT0=    0 NMatD0=    1 NMtDS0=    0 NMtDT0=    0
 Symmetry not used in FoFCou.
 Harris En= -1307.83623217043    
 JPrj=0 DoOrth=F DoCkMO=F.
 Leave Link  401 at Thu Sep 24 14:39:41 2020, MaxMem=  2147483648 cpu:               8.7 elap:               2.2
 (Enter /prod/apps/gaussian/g16b1/l502.exe)
 Two-electron integral symmetry not used.
 Closed shell SCF:
 Using DIIS extrapolation, IDIIS=  1040.
 NGot=  2147483648 LenX=  2147246177 LenY=  2147129455
 Requested convergence on RMS density matrix=1.00D-08 within2000 cycles.
 Requested convergence on MAX density matrix=1.00D-06.
 Requested convergence on             energy=1.00D-06.
 No special actions if energy rises.

 Cycle   1  Pass 1  IDiag  1:
 FoFJK:  IHMeth= 1 ICntrl=       0 DoSepK=F KAlg= 0 I1Cent=           0 FoldK=F
 IRaf= 710000000 NMat=       1 IRICut=       1 DoRegI=T DoRafI=F ISym2E= 0 IDoP0=0 IntGTp=1.
 FoFCou: FMM=F IPFlag=           0 FMFlag=      100000 FMFlg1=           0
         NFxFlg=           0 DoJE=F BraDBF=F KetDBF=F FulRan=T
         wScrn=  0.000000 ICntrl=         0 IOpCl=  0 I1Cent=           0 NGrid=           0
         NMat0=    1 NMatS0=      1 NMatT0=    0 NMatD0=    1 NMtDS0=    0 NMtDT0=    0
 Symmetry not used in FoFCou.
 Inv3:  Mode=1 IEnd=    20530368.
 Iteration    1 A*A^-1 deviation from unit magnitude is 3.11D-15 for   2382.
 Iteration    1 A*A^-1 deviation from orthogonality  is 3.11D-15 for   2447   1490.
 Iteration    1 A^-1*A deviation from unit magnitude is 3.33D-15 for   1993.
 Iteration    1 A^-1*A deviation from orthogonality  is 5.69D-13 for   1402   1353.
 E= -1307.19847659594    
 DIIS: error= 2.63D-02 at cycle   1 NSaved=   1.
 NSaved= 1 IEnMin= 1 EnMin= -1307.19847659594     IErMin= 1 ErrMin= 2.63D-02
 ErrMax= 2.63D-02  0.00D+00 EMaxC= 1.00D-01 BMatC= 6.81D-01 BMatP= 6.81D-01
 IDIUse=3 WtCom= 7.37D-01 WtEn= 2.63D-01
 Coeff-Com:  0.100D+01
 Coeff-En:   0.100D+01
 Coeff:      0.100D+01
 Gap=     0.206 Goal=   None    Shift=    0.000
 GapD=    0.206 DampG=1.000 DampE=0.500 DampFc=0.5000 IDamp=-1.
 Damping current iteration by 5.00D-01
 RMSDP=5.90D-03 MaxDP=5.18D-01              OVMax= 1.97D-01

 Cycle   2  Pass 1  IDiag  1:
 E= -1307.38623254229     Delta-E=       -0.187755946350 Rises=F Damp=T
 DIIS: error= 1.01D-02 at cycle   2 NSaved=   2.
 NSaved= 2 IEnMin= 2 EnMin= -1307.38623254229     IErMin= 2 ErrMin= 1.01D-02
 ErrMax= 1.01D-02  0.00D+00 EMaxC= 1.00D-01 BMatC= 8.46D-02 BMatP= 6.81D-01
 IDIUse=3 WtCom= 8.99D-01 WtEn= 1.01D-01
 Coeff-Com:  0.192D+00 0.808D+00
 Coeff-En:   0.308D+00 0.692D+00
 Coeff:      0.204D+00 0.796D+00
 Gap=     0.193 Goal=   None    Shift=    0.000
 RMSDP=1.67D-03 MaxDP=1.26D-01 DE=-1.88D-01 OVMax= 1.66D-01

 Cycle   3  Pass 1  IDiag  1:
 E= -1307.75877655595     Delta-E=       -0.372544013661 Rises=F Damp=F
 DIIS: error= 6.59D-03 at cycle   3 NSaved=   3.
 NSaved= 3 IEnMin= 3 EnMin= -1307.75877655595     IErMin= 3 ErrMin= 6.59D-03
 ErrMax= 6.59D-03  0.00D+00 EMaxC= 1.00D-01 BMatC= 4.16D-02 BMatP= 8.46D-02
 IDIUse=3 WtCom= 9.34D-01 WtEn= 6.59D-02
 Coeff-Com:  0.407D-01 0.409D+00 0.550D+00
 Coeff-En:   0.000D+00 0.000D+00 0.100D+01
 Coeff:      0.380D-01 0.382D+00 0.580D+00
 Gap=     0.160 Goal=   None    Shift=    0.000
 RMSDP=8.70D-04 MaxDP=3.76D-02 DE=-3.73D-01 OVMax= 4.58D-02

 Cycle   4  Pass 1  IDiag  1:
 E= -1307.79209458990     Delta-E=       -0.033318033947 Rises=F Damp=F
 DIIS: error= 3.29D-03 at cycle   4 NSaved=   4.
 NSaved= 4 IEnMin= 4 EnMin= -1307.79209458990     IErMin= 4 ErrMin= 3.29D-03
 ErrMax= 3.29D-03  0.00D+00 EMaxC= 1.00D-01 BMatC= 6.60D-03 BMatP= 4.16D-02
 IDIUse=3 WtCom= 9.67D-01 WtEn= 3.29D-02
 Coeff-Com:  0.110D-02 0.984D-01 0.311D+00 0.589D+00
 Coeff-En:   0.000D+00 0.000D+00 0.118D+00 0.882D+00
 Coeff:      0.106D-02 0.952D-01 0.305D+00 0.599D+00
 Gap=     0.158 Goal=   None    Shift=    0.000
 RMSDP=2.96D-04 MaxDP=1.41D-02 DE=-3.33D-02 OVMax= 1.83D-02

 Cycle   5  Pass 1  IDiag  1:
 E= -1307.79760846044     Delta-E=       -0.005513870535 Rises=F Damp=F
 DIIS: error= 1.07D-03 at cycle   5 NSaved=   5.
 NSaved= 5 IEnMin= 5 EnMin= -1307.79760846044     IErMin= 5 ErrMin= 1.07D-03
 ErrMax= 1.07D-03  0.00D+00 EMaxC= 1.00D-01 BMatC= 7.14D-04 BMatP= 6.60D-03
 IDIUse=3 WtCom= 9.89D-01 WtEn= 1.07D-02
 Coeff-Com: -0.282D-02 0.187D-01 0.117D+00 0.331D+00 0.536D+00
 Coeff-En:   0.000D+00 0.000D+00 0.000D+00 0.306D-01 0.969D+00
 Coeff:     -0.279D-02 0.185D-01 0.115D+00 0.328D+00 0.541D+00
 Gap=     0.160 Goal=   None    Shift=    0.000
 RMSDP=9.29D-05 MaxDP=5.42D-03 DE=-5.51D-03 OVMax= 6.60D-03

 Cycle   6  Pass 1  IDiag  1:
 E= -1307.79821670559     Delta-E=       -0.000608245150 Rises=F Damp=F
 DIIS: error= 2.18D-04 at cycle   6 NSaved=   6.
 NSaved= 6 IEnMin= 6 EnMin= -1307.79821670559     IErMin= 6 ErrMin= 2.18D-04
 ErrMax= 2.18D-04  0.00D+00 EMaxC= 1.00D-01 BMatC= 4.98D-05 BMatP= 7.14D-04
 IDIUse=3 WtCom= 9.98D-01 WtEn= 2.18D-03
 Coeff-Com: -0.161D-02 0.365D-02 0.403D-01 0.131D+00 0.291D+00 0.535D+00
 Coeff-En:   0.000D+00 0.000D+00 0.000D+00 0.000D+00 0.000D+00 0.100D+01
 Coeff:     -0.160D-02 0.365D-02 0.402D-01 0.131D+00 0.290D+00 0.537D+00
 Gap=     0.159 Goal=   None    Shift=    0.000
 RMSDP=2.42D-05 MaxDP=1.30D-03 DE=-6.08D-04 OVMax= 1.93D-03

 Cycle   7  Pass 1  IDiag  1:
 E= -1307.79825759062     Delta-E=       -0.000040885029 Rises=F Damp=F
 DIIS: error= 7.26D-05 at cycle   7 NSaved=   7.
 NSaved= 7 IEnMin= 7 EnMin= -1307.79825759062     IErMin= 7 ErrMin= 7.26D-05
 ErrMax= 7.26D-05  0.00D+00 EMaxC= 1.00D-01 BMatC= 3.57D-06 BMatP= 4.98D-05
 IDIUse=1 WtCom= 1.00D+00 WtEn= 0.00D+00
 Coeff-Com: -0.666D-03 0.422D-03 0.124D-01 0.445D-01 0.115D+00 0.286D+00
 Coeff-Com:  0.542D+00
 Coeff:     -0.666D-03 0.422D-03 0.124D-01 0.445D-01 0.115D+00 0.286D+00
 Coeff:      0.542D+00
 Gap=     0.159 Goal=   None    Shift=    0.000
 RMSDP=6.72D-06 MaxDP=3.39D-04 DE=-4.09D-05 OVMax= 4.50D-04

 Cycle   8  Pass 1  IDiag  1:
 E= -1307.79826038830     Delta-E=       -0.000002797688 Rises=F Damp=F
 DIIS: error= 3.17D-05 at cycle   8 NSaved=   8.
 NSaved= 8 IEnMin= 8 EnMin= -1307.79826038830     IErMin= 8 ErrMin= 3.17D-05
 ErrMax= 3.17D-05  0.00D+00 EMaxC= 1.00D-01 BMatC= 4.19D-07 BMatP= 3.57D-06
 IDIUse=1 WtCom= 1.00D+00 WtEn= 0.00D+00
 Coeff-Com: -0.217D-03-0.186D-03 0.268D-02 0.112D-01 0.346D-01 0.105D+00
 Coeff-Com:  0.305D+00 0.542D+00
 Coeff:     -0.217D-03-0.186D-03 0.268D-02 0.112D-01 0.346D-01 0.105D+00
 Coeff:      0.305D+00 0.542D+00
 Gap=     0.159 Goal=   None    Shift=    0.000
 RMSDP=2.52D-06 MaxDP=1.09D-04 DE=-2.80D-06 OVMax= 1.97D-04

 Cycle   9  Pass 1  IDiag  1:
 E= -1307.79826074304     Delta-E=       -0.000000354737 Rises=F Damp=F
 DIIS: error= 9.09D-06 at cycle   9 NSaved=   9.
 NSaved= 9 IEnMin= 9 EnMin= -1307.79826074304     IErMin= 9 ErrMin= 9.09D-06
 ErrMax= 9.09D-06  0.00D+00 EMaxC= 1.00D-01 BMatC= 4.79D-08 BMatP= 4.19D-07
 IDIUse=1 WtCom= 1.00D+00 WtEn= 0.00D+00
 Coeff-Com: -0.181D-04-0.124D-03-0.330D-03-0.542D-03 0.184D-02 0.142D-01
 Coeff-Com:  0.838D-01 0.297D+00 0.604D+00
 Coeff:     -0.181D-04-0.124D-03-0.330D-03-0.542D-03 0.184D-02 0.142D-01
 Coeff:      0.838D-01 0.297D+00 0.604D+00
 Gap=     0.159 Goal=   None    Shift=    0.000
 RMSDP=8.11D-07 MaxDP=4.90D-05 DE=-3.55D-07 OVMax= 7.51D-05

 Cycle  10  Pass 1  IDiag  1:
 E= -1307.79826078386     Delta-E=       -0.000000040816 Rises=F Damp=F
 DIIS: error= 3.20D-06 at cycle  10 NSaved=  10.
 NSaved=10 IEnMin=10 EnMin= -1307.79826078386     IErMin=10 ErrMin= 3.20D-06
 ErrMax= 3.20D-06  0.00D+00 EMaxC= 1.00D-01 BMatC= 6.01D-09 BMatP= 4.79D-08
 IDIUse=1 WtCom= 1.00D+00 WtEn= 0.00D+00
 Coeff-Com:  0.582D-06-0.655D-04-0.364D-03-0.104D-02-0.103D-02 0.180D-02
 Coeff-Com:  0.311D-01 0.146D+00 0.368D+00 0.455D+00
 Coeff:      0.582D-06-0.655D-04-0.364D-03-0.104D-02-0.103D-02 0.180D-02
 Coeff:      0.311D-01 0.146D+00 0.368D+00 0.455D+00
 Gap=     0.159 Goal=   None    Shift=    0.000
 RMSDP=2.58D-07 MaxDP=1.51D-05 DE=-4.08D-08 OVMax= 2.11D-05

 Cycle  11  Pass 1  IDiag  1:
 E= -1307.79826078922     Delta-E=       -0.000000005366 Rises=F Damp=F
 DIIS: error= 5.71D-07 at cycle  11 NSaved=  11.
 NSaved=11 IEnMin=11 EnMin= -1307.79826078922     IErMin=11 ErrMin= 5.71D-07
 ErrMax= 5.71D-07  0.00D+00 EMaxC= 1.00D-01 BMatC= 2.64D-10 BMatP= 6.01D-09
 IDIUse=1 WtCom= 1.00D+00 WtEn= 0.00D+00
 Coeff-Com:  0.238D-05-0.103D-04-0.139D-03-0.470D-03-0.846D-03-0.136D-02
 Coeff-Com:  0.300D-02 0.284D-01 0.939D-01 0.199D+00 0.679D+00
 Coeff:      0.238D-05-0.103D-04-0.139D-03-0.470D-03-0.846D-03-0.136D-02
 Coeff:      0.300D-02 0.284D-01 0.939D-01 0.199D+00 0.679D+00
 Gap=     0.159 Goal=   None    Shift=    0.000
 RMSDP=7.11D-08 MaxDP=2.73D-06 DE=-5.37D-09 OVMax= 5.85D-06

 Cycle  12  Pass 1  IDiag  1:
 E= -1307.79826078939     Delta-E=       -0.000000000170 Rises=F Damp=F
 DIIS: error= 3.31D-07 at cycle  12 NSaved=  12.
 NSaved=12 IEnMin=12 EnMin= -1307.79826078939     IErMin=12 ErrMin= 3.31D-07
 ErrMax= 3.31D-07  0.00D+00 EMaxC= 1.00D-01 BMatC= 8.30D-11 BMatP= 2.64D-10
 IDIUse=1 WtCom= 1.00D+00 WtEn= 0.00D+00
 Coeff-Com:  0.107D-05 0.137D-05-0.410D-04-0.158D-03-0.368D-03-0.975D-03
 Coeff-Com: -0.159D-02 0.790D-03 0.143D-01 0.627D-01 0.413D+00 0.512D+00
 Coeff:      0.107D-05 0.137D-05-0.410D-04-0.158D-03-0.368D-03-0.975D-03
 Coeff:     -0.159D-02 0.790D-03 0.143D-01 0.627D-01 0.413D+00 0.512D+00
 Gap=     0.159 Goal=   None    Shift=    0.000
 RMSDP=2.99D-08 MaxDP=1.54D-06 DE=-1.70D-10 OVMax= 2.97D-06

 Cycle  13  Pass 1  IDiag  1:
 E= -1307.79826078945     Delta-E=       -0.000000000056 Rises=F Damp=F
 DIIS: error= 6.64D-08 at cycle  13 NSaved=  13.
 NSaved=13 IEnMin=13 EnMin= -1307.79826078945     IErMin=13 ErrMin= 6.64D-08
 ErrMax= 6.64D-08  0.00D+00 EMaxC= 1.00D-01 BMatC= 3.09D-12 BMatP= 8.30D-11
 IDIUse=1 WtCom= 1.00D+00 WtEn= 0.00D+00
 Coeff-Com:  0.257D-06 0.146D-05-0.692D-05-0.314D-04-0.949D-04-0.325D-03
 Coeff-Com: -0.947D-03-0.194D-02-0.209D-02 0.841D-02 0.120D+00 0.222D+00
 Coeff-Com:  0.656D+00
 Coeff:      0.257D-06 0.146D-05-0.692D-05-0.314D-04-0.949D-04-0.325D-03
 Coeff:     -0.947D-03-0.194D-02-0.209D-02 0.841D-02 0.120D+00 0.222D+00
 Coeff:      0.656D+00
 Gap=     0.159 Goal=   None    Shift=    0.000
 RMSDP=8.07D-09 MaxDP=3.62D-07 DE=-5.64D-11 OVMax= 5.25D-07

 Error on total polarization charges =  0.02469
 SCF Done:  E(RB3LYP) =  -1307.79826079     A.U. after   13 cycles
            NFock= 13  Conv=0.81D-08     -V/T= 2.0077
 KE= 1.297764232494D+03 PE=-6.472189404916D+03 EE= 2.172649054983D+03
 Leave Link  502 at Thu Sep 24 14:40:55 2020, MaxMem=  2147483648 cpu:             294.9 elap:              73.8
 (Enter /prod/apps/gaussian/g16b1/l601.exe)
 Copying SCF densities to generalized density rwf, IOpCl= 0 IROHF=0.

 **********************************************************************

            Population analysis using the SCF Density.

 **********************************************************************

 Alpha  occ. eigenvalues --  -89.08572 -19.11598 -19.11346 -14.42905 -14.38471
 Alpha  occ. eigenvalues --  -14.34555 -14.29831 -10.24510 -10.24062 -10.21425
 Alpha  occ. eigenvalues --  -10.21187 -10.20190 -10.20019 -10.20013 -10.19879
 Alpha  occ. eigenvalues --  -10.19842 -10.19820 -10.19650 -10.19585 -10.19583
 Alpha  occ. eigenvalues --  -10.19541  -8.10952  -6.07446  -6.07351  -6.07321
 Alpha  occ. eigenvalues --   -1.09085  -1.07656  -0.96341  -0.92660  -0.88341
 Alpha  occ. eigenvalues --   -0.86005  -0.85217  -0.78545  -0.75911  -0.75598
 Alpha  occ. eigenvalues --   -0.75117  -0.74969  -0.65834  -0.65170  -0.62431
 Alpha  occ. eigenvalues --   -0.60982  -0.60146  -0.58804  -0.56594  -0.54745
 Alpha  occ. eigenvalues --   -0.51856  -0.49890  -0.48362  -0.47817  -0.46881
 Alpha  occ. eigenvalues --   -0.46291  -0.45210  -0.44612  -0.44357  -0.43689
 Alpha  occ. eigenvalues --   -0.42928  -0.42583  -0.42418  -0.38296  -0.37574
 Alpha  occ. eigenvalues --   -0.36907  -0.36788  -0.35648  -0.35087  -0.34737
 Alpha  occ. eigenvalues --   -0.33165  -0.31704  -0.31254  -0.29689  -0.29108
 Alpha  occ. eigenvalues --   -0.28305  -0.27668  -0.26134  -0.25819  -0.25636
 Alpha  occ. eigenvalues --   -0.24670  -0.24469  -0.19219
 Alpha virt. eigenvalues --   -0.03312  -0.01987  -0.01092  -0.00681   0.02368
 Alpha virt. eigenvalues --    0.06424   0.08622   0.09470   0.11782   0.12503
 Alpha virt. eigenvalues --    0.13448   0.13694   0.14935   0.15251   0.15410
 Alpha virt. eigenvalues --    0.15719   0.16580   0.17331   0.18695   0.18926
 Alpha virt. eigenvalues --    0.19120   0.19310   0.20353   0.20904   0.22899
 Alpha virt. eigenvalues --    0.24115   0.25985   0.28495   0.29895   0.30220
 Alpha virt. eigenvalues --    0.30500   0.31405   0.31841   0.33348   0.34175
 Alpha virt. eigenvalues --    0.34476   0.37380   0.38888   0.39435   0.43166
 Alpha virt. eigenvalues --    0.43903   0.46341   0.48407   0.50465   0.51052
 Alpha virt. eigenvalues --    0.51898   0.52600   0.52935   0.53536   0.54550
 Alpha virt. eigenvalues --    0.55686   0.56288   0.56608   0.57043   0.57982
 Alpha virt. eigenvalues --    0.58152   0.58603   0.58708   0.59043   0.59213
 Alpha virt. eigenvalues --    0.59986   0.60446   0.60697   0.61041   0.61296
 Alpha virt. eigenvalues --    0.61348   0.62603   0.63293   0.63813   0.64219
 Alpha virt. eigenvalues --    0.64795   0.66245   0.68357   0.69146   0.71159
 Alpha virt. eigenvalues --    0.72686   0.73655   0.76109   0.76891   0.78819
 Alpha virt. eigenvalues --    0.78921   0.80534   0.80831   0.81683   0.82463
 Alpha virt. eigenvalues --    0.83327   0.83939   0.84115   0.84365   0.84504
 Alpha virt. eigenvalues --    0.85014   0.86454   0.87667   0.88014   0.90431
 Alpha virt. eigenvalues --    0.90550   0.91485   0.92136   0.92763   0.93339
 Alpha virt. eigenvalues --    0.93636   0.94511   0.95267   0.96566   0.98195
 Alpha virt. eigenvalues --    0.99984   1.00364   1.01193   1.02695   1.03548
 Alpha virt. eigenvalues --    1.05126   1.05552   1.06762   1.07246   1.09516
 Alpha virt. eigenvalues --    1.09893   1.11397   1.12953   1.13813   1.15898
 Alpha virt. eigenvalues --    1.16241   1.16982   1.17955   1.19061   1.21283
 Alpha virt. eigenvalues --    1.22359   1.23639   1.25965   1.26280   1.26621
 Alpha virt. eigenvalues --    1.28612   1.31654   1.33446   1.35383   1.38166
 Alpha virt. eigenvalues --    1.41119   1.41818   1.42117   1.42575   1.43500
 Alpha virt. eigenvalues --    1.44168   1.44976   1.46502   1.47078   1.48276
 Alpha virt. eigenvalues --    1.48540   1.49944   1.50323   1.50583   1.54689
 Alpha virt. eigenvalues --    1.56795   1.58993   1.60055   1.64388   1.67744
 Alpha virt. eigenvalues --    1.70480   1.73953   1.76506   1.78358   1.79189
 Alpha virt. eigenvalues --    1.80287   1.80708   1.81501   1.82664   1.83319
 Alpha virt. eigenvalues --    1.83751   1.86112   1.87259   1.88666   1.89131
 Alpha virt. eigenvalues --    1.89817   1.91966   1.93428   1.94747   1.95577
 Alpha virt. eigenvalues --    1.96646   1.97689   1.98915   2.01397   2.01667
 Alpha virt. eigenvalues --    2.02729   2.05760   2.07812   2.10172   2.10727
 Alpha virt. eigenvalues --    2.11376   2.11662   2.13296   2.13333   2.14250
 Alpha virt. eigenvalues --    2.14832   2.15390   2.16404   2.16423   2.18439
 Alpha virt. eigenvalues --    2.21012   2.23803   2.25213   2.26153   2.27877
 Alpha virt. eigenvalues --    2.29060   2.29773   2.30234   2.31419   2.32586
 Alpha virt. eigenvalues --    2.33349   2.34315   2.36509   2.48104   2.49325
 Alpha virt. eigenvalues --    2.51922   2.54205   2.55485   2.57990   2.58221
 Alpha virt. eigenvalues --    2.59140   2.61226   2.64276   2.64453   2.66001
 Alpha virt. eigenvalues --    2.67285   2.68284   2.71015   2.71193   2.72767
 Alpha virt. eigenvalues --    2.73032   2.73241   2.74064   2.76025   2.77927
 Alpha virt. eigenvalues --    2.81296   2.83053   2.85404   2.88528   2.90034
 Alpha virt. eigenvalues --    3.03744   3.04360   3.07629   3.16162   3.26033
 Alpha virt. eigenvalues --    3.37666   3.42111   3.64048   3.81554   3.96954
 Alpha virt. eigenvalues --    4.03831   4.06057   4.08040   4.08998   4.10675
 Alpha virt. eigenvalues --    4.10846   4.11852   4.14278   4.16120   4.22046
 Alpha virt. eigenvalues --    4.29089   4.32046   4.33134   4.36541   4.40442
 Alpha virt. eigenvalues --    4.49088   4.66314   4.71266
          Condensed to atoms (all electrons):
               1          2          3          4          5          6
     1  O    8.371278   0.448477  -0.070593   0.001126  -0.000040   0.000000
     2  S    0.448477  13.679305   0.290029  -0.022836   0.004365   0.000344
     3  N   -0.070593   0.290029   7.448888   0.355943  -0.074976   0.005819
     4  C    0.001126  -0.022836   0.355943   4.540351   0.338386  -0.079520
     5  N   -0.000040   0.004365  -0.074976   0.338386   7.055654   0.264259
     6  N    0.000000   0.000344   0.005819  -0.079520   0.264259   6.841642
     7  C   -0.000048  -0.000783  -0.065868   0.506478  -0.077893  -0.098058
     8  N    0.000000   0.000357   0.002337  -0.025385  -0.096215   0.226877
     9  C   -0.000000  -0.000015  -0.000098   0.003722   0.006785  -0.041021
    10  C    0.000000   0.000001   0.000002   0.000810  -0.000311   0.002521
    11  C   -0.000000  -0.000000   0.000000  -0.000006   0.000002  -0.000075
    12  C   -0.000000  -0.000000  -0.000000   0.000000  -0.000000   0.000019
    13  C   -0.000000   0.000000  -0.000000   0.000005  -0.000004   0.000256
    14  C   -0.000000  -0.000000   0.000000  -0.000415   0.000293   0.001070
    15  C   -0.065065   0.137590  -0.067131  -0.001306  -0.001856  -0.000037
    16  C    0.001381  -0.018914  -0.001822   0.000032  -0.000144  -0.000011
    17  C    0.000293   0.002554  -0.000006  -0.000019  -0.000012  -0.000000
    18  C   -0.000007  -0.000584  -0.000001   0.000006   0.000004   0.000000
    19  C   -0.000053   0.002002  -0.000099  -0.000028  -0.000083   0.000002
    20  C    0.000077  -0.021448  -0.000053  -0.000163   0.002551  -0.000057
    21  O   -0.052052   0.396048  -0.056673  -0.002309   0.000990   0.000051
    22  H   -0.000001  -0.000104  -0.000141  -0.028332   0.005282   0.003969
    23  H   -0.000000  -0.000000  -0.000003  -0.000013  -0.000005  -0.000101
    24  H   -0.000000   0.000000   0.000000   0.000000  -0.000000   0.000001
    25  H   -0.000000  -0.000000  -0.000000  -0.000000   0.000000   0.000000
    26  H    0.000000   0.000000   0.000000  -0.000000   0.000000  -0.000008
    27  H   -0.000000  -0.000000  -0.000000   0.000028  -0.000341   0.014985
    28  H    0.003066   0.002213   0.001962  -0.000006  -0.000019   0.000000
    29  H    0.000002  -0.000028   0.000003  -0.000000  -0.000000   0.000000
    30  H   -0.000000   0.000005  -0.000000  -0.000000   0.000000  -0.000000
    31  H    0.000000  -0.000020   0.000001   0.000000  -0.000004   0.000000
    32  H    0.000082  -0.003401   0.000220   0.000015   0.000624   0.000002
               7          8          9         10         11         12
     1  O   -0.000048   0.000000  -0.000000   0.000000  -0.000000  -0.000000
     2  S   -0.000783   0.000357  -0.000015   0.000001  -0.000000  -0.000000
     3  N   -0.065868   0.002337  -0.000098   0.000002   0.000000  -0.000000
     4  C    0.506478  -0.025385   0.003722   0.000810  -0.000006   0.000000
     5  N   -0.077893  -0.096215   0.006785  -0.000311   0.000002  -0.000000
     6  N   -0.098058   0.226877  -0.041021   0.002521  -0.000075   0.000019
     7  C    5.112686   0.312034  -0.029724  -0.006552  -0.000001   0.000017
     8  N    0.312034   6.875847   0.206870  -0.051896   0.004814   0.000304
     9  C   -0.029724   0.206870   4.633502   0.526439  -0.010833  -0.038054
    10  C   -0.006552  -0.051896   0.526439   4.999100   0.522657  -0.040897
    11  C   -0.000001   0.004814  -0.010833   0.522657   4.874646   0.543196
    12  C    0.000017   0.000304  -0.038054  -0.040897   0.543196   4.878646
    13  C   -0.000100   0.004722  -0.011514  -0.041399  -0.025699   0.538121
    14  C    0.006899  -0.062094   0.510200  -0.070290  -0.041379  -0.039368
    15  C   -0.000360  -0.000003   0.000000  -0.000000  -0.000000   0.000000
    16  C   -0.000060   0.000001   0.000000  -0.000000  -0.000000   0.000000
    17  C    0.000000   0.000000  -0.000000  -0.000000   0.000000  -0.000000
    18  C    0.000000  -0.000000  -0.000000   0.000000   0.000000  -0.000000
    19  C   -0.000001  -0.000000   0.000000  -0.000000  -0.000000   0.000000
    20  C   -0.000007   0.000004   0.000000  -0.000000  -0.000000   0.000000
    21  O   -0.000115  -0.000000   0.000000   0.000000   0.000000  -0.000000
    22  H    0.362525  -0.038303  -0.000728   0.001859   0.000124  -0.000001
    23  H    0.006172  -0.008708  -0.038990   0.354198  -0.036565   0.004374
    24  H   -0.000004  -0.000108   0.003443  -0.037670   0.362971  -0.040080
    25  H   -0.000000   0.000003   0.000484   0.004773  -0.041351   0.365418
    26  H    0.000001  -0.000103   0.003535   0.000685   0.004475  -0.040447
    27  H    0.000177  -0.012510  -0.040828   0.005673   0.000087   0.004608
    28  H   -0.000016   0.000000  -0.000000  -0.000000   0.000000   0.000000
    29  H    0.000000  -0.000000  -0.000000   0.000000   0.000000   0.000000
    30  H    0.000000  -0.000000  -0.000000  -0.000000   0.000000  -0.000000
    31  H   -0.000000  -0.000000   0.000000   0.000000   0.000000  -0.000000
    32  H    0.000002   0.000000   0.000000   0.000000  -0.000000   0.000000
              13         14         15         16         17         18
     1  O   -0.000000  -0.000000  -0.065065   0.001381   0.000293  -0.000007
     2  S    0.000000  -0.000000   0.137590  -0.018914   0.002554  -0.000584
     3  N   -0.000000   0.000000  -0.067131  -0.001822  -0.000006  -0.000001
     4  C    0.000005  -0.000415  -0.001306   0.000032  -0.000019   0.000006
     5  N   -0.000004   0.000293  -0.001856  -0.000144  -0.000012   0.000004
     6  N    0.000256   0.001070  -0.000037  -0.000011  -0.000000   0.000000
     7  C   -0.000100   0.006899  -0.000360  -0.000060   0.000000   0.000000
     8  N    0.004722  -0.062094  -0.000003   0.000001   0.000000  -0.000000
     9  C   -0.011514   0.510200   0.000000   0.000000  -0.000000  -0.000000
    10  C   -0.041399  -0.070290  -0.000000  -0.000000  -0.000000   0.000000
    11  C   -0.025699  -0.041379  -0.000000  -0.000000   0.000000   0.000000
    12  C    0.538121  -0.039368   0.000000   0.000000  -0.000000  -0.000000
    13  C    4.887973   0.516249  -0.000000  -0.000000  -0.000000   0.000000
    14  C    0.516249   5.007723  -0.000000  -0.000000   0.000000   0.000000
    15  C   -0.000000  -0.000000   5.415310   0.460322  -0.026215  -0.039630
    16  C   -0.000000  -0.000000   0.460322   4.985309   0.510533  -0.030490
    17  C   -0.000000   0.000000  -0.026215   0.510533   4.898959   0.537319
    18  C    0.000000   0.000000  -0.039630  -0.030490   0.537319   4.875686
    19  C    0.000000  -0.000000  -0.031253  -0.035528  -0.033847   0.541777
    20  C   -0.000000  -0.000000   0.508169  -0.041515  -0.037988  -0.031968
    21  O    0.000000  -0.000000  -0.059683   0.002198  -0.000050  -0.000004
    22  H   -0.000006  -0.000084   0.000001   0.000001   0.000000  -0.000000
    23  H    0.000192   0.005517  -0.000000  -0.000000  -0.000000   0.000000
    24  H    0.004446   0.000710  -0.000000  -0.000000   0.000000   0.000000
    25  H   -0.041508   0.004597   0.000000   0.000000  -0.000000  -0.000000
    26  H    0.363234  -0.037721   0.000000   0.000000   0.000000  -0.000000
    27  H   -0.038638   0.356364  -0.000000   0.000000  -0.000000   0.000000
    28  H    0.000000  -0.000000  -0.052576   0.362695  -0.036968   0.004323
    29  H    0.000000  -0.000000   0.005058  -0.041920   0.365094  -0.041913
    30  H    0.000000   0.000000   0.000423   0.004893  -0.041779   0.364149
    31  H    0.000000   0.000000   0.004808   0.000548   0.004468  -0.042297
    32  H   -0.000000  -0.000000  -0.046574   0.005139   0.000235   0.004430
              19         20         21         22         23         24
     1  O   -0.000053   0.000077  -0.052052  -0.000001  -0.000000  -0.000000
     2  S    0.002002  -0.021448   0.396048  -0.000104  -0.000000   0.000000
     3  N   -0.000099  -0.000053  -0.056673  -0.000141  -0.000003   0.000000
     4  C   -0.000028  -0.000163  -0.002309  -0.028332  -0.000013   0.000000
     5  N   -0.000083   0.002551   0.000990   0.005282  -0.000005  -0.000000
     6  N    0.000002  -0.000057   0.000051   0.003969  -0.000101   0.000001
     7  C   -0.000001  -0.000007  -0.000115   0.362525   0.006172  -0.000004
     8  N   -0.000000   0.000004  -0.000000  -0.038303  -0.008708  -0.000108
     9  C    0.000000   0.000000   0.000000  -0.000728  -0.038990   0.003443
    10  C   -0.000000  -0.000000   0.000000   0.001859   0.354198  -0.037670
    11  C   -0.000000  -0.000000   0.000000   0.000124  -0.036565   0.362971
    12  C    0.000000   0.000000  -0.000000  -0.000001   0.004374  -0.040080
    13  C    0.000000  -0.000000   0.000000  -0.000006   0.000192   0.004446
    14  C   -0.000000  -0.000000  -0.000000  -0.000084   0.005517   0.000710
    15  C   -0.031253   0.508169  -0.059683   0.000001  -0.000000  -0.000000
    16  C   -0.035528  -0.041515   0.002198   0.000001  -0.000000  -0.000000
    17  C   -0.033847  -0.037988  -0.000050   0.000000  -0.000000   0.000000
    18  C    0.541777  -0.031968  -0.000004  -0.000000   0.000000   0.000000
    19  C    4.913662   0.493831   0.000636   0.000000   0.000000  -0.000000
    20  C    0.493831   4.966149   0.000467  -0.000000  -0.000000   0.000000
    21  O    0.000636   0.000467   8.396913   0.000000   0.000000  -0.000000
    22  H    0.000000  -0.000000   0.000000   0.498619   0.001311  -0.000001
    23  H    0.000000  -0.000000   0.000000   0.001311   0.546817  -0.005196
    24  H   -0.000000   0.000000  -0.000000  -0.000001  -0.005196   0.555657
    25  H    0.000000  -0.000000   0.000000  -0.000000  -0.000144  -0.005069
    26  H   -0.000000   0.000000   0.000000   0.000000   0.000013  -0.000166
    27  H    0.000000  -0.000000   0.000000  -0.000012  -0.000128   0.000013
    28  H    0.000406   0.004531   0.000082   0.000000   0.000000  -0.000000
    29  H    0.004427   0.000577   0.000000  -0.000000   0.000000  -0.000000
    30  H   -0.041632   0.004659   0.000000   0.000000  -0.000000   0.000000
    31  H    0.365435  -0.041619   0.000002  -0.000000   0.000000  -0.000000
    32  H   -0.038287   0.357589   0.013649  -0.000000  -0.000000   0.000000
              25         26         27         28         29         30
     1  O   -0.000000   0.000000  -0.000000   0.003066   0.000002  -0.000000
     2  S   -0.000000   0.000000  -0.000000   0.002213  -0.000028   0.000005
     3  N   -0.000000   0.000000  -0.000000   0.001962   0.000003  -0.000000
     4  C   -0.000000  -0.000000   0.000028  -0.000006  -0.000000  -0.000000
     5  N    0.000000   0.000000  -0.000341  -0.000019  -0.000000   0.000000
     6  N    0.000000  -0.000008   0.014985   0.000000   0.000000  -0.000000
     7  C   -0.000000   0.000001   0.000177  -0.000016   0.000000   0.000000
     8  N    0.000003  -0.000103  -0.012510   0.000000  -0.000000  -0.000000
     9  C    0.000484   0.003535  -0.040828  -0.000000  -0.000000  -0.000000
    10  C    0.004773   0.000685   0.005673  -0.000000   0.000000  -0.000000
    11  C   -0.041351   0.004475   0.000087   0.000000   0.000000   0.000000
    12  C    0.365418  -0.040447   0.004608   0.000000   0.000000  -0.000000
    13  C   -0.041508   0.363234  -0.038638   0.000000   0.000000   0.000000
    14  C    0.004597  -0.037721   0.356364  -0.000000  -0.000000   0.000000
    15  C    0.000000   0.000000  -0.000000  -0.052576   0.005058   0.000423
    16  C    0.000000   0.000000   0.000000   0.362695  -0.041920   0.004893
    17  C   -0.000000   0.000000  -0.000000  -0.036968   0.365094  -0.041779
    18  C   -0.000000  -0.000000   0.000000   0.004323  -0.041913   0.364149
    19  C    0.000000  -0.000000   0.000000   0.000406   0.004427  -0.041632
    20  C   -0.000000   0.000000  -0.000000   0.004531   0.000577   0.004659
    21  O    0.000000   0.000000   0.000000   0.000082   0.000000   0.000000
    22  H   -0.000000   0.000000  -0.000012   0.000000  -0.000000   0.000000
    23  H   -0.000144   0.000013  -0.000128   0.000000   0.000000  -0.000000
    24  H   -0.005069  -0.000166   0.000013  -0.000000  -0.000000   0.000000
    25  H    0.561066  -0.005053  -0.000137   0.000000  -0.000000   0.000000
    26  H   -0.005053   0.556223  -0.005261  -0.000000  -0.000000   0.000000
    27  H   -0.000137  -0.005261   0.548337   0.000000  -0.000000   0.000000
    28  H    0.000000  -0.000000   0.000000   0.549395  -0.005480  -0.000152
    29  H   -0.000000  -0.000000  -0.000000  -0.005480   0.561716  -0.005189
    30  H    0.000000   0.000000   0.000000  -0.000152  -0.005189   0.562679
    31  H    0.000000  -0.000000   0.000000   0.000015  -0.000163  -0.005235
    32  H   -0.000000  -0.000000  -0.000000  -0.000160   0.000014  -0.000144
              31         32
     1  O    0.000000   0.000082
     2  S   -0.000020  -0.003401
     3  N    0.000001   0.000220
     4  C    0.000000   0.000015
     5  N   -0.000004   0.000624
     6  N    0.000000   0.000002
     7  C   -0.000000   0.000002
     8  N   -0.000000   0.000000
     9  C    0.000000   0.000000
    10  C    0.000000   0.000000
    11  C    0.000000  -0.000000
    12  C   -0.000000   0.000000
    13  C    0.000000  -0.000000
    14  C    0.000000  -0.000000
    15  C    0.004808  -0.046574
    16  C    0.000548   0.005139
    17  C    0.004468   0.000235
    18  C   -0.042297   0.004430
    19  C    0.365435  -0.038287
    20  C   -0.041619   0.357589
    21  O    0.000002   0.013649
    22  H   -0.000000  -0.000000
    23  H    0.000000  -0.000000
    24  H   -0.000000   0.000000
    25  H    0.000000  -0.000000
    26  H   -0.000000  -0.000000
    27  H    0.000000  -0.000000
    28  H    0.000015  -0.000160
    29  H   -0.000163   0.000014
    30  H   -0.005235  -0.000144
    31  H    0.562205  -0.005315
    32  H   -0.005315   0.546734
 Mulliken charges:
               1
     1  O   -0.637922
     2  S    1.104843
     3  N   -0.767739
     4  C    0.413436
     5  N   -0.427292
     6  N   -0.142930
     7  C   -0.027403
     8  N   -0.338845
     9  C    0.316826
    10  C   -0.169703
    11  C   -0.157061
    12  C   -0.135855
    13  C   -0.156329
    14  C   -0.158270
    15  C   -0.139991
    16  C   -0.162647
    17  C   -0.142571
    18  C   -0.140801
    19  C   -0.141368
    20  C   -0.163786
    21  O   -0.640150
    22  H    0.194022
    23  H    0.171256
    24  H    0.161056
    25  H    0.156921
    26  H    0.160593
    27  H    0.167582
    28  H    0.166688
    29  H    0.157803
    30  H    0.157321
    31  H    0.157172
    32  H    0.165145
 Sum of Mulliken charges =  -1.00000
 Mulliken charges with hydrogens summed into heavy atoms:
               1
     1  O   -0.637922
     2  S    1.104843
     3  N   -0.767739
     4  C    0.413436
     5  N   -0.427292
     6  N   -0.142930
     7  C    0.166619
     8  N   -0.338845
     9  C    0.316826
    10  C    0.001553
    11  C    0.003995
    12  C    0.021066
    13  C    0.004263
    14  C    0.009313
    15  C   -0.139991
    16  C    0.004040
    17  C    0.015232
    18  C    0.016519
    19  C    0.015804
    20  C    0.001359
    21  O   -0.640150
 Electronic spatial extent (au):  <R**2>=           8500.5083
 Charge=             -1.0000 electrons
 Dipole moment (field-independent basis, Debye):
    X=             12.9382    Y=              9.0615    Z=              0.9148  Tot=             15.8223
 Quadrupole moment (field-independent basis, Debye-Ang):
   XX=           -138.4659   YY=           -132.8836   ZZ=           -130.9990
   XY=            -24.1756   XZ=            -19.9297   YZ=              2.1354
 Traceless Quadrupole moment (field-independent basis, Debye-Ang):
   XX=             -4.3498   YY=              1.2326   ZZ=              3.1172
   XY=            -24.1756   XZ=            -19.9297   YZ=              2.1354
 Octapole moment (field-independent basis, Debye-Ang**2):
  XXX=            241.4005  YYY=            -24.4084  ZZZ=             44.1932  XYY=             -3.1687
  XXY=             66.3053  XXZ=             30.3348  XZZ=             14.5354  YZZ=             -5.0435
  YYZ=             17.3338  XYZ=             28.8163
 Hexadecapole moment (field-independent basis, Debye-Ang**3):
 XXXX=          -8508.7700 YYYY=          -1405.3130 ZZZZ=           -976.5335 XXXY=            133.2564
 XXXZ=             54.6704 YYYX=             71.4722 YYYZ=           -233.6657 ZZZX=            206.8938
 ZZZY=           -242.3307 XXYY=          -1745.4795 XXZZ=          -1638.2785 YYZZ=           -396.4830
 XXYZ=             -9.0460 YYXZ=             94.4019 ZZXY=             -4.8023
 N-N= 1.693977856649D+03 E-N=-6.472189396941D+03  KE= 1.297764232494D+03
 No NMR shielding tensors so no spin-rotation constants.
 Leave Link  601 at Thu Sep 24 14:40:55 2020, MaxMem=  2147483648 cpu:               0.4 elap:               0.1
 (Enter /prod/apps/gaussian/g16b1/l701.exe)
 ... and contract with generalized density number  0.
 Compute integral first derivatives.
 D1PCM: PCM CHGder 1st derivatives, ID1Alg=3 FixD1E=F DoIter=F DoCFld=F I1PDM=0.
 GePol: Maximum number of non-zero 1st derivatives   =     177
 Leave Link  701 at Thu Sep 24 14:40:58 2020, MaxMem=  2147483648 cpu:              10.3 elap:               2.6
 (Enter /prod/apps/gaussian/g16b1/l702.exe)
 L702 exits ... SP integral derivatives will be done elsewhere.
 Leave Link  702 at Thu Sep 24 14:40:58 2020, MaxMem=  2147483648 cpu:               0.1 elap:               0.0
 (Enter /prod/apps/gaussian/g16b1/l703.exe)
 Integral derivatives from FoFJK, PRISM(SPDF).
 Compute integral first derivatives, UseDBF=F ICtDFT=           0.
 Calling FoFJK, ICntrl=      2127 FMM=F ISym2X=0 I1Cent= 0 IOpClX= 0 NMat=1 NMatS=1 NMatT=0.
 FoFJK:  IHMeth= 1 ICntrl=    2127 DoSepK=F KAlg= 0 I1Cent=           0 FoldK=F
 IRaf=         0 NMat=       1 IRICut=       1 DoRegI=T DoRafI=F ISym2E= 0 IDoP0=0 IntGTp=1.
 FoFCou: FMM=F IPFlag=           0 FMFlag=      100000 FMFlg1=         800
         NFxFlg=           0 DoJE=F BraDBF=F KetDBF=F FulRan=T
         wScrn=  0.000000 ICntrl=      2127 IOpCl=  0 I1Cent=           0 NGrid=           0
         NMat0=    1 NMatS0=      1 NMatT0=    0 NMatD0=    1 NMtDS0=    0 NMtDT0=    0
 Symmetry not used in FoFCou.
 Leave Link  703 at Thu Sep 24 14:41:15 2020, MaxMem=  2147483648 cpu:              68.0 elap:              17.0
 (Enter /prod/apps/gaussian/g16b1/l716.exe)
 Dipole        = 5.09026652D+00 3.56507319D+00 3.59911546D-01
 -------------------------------------------------------------------
 Center     Atomic                   Forces (Hartrees/Bohr)
 Number     Number              X              Y              Z
 -------------------------------------------------------------------
      1        8           0.000559298    0.000132474    0.000449024
      2       16           0.000113164    0.001399977    0.000332957
      3        7          -0.000323838   -0.000080227    0.000127624
      4        6          -0.000147553    0.000142043    0.000212492
      5        7           0.000479024   -0.000042739   -0.000109579
      6        7           0.000040986    0.000182381   -0.000976935
      7        6           0.000727667   -0.000093416   -0.001178757
      8        7          -0.000329081   -0.000017274    0.000605002
      9        6          -0.000166023    0.000191030    0.000395011
     10        6           0.000503958   -0.000183979   -0.000603141
     11        6           0.000166631   -0.000068204    0.000037731
     12        6          -0.000252757    0.000191197    0.000141068
     13        6           0.000350616   -0.000368940   -0.000295504
     14        6          -0.000226814    0.000239255    0.000172507
     15        6          -0.000192766    0.000633233    0.000356700
     16        6           0.000200422   -0.000998318    0.000494958
     17        6          -0.000062052    0.000218816    0.000446871
     18        6           0.000081411   -0.000702827   -0.000205939
     19        6          -0.000260645    0.001063514   -0.000221921
     20        6           0.000278734   -0.000700836   -0.001147228
     21        8          -0.000108390    0.000767363    0.000297886
     22        1          -0.000047073   -0.000081590    0.001537132
     23        1          -0.000112972    0.000723719    0.000598590
     24        1          -0.000514609    0.000345493    0.000574429
     25        1          -0.001053975   -0.000203385    0.000027438
     26        1          -0.000351248   -0.000356867   -0.000430752
     27        1           0.000215794   -0.000699880   -0.000729659
     28        1          -0.000012337   -0.000072990    0.000739275
     29        1           0.000136261   -0.000517546    0.000475634
     30        1           0.000280911   -0.000931781   -0.000386268
     31        1           0.000066811   -0.000134999   -0.000637408
     32        1          -0.000039552    0.000025302   -0.001099238
 -------------------------------------------------------------------
 Cartesian Forces:  Max     0.001537132 RMS     0.000509077
 Leave Link  716 at Thu Sep 24 14:41:15 2020, MaxMem=  2147483648 cpu:               0.1 elap:               0.0
 (Enter /prod/apps/gaussian/g16b1/l103.exe)

 GradGradGradGradGradGradGradGradGradGradGradGradGradGradGradGradGradGrad
 Berny optimization.
 FormGI is forming the generalized inverse of G from B-inverse, IUseBI=4.
 GSVD:  received Info=                   1 from GESDD.
 Internal  Forces:  Max     0.002721549 RMS     0.000594367
 Search for a local minimum.
 Step number   1 out of a maximum of  174
 All quantities printed in internal units (Hartrees-Bohrs-Radians)
 RMS Force = .59437D-03 SwitMx=.10000D-02 MixMth= 2
 Mixed Optimization -- En-DIIS/RFO-DIIS
 Second derivative matrix not updated -- first step.
 ITU=  0
[...]
 Alpha virt. eigenvalues --    2.89925   2.91222   2.92151   2.92467   2.93615
 Alpha virt. eigenvalues --    2.94619   2.96054   2.97112   2.99599   3.02975
 Alpha virt. eigenvalues --    3.03922   3.05583   3.06673   3.07748   3.08085
 Alpha virt. eigenvalues --    3.09201   3.12171   3.14565   3.15244   3.15942
 Alpha virt. eigenvalues --    3.19892   3.21910   3.22204   3.23725   3.24892
 Alpha virt. eigenvalues --    3.26402   3.29413   3.32311   3.33602   3.35105
 Alpha virt. eigenvalues --    3.37069   3.39499   3.41598   3.46563   3.46945
 Alpha virt. eigenvalues --    3.49232   3.51966   3.59550   3.60215   3.65299
 Alpha virt. eigenvalues --    3.71543   3.74094   3.75232   3.78522   3.79327
 Alpha virt. eigenvalues --    3.83822   3.86612   3.93226   3.94396   3.96100
 Alpha virt. eigenvalues --    3.97082   3.99689   4.01941   4.02512   4.04398
 Alpha virt. eigenvalues --    4.05218   4.07457   4.12498   4.20151   4.44106
 Alpha virt. eigenvalues --    4.54868   4.88413   4.96976
          Condensed to atoms (all electrons):
               1          2          3          4          5          6
     1  O    9.395420  -0.499456   0.053583   0.028524   0.005514   0.007461
     2  S   -0.499456  16.941382  -0.429125   0.023549   0.104182  -0.298512
     3  N    0.053583  -0.429125   8.996057  -1.736470   0.096165   0.140510
     4  C    0.028524   0.023549  -1.736470  20.439838   0.395817  -0.563325
     5  N    0.005514   0.104182   0.096165   0.395817  11.656590  -3.226795
     6  N    0.007461  -0.298512   0.140510  -0.563325  -3.226795  11.296527
     7  C    0.064599  -0.509669   1.134961 -12.125385   0.265397  -0.315585
     8  N    0.000893  -0.055306   0.075851  -0.356219  -0.574360   0.037404
     9  C    0.005941  -0.113366   0.014546  -1.177945  -0.758553   0.111003
    10  C   -0.001696   0.016038  -0.008260  -0.271973   0.172554  -0.232383
    11  C   -0.000206   0.006210   0.002173   0.218290   0.072906   0.013982
    12  C    0.000003  -0.000980  -0.002451  -0.028059  -0.025796   0.006153
    13  C    0.000061  -0.001591   0.003094  -0.031189  -0.094664  -0.034601
    14  C    0.000890  -0.025640   0.019103  -0.450324  -0.336458   0.592333
    15  C    0.239880  -1.085145   0.060092   0.941845  -0.213268  -0.105822
    16  C   -0.126962   0.858589  -0.108407  -0.315294   0.102683  -0.082146
    17  C    0.041782  -0.470026  -0.122125   0.412923  -0.057411   0.008225
    18  C   -0.027429   0.258686   0.011020  -0.173896   0.019439   0.025176
    19  C    0.013718  -0.331033   0.024820   0.123755   0.024623  -0.019125
    20  C    0.009569  -0.522418   0.019081  -0.419819   0.095510   0.045807
    21  O   -0.003438  -0.806716   0.117410   0.263379   0.030377  -0.074174
    22  H   -0.005560   0.043392  -0.100044   0.983902  -0.111428  -0.033985
    23  H    0.000584  -0.010575   0.003660  -0.224255  -0.002548  -0.030762
    24  H   -0.000005   0.000229   0.000154   0.011109  -0.000696   0.001774
    25  H    0.000001  -0.000064  -0.000054  -0.003467  -0.000729   0.001171
    26  H   -0.000001   0.000100  -0.000070   0.001061   0.000442   0.003217
    27  H    0.000108  -0.002221   0.002576  -0.017959  -0.011422  -0.025289
    28  H    0.041490  -0.205657   0.006010   0.115463  -0.002055  -0.007449
    29  H    0.001496   0.007357  -0.002326   0.012237  -0.002763   0.001750
    30  H   -0.000902   0.007043   0.000446  -0.003497   0.000497  -0.000832
    31  H    0.001487  -0.012942   0.000458   0.004376   0.001345   0.002676
    32  H    0.001149  -0.000021  -0.010361   0.053385   0.006731  -0.018283
               7          8          9         10         11         12
     1  O    0.064599   0.000893   0.005941  -0.001696  -0.000206   0.000003
     2  S   -0.509669  -0.055306  -0.113366   0.016038   0.006210  -0.000980
     3  N    1.134961   0.075851   0.014546  -0.008260   0.002173  -0.002451
     4  C  -12.125385  -0.356219  -1.177945  -0.271973   0.218290  -0.028059
     5  N    0.265397  -0.574360  -0.758553   0.172554   0.072906  -0.025796
     6  N   -0.315585   0.037404   0.111003  -0.232383   0.013982   0.006153
     7  C   17.836825  -0.226980  -0.011032   0.484504  -0.412892  -0.020912
     8  N   -0.226980   9.545746  -0.803125   0.447628  -0.320807   0.312918
     9  C   -0.011032  -0.803125  14.433591  -5.290556   2.782064  -3.441663
    10  C    0.484504   0.447628  -5.290556  12.802117  -3.913937   3.095539
    11  C   -0.412892  -0.320807   2.782064  -3.913937  10.579732  -3.082579
    12  C   -0.020912   0.312918  -3.441663   3.095539  -3.082579   9.042920
    13  C    0.214568  -0.120990   2.707386  -3.417291   3.047768  -2.993181
    14  C    0.097937  -0.158392  -4.755709   2.421364  -3.334491   2.959259
    15  C   -0.321647  -0.066587   0.022755   0.009594   0.003427  -0.000666
    16  C   -0.170854  -0.019609  -0.041760  -0.000341  -0.000969   0.000046
    17  C   -0.171156  -0.047861  -0.017062   0.003798   0.000250   0.000031
    18  C    0.036577   0.019707   0.002199  -0.002416  -0.000382   0.000139
    19  C    0.013769  -0.007043   0.003469   0.002588   0.000461  -0.000088
    20  C    0.109234   0.062263   0.013068  -0.013467  -0.001300   0.000011
    21  O   -0.075899  -0.017219  -0.008626  -0.001156   0.000055  -0.000074
    22  H   -1.546908   0.298681   0.094668   0.011392   0.095075  -0.012441
    23  H    0.272719  -0.282022   0.918844  -0.969889   0.145086  -0.166427
    24  H    0.003555   0.008812  -0.109195   0.734483  -0.853770   0.277239
    25  H   -0.000084  -0.003666   0.098903  -0.160332   0.370309  -0.657995
    26  H    0.000632  -0.010054  -0.080115   0.109627  -0.215310   0.249549
    27  H    0.005934  -0.155776   0.560730  -0.109624   0.098621  -0.138032
    28  H   -0.049689  -0.004785  -0.004836  -0.001295  -0.000204  -0.000113
    29  H   -0.003587  -0.000985  -0.000039   0.000106   0.000075  -0.000013
    30  H    0.000945   0.000796   0.000185  -0.000084  -0.000012   0.000006
    31  H   -0.002608  -0.000718  -0.000425   0.000164   0.000021  -0.000012
    32  H   -0.013750  -0.002600   0.001694  -0.001083   0.000077  -0.000142
              13         14         15         16         17         18
     1  O    0.000061   0.000890   0.239880  -0.126962   0.041782  -0.027429
     2  S   -0.001591  -0.025640  -1.085145   0.858589  -0.470026   0.258686
     3  N    0.003094   0.019103   0.060092  -0.108407  -0.122125   0.011020
     4  C   -0.031189  -0.450324   0.941845  -0.315294   0.412923  -0.173896
     5  N   -0.094664  -0.336458  -0.213268   0.102683  -0.057411   0.019439
     6  N   -0.034601   0.592333  -0.105822  -0.082146   0.008225   0.025176
     7  C    0.214568   0.097937  -0.321647  -0.170854  -0.171156   0.036577
     8  N   -0.120990  -0.158392  -0.066587  -0.019609  -0.047861   0.019707
     9  C    2.707386  -4.755709   0.022755  -0.041760  -0.017062   0.002199
    10  C   -3.417291   2.421364   0.009594  -0.000341   0.003798  -0.002416
    11  C    3.047768  -3.334491   0.003427  -0.000969   0.000250  -0.000382
    12  C   -2.993181   2.959259  -0.000666   0.000046   0.000031   0.000139
    13  C   10.197487  -3.937078  -0.004122   0.001558  -0.000879   0.000992
    14  C   -3.937078  12.867909  -0.025432   0.002683  -0.000141   0.004081
    15  C   -0.004122  -0.025432  16.501209  -7.078284   3.082554  -4.587199
    16  C    0.001558   0.002683  -7.078284  17.878161  -4.735753   4.019201
    17  C   -0.000879  -0.000141   3.082554  -4.735753  11.915102  -3.793649
    18  C    0.000992   0.004081  -4.587199   4.019201  -3.793649  10.365168
    19  C   -0.001208  -0.004006   3.217813  -5.021481   4.158685  -4.049096
    20  C    0.002884   0.012426  -6.790820   1.787425  -4.427878   3.713073
    21  O    0.000131  -0.000266   0.492104  -0.132926   0.052557  -0.041644
    22  H    0.005721  -0.141597  -0.004023  -0.000270  -0.007767   0.000312
    23  H    0.099471  -0.081718  -0.000016   0.000727   0.000431   0.000163
    24  H   -0.235361   0.098059   0.000098  -0.000054  -0.000010  -0.000010
    25  H    0.390591  -0.100960  -0.000018  -0.000005   0.000004   0.000003
    26  H   -0.765971   0.649973   0.000001   0.000026   0.000024  -0.000047
    27  H    0.369577  -0.861156   0.000514  -0.002137  -0.000225   0.000732
    28  H    0.000357  -0.000233   0.890383  -1.251154   0.374358  -0.256897
    29  H   -0.000057  -0.000165  -0.227475   0.590600  -0.820181   0.423948
    30  H    0.000034   0.000023   0.142485  -0.138171   0.419468  -0.710462
    31  H   -0.000074  -0.000062  -0.141425   0.140939  -0.248335   0.349170
    32  H    0.000370  -0.001478   0.512914  -0.162249   0.113153  -0.195212
              19         20         21         22         23         24
     1  O    0.013718   0.009569  -0.003438  -0.005560   0.000584  -0.000005
     2  S   -0.331033  -0.522418  -0.806716   0.043392  -0.010575   0.000229
     3  N    0.024820   0.019081   0.117410  -0.100044   0.003660   0.000154
     4  C    0.123755  -0.419819   0.263379   0.983902  -0.224255   0.011109
     5  N    0.024623   0.095510   0.030377  -0.111428  -0.002548  -0.000696
     6  N   -0.019125   0.045807  -0.074174  -0.033985  -0.030762   0.001774
     7  C    0.013769   0.109234  -0.075899  -1.546908   0.272719   0.003555
     8  N   -0.007043   0.062263  -0.017219   0.298681  -0.282022   0.008812
     9  C    0.003469   0.013068  -0.008626   0.094668   0.918844  -0.109195
    10  C    0.002588  -0.013467  -0.001156   0.011392  -0.969889   0.734483
    11  C    0.000461  -0.001300   0.000055   0.095075   0.145086  -0.853770
    12  C   -0.000088   0.000011  -0.000074  -0.012441  -0.166427   0.277239
    13  C   -0.001208   0.002884   0.000131   0.005721   0.099471  -0.235361
    14  C   -0.004006   0.012426  -0.000266  -0.141597  -0.081718   0.098059
    15  C    3.217813  -6.790820   0.492104  -0.004023  -0.000016   0.000098
    16  C   -5.021481   1.787425  -0.132926  -0.000270   0.000727  -0.000054
    17  C    4.158685  -4.427878   0.052557  -0.007767   0.000431  -0.000010
    18  C   -4.049096   3.713073  -0.041644   0.000312   0.000163  -0.000010
    19  C   12.561873  -5.024032  -0.036946   0.002096  -0.000470   0.000017
    20  C   -5.024032  17.466221  -0.001203   0.010094  -0.001433   0.000015
    21  O   -0.036946  -0.001203   9.593084  -0.001326  -0.000251   0.000005
    22  H    0.002096   0.010094  -0.001326   2.084530  -0.101180   0.002238
    23  H   -0.000470  -0.001433  -0.000251  -0.101180   2.197047  -0.087268
    24  H    0.000017   0.000015   0.000005   0.002238  -0.087268   1.665406
    25  H    0.000001  -0.000009  -0.000003  -0.000059  -0.014628  -0.052131
    26  H   -0.000012   0.000038   0.000001   0.000391   0.009798  -0.018162
    27  H    0.001560  -0.002270  -0.000124  -0.004631  -0.015451   0.008890
    28  H    0.160834  -0.143107   0.013492   0.000231  -0.000186   0.000001
    29  H   -0.261775   0.174562   0.001155  -0.000132  -0.000036   0.000003
    30  H    0.378345  -0.161679  -0.000567   0.000115  -0.000001  -0.000000
    31  H   -0.871575   0.651078   0.000790  -0.000081  -0.000015   0.000001
    32  H    0.486078  -1.033596  -0.022105   0.000881  -0.000077   0.000005
              25         26         27         28         29         30
     1  O    0.000001  -0.000001   0.000108   0.041490   0.001496  -0.000902
     2  S   -0.000064   0.000100  -0.002221  -0.205657   0.007357   0.007043
     3  N   -0.000054  -0.000070   0.002576   0.006010  -0.002326   0.000446
     4  C   -0.003467   0.001061  -0.017959   0.115463   0.012237  -0.003497
     5  N   -0.000729   0.000442  -0.011422  -0.002055  -0.002763   0.000497
     6  N    0.001171   0.003217  -0.025289  -0.007449   0.001750  -0.000832
     7  C   -0.000084   0.000632   0.005934  -0.049689  -0.003587   0.000945
     8  N   -0.003666  -0.010054  -0.155776  -0.004785  -0.000985   0.000796
     9  C    0.098903  -0.080115   0.560730  -0.004836  -0.000039   0.000185
    10  C   -0.160332   0.109627  -0.109624  -0.001295   0.000106  -0.000084
    11  C    0.370309  -0.215310   0.098621  -0.000204   0.000075  -0.000012
    12  C   -0.657995   0.249549  -0.138032  -0.000113  -0.000013   0.000006
    13  C    0.390591  -0.765971   0.369577   0.000357  -0.000057   0.000034
    14  C   -0.100960   0.649973  -0.861156  -0.000233  -0.000165   0.000023
    15  C   -0.000018   0.000001   0.000514   0.890383  -0.227475   0.142485
    16  C   -0.000005   0.000026  -0.002137  -1.251154   0.590600  -0.138171
    17  C    0.000004   0.000024  -0.000225   0.374358  -0.820181   0.419468
    18  C    0.000003  -0.000047   0.000732  -0.256897   0.423948  -0.710462
    19  C    0.000001  -0.000012   0.001560   0.160834  -0.261775   0.378345
    20  C   -0.000009   0.000038  -0.002270  -0.143107   0.174562  -0.161679
    21  O   -0.000003   0.000001  -0.000124   0.013492   0.001155  -0.000567
    22  H   -0.000059   0.000391  -0.004631   0.000231  -0.000132   0.000115
    23  H   -0.014628   0.009798  -0.015451  -0.000186  -0.000036  -0.000001
    24  H   -0.052131  -0.018162   0.008890   0.000001   0.000003  -0.000000
    25  H    1.662820  -0.056666  -0.009769  -0.000006  -0.000000   0.000000
    26  H   -0.056666   1.652327  -0.081067   0.000008   0.000006  -0.000003
    27  H   -0.009769  -0.081067   1.921235  -0.000126  -0.000047  -0.000025
    28  H   -0.000006   0.000008  -0.000126   2.099103  -0.115670  -0.016833
    29  H   -0.000000   0.000006  -0.000047  -0.115670   1.767211  -0.057415
    30  H    0.000000  -0.000003  -0.000025  -0.016833  -0.057415   1.683597
    31  H   -0.000000   0.000006  -0.000069   0.013289  -0.021171  -0.060878
    32  H   -0.000006   0.000021  -0.000447  -0.023683   0.011523  -0.014633
              31         32
     1  O    0.001487   0.001149
     2  S   -0.012942  -0.000021
     3  N    0.000458  -0.010361
     4  C    0.004376   0.053385
     5  N    0.001345   0.006731
     6  N    0.002676  -0.018283
     7  C   -0.002608  -0.013750
     8  N   -0.000718  -0.002600
     9  C   -0.000425   0.001694
    10  C    0.000164  -0.001083
    11  C    0.000021   0.000077
    12  C   -0.000012  -0.000142
    13  C   -0.000074   0.000370
    14  C   -0.000062  -0.001478
    15  C   -0.141425   0.512914
    16  C    0.140939  -0.162249
    17  C   -0.248335   0.113153
    18  C    0.349170  -0.195212
    19  C   -0.871575   0.486078
    20  C    0.651078  -1.033596
    21  O    0.000790  -0.022105
    22  H   -0.000081   0.000881
    23  H   -0.000015  -0.000077
    24  H    0.000001   0.000005
    25  H   -0.000000  -0.000006
    26  H    0.000006   0.000021
    27  H   -0.000069  -0.000447
    28  H    0.013289  -0.023683
    29  H   -0.021171   0.011523
    30  H   -0.060878  -0.014633
    31  H    1.766516  -0.092222
    32  H   -0.092222   1.991297
 Mulliken charges:
               1
     1  O   -1.248498
     2  S    3.113706
     3  N   -1.262078
     4  C   -0.130378
     5  N   -0.631827
     6  N   -0.226103
     7  C    1.436478
     8  N   -0.575596
     9  C    0.842960
    10  C    0.084291
    11  C    0.700279
    12  C    0.627812
    13  C    0.596207
    14  C    0.489265
    15  C    0.534282
    16  C    0.006186
    17  C    0.337114
    18  C    0.588553
    19  C    0.453386
    20  C    0.370671
    21  O   -1.339877
    22  H   -0.562286
    23  H   -0.659322
    24  H   -0.455434
    25  H   -0.463152
    26  H   -0.449771
    27  H   -0.532609
    28  H   -0.631041
    29  H   -0.478191
    30  H   -0.467991
    31  H   -0.479704
    32  H   -0.587333
 Sum of Mulliken charges =  -1.00000
 Mulliken charges with hydrogens summed into heavy atoms:
               1
     1  O   -1.248498
     2  S    3.113706
     3  N   -1.262078
     4  C   -0.130378
     5  N   -0.631827
     6  N   -0.226103
     7  C    0.874192
     8  N   -0.575596
     9  C    0.842960
    10  C   -0.575032
    11  C    0.244845
    12  C    0.164660
    13  C    0.146436
    14  C   -0.043344
    15  C    0.534282
    16  C   -0.624855
    17  C   -0.141077
    18  C    0.120561
    19  C   -0.026318
    20  C   -0.216661
    21  O   -1.339877
 Electronic spatial extent (au):  <R**2>=           8503.9678
 Charge=             -1.0000 electrons
 Dipole moment (field-independent basis, Debye):
    X=             -9.6150    Y=              7.5034    Z=              2.9702  Tot=             12.5528
 Quadrupole moment (field-independent basis, Debye-Ang):
   XX=           -165.2516   YY=           -149.9330   ZZ=           -141.0899
   XY=             25.8438   XZ=             -1.1958   YZ=             -4.5030
 Traceless Quadrupole moment (field-independent basis, Debye-Ang):
   XX=            -13.1601   YY=              2.1585   ZZ=             11.0016
   XY=             25.8438   XZ=             -1.1958   YZ=             -4.5030
 Octapole moment (field-independent basis, Debye-Ang**2):
  XXX=           -137.9274  YYY=             38.3632  ZZZ=             10.9151  XYY=            -60.5349
  XXY=             66.6358  XXZ=             11.4579  XZZ=             14.0273  YZZ=              9.9767
  YYZ=             -6.3863  XYZ=             15.5334
 Hexadecapole moment (field-independent basis, Debye-Ang**3):
 XXXX=         -10046.1255 YYYY=          -1854.6962 ZZZZ=           -721.4747 XXXY=            131.9492
 XXXZ=           -118.3338 YYYX=            111.7250 YYYZ=             -8.0680 ZZZX=             29.6728
 ZZZY=            -17.4274 XXYY=          -1981.3788 XXZZ=          -1798.9312 YYZZ=           -431.1183
 XXYZ=            -87.4932 YYXZ=             -5.1615 ZZXY=             61.5114
 N-N= 1.695979153466D+03 E-N=-6.471410493177D+03  KE= 1.300133616125D+03
 Leave Link  601 at Thu Sep 24 16:08:49 2020, MaxMem=   262144000 cpu:               1.0 elap:               0.4
 (Enter /prod/apps/gaussian/g16b1/l9999.exe)
 1\1\GINC-PIRINEUS26\SP\RMP2-FC\Aug-CC-pVDZ\C14H11N4O2S1(1-)\UBAFAR01\2
 4-Sep-2020\0\\#p mp2/aug-cc-pVDZ scf=(MaxCycle=2000,NoVarAcc,NoIncFock
 ) maxdisk=120GB geom=allcheck\\SM45_m1.a.3.pdb.xyz\\-1,1\O,0,-3.585704
 9022,-1.3091258908,-1.4853722275\S,0,-2.5303361716,-1.0241403474,-0.47
 74573132\N,0,-1.1610889237,-0.8887363393,-1.2913644688\C,0,0.019154444
 4,-0.6095096607,-0.6352168715\N,0,0.1999649821,-0.3702497676,0.7087726
 214\N,0,1.4698114146,-0.1180323094,0.9451513213\C,0,1.2645065909,-0.49
 39511075,-1.2425365454\N,0,2.123456355,-0.1881842114,-0.2302287695\C,0
 ,3.5260342226,0.0320022418,-0.2967751531\C,0,4.2576233368,-0.475953332
 6,-1.3740527383\C,0,5.631110766,-0.2448995849,-1.4380098592\C,0,6.2748
 851773,0.475701412,-0.4306624766\C,0,5.5346141526,0.971380763,0.645774
 7398\C,0,4.1594181216,0.7590654247,0.7160674982\C,0,-2.9527965915,0.58
 3700602,0.2244348533\C,0,-3.1761569479,1.6640297422,-0.6341553505\C,0,
 -3.5087896172,2.9072464888,-0.0980716242\C,0,-3.6174341887,3.067486284
 6,1.2865569543\C,0,-3.3932711047,1.9837714452,2.1368061973\C,0,-3.0584
 055523,0.7360309223,1.6059110424\O,0,-2.4968558435,-1.9679049077,0.674
 9519826\H,0,1.5737860341,-0.5744200078,-2.2697619393\H,0,3.7627050056,
 -1.0537428261,-2.1453255577\H,0,6.1970255911,-0.6387077134,-2.27517345
 65\H,0,7.3438382841,0.6500228937,-0.4835430385\H,0,6.0257303551,1.5353
 229616,1.431448471\H,0,3.5727809751,1.1486870118,1.5376302128\H,0,-3.0
 924228923,1.5333540415,-1.7073376313\H,0,-3.6847898261,3.7494459106,-0
 .7588250571\H,0,-3.876593968,4.0364289014,1.6998044829\H,0,-3.47810584
 78,2.1068984217,3.211471925\H,0,-2.8806934315,-0.1200174623,2.24508777
 6\\Version=ES64L-G16RevB.01\State=1-A\HF=-1301.6114308\MP2=-1304.76247
 7\RMSD=7.670e-09\PG=C01 [X(C14H11N4O2S1)]\\@


 LOVE IS BLIND, THAT'S WHY ALL THE WORLD LOVES A LOUVER.
 Job cpu time:       0 days  2 hours 36 minutes 54.3 seconds.
 Elapsed time:       0 days  0 hours 43 minutes 52.5 seconds.
 File lengths (MBytes):  RWF= 104322 Int=      0 D2E=      0 Chk=     26 Scr=      1
 Normal termination of Gaussian 16 at Thu Sep 24 16:08:52 2020.
