 Entering Gaussian System, Link 0=g16
 Initial command:
 /prod/apps/gaussian/g16b1/l1.exe "/tmp/ubafar01/1458818/Gau-204155.inp" -scrdir="/tmp/ubafar01/1458818/"
 Entering Link 1 = /prod/apps/gaussian/g16b1/l1.exe PID=    204160.
  
 Copyright (c) 1988-2017, Gaussian, Inc.  All Rights Reserved.
  
 This is part of the Gaussian(R) 16 program.  It is based on
 the Gaussian(R) 09 system (copyright 2009, Gaussian, Inc.),
 the Gaussian(R) 03 system (copyright 2003, Gaussian, Inc.),
 the Gaussian(R) 98 system (copyright 1998, Gaussian, Inc.),
 the Gaussian(R) 94 system (copyright 1995, Gaussian, Inc.),
 the Gaussian 92(TM) system (copyright 1992, Gaussian, Inc.),
 the Gaussian 90(TM) system (copyright 1990, Gaussian, Inc.),
 the Gaussian 88(TM) system (copyright 1988, Gaussian, Inc.),
 the Gaussian 86(TM) system (copyright 1986, Carnegie Mellon
 University), and the Gaussian 82(TM) system (copyright 1983,
 Carnegie Mellon University). Gaussian is a federally registered
 trademark of Gaussian, Inc.
  
 This software contains proprietary and confidential information,
 including trade secrets, belonging to Gaussian, Inc.
  
 This software is provided under written license and may be
 used, copied, transmitted, or stored only in accord with that
 written license.
  
 The following legend is applicable only to US Government
 contracts under FAR:
  
                    RESTRICTED RIGHTS LEGEND
  
 Use, reproduction and disclosure by the US Government is
 subject to restrictions as set forth in subparagraphs (a)
 and (c) of the Commercial Computer Software - Restricted
 Rights clause in FAR 52.227-19.
  
 Gaussian, Inc.
 340 Quinnipiac St., Bldg. 40, Wallingford CT 06492
  
  
 ---------------------------------------------------------------
 Warning -- This program may not be used in any manner that
 competes with the business of Gaussian, Inc. or will provide
 assistance to any competitor of Gaussian, Inc.  The licensee
 of this program is prohibited from giving any competitor of
 Gaussian, Inc. access to this program.  By using this program,
 the user acknowledges that Gaussian, Inc. is engaged in the
 business of creating and licensing software in the field of
 computational chemistry and represents and warrants to the
 licensee that it is not a competitor of Gaussian, Inc. and that
 it will not use this program in any manner prohibited above.
 ---------------------------------------------------------------
  

 Cite this work as:
 Gaussian 16, Revision B.01,
 M. J. Frisch, G. W. Trucks, H. B. Schlegel, G. E. Scuseria, 
 M. A. Robb, J. R. Cheeseman, G. Scalmani, V. Barone, 
 G. A. Petersson, H. Nakatsuji, X. Li, M. Caricato, A. V. Marenich, 
 J. Bloino, B. G. Janesko, R. Gomperts, B. Mennucci, H. P. Hratchian, 
 J. V. Ortiz, A. F. Izmaylov, J. L. Sonnenberg, D. Williams-Young, 
 F. Ding, F. Lipparini, F. Egidi, J. Goings, B. Peng, A. Petrone, 
 T. Henderson, D. Ranasinghe, V. G. Zakrzewski, J. Gao, N. Rega, 
 G. Zheng, W. Liang, M. Hada, M. Ehara, K. Toyota, R. Fukuda, 
 J. Hasegawa, M. Ishida, T. Nakajima, Y. Honda, O. Kitao, H. Nakai, 
 T. Vreven, K. Throssell, J. A. Montgomery, Jr., J. E. Peralta, 
 F. Ogliaro, M. J. Bearpark, J. J. Heyd, E. N. Brothers, K. N. Kudin, 
 V. N. Staroverov, T. A. Keith, R. Kobayashi, J. Normand, 
 K. Raghavachari, A. P. Rendell, J. C. Burant, S. S. Iyengar, 
 J. Tomasi, M. Cossi, J. M. Millam, M. Klene, C. Adamo, R. Cammi, 
 J. W. Ochterski, R. L. Martin, K. Morokuma, O. Farkas, 
 J. B. Foresman, and D. J. Fox, Gaussian, Inc., Wallingford CT, 2016.
 
 ******************************************
 Gaussian 16:  ES64L-G16RevB.01 20-Dec-2017
                14-Sep-2020 
 ******************************************
 %nproc=4
 Will use up to    4 processors via shared memory.
 %Chk=SM46_m0.n.2.pdb.xyz.mst.n.w.chk
 %mem=16GB
 ----------------------------------------------------------------------
 #p b3lyp/6-31G(d) opt freq NoSymm scf=(MaxCycle=2000,NoVarAcc,NoIncFoc
 k) scrf=(iefpcm,read,solvent=water) MaxDisk=20GB
 ----------------------------------------------------------------------
 1/18=20,19=15,26=3,38=1,40=2/1,3;
 2/9=110,12=2,15=1,17=6,18=5,40=1/2;
 3/5=1,6=6,7=1,11=2,25=1,30=1,70=2203,71=1,72=1,74=-5/1,2,3;
 4//1;
 5/5=100002,7=2000,38=1,53=1/2;
 6/7=2,8=2,9=2,10=2,28=1/1;
 7/30=1/1,2,3,16;
 1/18=20,19=15,26=3/3(2);
 2/9=110,15=1/2;
 99//99;
 2/9=110,15=1/2;
 3/5=1,6=6,7=1,11=2,25=1,30=1,70=2205,71=1,72=1,74=-5/1,2,3;
 4/5=5,16=3,69=1/1;
 5/5=100002,7=2000,38=1,53=1/2;
 7/30=1/1,2,3,16;
 1/18=20,19=15,26=3/3(-5);
 2/9=110,15=1/2;
 6/7=2,8=2,9=2,10=2,19=2,28=1/1;
 99/9=1/99;
 Leave Link    1 at Mon Sep 14 02:05:24 2020, MaxMem=  2147483648 cpu:               0.2 elap:               0.0
 (Enter /prod/apps/gaussian/g16b1/l101.exe)
 -------------------
 SM46_m0.n.2.pdb.xyz
 -------------------
 Symbolic Z-matrix:
 Charge =  0 Multiplicity = 1
 O                    -2.314    -0.877     1.438 
 S                    -2.725     0.266     0.625 
 N                    -1.708     0.25     -0.757 
 C                    -0.365    -0.143    -0.574 
 N                     0.006    -1.452    -0.643 
 N                     1.298    -1.533    -0.477 
 C                     0.76      0.626    -0.357 
 N                     1.773    -0.272    -0.312 
 C                     3.165    -0.036    -0.123 
 C                     3.713     1.193    -0.492 
 C                     5.074     1.418    -0.293 
 C                     5.881     0.419     0.257 
 C                     5.32     -0.808     0.613 
 C                     3.959    -1.043     0.432 
 N                    -4.249    -0.034     0.04 
 C                    -4.909     1.069    -0.672 
 C                    -4.44     -1.356    -0.574 
 O                    -2.748     1.609     1.216 
 H                    -1.798     1.138    -1.252 
 H                     0.901     1.685    -0.228 
 H                     3.088     1.958    -0.938 
 H                     5.503     2.372    -0.578 
 H                     6.941     0.597     0.406 
 H                     5.94     -1.587     1.044 
 H                     3.509    -1.984     0.718 
 H                    -4.735     2.001    -0.138 
 H                    -5.98      0.859    -0.678 
 H                    -4.563     1.162    -1.708 
 H                    -3.974    -2.116     0.052 
 H                    -4.022    -1.403    -1.587 
 H                    -5.514    -1.544    -0.618 
 
 ITRead=  0  0  0  0  0  0  0  0  0  0  0  0  0  0  0  0  0  0  0  0
 ITRead=  0  0  0  0  0  0  0  0  0  0  0
 MicOpt= -1 -1 -1 -1 -1 -1 -1 -1 -1 -1 -1 -1 -1 -1 -1 -1 -1 -1 -1 -1
 MicOpt= -1 -1 -1 -1 -1 -1 -1 -1 -1 -1 -1
 NAtoms=     31 NQM=       31 NQMF=       0 NMMI=      0 NMMIF=      0
                NMic=       0 NMicF=      0.
                    Isotopes and Nuclear Properties:
 (Nuclear quadrupole moments (NQMom) in fm**2, nuclear magnetic moments (NMagM)
  in nuclear magnetons)

  Atom         1           2           3           4           5           6           7           8           9          10
 IAtWgt=          16          32          14          12          14          14          12          14          12          12
 AtmWgt=  15.9949146  31.9720718  14.0030740  12.0000000  14.0030740  14.0030740  12.0000000  14.0030740  12.0000000  12.0000000
 NucSpn=           0           0           2           0           2           2           0           2           0           0
 AtZEff=  -0.0000000  -0.0000000  -0.0000000  -0.0000000  -0.0000000  -0.0000000  -0.0000000  -0.0000000  -0.0000000  -0.0000000
 NQMom=    0.0000000   0.0000000   2.0440000   0.0000000   2.0440000   2.0440000   0.0000000   2.0440000   0.0000000   0.0000000
 NMagM=    0.0000000   0.0000000   0.4037610   0.0000000   0.4037610   0.4037610   0.0000000   0.4037610   0.0000000   0.0000000
 AtZNuc=   8.0000000  16.0000000   7.0000000   6.0000000   7.0000000   7.0000000   6.0000000   7.0000000   6.0000000   6.0000000

  Atom        11          12          13          14          15          16          17          18          19          20
 IAtWgt=          12          12          12          12          14          12          12          16           1           1
 AtmWgt=  12.0000000  12.0000000  12.0000000  12.0000000  14.0030740  12.0000000  12.0000000  15.9949146   1.0078250   1.0078250
 NucSpn=           0           0           0           0           2           0           0           0           1           1
 AtZEff=  -0.0000000  -0.0000000  -0.0000000  -0.0000000  -0.0000000  -0.0000000  -0.0000000  -0.0000000  -0.0000000  -0.0000000
 NQMom=    0.0000000   0.0000000   0.0000000   0.0000000   2.0440000   0.0000000   0.0000000   0.0000000   0.0000000   0.0000000
 NMagM=    0.0000000   0.0000000   0.0000000   0.0000000   0.4037610   0.0000000   0.0000000   0.0000000   2.7928460   2.7928460
 AtZNuc=   6.0000000   6.0000000   6.0000000   6.0000000   7.0000000   6.0000000   6.0000000   8.0000000   1.0000000   1.0000000

  Atom        21          22          23          24          25          26          27          28          29          30
 IAtWgt=           1           1           1           1           1           1           1           1           1           1
 AtmWgt=   1.0078250   1.0078250   1.0078250   1.0078250   1.0078250   1.0078250   1.0078250   1.0078250   1.0078250   1.0078250
 NucSpn=           1           1           1           1           1           1           1           1           1           1
 AtZEff=  -0.0000000  -0.0000000  -0.0000000  -0.0000000  -0.0000000  -0.0000000  -0.0000000  -0.0000000  -0.0000000  -0.0000000
 NQMom=    0.0000000   0.0000000   0.0000000   0.0000000   0.0000000   0.0000000   0.0000000   0.0000000   0.0000000   0.0000000
 NMagM=    2.7928460   2.7928460   2.7928460   2.7928460   2.7928460   2.7928460   2.7928460   2.7928460   2.7928460   2.7928460
 AtZNuc=   1.0000000   1.0000000   1.0000000   1.0000000   1.0000000   1.0000000   1.0000000   1.0000000   1.0000000   1.0000000

  Atom        31
 IAtWgt=           1
 AtmWgt=   1.0078250
 NucSpn=           1
 AtZEff=  -0.0000000
 NQMom=    0.0000000
 NMagM=    2.7928460
 AtZNuc=   1.0000000
 Leave Link  101 at Mon Sep 14 02:05:24 2020, MaxMem=  2147483648 cpu:               1.3 elap:               0.3
 (Enter /prod/apps/gaussian/g16b1/l103.exe)

 GradGradGradGradGradGradGradGradGradGradGradGradGradGradGradGradGradGrad
 Berny optimization.
 Initialization pass.
                           ----------------------------
                           !    Initial Parameters    !
                           ! (Angstroms and Degrees)  !
 --------------------------                            --------------------------
 ! Name  Definition              Value          Derivative Info.                !
 --------------------------------------------------------------------------------
 ! R1    R(1,2)                  1.4616         estimate D2E/DX2                !
 ! R2    R(2,3)                  1.7159         estimate D2E/DX2                !
 ! R3    R(2,15)                 1.6598         estimate D2E/DX2                !
 ! R4    R(2,18)                 1.4675         estimate D2E/DX2                !
 ! R5    R(3,4)                  1.4112         estimate D2E/DX2                !
 ! R6    R(3,19)                 1.0206         estimate D2E/DX2                !
 ! R7    R(4,5)                  1.3623         estimate D2E/DX2                !
 ! R8    R(4,7)                  1.3799         estimate D2E/DX2                !
 ! R9    R(5,6)                  1.3051         estimate D2E/DX2                !
 ! R10   R(6,8)                  1.3576         estimate D2E/DX2                !
 ! R11   R(7,8)                  1.3545         estimate D2E/DX2                !
 ! R12   R(7,20)                 1.0761         estimate D2E/DX2                !
 ! R13   R(8,9)                  1.4245         estimate D2E/DX2                !
 ! R14   R(9,10)                 1.3953         estimate D2E/DX2                !
 ! R15   R(9,14)                 1.3973         estimate D2E/DX2                !
 ! R16   R(10,11)                1.3938         estimate D2E/DX2                !
 ! R17   R(10,21)                1.0839         estimate D2E/DX2                !
 ! R18   R(11,12)                1.3971         estimate D2E/DX2                !
 ! R19   R(11,22)                1.0842         estimate D2E/DX2                !
 ! R20   R(12,13)                1.3953         estimate D2E/DX2                !
 ! R21   R(12,23)                1.0851         estimate D2E/DX2                !
 ! R22   R(13,14)                1.3929         estimate D2E/DX2                !
 ! R23   R(13,24)                1.0849         estimate D2E/DX2                !
 ! R24   R(14,25)                1.0816         estimate D2E/DX2                !
 ! R25   R(15,16)                1.4694         estimate D2E/DX2                !
 ! R26   R(15,17)                1.4701         estimate D2E/DX2                !
 ! R27   R(16,26)                1.0881         estimate D2E/DX2                !
 ! R28   R(16,27)                1.0914         estimate D2E/DX2                !
 ! R29   R(16,28)                1.0962         estimate D2E/DX2                !
 ! R30   R(17,29)                1.0893         estimate D2E/DX2                !
 ! R31   R(17,30)                1.0969         estimate D2E/DX2                !
 ! R32   R(17,31)                1.0912         estimate D2E/DX2                !
 ! A1    A(1,2,3)              105.9044         estimate D2E/DX2                !
 ! A2    A(1,2,15)             108.2339         estimate D2E/DX2                !
 ! A3    A(1,2,18)             119.7406         estimate D2E/DX2                !
 ! A4    A(3,2,15)             104.9897         estimate D2E/DX2                !
 ! A5    A(3,2,18)             110.0097         estimate D2E/DX2                !
 ! A6    A(15,2,18)            107.0362         estimate D2E/DX2                !
 ! A7    A(2,3,4)              117.5278         estimate D2E/DX2                !
 ! A8    A(2,3,19)             109.2831         estimate D2E/DX2                !
 ! A9    A(4,3,19)             112.8987         estimate D2E/DX2                !
 ! A10   A(3,4,5)              121.3442         estimate D2E/DX2                !
 ! A11   A(3,4,7)              129.8712         estimate D2E/DX2                !
 ! A12   A(5,4,7)              108.749          estimate D2E/DX2                !
 ! A13   A(4,5,6)              108.8313         estimate D2E/DX2                !
 ! A14   A(5,6,8)              107.7089         estimate D2E/DX2                !
 ! A15   A(4,7,8)              104.2109         estimate D2E/DX2                !
 ! A16   A(4,7,20)             132.3853         estimate D2E/DX2                !
 ! A17   A(8,7,20)             123.3994         estimate D2E/DX2                !
 ! A18   A(6,8,7)              110.4941         estimate D2E/DX2                !
 ! A19   A(6,8,9)              120.793          estimate D2E/DX2                !
 ! A20   A(7,8,9)              128.7128         estimate D2E/DX2                !
 ! A21   A(8,9,10)             119.6456         estimate D2E/DX2                !
 ! A22   A(8,9,14)             119.2476         estimate D2E/DX2                !
 ! A23   A(10,9,14)            121.1068         estimate D2E/DX2                !
 ! A24   A(9,10,11)            119.2057         estimate D2E/DX2                !
 ! A25   A(9,10,21)            120.2668         estimate D2E/DX2                !
 ! A26   A(11,10,21)           120.524          estimate D2E/DX2                !
 ! A27   A(10,11,12)           120.3209         estimate D2E/DX2                !
 ! A28   A(10,11,22)           119.4013         estimate D2E/DX2                !
 ! A29   A(12,11,22)           120.275          estimate D2E/DX2                !
 ! A30   A(11,12,13)           119.8021         estimate D2E/DX2                !
 ! A31   A(11,12,23)           120.0683         estimate D2E/DX2                !
 ! A32   A(13,12,23)           120.1296         estimate D2E/DX2                !
 ! A33   A(12,13,14)           120.5327         estimate D2E/DX2                !
 ! A34   A(12,13,24)           120.1989         estimate D2E/DX2                !
 ! A35   A(14,13,24)           119.2656         estimate D2E/DX2                !
 ! A36   A(9,14,13)            119.0273         estimate D2E/DX2                !
 ! A37   A(9,14,25)            119.7102         estimate D2E/DX2                !
 ! A38   A(13,14,25)           121.2614         estimate D2E/DX2                !
 ! A39   A(2,15,16)            116.5852         estimate D2E/DX2                !
 ! A40   A(2,15,17)            115.4071         estimate D2E/DX2                !
 ! A41   A(16,15,17)           114.4748         estimate D2E/DX2                !
 ! A42   A(15,16,26)           109.4702         estimate D2E/DX2                !
 ! A43   A(15,16,27)           107.3971         estimate D2E/DX2                !
 ! A44   A(15,16,28)           112.3244         estimate D2E/DX2                !
 ! A45   A(26,16,27)           108.9301         estimate D2E/DX2                !
 ! A46   A(26,16,28)           109.9169         estimate D2E/DX2                !
 ! A47   A(27,16,28)           108.715          estimate D2E/DX2                !
 ! A48   A(15,17,29)           109.3782         estimate D2E/DX2                !
 ! A49   A(15,17,30)           112.0089         estimate D2E/DX2                !
 ! A50   A(15,17,31)           107.4363         estimate D2E/DX2                !
 ! A51   A(29,17,30)           109.7436         estimate D2E/DX2                !
 ! A52   A(29,17,31)           108.9056         estimate D2E/DX2                !
 ! A53   A(30,17,31)           109.2963         estimate D2E/DX2                !
 ! D1    D(1,2,3,4)            -36.659          estimate D2E/DX2                !
 ! D2    D(1,2,3,19)          -166.9898         estimate D2E/DX2                !
 ! D3    D(15,2,3,4)          -151.0592         estimate D2E/DX2                !
 ! D4    D(15,2,3,19)           78.61           estimate D2E/DX2                !
 ! D5    D(18,2,3,4)            94.0881         estimate D2E/DX2                !
 ! D6    D(18,2,3,19)          -36.2427         estimate D2E/DX2                !
 ! D7    D(1,2,15,16)          172.8725         estimate D2E/DX2                !
 ! D8    D(1,2,15,17)          -48.4865         estimate D2E/DX2                !
 ! D9    D(3,2,15,16)          -74.3662         estimate D2E/DX2                !
 ! D10   D(3,2,15,17)           64.2748         estimate D2E/DX2                !
 ! D11   D(18,2,15,16)          42.5404         estimate D2E/DX2                !
 ! D12   D(18,2,15,17)        -178.8186         estimate D2E/DX2                !
 ! D13   D(2,3,4,5)             87.786          estimate D2E/DX2                !
 ! D14   D(2,3,4,7)            -94.6406         estimate D2E/DX2                !
 ! D15   D(19,3,4,5)          -143.5762         estimate D2E/DX2                !
 ! D16   D(19,3,4,7)            33.9972         estimate D2E/DX2                !
 ! D17   D(3,4,5,6)            178.1946         estimate D2E/DX2                !
 ! D18   D(7,4,5,6)              0.1611         estimate D2E/DX2                !
 ! D19   D(3,4,7,8)           -177.4957         estimate D2E/DX2                !
 ! D20   D(3,4,7,20)             3.2714         estimate D2E/DX2                !
 ! D21   D(5,4,7,8)              0.3159         estimate D2E/DX2                !
 ! D22   D(5,4,7,20)          -178.9171         estimate D2E/DX2                !
 ! D23   D(4,5,6,8)             -0.5753         estimate D2E/DX2                !
 ! D24   D(5,6,8,7)              0.8003         estimate D2E/DX2                !
 ! D25   D(5,6,8,9)           -179.265          estimate D2E/DX2                !
 ! D26   D(4,7,8,6)             -0.6747         estimate D2E/DX2                !
 ! D27   D(4,7,8,9)            179.3972         estimate D2E/DX2                !
 ! D28   D(20,7,8,6)           178.6467         estimate D2E/DX2                !
 ! D29   D(20,7,8,9)            -1.2814         estimate D2E/DX2                !
 ! D30   D(6,8,9,10)           153.8582         estimate D2E/DX2                !
 ! D31   D(6,8,9,14)           -26.212          estimate D2E/DX2                !
 ! D32   D(7,8,9,10)           -26.2202         estimate D2E/DX2                !
 ! D33   D(7,8,9,14)           153.7096         estimate D2E/DX2                !
 ! D34   D(8,9,10,11)          179.484          estimate D2E/DX2                !
 ! D35   D(8,9,10,21)           -1.1887         estimate D2E/DX2                !
 ! D36   D(14,9,10,11)          -0.4444         estimate D2E/DX2                !
 ! D37   D(14,9,10,21)         178.8829         estimate D2E/DX2                !
 ! D38   D(8,9,14,13)          179.9086         estimate D2E/DX2                !
 ! D39   D(8,9,14,25)           -0.4675         estimate D2E/DX2                !
 ! D40   D(10,9,14,13)          -0.1627         estimate D2E/DX2                !
 ! D41   D(10,9,14,25)         179.4612         estimate D2E/DX2                !
 ! D42   D(9,10,11,12)           0.64           estimate D2E/DX2                !
 ! D43   D(9,10,11,22)        -179.963          estimate D2E/DX2                !
 ! D44   D(21,10,11,12)       -178.6855         estimate D2E/DX2                !
 ! D45   D(21,10,11,22)          0.7114         estimate D2E/DX2                !
 ! D46   D(10,11,12,13)         -0.2309         estimate D2E/DX2                !
 ! D47   D(10,11,12,23)        179.7239         estimate D2E/DX2                !
 ! D48   D(22,11,12,13)       -179.6225         estimate D2E/DX2                !
 ! D49   D(22,11,12,23)          0.3322         estimate D2E/DX2                !
 ! D50   D(11,12,13,14)         -0.3883         estimate D2E/DX2                !
 ! D51   D(11,12,13,24)       -179.7742         estimate D2E/DX2                !
 ! D52   D(23,12,13,14)        179.657          estimate D2E/DX2                !
 ! D53   D(23,12,13,24)          0.2711         estimate D2E/DX2                !
 ! D54   D(12,13,14,9)           0.5807         estimate D2E/DX2                !
 ! D55   D(12,13,14,25)       -179.0372         estimate D2E/DX2                !
 ! D56   D(24,13,14,9)         179.9723         estimate D2E/DX2                !
 ! D57   D(24,13,14,25)          0.3543         estimate D2E/DX2                !
 ! D58   D(2,15,16,26)         -42.2829         estimate D2E/DX2                !
 ! D59   D(2,15,16,27)        -160.4053         estimate D2E/DX2                !
 ! D60   D(2,15,16,28)          80.113          estimate D2E/DX2                !
 ! D61   D(17,15,16,26)        178.697          estimate D2E/DX2                !
 ! D62   D(17,15,16,27)         60.5746         estimate D2E/DX2                !
 ! D63   D(17,15,16,28)        -58.9072         estimate D2E/DX2                !
 ! D64   D(2,15,17,29)          44.1313         estimate D2E/DX2                !
 ! D65   D(2,15,17,30)         -77.7672         estimate D2E/DX2                !
 ! D66   D(2,15,17,31)         162.1967         estimate D2E/DX2                !
 ! D67   D(16,15,17,29)       -176.3538         estimate D2E/DX2                !
 ! D68   D(16,15,17,30)         61.7477         estimate D2E/DX2                !
 ! D69   D(16,15,17,31)        -58.2884         estimate D2E/DX2                !
 --------------------------------------------------------------------------------
 Trust Radius=3.00D-01 FncErr=1.00D-07 GrdErr=1.00D-06 EigMax=2.50D+02 EigMin=1.00D-04
 Number of steps in this run=    164 maximum allowed number of steps=    186.
 GradGradGradGradGradGradGradGradGradGradGradGradGradGradGradGradGradGrad

 Leave Link  103 at Mon Sep 14 02:05:24 2020, MaxMem=  2147483648 cpu:               0.0 elap:               0.0
 (Enter /prod/apps/gaussian/g16b1/l202.exe)
                          Input orientation:                          
 ---------------------------------------------------------------------
 Center     Atomic      Atomic             Coordinates (Angstroms)
 Number     Number       Type             X           Y           Z
 ---------------------------------------------------------------------
      1          8           0       -2.314000   -0.877000    1.438000
      2         16           0       -2.725000    0.266000    0.625000
      3          7           0       -1.708000    0.250000   -0.757000
      4          6           0       -0.365000   -0.143000   -0.574000
      5          7           0        0.006000   -1.452000   -0.643000
      6          7           0        1.298000   -1.533000   -0.477000
      7          6           0        0.760000    0.626000   -0.357000
      8          7           0        1.773000   -0.272000   -0.312000
      9          6           0        3.165000   -0.036000   -0.123000
     10          6           0        3.713000    1.193000   -0.492000
     11          6           0        5.074000    1.418000   -0.293000
     12          6           0        5.881000    0.419000    0.257000
     13          6           0        5.320000   -0.808000    0.613000
     14          6           0        3.959000   -1.043000    0.432000
     15          7           0       -4.249000   -0.034000    0.040000
     16          6           0       -4.909000    1.069000   -0.672000
     17          6           0       -4.440000   -1.356000   -0.574000
     18          8           0       -2.748000    1.609000    1.216000
     19          1           0       -1.798000    1.138000   -1.252000
     20          1           0        0.901000    1.685000   -0.228000
     21          1           0        3.088000    1.958000   -0.938000
     22          1           0        5.503000    2.372000   -0.578000
     23          1           0        6.941000    0.597000    0.406000
     24          1           0        5.940000   -1.587000    1.044000
     25          1           0        3.509000   -1.984000    0.718000
     26          1           0       -4.735000    2.001000   -0.138000
     27          1           0       -5.980000    0.859000   -0.678000
     28          1           0       -4.563000    1.162000   -1.708000
     29          1           0       -3.974000   -2.116000    0.052000
     30          1           0       -4.022000   -1.403000   -1.587000
     31          1           0       -5.514000   -1.544000   -0.618000
 ---------------------------------------------------------------------
                    Distance matrix (angstroms):
                    1          2          3          4          5
     1  O    0.000000
     2  S    1.461622   0.000000
     3  N    2.540746   1.715946   0.000000
     4  C    2.895773   2.678522   1.411236   0.000000
     5  N    3.169162   3.466657   2.418180   1.362308   0.000000
     6  N    4.140544   4.542613   3.506212   2.169580   1.305136
     7  C    3.864002   3.638564   2.528320   1.379882   2.228990
     8  N    4.486880   4.625950   3.547939   2.157853   2.150407
     9  C    5.758771   5.944982   4.922386   3.560302   3.500677
    10  C    6.658418   6.599611   5.508785   4.292051   4.556388
    11  C    7.927542   7.936890   6.897466   5.665545   5.834726
    12  C    8.380477   8.615223   7.658308   6.326051   6.231073
    13  C    7.678759   8.116381   7.238028   5.845547   5.498260
    14  C    6.355322   6.813706   5.932997   4.529792   4.116930
    15  N    2.531655   1.659759   2.678161   3.933743   4.536765
    16  C    3.869501   2.663996   3.305206   4.703880   5.523903
    17  C    2.966051   2.647586   3.174358   4.251705   4.447572
    18  O    2.533345   1.467467   2.611745   3.457209   4.517756
    19  H    3.400380   2.267783   1.020622   2.038169   3.214560
    20  H    4.435721   3.986107   3.024227   2.250346   3.288468
    21  H    6.547076   6.252744   5.094275   4.058313   4.605849
    22  H    8.702054   8.578020   7.518873   6.384251   6.696582
    23  H    9.428294   9.674145   8.733738   7.408484   7.307053
    24  H    8.293844   8.870817   8.069081   6.667540   6.170620
    25  H    5.970861   6.628266   5.863742   4.479556   3.795570
    26  H    4.077732   2.762697   3.551322   4.887099   5.886877
    27  H    4.575009   3.555908   4.315913   5.704651   6.416708
    28  H    4.371823   3.102249   3.144387   4.540064   5.370566
    29  H    2.492332   2.749955   3.374492   4.160467   4.094426
    30  H    3.513483   3.059528   2.962415   3.998427   4.137429
    31  H    3.861609   3.549601   4.209916   5.336379   5.520823
                    6          7          8          9         10
     6  N    0.000000
     7  C    2.228256   0.000000
     8  N    1.357561   1.354473   0.000000
     9  C    2.419094   2.505399   1.424458   0.000000
    10  C    3.641912   3.009971   2.437668   1.395316   0.000000
    11  C    4.795877   4.386565   3.708512   2.405680   1.393753
    12  C    5.035171   5.161830   4.204391   2.779943   2.420806
    13  C    4.229682   4.877587   3.704609   2.404518   2.794186
    14  C    2.854348   3.693465   2.434455   1.397322   2.431869
    15  N    5.769185   5.067868   6.036972   7.415792   8.073537
    16  C    6.733148   5.695001   6.824735   8.167735   8.624770
    17  C    5.741549   5.569148   6.312295   7.731871   8.542572
    18  O    5.395232   3.968209   5.129560   6.281920   6.695882
    19  H    4.161740   2.757994   3.952688   5.223436   5.563429
    20  H    3.251943   1.076105   2.144129   2.845797   2.866898
    21  H    3.950152   2.744334   2.663457   2.155502   1.083866
    22  H    5.739447   5.058993   4.579781   3.386995   2.145119
    23  H    6.095903   6.227983   5.289509   3.865062   3.403176
    24  H    4.885133   5.804530   4.575134   3.386461   3.879075
    25  H    2.553419   3.940143   2.646798   2.149493   3.405737
    26  H    7.000083   5.668652   6.895714   8.158406   8.493932
    27  H    7.663638   6.751661   7.843604   9.205437   9.700536
    28  H    6.567321   5.517864   6.644552   7.979312   8.364914
    29  H    5.330452   5.486037   6.046556   7.437899   8.386619
    30  H    5.436120   5.338283   6.040431   7.460895   8.232160
    31  H    6.813468   6.643801   7.403512   8.822932   9.625205
                   11         12         13         14         15
    11  C    0.000000
    12  C    1.397050   0.000000
    13  C    2.415870   1.395344   0.000000
    14  C    2.797386   2.421188   1.392949   0.000000
    15  N    9.441267  10.142445   9.617337   8.279071   0.000000
    16  C    9.996286  10.849407  10.478874   9.182635   1.469406
    17  C    9.914143  10.505438   9.847176   8.464822   1.470089
    18  O    7.968516   8.763300   8.443822   7.254765   2.517027
    19  H    6.944240   7.858822   7.611246   6.382450   3.008363
    20  H    4.182038   5.161238   5.142946   4.150777   5.435925
    21  H    2.156808   3.405495   3.877909   3.411970   7.665254
    22  H    1.084150   2.157387   3.400643   3.881528  10.063412
    23  H    2.155999   1.085120   2.155114   3.403322  11.213751
    24  H    3.401110   2.155664   1.084897   2.143558  10.355460
    25  H    3.878782   3.407831   2.161879   1.081562   8.027998
    26  H    9.827532  10.740494  10.466972   9.229110   2.099787
    27  H   11.074819  11.905929  11.495024  10.180050   2.075894
    28  H    9.743692  10.653188  10.341259   9.059035   2.141148
    29  H    9.719799  10.177882   9.402341   8.014251   2.100117
    30  H    9.610915  10.236671   9.615976   8.240287   2.138415
    31  H   10.999310  11.595905  10.928523   9.544173   2.076846
                   16         17         18         19         20
    16  C    0.000000
    17  C    2.471880   0.000000
    18  O    2.919943   3.854632   0.000000
    19  H    3.165357   3.695928   2.686143   0.000000
    20  H    5.859411   6.155784   3.925062   2.938092   0.000000
    21  H    8.050657   8.233218   6.230603   4.964272   2.315512
    22  H   10.493636  10.618910   8.478184   7.435162   4.666141
    23  H   11.908290  11.588864   9.775324   8.911328   6.169870
    24  H   11.300433  10.507887   9.258798   8.519031   6.141294
    25  H    9.061768   8.077763   7.232406   6.464676   4.599798
    26  H    1.088143   3.398024   2.436216   3.257566   5.645569
    27  H    1.091411   2.699748   3.820414   4.230419   6.944994
    28  H    1.096203   2.764310   3.470419   2.802452   5.685000
    29  H    3.397444   1.089326   4.090672   4.126004   6.188023
    30  H    2.781147   1.096860   4.307207   3.393388   5.968128
    31  H    2.682668   1.091218   4.577742   4.626417   7.192410
                   21         22         23         24         25
    21  H    0.000000
    22  H    2.476534   0.000000
    23  H    4.301659   2.487313   0.000000
    24  H    4.962787   4.300643   2.485740   0.000000
    25  H    4.296387   4.962901   4.305523   2.484682   0.000000
    26  H    7.863916  10.254164  11.772686  11.323714   9.196548
    27  H    9.138054  11.582679  12.969038  12.289614  10.003629
    28  H    7.730738  10.201243  11.710262  11.200157   8.996665
    29  H    8.212760  10.504883  11.252685   9.977540   7.513739
    30  H    7.891110  10.295355  11.320752  10.305215   7.897249
    31  H    9.293052  11.692346  12.679096  11.574032   9.131978
                   26         27         28         29         30
    26  H    0.000000
    27  H    1.773637   0.000000
    28  H    1.788409   1.777807   0.000000
    29  H    4.191051   3.661634   3.766936   0.000000
    30  H    3.767650   3.126770   2.624223   1.788014   0.000000
    31  H    3.661184   2.448503   3.068377   1.774171   1.784630
                   31
    31  H    0.000000
 Symmetry turned off by external request.
 Stoichiometry    C10H13N5O2S
 Framework group  C1[X(C10H13N5O2S)]
 Deg. of freedom    87
 Full point group                 C1      NOp   1
 Rotational constants (GHZ):           1.3108834           0.1538698           0.1477112
 Leave Link  202 at Mon Sep 14 02:05:24 2020, MaxMem=  2147483648 cpu:               0.0 elap:               0.0
 (Enter /prod/apps/gaussian/g16b1/l301.exe)
 Standard basis: 6-31G(d) (6D, 7F)
 Ernie: Thresh=  0.10000D-02 Tol=  0.10000D-05 Strict=F.
   300 basis functions,   580 primitive gaussians,   300 cartesian basis functions
    70 alpha electrons       70 beta electrons
       nuclear repulsion energy      1450.5348373030 Hartrees.
 IExCor=  402 DFT=T Ex+Corr=B3LYP ExCW=0 ScaHFX=  0.200000
 ScaDFX=  0.800000  0.720000  1.000000  0.810000 ScalE2=  1.000000  1.000000
 IRadAn=      5 IRanWt=     -1 IRanGd=            0 ICorTp=0 IEmpDi=  4
 NAtoms=   31 NActive=   31 NUniq=   31 SFac= 1.00D+00 NAtFMM=   60 NAOKFM=F Big=F
 Integral buffers will be    131072 words long.
 Raffenetti 2 integral format.
 Two-electron integral symmetry is turned off.
 Using the following non-standard input for PCM:
 MSTModel=DFT cav
 --- end of non-standard input.
 MST model for solvation energy: B3LYP parametrization.
 MST cavity parameters:
 ISph   IAn     Re0     Alpha   Atom Type   QCorr
 ------------------------------------------------
   1      8     1.40     1.25      O          F
   2     16     1.75     1.25      S          F
   3      7     1.50     1.25      NH         F
   4      6     1.50     1.25      C          F
   5      7     1.40     1.25      N          F
   6      7     1.40     1.25      N          F
   7      6     1.50     1.25      CH         F
   8      7     1.40     1.25      N          F
   9      6     1.50     1.25      C          F
  10      6     1.50     1.25      CH         F
  11      6     1.50     1.25      CH         F
  12      6     1.50     1.25      CH         F
  13      6     1.50     1.25      CH         F
  14      6     1.50     1.25      CH         F
  15      7     1.40     1.25      N          F
  16      6     1.50     1.25      CH3        F
  17      6     1.50     1.25      CH3        F
  18      8     1.40     1.25      O          F
  19      1     0.90     1.25      NH         F
  20      1     1.20     1.25      CH         F
  21      1     1.20     1.25      CH         F
  22      1     1.20     1.25      CH         F
  23      1     1.20     1.25      CH         F
  24      1     1.20     1.25      CH         F
  25      1     1.20     1.25      CH         F
  26      1     1.20     1.25      CH3        F
  27      1     1.20     1.25      CH3        F
  28      1     1.20     1.25      CH3        F
  29      1     1.20     1.25      CH3        F
  30      1     1.20     1.25      CH3        F
  31      1     1.20     1.25      CH3        F
 ------------------------------------------------------------------------------
 Polarizable Continuum Model (PCM)
 =================================
 Model                : PCM.
 Atomic radii         : MST.
 Polarization charges : Total charges.
 Charge compensation  : None.
 Solution method      : On-the-fly selection.
 Cavity type          : Scaled VdW (van der Waals Surface) (Alpha=1.250).
 Cavity algorithm     : GePol (No added spheres)
                        Default sphere list used, NSphG=   31.
                        Lebedev-Laikov grids with approx.  5.0 points / Ang**2.
                        Smoothing algorithm: York/Karplus (Gamma=1.0000).
                        Polarization charges: spherical gaussians, with
                                              point-specific exponents (IZeta= 3).
                        Self-potential: point-specific (ISelfS= 7).
                        Self-field    : sphere-specific E.n sum rule (ISelfD= 2).
 1st derivatives      : Analytical E(r).r(x)/FMM algorithm (CHGder, D1EAlg=3).
                        Cavity 1st derivative terms included.
 Solvent              : Water, Eps=  78.355300 Eps(inf)=   1.777849
 ------------------------------------------------------------------------------
 GePol: Number of generator spheres                  =      31
 GePol: Total number of spheres                      =      31
 GePol: Number of exposed spheres                    =      31 (100.00%)
 GePol: Number of points                             =    2382
 GePol: Average weight of points                     =       0.13
 GePol: Minimum weight of points                     =   0.16D-08
 GePol: Maximum weight of points                     =    0.22001
 GePol: Number of points with low weight             =     134
 GePol: Fraction of low-weight points (<1% of avg)   =       5.63%
 GePol: Cavity surface area                          =    310.884 Ang**2
 GePol: Cavity volume                                =    291.626 Ang**3
 PCM non-electrostatic energy =         0.0034159894 Hartrees.
 Nuclear repulsion after PCM non-electrostatic terms =     1450.5382532924 Hartrees.
 Leave Link  301 at Mon Sep 14 02:05:24 2020, MaxMem=  2147483648 cpu:               0.3 elap:               0.1
 (Enter /prod/apps/gaussian/g16b1/l302.exe)
 NPDir=0 NMtPBC=     1 NCelOv=     1 NCel=       1 NClECP=     1 NCelD=      1
         NCelK=      1 NCelE2=     1 NClLst=     1 CellRange=     0.0.
 One-electron integrals computed using PRISM.
 NBasis=   300 RedAO= T EigKep=  4.67D-04  NBF=   300
 NBsUse=   300 1.00D-06 EigRej= -1.00D+00 NBFU=   300
 Precomputing XC quadrature grid using
 IXCGrd= 4 IRadAn=           5 IRanWt=          -1 IRanGd=           0 AccXCQ= 0.00D+00.
 Generated NRdTot=       0 NPtTot=           0 NUsed=           0 NTot=          32
 NSgBfM=   297   297   297   297   297 MxSgAt=    31 MxSgA2=    31.
 Leave Link  302 at Mon Sep 14 02:05:25 2020, MaxMem=  2147483648 cpu:               1.4 elap:               0.4
 (Enter /prod/apps/gaussian/g16b1/l303.exe)
 DipDrv:  MaxL=1.
 Leave Link  303 at Mon Sep 14 02:05:25 2020, MaxMem=  2147483648 cpu:               0.1 elap:               0.1
 (Enter /prod/apps/gaussian/g16b1/l401.exe)
 ExpMin= 1.17D-01 ExpMax= 2.19D+04 ExpMxC= 3.30D+03 IAcc=3 IRadAn=         5 AccDes= 0.00D+00
 Harris functional with IExCor=  402 and IRadAn=       5 diagonalized for initial guess.
 HarFok:  IExCor=  402 AccDes= 0.00D+00 IRadAn=         5 IDoV= 1 UseB2=F ITyADJ=14
 ICtDFT=  3500011 ScaDFX=  1.000000  1.000000  1.000000  1.000000
 FoFCou: FMM=F IPFlag=           0 FMFlag=      100000 FMFlg1=           0
         NFxFlg=           0 DoJE=T BraDBF=F KetDBF=T FulRan=T
         wScrn=  0.000000 ICntrl=       500 IOpCl=  0 I1Cent=   200000004 NGrid=           0
         NMat0=    1 NMatS0=      1 NMatT0=    0 NMatD0=    1 NMtDS0=    0 NMtDT0=    0
 Symmetry not used in FoFCou.
 Harris En= -1211.15932657728    
 JPrj=0 DoOrth=F DoCkMO=F.
 Leave Link  401 at Mon Sep 14 02:05:27 2020, MaxMem=  2147483648 cpu:               7.4 elap:               1.9
 (Enter /prod/apps/gaussian/g16b1/l502.exe)
 Keep R1 ints in memory in canonical form, NReq=1032920423.
 FoFCou: FMM=F IPFlag=           0 FMFlag=           0 FMFlg1=           0
         NFxFlg=           0 DoJE=F BraDBF=F KetDBF=F FulRan=T
         wScrn=  0.000000 ICntrl=       600 IOpCl=  0 I1Cent=           0 NGrid=           0
         NMat0=    1 NMatS0=  45150 NMatT0=    0 NMatD0=    1 NMtDS0=    0 NMtDT0=    0
 Symmetry not used in FoFCou.
 Two-electron integral symmetry not used.
 Closed shell SCF:
 Using DIIS extrapolation, IDIIS=  1040.
 NGot=  2147483648 LenX=  1128015396 LenY=  1127924955
 Requested convergence on RMS density matrix=1.00D-08 within2000 cycles.
 Requested convergence on MAX density matrix=1.00D-06.
 Requested convergence on             energy=1.00D-06.
 No special actions if energy rises.

 Cycle   1  Pass 1  IDiag  1:
 Inv3:  Mode=1 IEnd=    17021772.
 Iteration    1 A*A^-1 deviation from unit magnitude is 2.89D-15 for    952.
 Iteration    1 A*A^-1 deviation from orthogonality  is 2.93D-15 for   2141    911.
 Iteration    1 A^-1*A deviation from unit magnitude is 2.89D-15 for    509.
 Iteration    1 A^-1*A deviation from orthogonality  is 1.90D-15 for   1943    100.
 E= -1210.65352606051    
 DIIS: error= 3.45D-02 at cycle   1 NSaved=   1.
 NSaved= 1 IEnMin= 1 EnMin= -1210.65352606051     IErMin= 1 ErrMin= 3.45D-02
 ErrMax= 3.45D-02  0.00D+00 EMaxC= 1.00D-01 BMatC= 6.21D-01 BMatP= 6.21D-01
 IDIUse=3 WtCom= 6.55D-01 WtEn= 3.45D-01
 Coeff-Com:  0.100D+01
 Coeff-En:   0.100D+01
 Coeff:      0.100D+01
 Gap=     0.296 Goal=   None    Shift=    0.000
 GapD=    0.296 DampG=1.000 DampE=0.500 DampFc=0.5000 IDamp=-1.
 Damping current iteration by 5.00D-01
 RMSDP=6.15D-03 MaxDP=5.91D-01              OVMax= 2.15D-01

 Cycle   2  Pass 1  IDiag  1:
 E= -1210.80000606061     Delta-E=       -0.146480000100 Rises=F Damp=T
 DIIS: error= 1.27D-02 at cycle   2 NSaved=   2.
 NSaved= 2 IEnMin= 2 EnMin= -1210.80000606061     IErMin= 2 ErrMin= 1.27D-02
 ErrMax= 1.27D-02  0.00D+00 EMaxC= 1.00D-01 BMatC= 8.71D-02 BMatP= 6.21D-01
 IDIUse=3 WtCom= 8.73D-01 WtEn= 1.27D-01
 Coeff-Com:  0.215D+00 0.785D+00
 Coeff-En:   0.346D+00 0.654D+00
 Coeff:      0.232D+00 0.768D+00
 Gap=     0.218 Goal=   None    Shift=    0.000
 RMSDP=1.67D-03 MaxDP=1.30D-01 DE=-1.46D-01 OVMax= 1.62D-01

 Cycle   3  Pass 1  IDiag  1:
 E= -1211.15328931881     Delta-E=       -0.353283258196 Rises=F Damp=F
 DIIS: error= 8.56D-03 at cycle   3 NSaved=   3.
 NSaved= 3 IEnMin= 3 EnMin= -1211.15328931881     IErMin= 3 ErrMin= 8.56D-03
 ErrMax= 8.56D-03  0.00D+00 EMaxC= 1.00D-01 BMatC= 3.87D-02 BMatP= 8.71D-02
 IDIUse=3 WtCom= 9.14D-01 WtEn= 8.56D-02
 Coeff-Com:  0.610D-01 0.401D+00 0.538D+00
 Coeff-En:   0.000D+00 0.000D+00 0.100D+01
 Coeff:      0.558D-01 0.367D+00 0.577D+00
 Gap=     0.201 Goal=   None    Shift=    0.000
 RMSDP=8.61D-04 MaxDP=2.85D-02 DE=-3.53D-01 OVMax= 3.31D-02

 Cycle   4  Pass 1  IDiag  1:
 E= -1211.18136977176     Delta-E=       -0.028080452947 Rises=F Damp=F
 DIIS: error= 3.36D-03 at cycle   4 NSaved=   4.
 NSaved= 4 IEnMin= 4 EnMin= -1211.18136977176     IErMin= 4 ErrMin= 3.36D-03
 ErrMax= 3.36D-03  0.00D+00 EMaxC= 1.00D-01 BMatC= 6.92D-03 BMatP= 3.87D-02
 IDIUse=3 WtCom= 9.66D-01 WtEn= 3.36D-02
 Coeff-Com:  0.301D-02 0.867D-01 0.316D+00 0.595D+00
 Coeff-En:   0.000D+00 0.000D+00 0.141D+00 0.859D+00
 Coeff:      0.291D-02 0.838D-01 0.310D+00 0.604D+00
 Gap=     0.199 Goal=   None    Shift=    0.000
 RMSDP=2.96D-04 MaxDP=1.32D-02 DE=-2.81D-02 OVMax= 1.44D-02

 Cycle   5  Pass 1  IDiag  1:
 E= -1211.18688322504     Delta-E=       -0.005513453280 Rises=F Damp=F
 DIIS: error= 7.91D-04 at cycle   5 NSaved=   5.
 NSaved= 5 IEnMin= 5 EnMin= -1211.18688322504     IErMin= 5 ErrMin= 7.91D-04
 ErrMax= 7.91D-04  0.00D+00 EMaxC= 1.00D-01 BMatC= 4.64D-04 BMatP= 6.92D-03
 IDIUse=3 WtCom= 9.92D-01 WtEn= 7.91D-03
 Coeff-Com: -0.279D-02 0.171D-01 0.115D+00 0.306D+00 0.565D+00
 Coeff-En:   0.000D+00 0.000D+00 0.000D+00 0.000D+00 0.100D+01
 Coeff:     -0.277D-02 0.170D-01 0.114D+00 0.303D+00 0.569D+00
 Gap=     0.200 Goal=   None    Shift=    0.000
 RMSDP=8.15D-05 MaxDP=4.81D-03 DE=-5.51D-03 OVMax= 4.32D-03

 Cycle   6  Pass 1  IDiag  1:
 E= -1211.18726380084     Delta-E=       -0.000380575805 Rises=F Damp=F
 DIIS: error= 1.58D-04 at cycle   6 NSaved=   6.
 NSaved= 6 IEnMin= 6 EnMin= -1211.18726380084     IErMin= 6 ErrMin= 1.58D-04
 ErrMax= 1.58D-04  0.00D+00 EMaxC= 1.00D-01 BMatC= 2.82D-05 BMatP= 4.64D-04
 IDIUse=3 WtCom= 9.98D-01 WtEn= 1.58D-03
 Coeff-Com: -0.171D-02 0.289D-02 0.354D-01 0.110D+00 0.282D+00 0.571D+00
 Coeff-En:   0.000D+00 0.000D+00 0.000D+00 0.000D+00 0.000D+00 0.100D+01
 Coeff:     -0.170D-02 0.288D-02 0.353D-01 0.110D+00 0.282D+00 0.572D+00
 Gap=     0.199 Goal=   None    Shift=    0.000
 RMSDP=1.85D-05 MaxDP=9.07D-04 DE=-3.81D-04 OVMax= 1.17D-03

 Cycle   7  Pass 1  IDiag  1:
 E= -1211.18728491391     Delta-E=       -0.000021113067 Rises=F Damp=F
 DIIS: error= 6.96D-05 at cycle   7 NSaved=   7.
 NSaved= 7 IEnMin= 7 EnMin= -1211.18728491391     IErMin= 7 ErrMin= 6.96D-05
 ErrMax= 6.96D-05  0.00D+00 EMaxC= 1.00D-01 BMatC= 3.13D-06 BMatP= 2.82D-05
 IDIUse=1 WtCom= 1.00D+00 WtEn= 0.00D+00
 Coeff-Com: -0.762D-03 0.396D-03 0.109D-01 0.374D-01 0.114D+00 0.321D+00
 Coeff-Com:  0.517D+00
 Coeff:     -0.762D-03 0.396D-03 0.109D-01 0.374D-01 0.114D+00 0.321D+00
 Coeff:      0.517D+00
 Gap=     0.199 Goal=   None    Shift=    0.000
 RMSDP=6.54D-06 MaxDP=2.70D-04 DE=-2.11D-05 OVMax= 4.21D-04

 Cycle   8  Pass 1  IDiag  1:
 E= -1211.18728735578     Delta-E=       -0.000002441868 Rises=F Damp=F
 DIIS: error= 2.28D-05 at cycle   8 NSaved=   8.
 NSaved= 8 IEnMin= 8 EnMin= -1211.18728735578     IErMin= 8 ErrMin= 2.28D-05
 ErrMax= 2.28D-05  0.00D+00 EMaxC= 1.00D-01 BMatC= 3.07D-07 BMatP= 3.13D-06
 IDIUse=1 WtCom= 1.00D+00 WtEn= 0.00D+00
 Coeff-Com: -0.235D-03-0.141D-03 0.185D-02 0.782D-02 0.311D-01 0.111D+00
 Coeff-Com:  0.284D+00 0.564D+00
 Coeff:     -0.235D-03-0.141D-03 0.185D-02 0.782D-02 0.311D-01 0.111D+00
 Coeff:      0.284D+00 0.564D+00
 Gap=     0.200 Goal=   None    Shift=    0.000
 RMSDP=2.09D-06 MaxDP=8.87D-05 DE=-2.44D-06 OVMax= 1.41D-04

 Cycle   9  Pass 1  IDiag  1:
 E= -1211.18728758067     Delta-E=       -0.000000224892 Rises=F Damp=F
 DIIS: error= 6.65D-06 at cycle   9 NSaved=   9.
 NSaved= 9 IEnMin= 9 EnMin= -1211.18728758067     IErMin= 9 ErrMin= 6.65D-06
 ErrMax= 6.65D-06  0.00D+00 EMaxC= 1.00D-01 BMatC= 3.56D-08 BMatP= 3.07D-07
 IDIUse=1 WtCom= 1.00D+00 WtEn= 0.00D+00
 Coeff-Com: -0.246D-04-0.103D-03-0.436D-03-0.827D-03 0.145D-02 0.162D-01
 Coeff-Com:  0.840D-01 0.306D+00 0.594D+00
 Coeff:     -0.246D-04-0.103D-03-0.436D-03-0.827D-03 0.145D-02 0.162D-01
 Coeff:      0.840D-01 0.306D+00 0.594D+00
 Gap=     0.199 Goal=   None    Shift=    0.000
 RMSDP=6.74D-07 MaxDP=3.12D-05 DE=-2.25D-07 OVMax= 4.78D-05

 Cycle  10  Pass 1  IDiag  1:
 E= -1211.18728760969     Delta-E=       -0.000000029018 Rises=F Damp=F
 DIIS: error= 2.61D-06 at cycle  10 NSaved=  10.
 NSaved=10 IEnMin=10 EnMin= -1211.18728760969     IErMin=10 ErrMin= 2.61D-06
 ErrMax= 2.61D-06  0.00D+00 EMaxC= 1.00D-01 BMatC= 2.63D-09 BMatP= 3.56D-08
 IDIUse=1 WtCom= 1.00D+00 WtEn= 0.00D+00
 Coeff-Com: -0.168D-05-0.480D-04-0.336D-03-0.876D-03-0.104D-02 0.174D-02
 Coeff-Com:  0.284D-01 0.128D+00 0.313D+00 0.532D+00
 Coeff:     -0.168D-05-0.480D-04-0.336D-03-0.876D-03-0.104D-02 0.174D-02
 Coeff:      0.284D-01 0.128D+00 0.313D+00 0.532D+00
 Gap=     0.200 Goal=   None    Shift=    0.000
 RMSDP=2.06D-07 MaxDP=8.61D-06 DE=-2.90D-08 OVMax= 1.51D-05

 Cycle  11  Pass 1  IDiag  1:
 E= -1211.18728761196     Delta-E=       -0.000000002275 Rises=F Damp=F
 DIIS: error= 7.15D-07 at cycle  11 NSaved=  11.
 NSaved=11 IEnMin=11 EnMin= -1211.18728761196     IErMin=11 ErrMin= 7.15D-07
 ErrMax= 7.15D-07  0.00D+00 EMaxC= 1.00D-01 BMatC= 2.13D-10 BMatP= 2.63D-09
 IDIUse=1 WtCom= 1.00D+00 WtEn= 0.00D+00
 Coeff-Com:  0.240D-05-0.535D-05-0.107D-03-0.318D-03-0.718D-03-0.140D-02
 Coeff-Com:  0.312D-02 0.207D-01 0.689D-01 0.249D+00 0.661D+00
 Coeff:      0.240D-05-0.535D-05-0.107D-03-0.318D-03-0.718D-03-0.140D-02
 Coeff:      0.312D-02 0.207D-01 0.689D-01 0.249D+00 0.661D+00
 Gap=     0.200 Goal=   None    Shift=    0.000
 RMSDP=6.03D-08 MaxDP=2.96D-06 DE=-2.27D-09 OVMax= 5.84D-06

 Cycle  12  Pass 1  IDiag  1:
 E= -1211.18728761213     Delta-E=       -0.000000000166 Rises=F Damp=F
 DIIS: error= 2.71D-07 at cycle  12 NSaved=  12.
 NSaved=12 IEnMin=12 EnMin= -1211.18728761213     IErMin=12 ErrMin= 2.71D-07
 ErrMax= 2.71D-07  0.00D+00 EMaxC= 1.00D-01 BMatC= 4.88D-11 BMatP= 2.13D-10
 IDIUse=1 WtCom= 1.00D+00 WtEn= 0.00D+00
 Coeff-Com:  0.172D-05-0.153D-06-0.441D-04-0.138D-03-0.404D-03-0.116D-02
 Coeff-Com: -0.499D-03 0.210D-02 0.167D-01 0.115D+00 0.419D+00 0.449D+00
 Coeff:      0.172D-05-0.153D-06-0.441D-04-0.138D-03-0.404D-03-0.116D-02
 Coeff:     -0.499D-03 0.210D-02 0.167D-01 0.115D+00 0.419D+00 0.449D+00
 Gap=     0.200 Goal=   None    Shift=    0.000
 RMSDP=2.35D-08 MaxDP=1.09D-06 DE=-1.66D-10 OVMax= 1.48D-06

 Cycle  13  Pass 1  IDiag  1:
 E= -1211.18728761217     Delta-E=       -0.000000000040 Rises=F Damp=F
 DIIS: error= 6.55D-08 at cycle  13 NSaved=  13.
 NSaved=13 IEnMin=13 EnMin= -1211.18728761217     IErMin=13 ErrMin= 6.55D-08
 ErrMax= 6.55D-08  0.00D+00 EMaxC= 1.00D-01 BMatC= 2.14D-12 BMatP= 4.88D-11
 IDIUse=1 WtCom= 1.00D+00 WtEn= 0.00D+00
 Coeff-Com:  0.434D-06 0.842D-06-0.356D-05-0.125D-04-0.752D-04-0.327D-03
 Coeff-Com: -0.731D-03-0.260D-02-0.438D-02 0.119D-01 0.891D-01 0.198D+00
 Coeff-Com:  0.709D+00
 Coeff:      0.434D-06 0.842D-06-0.356D-05-0.125D-04-0.752D-04-0.327D-03
 Coeff:     -0.731D-03-0.260D-02-0.438D-02 0.119D-01 0.891D-01 0.198D+00
 Coeff:      0.709D+00
 Gap=     0.200 Goal=   None    Shift=    0.000
 RMSDP=6.76D-09 MaxDP=3.44D-07 DE=-4.05D-11 OVMax= 4.42D-07

 Error on total polarization charges =  0.02094
 SCF Done:  E(RB3LYP) =  -1211.18728761     A.U. after   13 cycles
            NFock= 13  Conv=0.68D-08     -V/T= 2.0076
 KE= 1.202084039576D+03 PE=-5.738365661486D+03 EE= 1.874556081006D+03
 Leave Link  502 at Mon Sep 14 02:06:28 2020, MaxMem=  2147483648 cpu:             188.9 elap:              61.1
 (Enter /prod/apps/gaussian/g16b1/l601.exe)
 Copying SCF densities to generalized density rwf, IOpCl= 0 IROHF=0.

 **********************************************************************

            Population analysis using the SCF Density.

 **********************************************************************

 Alpha  occ. eigenvalues --  -89.14029 -19.16036 -19.15984 -14.44569 -14.40374
 Alpha  occ. eigenvalues --  -14.38251 -14.38077 -14.37047 -10.26241 -10.25080
 Alpha  occ. eigenvalues --  -10.24393 -10.22108 -10.21990 -10.20645 -10.20395
 Alpha  occ. eigenvalues --  -10.20187 -10.20108 -10.19888  -8.16308  -6.12768
 Alpha  occ. eigenvalues --   -6.12732  -6.12712  -1.13561  -1.11247  -1.01912
 Alpha  occ. eigenvalues --   -0.95628  -0.94747  -0.92643  -0.86107  -0.80853
 Alpha  occ. eigenvalues --   -0.76417  -0.75895  -0.72758  -0.71644  -0.66650
 Alpha  occ. eigenvalues --   -0.65068  -0.61724  -0.60742  -0.58391  -0.56213
 Alpha  occ. eigenvalues --   -0.54737  -0.52391  -0.51533  -0.49772  -0.49052
 Alpha  occ. eigenvalues --   -0.48536  -0.48073  -0.46455  -0.45405  -0.44778
 Alpha  occ. eigenvalues --   -0.44389  -0.43330  -0.41726  -0.40784  -0.38939
 Alpha  occ. eigenvalues --   -0.38776  -0.37381  -0.36701  -0.36099  -0.35315
 Alpha  occ. eigenvalues --   -0.35058  -0.33597  -0.33332  -0.32019  -0.30936
 Alpha  occ. eigenvalues --   -0.29031  -0.26654  -0.26556  -0.26412  -0.24336
 Alpha virt. eigenvalues --   -0.04386  -0.01451   0.01102   0.01948   0.06331
 Alpha virt. eigenvalues --    0.08107   0.08856   0.09068   0.09741   0.11023
 Alpha virt. eigenvalues --    0.11788   0.13369   0.14214   0.15009   0.15157
 Alpha virt. eigenvalues --    0.16116   0.16283   0.16973   0.18176   0.18355
 Alpha virt. eigenvalues --    0.18944   0.19466   0.19994   0.20736   0.21289
 Alpha virt. eigenvalues --    0.22373   0.23416   0.25417   0.29294   0.30379
 Alpha virt. eigenvalues --    0.30865   0.32515   0.33465   0.34710   0.35848
 Alpha virt. eigenvalues --    0.40681   0.41215   0.43255   0.45227   0.48424
 Alpha virt. eigenvalues --    0.48883   0.49890   0.50096   0.51221   0.52461
 Alpha virt. eigenvalues --    0.54125   0.54854   0.55787   0.56655   0.56979
 Alpha virt. eigenvalues --    0.57721   0.57943   0.58408   0.58706   0.60271
 Alpha virt. eigenvalues --    0.60681   0.61030   0.61169   0.62512   0.63674
 Alpha virt. eigenvalues --    0.64093   0.65484   0.66955   0.68058   0.69125
 Alpha virt. eigenvalues --    0.70261   0.72026   0.72408   0.73732   0.75466
 Alpha virt. eigenvalues --    0.76829   0.77958   0.78888   0.80257   0.80771
 Alpha virt. eigenvalues --    0.81924   0.82904   0.83586   0.83952   0.84140
 Alpha virt. eigenvalues --    0.85040   0.85651   0.86202   0.87687   0.88904
 Alpha virt. eigenvalues --    0.89641   0.90091   0.91227   0.92089   0.93562
 Alpha virt. eigenvalues --    0.94057   0.94447   0.95683   0.96835   0.98564
 Alpha virt. eigenvalues --    0.99721   1.00153   1.00558   1.02342   1.04397
 Alpha virt. eigenvalues --    1.05145   1.05796   1.07195   1.08471   1.10124
 Alpha virt. eigenvalues --    1.13462   1.13662   1.14465   1.16021   1.16416
 Alpha virt. eigenvalues --    1.17913   1.18838   1.19719   1.22117   1.25019
 Alpha virt. eigenvalues --    1.25391   1.27218   1.31591   1.35883   1.36757
 Alpha virt. eigenvalues --    1.38418   1.39882   1.41520   1.41846   1.43925
 Alpha virt. eigenvalues --    1.44836   1.45945   1.47874   1.48217   1.49834
 Alpha virt. eigenvalues --    1.50817   1.52743   1.57438   1.58097   1.60012
 Alpha virt. eigenvalues --    1.61810   1.67165   1.68732   1.68890   1.75838
 Alpha virt. eigenvalues --    1.77701   1.78559   1.79598   1.80030   1.80634
 Alpha virt. eigenvalues --    1.81139   1.84160   1.86526   1.87408   1.88020
 Alpha virt. eigenvalues --    1.90733   1.92038   1.92938   1.94269   1.95599
 Alpha virt. eigenvalues --    1.96406   1.96828   1.97134   1.99154   2.03461
 Alpha virt. eigenvalues --    2.05974   2.06623   2.07733   2.09173   2.09667
 Alpha virt. eigenvalues --    2.10530   2.10988   2.12750   2.14415   2.14713
 Alpha virt. eigenvalues --    2.16709   2.19417   2.19816   2.22075   2.23704
 Alpha virt. eigenvalues --    2.24490   2.26849   2.27090   2.29163   2.30078
 Alpha virt. eigenvalues --    2.32199   2.33812   2.35622   2.37878   2.39679
 Alpha virt. eigenvalues --    2.42648   2.47212   2.48157   2.50779   2.53066
 Alpha virt. eigenvalues --    2.56028   2.57927   2.58954   2.60360   2.63692
 Alpha virt. eigenvalues --    2.64077   2.66947   2.69835   2.71047   2.72029
 Alpha virt. eigenvalues --    2.73731   2.74779   2.75709   2.78491   2.83818
 Alpha virt. eigenvalues --    2.85453   2.88470   2.99955   3.06365   3.13028
 Alpha virt. eigenvalues --    3.25157   3.42204   3.60310   3.82745   3.89710
 Alpha virt. eigenvalues --    3.96283   3.99742   4.02620   4.07693   4.10291
 Alpha virt. eigenvalues --    4.11371   4.12799   4.16249   4.21333   4.27621
 Alpha virt. eigenvalues --    4.30242   4.31711   4.38832   4.47162   4.70960
          Condensed to atoms (all electrons):
               1          2          3          4          5          6
     1  O    8.263573   0.452459  -0.055604   0.006618  -0.000743   0.000031
     2  S    0.452459  13.522579   0.131702  -0.019582   0.001909  -0.000042
     3  N   -0.055604   0.131702   7.368410   0.284792  -0.058959   0.005582
     4  C    0.006618  -0.019582   0.284792   4.634217   0.372590  -0.084568
     5  N   -0.000743   0.001909  -0.058959   0.372590   6.890847   0.307615
     6  N    0.000031  -0.000042   0.005582  -0.084568   0.307615   6.770542
     7  C   -0.000752   0.000008  -0.073620   0.512567  -0.075455  -0.097092
     8  N   -0.000023   0.000247   0.003441  -0.034672  -0.096933   0.229818
     9  C   -0.000000  -0.000016  -0.000124   0.004105   0.006507  -0.043124
    10  C   -0.000000  -0.000000   0.000004   0.000902  -0.000334   0.002839
    11  C   -0.000000  -0.000000   0.000000  -0.000008   0.000002  -0.000068
    12  C    0.000000   0.000000  -0.000000   0.000000  -0.000000   0.000017
    13  C    0.000000  -0.000000  -0.000000   0.000005  -0.000004   0.000272
    14  C    0.000000  -0.000000   0.000001  -0.000411   0.000376   0.000125
    15  N   -0.051891   0.187090  -0.057606   0.001141   0.000012  -0.000000
    16  C    0.001342  -0.014491   0.000289   0.000011  -0.000001   0.000000
    17  C   -0.006987  -0.015174   0.000320  -0.000165  -0.000015   0.000001
    18  O   -0.042884   0.456940  -0.055964  -0.002133   0.000024   0.000001
    19  H    0.001389  -0.007048   0.299176  -0.026706   0.001712  -0.000081
    20  H    0.000004   0.000192  -0.000581  -0.025382   0.004051   0.003512
    21  H   -0.000000  -0.000001  -0.000000   0.000022  -0.000007  -0.000082
    22  H   -0.000000   0.000000   0.000000   0.000000  -0.000000   0.000001
    23  H    0.000000  -0.000000  -0.000000  -0.000000   0.000000   0.000000
    24  H   -0.000000   0.000000   0.000000  -0.000000   0.000000  -0.000008
    25  H    0.000000  -0.000000  -0.000000   0.000036  -0.000308   0.015367
    26  H    0.000051  -0.000669  -0.000263  -0.000007  -0.000000  -0.000000
    27  H   -0.000042   0.002201  -0.000115   0.000001   0.000000  -0.000000
    28  H   -0.000064  -0.008536   0.003494  -0.000001  -0.000002   0.000000
    29  H    0.010416   0.000497  -0.001154  -0.000130   0.000090   0.000000
    30  H   -0.000283  -0.007978   0.007465  -0.000035   0.000052   0.000001
    31  H    0.000078   0.002286   0.000020   0.000002   0.000000  -0.000000
               7          8          9         10         11         12
     1  O   -0.000752  -0.000023  -0.000000  -0.000000  -0.000000   0.000000
     2  S    0.000008   0.000247  -0.000016  -0.000000  -0.000000   0.000000
     3  N   -0.073620   0.003441  -0.000124   0.000004   0.000000  -0.000000
     4  C    0.512567  -0.034672   0.004105   0.000902  -0.000008   0.000000
     5  N   -0.075455  -0.096933   0.006507  -0.000334   0.000002  -0.000000
     6  N   -0.097092   0.229818  -0.043124   0.002839  -0.000068   0.000017
     7  C    5.006569   0.330805  -0.030361  -0.007026  -0.000010   0.000020
     8  N    0.330805   6.877454   0.199272  -0.050569   0.004695   0.000331
     9  C   -0.030361   0.199272   4.626345   0.529760  -0.009926  -0.038281
    10  C   -0.007026  -0.050569   0.529760   4.990574   0.526681  -0.040935
    11  C   -0.000010   0.004695  -0.009926   0.526681   4.866357   0.542786
    12  C    0.000020   0.000331  -0.038281  -0.040935   0.542786   4.872396
    13  C   -0.000086   0.004566  -0.010710  -0.042172  -0.024868   0.539631
    14  C    0.007094  -0.059475   0.513151  -0.070978  -0.041475  -0.039398
    15  N   -0.000094   0.000000  -0.000000  -0.000000  -0.000000  -0.000000
    16  C    0.000001  -0.000000   0.000000   0.000000   0.000000  -0.000000
    17  C    0.000001  -0.000000   0.000000   0.000000  -0.000000   0.000000
    18  O    0.000702  -0.000001  -0.000000   0.000000   0.000000  -0.000000
    19  H   -0.001518  -0.000007   0.000002  -0.000000   0.000000   0.000000
    20  H    0.362983  -0.034519  -0.001584   0.002093   0.000151  -0.000001
    21  H    0.005680  -0.009113  -0.039343   0.354402  -0.035144   0.004307
    22  H   -0.000004  -0.000108   0.003431  -0.037651   0.363672  -0.039583
    23  H   -0.000000   0.000003   0.000480   0.004855  -0.041273   0.365874
    24  H    0.000001  -0.000104   0.003556   0.000706   0.004467  -0.040152
    25  H    0.000222  -0.013203  -0.039935   0.005475   0.000091   0.004537
    26  H   -0.000000  -0.000000  -0.000000   0.000000  -0.000000  -0.000000
    27  H   -0.000000   0.000000  -0.000000  -0.000000  -0.000000  -0.000000
    28  H    0.000005  -0.000000   0.000000  -0.000000  -0.000000   0.000000
    29  H   -0.000001   0.000000  -0.000000   0.000000   0.000000  -0.000000
    30  H    0.000014  -0.000000   0.000000   0.000000  -0.000000   0.000000
    31  H   -0.000000   0.000000  -0.000000  -0.000000  -0.000000  -0.000000
              13         14         15         16         17         18
     1  O    0.000000   0.000000  -0.051891   0.001342  -0.006987  -0.042884
     2  S   -0.000000  -0.000000   0.187090  -0.014491  -0.015174   0.456940
     3  N   -0.000000   0.000001  -0.057606   0.000289   0.000320  -0.055964
     4  C    0.000005  -0.000411   0.001141   0.000011  -0.000165  -0.002133
     5  N   -0.000004   0.000376   0.000012  -0.000001  -0.000015   0.000024
     6  N    0.000272   0.000125  -0.000000   0.000000   0.000001   0.000001
     7  C   -0.000086   0.007094  -0.000094   0.000001   0.000001   0.000702
     8  N    0.004566  -0.059475   0.000000  -0.000000  -0.000000  -0.000001
     9  C   -0.010710   0.513151  -0.000000   0.000000   0.000000  -0.000000
    10  C   -0.042172  -0.070978  -0.000000   0.000000   0.000000   0.000000
    11  C   -0.024868  -0.041475  -0.000000   0.000000  -0.000000   0.000000
    12  C    0.539631  -0.039398  -0.000000  -0.000000   0.000000  -0.000000
    13  C    4.879273   0.519530  -0.000000  -0.000000   0.000000  -0.000000
    14  C    0.519530   4.996214   0.000000  -0.000000  -0.000000  -0.000000
    15  N   -0.000000   0.000000   7.176896   0.270296   0.269295  -0.056459
    16  C   -0.000000  -0.000000   0.270296   5.000382  -0.049573  -0.007538
    17  C    0.000000  -0.000000   0.269295  -0.049573   4.998421   0.001483
    18  O   -0.000000  -0.000000  -0.056459  -0.007538   0.001483   8.254440
    19  H   -0.000000   0.000000   0.000087   0.000388   0.000161   0.001343
    20  H   -0.000004  -0.000092   0.000001  -0.000000   0.000000   0.000049
    21  H    0.000199   0.005290  -0.000000   0.000000   0.000000  -0.000000
    22  H    0.004426   0.000725   0.000000  -0.000000  -0.000000  -0.000000
    23  H   -0.041478   0.004671  -0.000000  -0.000000   0.000000  -0.000000
    24  H    0.363952  -0.037922   0.000000   0.000000  -0.000000   0.000000
    25  H   -0.038019   0.357274  -0.000000  -0.000000   0.000000  -0.000000
    26  H   -0.000000   0.000000  -0.032550   0.374666   0.004359   0.010623
    27  H   -0.000000   0.000000  -0.035406   0.378351  -0.003344   0.000146
    28  H    0.000000  -0.000000  -0.045716   0.375882  -0.001294   0.000018
    29  H    0.000000   0.000000  -0.033132   0.004418   0.374912   0.000032
    30  H    0.000000  -0.000000  -0.046643  -0.001295   0.374486  -0.000030
    31  H   -0.000000  -0.000000  -0.033836  -0.003804   0.378051  -0.000045
              19         20         21         22         23         24
     1  O    0.001389   0.000004  -0.000000  -0.000000   0.000000  -0.000000
     2  S   -0.007048   0.000192  -0.000001   0.000000  -0.000000   0.000000
     3  N    0.299176  -0.000581  -0.000000   0.000000  -0.000000   0.000000
     4  C   -0.026706  -0.025382   0.000022   0.000000  -0.000000  -0.000000
     5  N    0.001712   0.004051  -0.000007  -0.000000   0.000000   0.000000
     6  N   -0.000081   0.003512  -0.000082   0.000001   0.000000  -0.000008
     7  C   -0.001518   0.362983   0.005680  -0.000004  -0.000000   0.000001
     8  N   -0.000007  -0.034519  -0.009113  -0.000108   0.000003  -0.000104
     9  C    0.000002  -0.001584  -0.039343   0.003431   0.000480   0.003556
    10  C   -0.000000   0.002093   0.354402  -0.037651   0.004855   0.000706
    11  C    0.000000   0.000151  -0.035144   0.363672  -0.041273   0.004467
    12  C    0.000000  -0.000001   0.004307  -0.039583   0.365874  -0.040152
    13  C   -0.000000  -0.000004   0.000199   0.004426  -0.041478   0.363952
    14  C    0.000000  -0.000092   0.005290   0.000725   0.004671  -0.037922
    15  N    0.000087   0.000001  -0.000000   0.000000  -0.000000   0.000000
    16  C    0.000388  -0.000000   0.000000  -0.000000  -0.000000   0.000000
    17  C    0.000161   0.000000   0.000000  -0.000000   0.000000  -0.000000
    18  O    0.001343   0.000049  -0.000000  -0.000000  -0.000000   0.000000
    19  H    0.309990   0.000674   0.000000  -0.000000   0.000000   0.000000
    20  H    0.000674   0.459625   0.001480  -0.000001  -0.000000   0.000000
    21  H    0.000000   0.001480   0.542251  -0.005105  -0.000144   0.000013
    22  H   -0.000000  -0.000001  -0.005105   0.550938  -0.005049  -0.000164
    23  H    0.000000  -0.000000  -0.000144  -0.005049   0.557358  -0.005118
    24  H    0.000000   0.000000   0.000013  -0.000164  -0.005118   0.552314
    25  H    0.000000  -0.000010  -0.000130   0.000013  -0.000135  -0.005168
    26  H    0.000033  -0.000000  -0.000000   0.000000  -0.000000   0.000000
    27  H   -0.000019  -0.000000  -0.000000  -0.000000  -0.000000   0.000000
    28  H    0.000861   0.000000  -0.000000  -0.000000   0.000000  -0.000000
    29  H   -0.000008  -0.000000   0.000000   0.000000  -0.000000   0.000000
    30  H    0.000063   0.000000  -0.000000   0.000000  -0.000000  -0.000000
    31  H   -0.000006  -0.000000  -0.000000   0.000000  -0.000000   0.000000
              25         26         27         28         29         30
     1  O    0.000000   0.000051  -0.000042  -0.000064   0.010416  -0.000283
     2  S   -0.000000  -0.000669   0.002201  -0.008536   0.000497  -0.007978
     3  N   -0.000000  -0.000263  -0.000115   0.003494  -0.001154   0.007465
     4  C    0.000036  -0.000007   0.000001  -0.000001  -0.000130  -0.000035
     5  N   -0.000308  -0.000000   0.000000  -0.000002   0.000090   0.000052
     6  N    0.015367  -0.000000  -0.000000   0.000000   0.000000   0.000001
     7  C    0.000222  -0.000000  -0.000000   0.000005  -0.000001   0.000014
     8  N   -0.013203  -0.000000   0.000000  -0.000000   0.000000  -0.000000
     9  C   -0.039935  -0.000000  -0.000000   0.000000  -0.000000   0.000000
    10  C    0.005475   0.000000  -0.000000  -0.000000   0.000000   0.000000
    11  C    0.000091  -0.000000  -0.000000  -0.000000   0.000000  -0.000000
    12  C    0.004537  -0.000000  -0.000000   0.000000  -0.000000   0.000000
    13  C   -0.038019  -0.000000  -0.000000   0.000000   0.000000   0.000000
    14  C    0.357274   0.000000   0.000000  -0.000000   0.000000  -0.000000
    15  N   -0.000000  -0.032550  -0.035406  -0.045716  -0.033132  -0.046643
    16  C   -0.000000   0.374666   0.378351   0.375882   0.004418  -0.001295
    17  C    0.000000   0.004359  -0.003344  -0.001294   0.374912   0.374486
    18  O   -0.000000   0.010623   0.000146   0.000018   0.000032  -0.000030
    19  H    0.000000   0.000033  -0.000019   0.000861  -0.000008   0.000063
    20  H   -0.000010  -0.000000  -0.000000   0.000000  -0.000000   0.000000
    21  H   -0.000130  -0.000000  -0.000000  -0.000000   0.000000  -0.000000
    22  H    0.000013   0.000000  -0.000000  -0.000000   0.000000   0.000000
    23  H   -0.000135  -0.000000  -0.000000   0.000000  -0.000000  -0.000000
    24  H   -0.005168   0.000000   0.000000  -0.000000   0.000000  -0.000000
    25  H    0.539749  -0.000000  -0.000000   0.000000   0.000000  -0.000000
    26  H   -0.000000   0.496253  -0.020957  -0.028792  -0.000199  -0.000137
    27  H   -0.000000  -0.020957   0.521082  -0.036313  -0.000005  -0.001445
    28  H    0.000000  -0.028792  -0.036313   0.559031  -0.000156   0.007661
    29  H    0.000000  -0.000199  -0.000005  -0.000156   0.500866  -0.029463
    30  H   -0.000000  -0.000137  -0.001445   0.007661  -0.029463   0.557962
    31  H   -0.000000   0.000001   0.004981  -0.001326  -0.021884  -0.034209
              31
     1  O    0.000078
     2  S    0.002286
     3  N    0.000020
     4  C    0.000002
     5  N    0.000000
     6  N   -0.000000
     7  C   -0.000000
     8  N    0.000000
     9  C   -0.000000
    10  C   -0.000000
    11  C   -0.000000
    12  C   -0.000000
    13  C   -0.000000
    14  C   -0.000000
    15  N   -0.033836
    16  C   -0.003804
    17  C    0.378051
    18  O   -0.000045
    19  H   -0.000006
    20  H   -0.000000
    21  H   -0.000000
    22  H    0.000000
    23  H   -0.000000
    24  H    0.000000
    25  H   -0.000000
    26  H    0.000001
    27  H    0.004981
    28  H   -0.001326
    29  H   -0.021884
    30  H   -0.034209
    31  H    0.519983
 Mulliken charges:
               1
     1  O   -0.576688
     2  S    1.315430
     3  N   -0.800707
     4  C    0.376791
     5  N   -0.353029
     6  N   -0.110659
     7  C    0.059344
     8  N   -0.351906
     9  C    0.326796
    10  C   -0.168624
    11  C   -0.156130
    12  C   -0.131547
    13  C   -0.154512
    14  C   -0.154699
    15  N   -0.511484
    16  C   -0.329324
    17  C   -0.324938
    18  O   -0.560747
    19  H    0.419514
    20  H    0.227361
    21  H    0.175422
    22  H    0.164461
    23  H    0.159957
    24  H    0.163626
    25  H    0.174142
    26  H    0.197590
    27  H    0.190884
    28  H    0.175249
    29  H    0.194900
    30  H    0.173817
    31  H    0.189708
 Sum of Mulliken charges =  -0.00000
 Mulliken charges with hydrogens summed into heavy atoms:
               1
     1  O   -0.576688
     2  S    1.315430
     3  N   -0.381192
     4  C    0.376791
     5  N   -0.353029
     6  N   -0.110659
     7  C    0.286705
     8  N   -0.351906
     9  C    0.326796
    10  C    0.006798
    11  C    0.008331
    12  C    0.028410
    13  C    0.009113
    14  C    0.019443
    15  N   -0.511484
    16  C    0.234398
    17  C    0.233488
    18  O   -0.560747
 Electronic spatial extent (au):  <R**2>=           7133.4695
 Charge=              0.0000 electrons
 Dipole moment (field-independent basis, Debye):
    X=              1.6846    Y=              5.7048    Z=             -5.0463  Tot=              7.8005
 Quadrupole moment (field-independent basis, Debye-Ang):
   XX=            -69.8809   YY=           -111.6790   ZZ=           -117.0140
   XY=              4.8759   XZ=             19.1411   YZ=             -9.1362
 Traceless Quadrupole moment (field-independent basis, Debye-Ang):
   XX=             29.6438   YY=            -12.1544   ZZ=            -17.4893
   XY=              4.8759   XZ=             19.1411   YZ=             -9.1362
 Octapole moment (field-independent basis, Debye-Ang**2):
  XXX=            -22.0289  YYY=             21.2248  ZZZ=             -5.2719  XYY=              2.8722
  XXY=             10.8126  XXZ=            -40.3300  XZZ=            -10.3281  YZZ=              4.2157
  YYZ=             -6.6397  XYZ=             -6.3803
 Hexadecapole moment (field-independent basis, Debye-Ang**3):
 XXXX=          -6618.6279 YYYY=           -786.8528 ZZZZ=           -422.3360 XXXY=             76.1516
 XXXZ=            322.0375 YYYX=             35.1753 YYYZ=            -38.6110 ZZZX=              9.8533
 ZZZY=             -6.4346 XXYY=          -1379.4434 XXZZ=          -1519.5176 YYZZ=           -207.1934
 XXYZ=            -88.7070 YYXZ=             26.2732 ZZXY=            -12.9386
 N-N= 1.450538253292D+03 E-N=-5.738365655805D+03  KE= 1.202084039576D+03
 No NMR shielding tensors so no spin-rotation constants.
 Leave Link  601 at Mon Sep 14 02:06:28 2020, MaxMem=  2147483648 cpu:               0.4 elap:               0.1
 (Enter /prod/apps/gaussian/g16b1/l701.exe)
 ... and contract with generalized density number  0.
 Compute integral first derivatives.
 D1PCM: PCM CHGder 1st derivatives, ID1Alg=3 FixD1E=F DoIter=F DoCFld=F I1PDM=0.
 GePol: Maximum number of non-zero 1st derivatives   =     178
 Leave Link  701 at Mon Sep 14 02:06:30 2020, MaxMem=  2147483648 cpu:               8.5 elap:               2.1
 (Enter /prod/apps/gaussian/g16b1/l702.exe)
 L702 exits ... SP integral derivatives will be done elsewhere.
 Leave Link  702 at Mon Sep 14 02:06:30 2020, MaxMem=  2147483648 cpu:               0.1 elap:               0.0
 (Enter /prod/apps/gaussian/g16b1/l703.exe)
 Integral derivatives from FoFJK, PRISM(SPDF).
 Compute integral first derivatives, UseDBF=F ICtDFT=           0.
 Calling FoFJK, ICntrl=      2127 FMM=F ISym2X=0 I1Cent= 0 IOpClX= 0 NMat=1 NMatS=1 NMatT=0.
 FoFJK:  IHMeth= 1 ICntrl=    2127 DoSepK=F KAlg= 0 I1Cent=           0 FoldK=F
 IRaf=         0 NMat=       1 IRICut=       1 DoRegI=T DoRafI=F ISym2E= 0 IDoP0=0 IntGTp=1.
 FoFCou: FMM=F IPFlag=           0 FMFlag=      100000 FMFlg1=         800
         NFxFlg=           0 DoJE=F BraDBF=F KetDBF=F FulRan=T
         wScrn=  0.000000 ICntrl=      2127 IOpCl=  0 I1Cent=           0 NGrid=           0
         NMat0=    1 NMatS0=      1 NMatT0=    0 NMatD0=    1 NMtDS0=    0 NMtDT0=    0
 Symmetry not used in FoFCou.
 Leave Link  703 at Mon Sep 14 02:06:43 2020, MaxMem=  2147483648 cpu:              49.1 elap:              12.3
 (Enter /prod/apps/gaussian/g16b1/l716.exe)
 Dipole        = 6.62773891D-01 2.24442350D+00-1.98537313D+00
 -------------------------------------------------------------------
 Center     Atomic                   Forces (Hartrees/Bohr)
 Number     Number              X              Y              Z
 -------------------------------------------------------------------
      1        8          -0.000238234   -0.000541948    0.000016484
      2       16           0.001394978    0.000722338   -0.000087137
      3        7           0.000757168   -0.001739920    0.001848692
      4        6          -0.000676123   -0.000085915   -0.000536086
      5        7          -0.000032656    0.000800711    0.000115332
      6        7           0.000491703    0.000033485    0.000006685
      7        6          -0.000747088    0.000192491   -0.000061864
      8        7          -0.000607779   -0.000842818    0.000035848
      9        6           0.000337791   -0.001001876    0.000333298
     10        6           0.000013808    0.000999676   -0.000379982
     11        6           0.000452912   -0.000636343    0.000345572
     12        6           0.000576136    0.001795255   -0.000668437
     13        6           0.000634512   -0.001504058    0.000651525
     14        6          -0.000669587    0.000407416   -0.000134916
     15        7           0.000282105   -0.000777719    0.000131809
     16        6          -0.001001983    0.001277096   -0.000249093
     17        6           0.000250772   -0.001184745   -0.000436197
     18        8          -0.000104735    0.000240717   -0.000086268
     19        1          -0.000272198    0.001453321   -0.000776502
     20        1          -0.000103850    0.000286803   -0.000029366
     21        1           0.000266899   -0.000125407    0.000062679
     22        1          -0.000012710    0.000147138   -0.000020814
     23        1          -0.000417778   -0.000032446   -0.000055180
     24        1          -0.000060388    0.000173022   -0.000075903
     25        1          -0.000374492   -0.000354043   -0.000062010
     26        1           0.000022223   -0.000024031   -0.000026446
     27        1          -0.000088494   -0.000017513    0.000022288
     28        1           0.000306366   -0.000120551   -0.000175749
     29        1          -0.000033973    0.000377831   -0.000109545
     30        1          -0.000168233    0.000060176    0.000444205
     31        1          -0.000177072    0.000021858   -0.000042922
 -------------------------------------------------------------------
 Cartesian Forces:  Max     0.001848692 RMS     0.000597348
 Leave Link  716 at Mon Sep 14 02:06:43 2020, MaxMem=  2147483648 cpu:               0.1 elap:               0.1
 (Enter /prod/apps/gaussian/g16b1/l103.exe)

 GradGradGradGradGradGradGradGradGradGradGradGradGradGradGradGradGradGrad
 Berny optimization.
 FormGI is forming the generalized inverse of G from B-inverse, IUseBI=4.
 GSVD:  received Info=                   1 from GESDD.
 Internal  Forces:  Max     0.001664166 RMS     0.000352194
 Search for a local minimum.
 Step number   1 out of a maximum of  164
 All quantities printed in internal units (Hartrees-Bohrs-Radians)
 RMS Force = .35219D-03 SwitMx=.10000D-02 MixMth= 2
 Mixed Optimization -- En-DIIS/RFO-DIIS
 Second derivative matrix not updated -- first step.
 ITU=  0
     Eigenvalues ---    0.00765   0.00774   0.01085   0.01368   0.01543
     Eigenvalues ---    0.01828   0.01842   0.01907   0.01978   0.02008
     Eigenvalues ---    0.02136   0.02136   0.02138   0.02149   0.02150
     Eigenvalues ---    0.02153   0.02162   0.02165   0.02168   0.02295
     Eigenvalues ---    0.02329   0.02779   0.07200   0.07244   0.07749
     Eigenvalues ---    0.07750   0.10185   0.10833   0.12936   0.13418
     Eigenvalues ---    0.15998   0.15999   0.15999   0.15999   0.16000
     Eigenvalues ---    0.16000   0.16000   0.16000   0.16000   0.16000
     Eigenvalues ---    0.16000   0.16000   0.19234   0.19914   0.20331
     Eigenvalues ---    0.22000   0.22000   0.23060   0.23493   0.23787
     Eigenvalues ---    0.24982   0.24997   0.25000   0.25000   0.25000
     Eigenvalues ---    0.34032   0.34038   0.34106   0.34650   0.34672
     Eigenvalues ---    0.34891   0.35028   0.35383   0.35409   0.35497
     Eigenvalues ---    0.35531   0.35730   0.35806   0.35811   0.36469
     Eigenvalues ---    0.41204   0.41796   0.42063   0.42273   0.43808
     Eigenvalues ---    0.44239   0.45458   0.46090   0.46403   0.46418
     Eigenvalues ---    0.46746   0.47694   0.52463   0.53136   0.63176
     Eigenvalues ---    0.88545   0.90932
 RFO step:  Lambda=-6.59978044D-05 EMin= 7.64640292D-03
 Linear search not attempted -- first point.
 Iteration  1 RMS(Cart)=  0.01513372 RMS(Int)=  0.00004333
 Iteration  2 RMS(Cart)=  0.00010139 RMS(Int)=  0.00000175
 Iteration  3 RMS(Cart)=  0.00000000 RMS(Int)=  0.00000175
 ITry= 1 IFail=0 DXMaxC= 3.68D-02 DCOld= 1.00D+10 DXMaxT= 3.00D-01 DXLimC= 3.00D+00 Rises=F
 Variable       Old X    -DE/DX   Delta X   Delta X   Delta X     New X
                                 (Linear)    (Quad)   (Total)
    R1        2.76207   0.00037   0.00000   0.00040   0.00040   2.76247
    R2        3.24267  -0.00075   0.00000  -0.00219  -0.00219   3.24047
    R3        3.13649   0.00079   0.00000   0.00191   0.00191   3.13840
    R4        2.77311   0.00019   0.00000   0.00021   0.00021   2.77332
    R5        2.66685  -0.00102   0.00000  -0.00233  -0.00233   2.66452
    R6        1.92870   0.00166   0.00000   0.00376   0.00376   1.93246
    R7        2.57439  -0.00051   0.00000  -0.00107  -0.00107   2.57332
    R8        2.60760  -0.00024   0.00000  -0.00046  -0.00046   2.60714
    R9        2.46635  -0.00002   0.00000  -0.00010  -0.00010   2.46625
   R10        2.56542  -0.00049   0.00000  -0.00087  -0.00087   2.56454
   R11        2.55958   0.00092   0.00000   0.00181   0.00181   2.56139
   R12        2.03354   0.00027   0.00000   0.00073   0.00073   2.03427
   R13        2.69184   0.00071   0.00000   0.00170   0.00170   2.69354
   R14        2.63676   0.00097   0.00000   0.00203   0.00203   2.63879
   R15        2.64056  -0.00010   0.00000  -0.00018  -0.00018   2.64038
   R16        2.63381   0.00016   0.00000   0.00025   0.00025   2.63406
   R17        2.04821  -0.00027   0.00000  -0.00075  -0.00075   2.04746
   R18        2.64004  -0.00057   0.00000  -0.00128  -0.00128   2.63877
   R19        2.04875   0.00013   0.00000   0.00037   0.00037   2.04912
   R20        2.63682   0.00147   0.00000   0.00321   0.00321   2.64003
[...]
 Alpha virt. eigenvalues --    2.26980   2.28378   2.28403   2.29213   2.30979
 Alpha virt. eigenvalues --    2.31385   2.32361   2.33356   2.33830   2.35011
 Alpha virt. eigenvalues --    2.35557   2.36143   2.36868   2.37219   2.37921
 Alpha virt. eigenvalues --    2.39544   2.39739   2.41770   2.42817   2.43567
 Alpha virt. eigenvalues --    2.45498   2.47073   2.48458   2.49011   2.50282
 Alpha virt. eigenvalues --    2.51787   2.53178   2.55025   2.56087   2.58064
 Alpha virt. eigenvalues --    2.59196   2.60231   2.61534   2.62051   2.62759
 Alpha virt. eigenvalues --    2.64215   2.67478   2.69079   2.69762   2.72982
 Alpha virt. eigenvalues --    2.73949   2.75076   2.76057   2.77234   2.77893
 Alpha virt. eigenvalues --    2.80812   2.81264   2.83431   2.84721   2.87502
 Alpha virt. eigenvalues --    2.88063   2.88761   2.89353   2.90680   2.91311
 Alpha virt. eigenvalues --    2.93373   2.94290   2.95278   2.96964   2.98328
 Alpha virt. eigenvalues --    2.98794   3.01402   3.03583   3.04884   3.05933
 Alpha virt. eigenvalues --    3.08402   3.10418   3.12048   3.13178   3.13395
 Alpha virt. eigenvalues --    3.14765   3.15941   3.17101   3.19055   3.23157
 Alpha virt. eigenvalues --    3.25198   3.26162   3.31277   3.32932   3.34711
 Alpha virt. eigenvalues --    3.37179   3.38791   3.40908   3.46368   3.47551
 Alpha virt. eigenvalues --    3.56015   3.60222   3.62054   3.65438   3.71976
 Alpha virt. eigenvalues --    3.73396   3.76300   3.78084   3.79968   3.81455
 Alpha virt. eigenvalues --    3.82304   3.85179   3.85970   3.90877   3.92626
 Alpha virt. eigenvalues --    3.94876   4.06543   4.30480   4.46114   4.87735
          Condensed to atoms (all electrons):
               1          2          3          4          5          6
     1  O    9.110322  -0.245991   0.068843   0.046885  -0.014704   0.024590
     2  S   -0.245991  14.965733   0.249765  -1.662050   0.252981  -0.132103
     3  N    0.068843   0.249765   8.804639  -2.548669   0.366060  -0.263821
     4  C    0.046885  -1.662050  -2.548669  17.011330  -2.040350   1.347520
     5  N   -0.014704   0.252981   0.366060  -2.040350   9.524200  -1.449593
     6  N    0.024590  -0.132103  -0.263821   1.347520  -1.449593   9.524400
     7  C   -0.028942   0.512661   1.080130  -7.920199   1.580067  -1.353989
     8  N    0.027288   0.081331   0.079354  -0.319756  -0.144975  -0.382171
     9  C    0.008159   0.033789   0.044346   0.179946  -0.279123  -0.180938
    10  C   -0.000096  -0.005685  -0.020523  -0.091891   0.137090  -0.157248
    11  C    0.000654   0.001723   0.008136   0.116319  -0.004000   0.027438
    12  C   -0.000257  -0.001539  -0.004982   0.022063   0.009383   0.011000
    13  C   -0.000124   0.000374   0.001305  -0.046909  -0.064567  -0.031953
    14  C   -0.004276  -0.017829  -0.044870   0.070379  -0.055408   0.503748
    15  N    0.048275  -0.366120  -0.012925   0.322546  -0.053050   0.012064
    16  C    0.030146  -0.158151   0.039950  -0.021151  -0.002774   0.020491
    17  C    0.030673  -0.220069  -0.015663   0.079365   0.015308  -0.031717
    18  O    0.015681  -0.155038  -0.059617   0.004013   0.000386   0.005170
    19  H   -0.004768  -0.134915   0.370225   0.252461  -0.036320   0.021437
    20  H   -0.001353   0.019295  -0.138177   0.636784  -0.098392  -0.040310
    21  H   -0.000173  -0.003820  -0.004625  -0.066307  -0.002043  -0.029996
    22  H    0.000038   0.000203   0.000696   0.001922  -0.001028   0.002403
    23  H   -0.000012  -0.000056  -0.000189   0.000561   0.000154   0.001077
    24  H    0.000013   0.000069   0.000095  -0.002677  -0.000595   0.000740
    25  H   -0.000599  -0.001418  -0.005356   0.030355  -0.031974   0.001596
    26  H   -0.001474   0.146457   0.011998  -0.038053   0.002000   0.001266
    27  H   -0.002464  -0.071035   0.019620  -0.007234   0.001023  -0.000041
    28  H    0.004245  -0.034741  -0.059571   0.065821  -0.006606   0.003132
    29  H   -0.014801   0.116582  -0.005967   0.011289  -0.001918  -0.008675
    30  H    0.006493  -0.069376  -0.021874   0.056578  -0.022792   0.017998
    31  H    0.007253  -0.027687   0.010115  -0.044198   0.015021   0.000868
               7          8          9         10         11         12
     1  O   -0.028942   0.027288   0.008159  -0.000096   0.000654  -0.000257
     2  S    0.512661   0.081331   0.033789  -0.005685   0.001723  -0.001539
     3  N    1.080130   0.079354   0.044346  -0.020523   0.008136  -0.004982
     4  C   -7.920199  -0.319756   0.179946  -0.091891   0.116319   0.022063
     5  N    1.580067  -0.144975  -0.279123   0.137090  -0.004000   0.009383
     6  N   -1.353989  -0.382171  -0.180938  -0.157248   0.027438   0.011000
     7  C   13.471029  -0.173661  -1.173176   0.358996  -0.375063  -0.023721
     8  N   -0.173661   9.289619  -0.782469   0.547215  -0.353936   0.346229
     9  C   -1.173176  -0.782469  14.371940  -5.362122   2.825936  -3.539411
    10  C    0.358996   0.547215  -5.362122  12.585600  -3.585855   3.009166
    11  C   -0.375063  -0.353936   2.825936  -3.585855  10.130265  -2.930828
    12  C   -0.023721   0.346229  -3.539411   3.009166  -2.930828   8.864365
    13  C    0.171988  -0.184784   2.584179  -3.216789   2.856267  -2.855188
    14  C   -0.202033  -0.065200  -5.216073   2.201392  -3.171560   2.919783
    15  N   -0.087923  -0.027247  -0.008027  -0.000986  -0.000462   0.000119
    16  C   -0.021171   0.007686   0.001216   0.000240   0.000234  -0.000042
    17  C   -0.001090  -0.012994  -0.009627  -0.001645  -0.000573   0.000068
    18  O    0.013934   0.001976   0.002161   0.000351  -0.000074   0.000022
    19  H   -0.254585   0.013769   0.007249  -0.001539   0.001299  -0.000151
    20  H   -1.025565   0.180808   0.192888   0.030947   0.102332  -0.010893
    21  H    0.157180  -0.224097   0.902477  -0.992867   0.102515  -0.181396
    22  H    0.007007   0.001068  -0.109739   0.654741  -0.780490   0.284217
    23  H   -0.002529  -0.001714   0.108775  -0.164103   0.362214  -0.617534
    24  H    0.001552  -0.010130  -0.084503   0.110800  -0.209265   0.253330
    25  H   -0.029197  -0.192296   0.644332  -0.112206   0.109012  -0.158752
    26  H    0.007135   0.001522   0.000377   0.000119   0.000034  -0.000004
    27  H   -0.001511   0.000105   0.000066  -0.000002   0.000040  -0.000010
    28  H   -0.010075  -0.000710  -0.000039  -0.000210  -0.000216   0.000049
    29  H    0.006431   0.004913   0.001693   0.000097   0.000082  -0.000076
    30  H   -0.017183  -0.000419   0.001231   0.001014   0.000182  -0.000021
    31  H    0.001691  -0.000313  -0.001433  -0.000252  -0.000084   0.000024
              13         14         15         16         17         18
     1  O   -0.000124  -0.004276   0.048275   0.030146   0.030673   0.015681
     2  S    0.000374  -0.017829  -0.366120  -0.158151  -0.220069  -0.155038
     3  N    0.001305  -0.044870  -0.012925   0.039950  -0.015663  -0.059617
     4  C   -0.046909   0.070379   0.322546  -0.021151   0.079365   0.004013
     5  N   -0.064567  -0.055408  -0.053050  -0.002774   0.015308   0.000386
     6  N   -0.031953   0.503748   0.012064   0.020491  -0.031717   0.005170
     7  C    0.171988  -0.202033  -0.087923  -0.021171  -0.001090   0.013934
     8  N   -0.184784  -0.065200  -0.027247   0.007686  -0.012994   0.001976
     9  C    2.584179  -5.216073  -0.008027   0.001216  -0.009627   0.002161
    10  C   -3.216789   2.201392  -0.000986   0.000240  -0.001645   0.000351
    11  C    2.856267  -3.171560  -0.000462   0.000234  -0.000573  -0.000074
    12  C   -2.855188   2.919783   0.000119  -0.000042   0.000068   0.000022
    13  C    9.873007  -3.581966   0.000158  -0.000070   0.000798  -0.000013
    14  C   -3.581966  12.776642   0.004182  -0.001125   0.002903   0.000476
    15  N    0.000158   0.004182   8.034543   0.252788   0.196258   0.018987
    16  C   -0.000070  -0.001125   0.252788   4.278929  -0.189695   0.015751
    17  C    0.000798   0.002903   0.196258  -0.189695   4.356987   0.040060
    18  O   -0.000013   0.000476   0.018987   0.015751   0.040060   9.155737
    19  H   -0.000599  -0.001865   0.013914   0.007146  -0.000560   0.033988
    20  H    0.003112  -0.153271  -0.000839  -0.000567  -0.000221  -0.003460
    21  H    0.121981  -0.100432   0.000567  -0.000254   0.000162   0.000285
    22  H   -0.223850   0.102096  -0.000029   0.000007  -0.000007  -0.000004
    23  H    0.378948  -0.114298   0.000006  -0.000002  -0.000002   0.000001
    24  H   -0.721826   0.612228  -0.000012   0.000006  -0.000006  -0.000001
    25  H    0.350309  -0.886498   0.000387  -0.000190  -0.000179   0.000077
    26  H   -0.000007  -0.000177  -0.129873   0.411698  -0.058115  -0.011787
    27  H   -0.000009  -0.000205  -0.096493   0.382187   0.055084   0.003060
    28  H    0.000039   0.000979   0.147446   0.210509   0.015336   0.004705
    29  H   -0.000048  -0.001289  -0.112227  -0.053608   0.374290   0.000163
    30  H    0.000098  -0.000083   0.121018   0.039109   0.154509   0.005851
    31  H    0.000134   0.000645  -0.149771   0.047495   0.400610  -0.002377
              19         20         21         22         23         24
     1  O   -0.004768  -0.001353  -0.000173   0.000038  -0.000012   0.000013
     2  S   -0.134915   0.019295  -0.003820   0.000203  -0.000056   0.000069
     3  N    0.370225  -0.138177  -0.004625   0.000696  -0.000189   0.000095
     4  C    0.252461   0.636784  -0.066307   0.001922   0.000561  -0.002677
     5  N   -0.036320  -0.098392  -0.002043  -0.001028   0.000154  -0.000595
     6  N    0.021437  -0.040310  -0.029996   0.002403   0.001077   0.000740
     7  C   -0.254585  -1.025565   0.157180   0.007007  -0.002529   0.001552
     8  N    0.013769   0.180808  -0.224097   0.001068  -0.001714  -0.010130
     9  C    0.007249   0.192888   0.902477  -0.109739   0.108775  -0.084503
    10  C   -0.001539   0.030947  -0.992867   0.654741  -0.164103   0.110800
    11  C    0.001299   0.102332   0.102515  -0.780490   0.362214  -0.209265
    12  C   -0.000151  -0.010893  -0.181396   0.284217  -0.617534   0.253330
    13  C   -0.000599   0.003112   0.121981  -0.223850   0.378948  -0.721826
    14  C   -0.001865  -0.153271  -0.100432   0.102096  -0.114298   0.612228
    15  N    0.013914  -0.000839   0.000567  -0.000029   0.000006  -0.000012
    16  C    0.007146  -0.000567  -0.000254   0.000007  -0.000002   0.000006
    17  C   -0.000560  -0.000221   0.000162  -0.000007  -0.000002  -0.000006
    18  O    0.033988  -0.003460   0.000285  -0.000004   0.000001  -0.000001
    19  H    0.711225  -0.000851   0.002166  -0.000003  -0.000010  -0.000010
    20  H   -0.000851   1.876404  -0.079322   0.003347  -0.000017   0.000450
    21  H    0.002166  -0.079322   2.162127  -0.081399  -0.015079   0.010040
    22  H   -0.000003   0.003347  -0.081399   1.638727  -0.054462  -0.017690
    23  H   -0.000010  -0.000017  -0.015079  -0.054462   1.631973  -0.058943
    24  H   -0.000010   0.000450   0.010040  -0.017690  -0.058943   1.625006
    25  H   -0.000064  -0.002635  -0.017592   0.009140  -0.010635  -0.078853
    26  H   -0.000801   0.000133  -0.000064   0.000002  -0.000000   0.000001
    27  H   -0.000426   0.000182  -0.000052   0.000002  -0.000000   0.000001
    28  H    0.003547   0.000016   0.000142  -0.000006   0.000002  -0.000004
    29  H   -0.000116   0.000283  -0.000039   0.000001  -0.000002   0.000013
    30  H    0.001789  -0.000793   0.000306  -0.000005   0.000004  -0.000005
    31  H   -0.000076  -0.000004  -0.000013  -0.000001  -0.000000  -0.000001
              25         26         27         28         29         30
     1  O   -0.000599  -0.001474  -0.002464   0.004245  -0.014801   0.006493
     2  S   -0.001418   0.146457  -0.071035  -0.034741   0.116582  -0.069376
     3  N   -0.005356   0.011998   0.019620  -0.059571  -0.005967  -0.021874
     4  C    0.030355  -0.038053  -0.007234   0.065821   0.011289   0.056578
     5  N   -0.031974   0.002000   0.001023  -0.006606  -0.001918  -0.022792
     6  N    0.001596   0.001266  -0.000041   0.003132  -0.008675   0.017998
     7  C   -0.029197   0.007135  -0.001511  -0.010075   0.006431  -0.017183
     8  N   -0.192296   0.001522   0.000105  -0.000710   0.004913  -0.000419
     9  C    0.644332   0.000377   0.000066  -0.000039   0.001693   0.001231
    10  C   -0.112206   0.000119  -0.000002  -0.000210   0.000097   0.001014
    11  C    0.109012   0.000034   0.000040  -0.000216   0.000082   0.000182
    12  C   -0.158752  -0.000004  -0.000010   0.000049  -0.000076  -0.000021
    13  C    0.350309  -0.000007  -0.000009   0.000039  -0.000048   0.000098
    14  C   -0.886498  -0.000177  -0.000205   0.000979  -0.001289  -0.000083
    15  N    0.000387  -0.129873  -0.096493   0.147446  -0.112227   0.121018
    16  C   -0.000190   0.411698   0.382187   0.210509  -0.053608   0.039109
    17  C   -0.000179  -0.058115   0.055084   0.015336   0.374290   0.154509
    18  O    0.000077  -0.011787   0.003060   0.004705   0.000163   0.005851
    19  H   -0.000064  -0.000801  -0.000426   0.003547  -0.000116   0.001789
    20  H   -0.002635   0.000133   0.000182   0.000016   0.000283  -0.000793
    21  H   -0.017592  -0.000064  -0.000052   0.000142  -0.000039   0.000306
    22  H    0.009140   0.000002   0.000002  -0.000006   0.000001  -0.000005
    23  H   -0.010635  -0.000000  -0.000000   0.000002  -0.000002   0.000004
    24  H   -0.078853   0.000001   0.000001  -0.000004   0.000013  -0.000005
    25  H    1.908581  -0.000002  -0.000030   0.000037   0.000238   0.000185
    26  H   -0.000002   1.222821  -0.276799  -0.164584  -0.002166  -0.002949
    27  H   -0.000030  -0.276799   1.297886  -0.163505   0.003501  -0.004997
    28  H    0.000037  -0.164584  -0.163505   1.007546  -0.004556   0.002787
    29  H    0.000238  -0.002166   0.003501  -0.004556   1.292379  -0.155375
    30  H    0.000185  -0.002949  -0.004997   0.002787  -0.155375   1.061844
    31  H   -0.000140   0.005905   0.015966  -0.010704  -0.315315  -0.175195
              31
     1  O    0.007253
     2  S   -0.027687
     3  N    0.010115
     4  C   -0.044198
     5  N    0.015021
     6  N    0.000868
     7  C    0.001691
     8  N   -0.000313
     9  C   -0.001433
    10  C   -0.000252
    11  C   -0.000084
    12  C    0.000024
    13  C    0.000134
    14  C    0.000645
    15  N   -0.149771
    16  C    0.047495
    17  C    0.400610
    18  O   -0.002377
    19  H   -0.000076
    20  H   -0.000004
    21  H   -0.000013
    22  H   -0.000001
    23  H   -0.000000
    24  H   -0.000001
    25  H   -0.000140
    26  H    0.005905
    27  H    0.015966
    28  H   -0.010704
    29  H   -0.315315
    30  H   -0.175195
    31  H    1.396150
 Mulliken charges:
               1
     1  O   -1.109524
     2  S    2.926661
     3  N   -0.948445
     4  C    0.553305
     5  N   -0.593460
     6  N   -0.464386
     7  C    1.331812
     8  N   -0.706013
     9  C    0.835923
    10  C    0.076251
    11  C    0.767725
    12  C    0.604989
    13  C    0.586004
    14  C    0.423008
    15  N   -1.127273
    16  C    0.703212
    17  C    0.819752
    18  O   -1.090461
    19  H   -0.002556
    20  H   -0.490313
    21  H   -0.660377
    22  H   -0.436904
    23  H   -0.444125
    24  H   -0.429823
    25  H   -0.525633
    26  H   -0.124611
    27  H   -0.153909
    28  H   -0.010813
    29  H   -0.135777
    30  H    0.000074
    31  H   -0.174313
 Sum of Mulliken charges =  -0.00000
 Mulliken charges with hydrogens summed into heavy atoms:
               1
     1  O   -1.109524
     2  S    2.926661
     3  N   -0.951001
     4  C    0.553305
     5  N   -0.593460
     6  N   -0.464386
     7  C    0.841499
     8  N   -0.706013
     9  C    0.835923
    10  C   -0.584127
    11  C    0.330821
    12  C    0.160863
    13  C    0.156181
    14  C   -0.102625
    15  N   -1.127273
    16  C    0.413880
    17  C    0.509736
    18  O   -1.090461
 Electronic spatial extent (au):  <R**2>=           6928.1724
 Charge=             -0.0000 electrons
 Dipole moment (field-independent basis, Debye):
    X=             -3.6908    Y=             -0.6867    Z=             -3.1149  Tot=              4.8781
 Quadrupole moment (field-independent basis, Debye-Ang):
   XX=            -94.6574   YY=           -109.2624   ZZ=           -121.8216
   XY=             14.3395   XZ=            -13.6120   YZ=              8.3403
 Traceless Quadrupole moment (field-independent basis, Debye-Ang):
   XX=             13.9231   YY=             -0.6819   ZZ=            -13.2412
   XY=             14.3395   XZ=            -13.6120   YZ=              8.3403
 Octapole moment (field-independent basis, Debye-Ang**2):
  XXX=            -51.2158  YYY=             -5.3570  ZZZ=             -3.8366  XYY=             -9.7396
  XXY=             49.8172  XXZ=            -25.8976  XZZ=             23.5049  YZZ=             -1.5323
  YYZ=             -0.4038  XYZ=             -4.8282
 Hexadecapole moment (field-independent basis, Debye-Ang**3):
 XXXX=          -7194.2213 YYYY=           -861.8144 ZZZZ=           -458.5671 XXXY=            214.3678
 XXXZ=           -251.8967 YYYX=             52.1897 YYYZ=             39.0788 ZZZX=             -1.5491
 ZZZY=              2.4685 XXYY=          -1427.9840 XXZZ=          -1515.9733 YYZZ=           -218.7254
 XXYZ=             92.5397 YYXZ=            -14.7150 ZZXY=            -11.3014
 N-N= 1.458570016275D+03 E-N=-5.752209955735D+03  KE= 1.204117633501D+03
 Leave Link  601 at Mon Sep 14 03:26:51 2020, MaxMem=   262144000 cpu:               0.5 elap:               0.2
 (Enter /prod/apps/gaussian/g16b1/l9999.exe)
 1\1\GINC-PIRINEUS16\SP\RMP2-FC\Aug-CC-pVDZ\C10H13N5O2S1\UBAFAR01\14-Se
 p-2020\0\\#p mp2/aug-cc-pVDZ scf=(MaxCycle=2000,NoVarAcc,NoIncFock) ma
 xdisk=180GB geom=allcheck\\SM46_m0.n.2.pdb.xyz\\0,1\O,0,-2.3052480467,
 0.0995175637,1.7775950575\S,0,-2.9443381436,0.8471353454,0.693666178\N
 ,0,-1.7777804175,1.206260057,-0.5045537575\C,0,-0.5274908608,0.5684284
 568,-0.480112455\N,0,-0.3765912653,-0.7271317349,-0.8675952356\N,0,0.8
 86814792,-1.0506085962,-0.782346479\C,0,0.7096982421,1.0773104842,-0.1
 434129645\N,0,1.5616836425,0.0433562988,-0.3577891997\C,0,2.976882813,
 0.0066024819,-0.1922311694\C,0,3.7106460225,1.1927356404,-0.2569793606
 \C,0,5.0930443721,1.1464859364,-0.0840784793\C,0,5.7366850107,-0.07238
 6803,0.137659581\C,0,4.9905274213,-1.2524703068,0.1914939449\C,0,3.606
 0033984,-1.2202782785,0.0335216313\N,0,-4.0805225873,-0.1630662225,0.0
 154649997\C,0,-4.791405549,0.3925477979,-1.1465340841\C,0,-3.705220976
 9,-1.579816795,-0.1235804911\O,0,-3.6102605634,2.1272405443,0.94698026
 44\H,0,-1.7301905806,2.2174455857,-0.6308372737\H,0,1.0241788727,2.039
 9059555,0.2210485874\H,0,3.211618246,2.1347268836,-0.4503302191\H,0,5.
 665588727,2.0660888549,-0.132615208\H,0,6.8128655989,-0.1027370704,0.2
 674605555\H,0,5.4836827825,-2.2023701519,0.3667643779\H,0,3.0117824625
 ,-2.123102312,0.0850660368\H,0,-5.0959043617,1.4152525992,-0.929964627
 1\H,0,-5.6830779859,-0.2160291737,-1.3058213474\H,0,-4.1748918956,0.37
 21144704,-2.0528845633\H,0,-3.2401776266,-1.9198213633,0.7995812512\H,
 0,-3.0241860538,-1.749133776,-0.9646715419\H,0,-4.6274154895,-2.140202
 3719,-0.2879640093\\Version=ES64L-G16RevB.01\State=1-A\HF=-1205.699440
 2\MP2=-1208.5082071\RMSD=5.149e-09\PG=C01 [X(C10H13N5O2S1)]\\@


 THE UNDERLYING PHYSICAL LAWS NECESSARY FOR THE 
 MATHEMATICAL THEORY OF A LARGE PART OF PHYSICS AND THE
 WHOLE OF CHEMISTRY ARE THUS COMPLETELY KNOWN, AND THE
 DIFFICULTY IS ONLY THAT THE EXACT APPLICATION OF THESE
 LAWS LEADS TO EQUATIONS MUCH TOO COMPLICATED 
 TO BE SOLUBLE.

                                        -- P. A. M. DIRAC, 1929
 Job cpu time:       0 days  2 hours  3 minutes  3.6 seconds.
 Elapsed time:       0 days  0 hours 34 minutes 39.4 seconds.
 File lengths (MBytes):  RWF=  72886 Int=      0 D2E=      0 Chk=     23 Scr=      1
 Normal termination of Gaussian 16 at Mon Sep 14 03:26:54 2020.
