 Entering Gaussian System, Link 0=g16
 Initial command:
 /prod/apps/gaussian/g16b1/l1.exe "/tmp/ubafar01/1461476/Gau-98732.inp" -scrdir="/tmp/ubafar01/1461476/"
 Entering Link 1 = /prod/apps/gaussian/g16b1/l1.exe PID=     98733.
  
 Copyright (c) 1988-2017, Gaussian, Inc.  All Rights Reserved.
  
 This is part of the Gaussian(R) 16 program.  It is based on
 the Gaussian(R) 09 system (copyright 2009, Gaussian, Inc.),
 the Gaussian(R) 03 system (copyright 2003, Gaussian, Inc.),
 the Gaussian(R) 98 system (copyright 1998, Gaussian, Inc.),
 the Gaussian(R) 94 system (copyright 1995, Gaussian, Inc.),
 the Gaussian 92(TM) system (copyright 1992, Gaussian, Inc.),
 the Gaussian 90(TM) system (copyright 1990, Gaussian, Inc.),
 the Gaussian 88(TM) system (copyright 1988, Gaussian, Inc.),
 the Gaussian 86(TM) system (copyright 1986, Carnegie Mellon
 University), and the Gaussian 82(TM) system (copyright 1983,
 Carnegie Mellon University). Gaussian is a federally registered
 trademark of Gaussian, Inc.
  
 This software contains proprietary and confidential information,
 including trade secrets, belonging to Gaussian, Inc.
  
 This software is provided under written license and may be
 used, copied, transmitted, or stored only in accord with that
 written license.
  
 The following legend is applicable only to US Government
 contracts under FAR:
  
                    RESTRICTED RIGHTS LEGEND
  
 Use, reproduction and disclosure by the US Government is
 subject to restrictions as set forth in subparagraphs (a)
 and (c) of the Commercial Computer Software - Restricted
 Rights clause in FAR 52.227-19.
  
 Gaussian, Inc.
 340 Quinnipiac St., Bldg. 40, Wallingford CT 06492
  
  
 ---------------------------------------------------------------
 Warning -- This program may not be used in any manner that
 competes with the business of Gaussian, Inc. or will provide
 assistance to any competitor of Gaussian, Inc.  The licensee
 of this program is prohibited from giving any competitor of
 Gaussian, Inc. access to this program.  By using this program,
 the user acknowledges that Gaussian, Inc. is engaged in the
 business of creating and licensing software in the field of
 computational chemistry and represents and warrants to the
 licensee that it is not a competitor of Gaussian, Inc. and that
 it will not use this program in any manner prohibited above.
 ---------------------------------------------------------------
  

 Cite this work as:
 Gaussian 16, Revision B.01,
 M. J. Frisch, G. W. Trucks, H. B. Schlegel, G. E. Scuseria, 
 M. A. Robb, J. R. Cheeseman, G. Scalmani, V. Barone, 
 G. A. Petersson, H. Nakatsuji, X. Li, M. Caricato, A. V. Marenich, 
 J. Bloino, B. G. Janesko, R. Gomperts, B. Mennucci, H. P. Hratchian, 
 J. V. Ortiz, A. F. Izmaylov, J. L. Sonnenberg, D. Williams-Young, 
 F. Ding, F. Lipparini, F. Egidi, J. Goings, B. Peng, A. Petrone, 
 T. Henderson, D. Ranasinghe, V. G. Zakrzewski, J. Gao, N. Rega, 
 G. Zheng, W. Liang, M. Hada, M. Ehara, K. Toyota, R. Fukuda, 
 J. Hasegawa, M. Ishida, T. Nakajima, Y. Honda, O. Kitao, H. Nakai, 
 T. Vreven, K. Throssell, J. A. Montgomery, Jr., J. E. Peralta, 
 F. Ogliaro, M. J. Bearpark, J. J. Heyd, E. N. Brothers, K. N. Kudin, 
 V. N. Staroverov, T. A. Keith, R. Kobayashi, J. Normand, 
 K. Raghavachari, A. P. Rendell, J. C. Burant, S. S. Iyengar, 
 J. Tomasi, M. Cossi, J. M. Millam, M. Klene, C. Adamo, R. Cammi, 
 J. W. Ochterski, R. L. Martin, K. Morokuma, O. Farkas, 
 J. B. Foresman, and D. J. Fox, Gaussian, Inc., Wallingford CT, 2016.
 
 ******************************************
 Gaussian 16:  ES64L-G16RevB.01 20-Dec-2017
                24-Sep-2020 
 ******************************************
 %nproc=4
 Will use up to    4 processors via shared memory.
 %Chk=SM46_m3.b.10.pdb.xyz.mst.b.w.chk
 %mem=16GB
 ----------------------------------------------------------------------
 #p b3lyp/6-31G(d) opt freq NoSymm scf=(MaxCycle=2000,NoVarAcc,NoIncFoc
 k) scrf=(iefpcm,read,solvent=water)
 ----------------------------------------------------------------------
 1/18=20,19=15,26=3,38=1,40=2/1,3;
 2/9=110,12=2,15=1,17=6,18=5,40=1/2;
 3/5=1,6=6,7=1,11=2,25=1,30=1,70=2203,71=1,72=1,74=-5/1,2,3;
 4//1;
 5/5=100002,7=2000,38=1,53=1/2;
 6/7=2,8=2,9=2,10=2,28=1/1;
 7/30=1/1,2,3,16;
 1/18=20,19=15,26=3/3(2);
 2/9=110,15=1/2;
 99//99;
 2/9=110,15=1/2;
 3/5=1,6=6,7=1,11=2,25=1,30=1,70=2205,71=1,72=1,74=-5/1,2,3;
 4/5=5,16=3,69=1/1;
 5/5=100002,7=2000,38=1,53=1/2;
 7/30=1/1,2,3,16;
 1/18=20,19=15,26=3/3(-5);
 2/9=110,15=1/2;
 6/7=2,8=2,9=2,10=2,19=2,28=1/1;
 99/9=1/99;
 Leave Link    1 at Thu Sep 24 17:36:53 2020, MaxMem=  2147483648 cpu:               0.2 elap:               0.0
 (Enter /prod/apps/gaussian/g16b1/l101.exe)
 --------------------
 SM46_m3.b.10.pdb.xyz
 --------------------
 Symbolic Z-matrix:
 Charge =  2 Multiplicity = 1
 O                     1.981     0.029     1.777 
 S                     2.652    -0.425     0.577 
 N                     1.582    -0.544    -0.683 
 C                     0.265    -0.099    -0.574 
 N                    -0.119     1.178    -0.845 
 N                    -1.405     1.364    -0.707 
 C                    -0.896    -0.759    -0.242 
 N                    -1.877     0.177    -0.345 
 C                    -3.285     0.018    -0.097 
 C                    -3.893    -1.2      -0.401 
 C                    -5.258    -1.343    -0.151 
 C                    -5.993    -0.281     0.381 
 C                    -5.363     0.932     0.672 
 C                    -3.998     1.09      0.441 
 N                     3.652     1.054     0.044 
 C                     4.56      1.488     1.164 
 C                     4.381     0.805    -1.244 
 O                     3.587    -1.53      0.514 
 H                     1.779    -1.32     -1.323 
 H                    -1.065    -1.776     0.071 
 H                    -3.329    -2.014    -0.843 
 H                    -5.745    -2.285    -0.385 
 H                    -7.055    -0.399     0.568 
 H                    -5.931     1.757     1.089 
 H                    -3.494     2.019     0.681 
 H                     3.956     1.679     2.048 
 H                     5.051     2.405     0.837 
 H                     5.298     0.708     1.349 
 H                     3.656     0.557    -2.017 
 H                     5.095    -0.004    -1.099 
 H                     4.896     1.729    -1.503 
 H                     2.952     1.803    -0.112 
 H                     0.473     1.966    -1.133 
 
 ITRead=  0  0  0  0  0  0  0  0  0  0  0  0  0  0  0  0  0  0  0  0
 ITRead=  0  0  0  0  0  0  0  0  0  0  0  0  0
 MicOpt= -1 -1 -1 -1 -1 -1 -1 -1 -1 -1 -1 -1 -1 -1 -1 -1 -1 -1 -1 -1
 MicOpt= -1 -1 -1 -1 -1 -1 -1 -1 -1 -1 -1 -1 -1
 NAtoms=     33 NQM=       33 NQMF=       0 NMMI=      0 NMMIF=      0
                NMic=       0 NMicF=      0.
                    Isotopes and Nuclear Properties:
 (Nuclear quadrupole moments (NQMom) in fm**2, nuclear magnetic moments (NMagM)
  in nuclear magnetons)

  Atom         1           2           3           4           5           6           7           8           9          10
 IAtWgt=          16          32          14          12          14          14          12          14          12          12
 AtmWgt=  15.9949146  31.9720718  14.0030740  12.0000000  14.0030740  14.0030740  12.0000000  14.0030740  12.0000000  12.0000000
 NucSpn=           0           0           2           0           2           2           0           2           0           0
 AtZEff=  -0.0000000  -0.0000000  -0.0000000  -0.0000000  -0.0000000  -0.0000000  -0.0000000  -0.0000000  -0.0000000  -0.0000000
 NQMom=    0.0000000   0.0000000   2.0440000   0.0000000   2.0440000   2.0440000   0.0000000   2.0440000   0.0000000   0.0000000
 NMagM=    0.0000000   0.0000000   0.4037610   0.0000000   0.4037610   0.4037610   0.0000000   0.4037610   0.0000000   0.0000000
 AtZNuc=   8.0000000  16.0000000   7.0000000   6.0000000   7.0000000   7.0000000   6.0000000   7.0000000   6.0000000   6.0000000

  Atom        11          12          13          14          15          16          17          18          19          20
 IAtWgt=          12          12          12          12          14          12          12          16           1           1
 AtmWgt=  12.0000000  12.0000000  12.0000000  12.0000000  14.0030740  12.0000000  12.0000000  15.9949146   1.0078250   1.0078250
 NucSpn=           0           0           0           0           2           0           0           0           1           1
 AtZEff=  -0.0000000  -0.0000000  -0.0000000  -0.0000000  -0.0000000  -0.0000000  -0.0000000  -0.0000000  -0.0000000  -0.0000000
 NQMom=    0.0000000   0.0000000   0.0000000   0.0000000   2.0440000   0.0000000   0.0000000   0.0000000   0.0000000   0.0000000
 NMagM=    0.0000000   0.0000000   0.0000000   0.0000000   0.4037610   0.0000000   0.0000000   0.0000000   2.7928460   2.7928460
 AtZNuc=   6.0000000   6.0000000   6.0000000   6.0000000   7.0000000   6.0000000   6.0000000   8.0000000   1.0000000   1.0000000

  Atom        21          22          23          24          25          26          27          28          29          30
 IAtWgt=           1           1           1           1           1           1           1           1           1           1
 AtmWgt=   1.0078250   1.0078250   1.0078250   1.0078250   1.0078250   1.0078250   1.0078250   1.0078250   1.0078250   1.0078250
 NucSpn=           1           1           1           1           1           1           1           1           1           1
 AtZEff=  -0.0000000  -0.0000000  -0.0000000  -0.0000000  -0.0000000  -0.0000000  -0.0000000  -0.0000000  -0.0000000  -0.0000000
 NQMom=    0.0000000   0.0000000   0.0000000   0.0000000   0.0000000   0.0000000   0.0000000   0.0000000   0.0000000   0.0000000
 NMagM=    2.7928460   2.7928460   2.7928460   2.7928460   2.7928460   2.7928460   2.7928460   2.7928460   2.7928460   2.7928460
 AtZNuc=   1.0000000   1.0000000   1.0000000   1.0000000   1.0000000   1.0000000   1.0000000   1.0000000   1.0000000   1.0000000

  Atom        31          32          33
 IAtWgt=           1           1           1
 AtmWgt=   1.0078250   1.0078250   1.0078250
 NucSpn=           1           1           1
 AtZEff=  -0.0000000  -0.0000000  -0.0000000
 NQMom=    0.0000000   0.0000000   0.0000000
 NMagM=    2.7928460   2.7928460   2.7928460
 AtZNuc=   1.0000000   1.0000000   1.0000000
 Leave Link  101 at Thu Sep 24 17:36:53 2020, MaxMem=  2147483648 cpu:               2.4 elap:               0.6
 (Enter /prod/apps/gaussian/g16b1/l103.exe)

 GradGradGradGradGradGradGradGradGradGradGradGradGradGradGradGradGradGrad
 Berny optimization.
 Initialization pass.
                           ----------------------------
                           !    Initial Parameters    !
                           ! (Angstroms and Degrees)  !
 --------------------------                            --------------------------
 ! Name  Definition              Value          Derivative Info.                !
 --------------------------------------------------------------------------------
 ! R1    R(1,2)                  1.4479         estimate D2E/DX2                !
 ! R2    R(2,3)                  1.6573         estimate D2E/DX2                !
 ! R3    R(2,15)                 1.8632         estimate D2E/DX2                !
 ! R4    R(2,18)                 1.4489         estimate D2E/DX2                !
 ! R5    R(3,4)                  1.3944         estimate D2E/DX2                !
 ! R6    R(3,19)                 1.025          estimate D2E/DX2                !
 ! R7    R(4,5)                  1.3607         estimate D2E/DX2                !
 ! R8    R(4,7)                  1.3761         estimate D2E/DX2                !
 ! R9    R(5,6)                  1.3067         estimate D2E/DX2                !
 ! R10   R(5,33)                 1.0268         estimate D2E/DX2                !
 ! R11   R(6,8)                  1.3277         estimate D2E/DX2                !
 ! R12   R(7,8)                  1.3598         estimate D2E/DX2                !
 ! R13   R(7,20)                 1.0774         estimate D2E/DX2                !
 ! R14   R(8,9)                  1.4385         estimate D2E/DX2                !
 ! R15   R(9,10)                 1.3948         estimate D2E/DX2                !
 ! R16   R(9,14)                 1.3953         estimate D2E/DX2                !
 ! R17   R(10,11)                1.3951         estimate D2E/DX2                !
 ! R18   R(10,21)                1.0845         estimate D2E/DX2                !
 ! R19   R(11,12)                1.3968         estimate D2E/DX2                !
 ! R20   R(11,22)                1.086          estimate D2E/DX2                !
 ! R21   R(12,13)                1.3975         estimate D2E/DX2                !
 ! R22   R(12,23)                1.0848         estimate D2E/DX2                !
 ! R23   R(13,14)                1.3934         estimate D2E/DX2                !
 ! R24   R(13,24)                1.085          estimate D2E/DX2                !
 ! R25   R(14,25)                1.0838         estimate D2E/DX2                !
 ! R26   R(15,16)                1.5057         estimate D2E/DX2                !
 ! R27   R(15,17)                1.5008         estimate D2E/DX2                !
 ! R28   R(15,32)                1.037          estimate D2E/DX2                !
 ! R29   R(16,26)                1.0875         estimate D2E/DX2                !
 ! R30   R(16,27)                1.0904         estimate D2E/DX2                !
 ! R31   R(16,28)                1.0896         estimate D2E/DX2                !
 ! R32   R(17,29)                1.0884         estimate D2E/DX2                !
 ! R33   R(17,30)                1.0887         estimate D2E/DX2                !
 ! R34   R(17,31)                1.0891         estimate D2E/DX2                !
 ! A1    A(1,2,3)              110.6966         estimate D2E/DX2                !
 ! A2    A(1,2,15)             103.7047         estimate D2E/DX2                !
 ! A3    A(1,2,18)             125.0471         estimate D2E/DX2                !
 ! A4    A(3,2,15)             100.7208         estimate D2E/DX2                !
 ! A5    A(3,2,18)             109.1973         estimate D2E/DX2                !
 ! A6    A(15,2,18)            104.2766         estimate D2E/DX2                !
 ! A7    A(2,3,4)              121.8325         estimate D2E/DX2                !
 ! A8    A(2,3,19)             113.8903         estimate D2E/DX2                !
 ! A9    A(4,3,19)             118.1607         estimate D2E/DX2                !
 ! A10   A(3,4,5)              123.3981         estimate D2E/DX2                !
 ! A11   A(3,4,7)              131.5009         estimate D2E/DX2                !
 ! A12   A(5,4,7)              105.0732         estimate D2E/DX2                !
 ! A13   A(4,5,6)              112.972          estimate D2E/DX2                !
 ! A14   A(4,5,33)             127.8322         estimate D2E/DX2                !
 ! A15   A(6,5,33)             119.1957         estimate D2E/DX2                !
 ! A16   A(5,6,8)              104.5608         estimate D2E/DX2                !
 ! A17   A(4,7,8)              105.0845         estimate D2E/DX2                !
 ! A18   A(4,7,20)             130.9299         estimate D2E/DX2                !
 ! A19   A(8,7,20)             123.9578         estimate D2E/DX2                !
 ! A20   A(6,8,7)              112.3072         estimate D2E/DX2                !
 ! A21   A(6,8,9)              119.5901         estimate D2E/DX2                !
 ! A22   A(7,8,9)              128.097          estimate D2E/DX2                !
 ! A23   A(8,9,10)             119.0515         estimate D2E/DX2                !
 ! A24   A(8,9,14)             118.797          estimate D2E/DX2                !
 ! A25   A(10,9,14)            122.1515         estimate D2E/DX2                !
 ! A26   A(9,10,11)            118.4865         estimate D2E/DX2                !
 ! A27   A(9,10,21)            121.1694         estimate D2E/DX2                !
 ! A28   A(11,10,21)           120.3293         estimate D2E/DX2                !
 ! A29   A(10,11,12)           120.3433         estimate D2E/DX2                !
 ! A30   A(10,11,22)           119.2812         estimate D2E/DX2                !
 ! A31   A(12,11,22)           120.3719         estimate D2E/DX2                !
 ! A32   A(11,12,13)           120.1342         estimate D2E/DX2                !
 ! A33   A(11,12,23)           119.8745         estimate D2E/DX2                !
 ! A34   A(13,12,23)           119.9913         estimate D2E/DX2                !
 ! A35   A(12,13,14)           120.3663         estimate D2E/DX2                !
 ! A36   A(12,13,24)           120.2677         estimate D2E/DX2                !
 ! A37   A(14,13,24)           119.3634         estimate D2E/DX2                !
 ! A38   A(9,14,13)            118.5141         estimate D2E/DX2                !
 ! A39   A(9,14,25)            120.4167         estimate D2E/DX2                !
 ! A40   A(13,14,25)           121.0664         estimate D2E/DX2                !
 ! A41   A(2,15,16)            109.8565         estimate D2E/DX2                !
 ! A42   A(2,15,17)            111.9939         estimate D2E/DX2                !
 ! A43   A(2,15,32)            104.7193         estimate D2E/DX2                !
 ! A44   A(16,15,17)           113.1577         estimate D2E/DX2                !
 ! A45   A(16,15,32)           108.1061         estimate D2E/DX2                !
 ! A46   A(17,15,32)           108.5797         estimate D2E/DX2                !
 ! A47   A(15,16,26)           108.6824         estimate D2E/DX2                !
 ! A48   A(15,16,27)           106.9107         estimate D2E/DX2                !
 ! A49   A(15,16,28)           109.1712         estimate D2E/DX2                !
 ! A50   A(26,16,27)           110.2527         estimate D2E/DX2                !
 ! A51   A(26,16,28)           111.3382         estimate D2E/DX2                !
 ! A52   A(27,16,28)           110.3621         estimate D2E/DX2                !
 ! A53   A(15,17,29)           108.8901         estimate D2E/DX2                !
 ! A54   A(15,17,30)           109.1198         estimate D2E/DX2                !
 ! A55   A(15,17,31)           107.0395         estimate D2E/DX2                !
 ! A56   A(29,17,30)           111.2303         estimate D2E/DX2                !
 ! A57   A(29,17,31)           109.8406         estimate D2E/DX2                !
 ! A58   A(30,17,31)           110.6096         estimate D2E/DX2                !
 ! D1    D(1,2,3,4)              6.9253         estimate D2E/DX2                !
 ! D2    D(1,2,3,19)          -145.0239         estimate D2E/DX2                !
 ! D3    D(15,2,3,4)          -102.3003         estimate D2E/DX2                !
 ! D4    D(15,2,3,19)          105.7505         estimate D2E/DX2                !
 ! D5    D(18,2,3,4)           148.3286         estimate D2E/DX2                !
 ! D6    D(18,2,3,19)           -3.6206         estimate D2E/DX2                !
 ! D7    D(1,2,15,16)           56.2346         estimate D2E/DX2                !
 ! D8    D(1,2,15,17)         -177.124          estimate D2E/DX2                !
 ! D9    D(1,2,15,32)          -59.6466         estimate D2E/DX2                !
 ! D10   D(3,2,15,16)          170.8426         estimate D2E/DX2                !
 ! D11   D(3,2,15,17)          -62.516          estimate D2E/DX2                !
 ! D12   D(3,2,15,32)           54.9613         estimate D2E/DX2                !
 ! D13   D(18,2,15,16)         -75.9846         estimate D2E/DX2                !
 ! D14   D(18,2,15,17)          50.6568         estimate D2E/DX2                !
 ! D15   D(18,2,15,32)         168.1342         estimate D2E/DX2                !
 ! D16   D(2,3,4,5)             88.0523         estimate D2E/DX2                !
 ! D17   D(2,3,4,7)            -94.1651         estimate D2E/DX2                !
 ! D18   D(19,3,4,5)          -121.1368         estimate D2E/DX2                !
 ! D19   D(19,3,4,7)            56.6458         estimate D2E/DX2                !
 ! D20   D(3,4,5,6)            178.4542         estimate D2E/DX2                !
 ! D21   D(3,4,5,33)            -1.4662         estimate D2E/DX2                !
 ! D22   D(7,4,5,6)              0.1739         estimate D2E/DX2                !
 ! D23   D(7,4,5,33)          -179.7465         estimate D2E/DX2                !
 ! D24   D(3,4,7,8)           -177.9518         estimate D2E/DX2                !
 ! D25   D(3,4,7,20)             3.9543         estimate D2E/DX2                !
 ! D26   D(5,4,7,8)              0.1312         estimate D2E/DX2                !
 ! D27   D(5,4,7,20)          -177.9628         estimate D2E/DX2                !
 ! D28   D(4,5,6,8)             -0.4063         estimate D2E/DX2                !
 ! D29   D(33,5,6,8)           179.5217         estimate D2E/DX2                !
 ! D30   D(5,6,8,7)              0.4949         estimate D2E/DX2                !
 ! D31   D(5,6,8,9)            179.6935         estimate D2E/DX2                !
 ! D32   D(4,7,8,6)             -0.3967         estimate D2E/DX2                !
 ! D33   D(4,7,8,9)           -179.5112         estimate D2E/DX2                !
 ! D34   D(20,7,8,6)           177.8672         estimate D2E/DX2                !
 ! D35   D(20,7,8,9)            -1.2473         estimate D2E/DX2                !
 ! D36   D(6,8,9,10)           146.8471         estimate D2E/DX2                !
 ! D37   D(6,8,9,14)           -33.1611         estimate D2E/DX2                !
 ! D38   D(7,8,9,10)           -34.095          estimate D2E/DX2                !
 ! D39   D(7,8,9,14)           145.8969         estimate D2E/DX2                !
 ! D40   D(8,9,10,11)          179.7591         estimate D2E/DX2                !
 ! D41   D(8,9,10,21)           -1.637          estimate D2E/DX2                !
 ! D42   D(14,9,10,11)          -0.2325         estimate D2E/DX2                !
 ! D43   D(14,9,10,21)         178.3714         estimate D2E/DX2                !
 ! D44   D(8,9,14,13)          179.6526         estimate D2E/DX2                !
 ! D45   D(8,9,14,25)           -0.9449         estimate D2E/DX2                !
 ! D46   D(10,9,14,13)          -0.3558         estimate D2E/DX2                !
 ! D47   D(10,9,14,25)         179.0467         estimate D2E/DX2                !
 ! D48   D(9,10,11,12)           0.5458         estimate D2E/DX2                !
 ! D49   D(9,10,11,22)         179.8556         estimate D2E/DX2                !
 ! D50   D(21,10,11,12)       -178.0703         estimate D2E/DX2                !
 ! D51   D(21,10,11,22)          1.2395         estimate D2E/DX2                !
 ! D52   D(10,11,12,13)         -0.2721         estimate D2E/DX2                !
 ! D53   D(10,11,12,23)        179.7098         estimate D2E/DX2                !
 ! D54   D(22,11,12,13)       -179.5744         estimate D2E/DX2                !
 ! D55   D(22,11,12,23)          0.4075         estimate D2E/DX2                !
 ! D56   D(11,12,13,14)         -0.3321         estimate D2E/DX2                !
 ! D57   D(11,12,13,24)       -179.7533         estimate D2E/DX2                !
 ! D58   D(23,12,13,14)        179.686          estimate D2E/DX2                !
 ! D59   D(23,12,13,24)          0.2648         estimate D2E/DX2                !
 ! D60   D(12,13,14,9)           0.6355         estimate D2E/DX2                !
 ! D61   D(12,13,14,25)       -178.7629         estimate D2E/DX2                !
 ! D62   D(24,13,14,9)        -179.938          estimate D2E/DX2                !
 ! D63   D(24,13,14,25)          0.6636         estimate D2E/DX2                !
 ! D64   D(2,15,16,26)         -55.8632         estimate D2E/DX2                !
 ! D65   D(2,15,16,27)        -174.8582         estimate D2E/DX2                !
 ! D66   D(2,15,16,28)          65.753          estimate D2E/DX2                !
 ! D67   D(17,15,16,26)        178.1538         estimate D2E/DX2                !
 ! D68   D(17,15,16,27)         59.1589         estimate D2E/DX2                !
 ! D69   D(17,15,16,28)        -60.23           estimate D2E/DX2                !
 ! D70   D(32,15,16,26)         57.8588         estimate D2E/DX2                !
 ! D71   D(32,15,16,27)        -61.1362         estimate D2E/DX2                !
 ! D72   D(32,15,16,28)        179.475          estimate D2E/DX2                !
 ! D73   D(2,15,17,29)          58.6473         estimate D2E/DX2                !
 ! D74   D(2,15,17,30)         -62.9336         estimate D2E/DX2                !
 ! D75   D(2,15,17,31)         177.3372         estimate D2E/DX2                !
 ! D76   D(16,15,17,29)       -176.5195         estimate D2E/DX2                !
 ! D77   D(16,15,17,30)         61.8996         estimate D2E/DX2                !
 ! D78   D(16,15,17,31)        -57.8296         estimate D2E/DX2                !
 ! D79   D(32,15,17,29)        -56.4947         estimate D2E/DX2                !
 ! D80   D(32,15,17,30)       -178.0756         estimate D2E/DX2                !
 ! D81   D(32,15,17,31)         62.1952         estimate D2E/DX2                !
 --------------------------------------------------------------------------------
 Trust Radius=3.00D-01 FncErr=1.00D-07 GrdErr=1.00D-06 EigMax=2.50D+02 EigMin=1.00D-04
 Number of steps in this run=    183 maximum allowed number of steps=    198.
 GradGradGradGradGradGradGradGradGradGradGradGradGradGradGradGradGradGrad

 Leave Link  103 at Thu Sep 24 17:36:53 2020, MaxMem=  2147483648 cpu:               0.0 elap:               0.0
 (Enter /prod/apps/gaussian/g16b1/l202.exe)
                          Input orientation:                          
 ---------------------------------------------------------------------
 Center     Atomic      Atomic             Coordinates (Angstroms)
 Number     Number       Type             X           Y           Z
 ---------------------------------------------------------------------
      1          8           0        1.981000    0.029000    1.777000
      2         16           0        2.652000   -0.425000    0.577000
      3          7           0        1.582000   -0.544000   -0.683000
      4          6           0        0.265000   -0.099000   -0.574000
      5          7           0       -0.119000    1.178000   -0.845000
      6          7           0       -1.405000    1.364000   -0.707000
      7          6           0       -0.896000   -0.759000   -0.242000
      8          7           0       -1.877000    0.177000   -0.345000
      9          6           0       -3.285000    0.018000   -0.097000
     10          6           0       -3.893000   -1.200000   -0.401000
     11          6           0       -5.258000   -1.343000   -0.151000
     12          6           0       -5.993000   -0.281000    0.381000
     13          6           0       -5.363000    0.932000    0.672000
     14          6           0       -3.998000    1.090000    0.441000
     15          7           0        3.652000    1.054000    0.044000
     16          6           0        4.560000    1.488000    1.164000
     17          6           0        4.381000    0.805000   -1.244000
     18          8           0        3.587000   -1.530000    0.514000
     19          1           0        1.779000   -1.320000   -1.323000
     20          1           0       -1.065000   -1.776000    0.071000
     21          1           0       -3.329000   -2.014000   -0.843000
     22          1           0       -5.745000   -2.285000   -0.385000
     23          1           0       -7.055000   -0.399000    0.568000
     24          1           0       -5.931000    1.757000    1.089000
     25          1           0       -3.494000    2.019000    0.681000
     26          1           0        3.956000    1.679000    2.048000
     27          1           0        5.051000    2.405000    0.837000
     28          1           0        5.298000    0.708000    1.349000
     29          1           0        3.656000    0.557000   -2.017000
     30          1           0        5.095000   -0.004000   -1.099000
     31          1           0        4.896000    1.729000   -1.503000
     32          1           0        2.952000    1.803000   -0.112000
     33          1           0        0.473000    1.966000   -1.133000
 ---------------------------------------------------------------------
                    Distance matrix (angstroms):
                    1          2          3          4          5
     1  O    0.000000
     2  S    1.447880   0.000000
     3  N    2.557172   1.657305   0.000000
     4  C    2.913459   2.669990   1.394416   0.000000
     5  N    3.550364   3.502875   2.425887   1.360745   0.000000
     6  N    4.406527   4.616105   3.544462   2.224176   1.306689
     7  C    3.602004   3.656586   2.526102   1.376134   2.172397
     8  N    4.405559   4.660936   3.549474   2.171815   2.083882
     9  C    5.589522   5.991535   4.934261   3.583813   3.453789
    10  C    6.384199   6.662892   5.521366   4.304776   4.482755
    11  C    7.615950   7.996300   6.907027   5.677147   5.765969
    12  C    8.101209   8.648420   7.653881   6.333065   6.175405
    13  C    7.481362   8.129619   7.228252   5.855755   5.464553
    14  C    6.217641   6.821746   5.921970   4.540607   4.087564
    15  N    2.616516   1.863204   2.714228   3.630854   3.876356
    16  C    3.025837   2.764887   4.050792   4.897575   5.101492
    17  C    3.935558   2.796137   3.157360   4.267033   4.533027
    18  O    2.569997   1.448868   2.534764   3.777193   4.786918
    19  H    3.386828   2.274457   1.024980   2.084236   3.173467
    20  H    3.930213   3.987145   3.015452   2.235454   3.234206
    21  H    6.263733   6.349306   5.128784   4.081228   4.526916
    22  H    8.349845   8.654170   7.536897   6.398001   6.622375
    23  H    9.126563   9.707039   8.728333   7.414618   7.252006
    24  H    8.127673   8.870804   8.054797   6.678377   6.152637
    25  H    5.927642   6.614928   5.847670   4.493443   3.798234
    26  H    2.587772   2.879422   4.246877   4.864119   5.022557
    27  H    3.994230   3.719099   4.800100   5.582717   5.573469
    28  H    3.412728   2.980099   4.416467   5.447960   5.863312
    29  H    4.180771   2.949776   2.700599   3.743189   4.001231
    30  H    4.239040   2.992401   3.578523   4.859378   5.352330
    31  H    4.705914   3.741878   4.101405   5.064661   5.087906
    32  H    2.767352   2.351320   2.776932   3.324307   3.218533
    33  H    3.807116   3.659101   2.780734   2.149412   1.026816
                    6          7          8          9         10
     6  N    0.000000
     7  C    2.232137   0.000000
     8  N    1.327704   1.359804   0.000000
     9  C    2.391279   2.516361   1.438488   0.000000
    10  C    3.585788   3.033442   2.442032   1.394849   0.000000
    11  C    4.741581   4.401861   3.712034   2.397492   1.395053
    12  C    4.993948   5.157133   4.204557   2.766071   2.422000
    13  C    4.213553   4.863020   3.708977   2.396840   2.803151
    14  C    2.848970   3.675281   2.439263   1.395348   2.442148
    15  N    5.121850   4.904393   5.611621   7.015351   7.887051
    16  C    6.252779   6.065788   6.740235   8.080535   9.007096
    17  C    5.837692   5.594357   6.353357   7.791183   8.555101
    18  O    5.897978   4.611211   5.788525   7.070644   7.542979
    19  H    4.209652   2.939202   4.069868   5.379351   5.747701
    20  H    3.252766   1.077413   2.155599   2.859206   2.924405
    21  H    3.889879   2.802805   2.675218   2.165058   1.084461
    22  H    5.679303   5.085462   4.585245   3.382063   2.146482
    23  H    6.054444   6.222458   5.289332   3.850846   3.402764
    24  H    4.885155   5.783860   4.581230   3.381129   3.888109
    25  H    2.592198   3.913926   2.657128   2.157073   3.419340
    26  H    6.035691   5.893204   6.481230   7.732530   8.711661
    27  H    6.719193   6.822166   7.372808   8.721182   9.722335
    28  H    7.041852   6.561174   7.391361   8.731260   9.548688
    29  H    5.289714   5.059959   5.792588   7.221800   7.917443
    30  H    6.653953   6.098898   7.014988   8.439721   9.094051
    31  H    6.361560   6.428649   7.044373   8.475442   9.329521
    32  H    4.419298   4.624700   5.100726   6.487420   7.480345
    33  H    2.017613   3.177053   3.056790   4.357816   5.442549
                   11         12         13         14         15
    11  C    0.000000
    12  C    1.396815   0.000000
    13  C    2.421565   1.397480   0.000000
    14  C    2.803133   2.421418   1.393395   0.000000
    15  N    9.228853   9.742783   9.037671   7.660379   0.000000
    16  C   10.302277  10.728852   9.950735   8.597703   1.505729
    17  C    9.935737  10.556510   9.931401   8.551496   1.500795
    18  O    8.871934   9.661992   9.283798   8.025083   2.627200
    19  H    7.133967   8.024159   7.749819   6.503347   3.318538
    20  H    4.221140   5.159100   5.115395   4.117444   5.500883
    21  H    2.156420   3.405637   3.887325   3.425060   7.676832
    22  H    1.085951   2.159693   3.407677   3.889076   9.981812
    23  H    2.153441   1.084775   2.155282   3.402719  10.817839
    24  H    3.405955   2.158368   1.084960   2.145060   9.665409
    25  H    3.886768   3.409546   2.162131   1.083816   7.238944
    26  H    9.943132  10.276336   9.449611   8.136061   2.121098
    27  H   11.013588  11.375081  10.518952   9.152619   2.100298
    28  H   10.857520  11.375492  10.684822   9.348048   2.128863
    29  H    9.303298   9.977768   9.418795   8.056648   2.120082
    30  H   10.482187  11.189766  10.648113   9.287146   2.123220
    31  H   10.694335  11.232091  10.517267   9.126373   2.096752
    32  H    8.792209   9.197779   8.397173   7.008329   1.036985
    33  H    6.690154   7.010732   6.195650   4.820238   3.510429
                   16         17         18         19         20
    16  C    0.000000
    17  C    2.509381   0.000000
    18  O    3.236905   3.028733   0.000000
    19  H    4.669475   3.360397   2.586026   0.000000
    20  H    6.594617   6.168444   4.679516   3.199923   0.000000
    21  H    8.861624   8.218982   7.064472   5.177229   2.453107
    22  H   11.082777  10.621763   9.405554   7.643405   4.729632
    23  H   11.782369  11.641093  10.702067   9.080951   6.166299
    24  H   10.494716  10.615392  10.085996   8.644638   6.098883
    25  H    8.085924   8.197258   7.922364   6.555110   4.546885
    26  H    1.087544   3.432458   3.575891   5.009688   6.407495
    27  H    1.090366   2.709144   4.210920   5.408069   7.448018
    28  H    1.089619   2.752080   2.938263   4.861659   6.949195
    29  H    3.435511   1.088420   3.281203   2.743701   5.664845
    30  H    2.762871   1.088716   2.684122   3.574617   6.515711
    31  H    2.698864   1.089074   4.050043   4.363999   7.091969
    32  H    2.076792   2.078333   3.450216   3.549025   5.383216
    33  H    4.712564   4.078321   4.963025   3.541120   4.221093
                   21         22         23         24         25
    21  H    0.000000
    22  H    2.473916   0.000000
    23  H    4.299095   2.486223   0.000000
    24  H    4.972270   4.306395   2.486595   0.000000
    25  H    4.314498   4.972703   4.305835   2.484769   0.000000
    26  H    8.664142  10.758354  11.302681   9.933707   7.582004
    27  H    9.621557  11.833977  12.429401  11.003987   8.555136
    28  H    9.308022  11.572064  12.427068  11.280888   8.914270
    29  H    7.535154   9.955862  11.059913  10.148783   7.780691
    30  H    8.664261  11.100376  12.270184  11.378099   9.001769
    31  H    9.060699  11.427729  12.314375  11.132977   8.674448
    32  H    7.386123   9.613744  10.268946   8.963939   6.498186
    33  H    5.511779   7.569282   8.072014   6.781754   4.362395
                   26         27         28         29         30
    26  H    0.000000
    27  H    1.786791   0.000000
    28  H    1.797889   1.789682   0.000000
    29  H    4.227660   3.675112   3.748189   0.000000
    30  H    3.746121   3.090843   2.557510   1.796710   0.000000
    31  H    3.673650   2.440615   3.055806   1.781960   1.790560
    32  H    2.385161   2.380925   2.972753   2.382679   2.971846
    33  H    4.725719   5.003169   5.569875   3.591410   5.024434
                   31         32         33
    31  H    0.000000
    32  H    2.391546   0.000000
    33  H    4.444772   2.685973   0.000000
 Symmetry turned off by external request.
 Stoichiometry    C10H15N5O2S(2+)
 Framework group  C1[X(C10H15N5O2S)]
 Deg. of freedom    93
 Full point group                 C1      NOp   1
 Rotational constants (GHZ):           1.2349124           0.1510833           0.1470465
 Leave Link  202 at Thu Sep 24 17:36:53 2020, MaxMem=  2147483648 cpu:               0.0 elap:               0.0
 (Enter /prod/apps/gaussian/g16b1/l301.exe)
 Standard basis: 6-31G(d) (6D, 7F)
 Ernie: Thresh=  0.10000D-02 Tol=  0.10000D-05 Strict=F.
   304 basis functions,   588 primitive gaussians,   304 cartesian basis functions
    70 alpha electrons       70 beta electrons
       nuclear repulsion energy      1486.7949279045 Hartrees.
 IExCor=  402 DFT=T Ex+Corr=B3LYP ExCW=0 ScaHFX=  0.200000
 ScaDFX=  0.800000  0.720000  1.000000  0.810000 ScalE2=  1.000000  1.000000
 IRadAn=      5 IRanWt=     -1 IRanGd=            0 ICorTp=0 IEmpDi=  4
 NAtoms=   33 NActive=   33 NUniq=   33 SFac= 1.00D+00 NAtFMM=   60 NAOKFM=F Big=F
 Integral buffers will be    131072 words long.
 Raffenetti 2 integral format.
 Two-electron integral symmetry is turned off.
 Using the following non-standard input for PCM:
 MSTModel=DFT cav MSTcharged
 --- end of non-standard input.
 MST model for solvation energy: B3LYP parametrization.
 MST cavity parameters:
 ISph   IAn     Re0     Alpha   Atom Type   QCorr
 ------------------------------------------------
   1      8     1.40     1.25      O          F
   2     16     1.75     1.25      S          F
   3      7     1.50     1.25      NH         F
   4      6     1.50     1.25      C          F
   5      7     1.50     1.15      NH         T
   6      7     1.40     1.25      N          F
   7      6     1.50     1.25      CH         F
   8      7     1.40     1.25      N          F
   9      6     1.50     1.25      C          F
  10      6     1.50     1.25      CH         F
  11      6     1.50     1.25      CH         F
  12      6     1.50     1.25      CH         F
  13      6     1.50     1.25      CH         F
  14      6     1.50     1.25      CH         F
  15      7     1.50     1.15      NH         T
  16      6     1.50     1.25      CH3        F
  17      6     1.50     1.25      CH3        F
  18      8     1.40     1.25      O          F
  19      1     0.90     1.25      NH         F
  20      1     1.20     1.25      CH         F
  21      1     1.20     1.25      CH         F
  22      1     1.20     1.25      CH         F
  23      1     1.20     1.25      CH         F
  24      1     1.20     1.25      CH         F
  25      1     1.20     1.25      CH         F
  26      1     1.20     1.25      CH3        F
  27      1     1.20     1.25      CH3        F
  28      1     1.20     1.25      CH3        F
  29      1     1.20     1.25      CH3        F
  30      1     1.20     1.25      CH3        F
  31      1     1.20     1.25      CH3        F
  32      1     0.90     1.15      NH         T
  33      1     0.90     1.15      NH         T
 ------------------------------------------------------------------------------
 Polarizable Continuum Model (PCM)
 =================================
 Model                : PCM.
 Atomic radii         : MST.
 Polarization charges : Total charges.
 Charge compensation  : None.
 Solution method      : On-the-fly selection.
 Cavity type          : Scaled VdW (van der Waals Surface) (Alpha=1.250).
 Cavity algorithm     : GePol (No added spheres)
                        Default sphere list used, NSphG=   33.
                        Lebedev-Laikov grids with approx.  5.0 points / Ang**2.
                        Smoothing algorithm: York/Karplus (Gamma=1.0000).
                        Polarization charges: spherical gaussians, with
                                              point-specific exponents (IZeta= 3).
                        Self-potential: point-specific (ISelfS= 7).
                        Self-field    : sphere-specific E.n sum rule (ISelfD= 2).
 1st derivatives      : Analytical E(r).r(x)/FMM algorithm (CHGder, D1EAlg=3).
                        Cavity 1st derivative terms included.
 Solvent              : Water, Eps=  78.355300 Eps(inf)=   1.777849
 ------------------------------------------------------------------------------
 GePol: Number of generator spheres                  =      33
 GePol: Total number of spheres                      =      33
 GePol: Number of exposed spheres                    =      33 (100.00%)
 GePol: Number of points                             =    2444
 GePol: Average weight of points                     =       0.13
 GePol: Minimum weight of points                     =   0.16D-10
 GePol: Maximum weight of points                     =    0.22001
 GePol: Number of points with low weight             =     144
 GePol: Fraction of low-weight points (<1% of avg)   =       5.89%
 GePol: Cavity surface area                          =    315.117 Ang**2
 GePol: Cavity volume                                =    294.521 Ang**3
 PCM non-electrostatic energy =         0.0022039301 Hartrees.
 Nuclear repulsion after PCM non-electrostatic terms =     1486.7971318346 Hartrees.
 Leave Link  301 at Thu Sep 24 17:36:53 2020, MaxMem=  2147483648 cpu:               0.3 elap:               0.1
 (Enter /prod/apps/gaussian/g16b1/l302.exe)
 NPDir=0 NMtPBC=     1 NCelOv=     1 NCel=       1 NClECP=     1 NCelD=      1
         NCelK=      1 NCelE2=     1 NClLst=     1 CellRange=     0.0.
 One-electron integrals computed using PRISM.
 NBasis=   304 RedAO= T EigKep=  4.77D-04  NBF=   304
 NBsUse=   304 1.00D-06 EigRej= -1.00D+00 NBFU=   304
 Precomputing XC quadrature grid using
 IXCGrd= 4 IRadAn=           5 IRanWt=          -1 IRanGd=           0 AccXCQ= 0.00D+00.
 Generated NRdTot=       0 NPtTot=           0 NUsed=           0 NTot=          32
 NSgBfM=   300   300   300   300   300 MxSgAt=    33 MxSgA2=    33.
 Leave Link  302 at Thu Sep 24 17:36:54 2020, MaxMem=  2147483648 cpu:               1.7 elap:               0.4
 (Enter /prod/apps/gaussian/g16b1/l303.exe)
 DipDrv:  MaxL=1.
 Leave Link  303 at Thu Sep 24 17:36:54 2020, MaxMem=  2147483648 cpu:               0.2 elap:               0.0
 (Enter /prod/apps/gaussian/g16b1/l401.exe)
 ExpMin= 1.17D-01 ExpMax= 2.19D+04 ExpMxC= 3.30D+03 IAcc=3 IRadAn=         5 AccDes= 0.00D+00
 Harris functional with IExCor=  402 and IRadAn=       5 diagonalized for initial guess.
 HarFok:  IExCor=  402 AccDes= 0.00D+00 IRadAn=         5 IDoV= 1 UseB2=F ITyADJ=14
 ICtDFT=  3500011 ScaDFX=  1.000000  1.000000  1.000000  1.000000
 FoFCou: FMM=F IPFlag=           0 FMFlag=      100000 FMFlg1=           0
         NFxFlg=           0 DoJE=T BraDBF=F KetDBF=T FulRan=T
         wScrn=  0.000000 ICntrl=       500 IOpCl=  0 I1Cent=   200000004 NGrid=           0
         NMat0=    1 NMatS0=      1 NMatT0=    0 NMatD0=    1 NMtDS0=    0 NMtDT0=    0
 Symmetry not used in FoFCou.
 Harris En= -1211.95812612084    
 JPrj=0 DoOrth=F DoCkMO=F.
 Leave Link  401 at Thu Sep 24 17:36:56 2020, MaxMem=  2147483648 cpu:               8.6 elap:               2.1
 (Enter /prod/apps/gaussian/g16b1/l502.exe)
 Two-electron integral symmetry not used.
 Closed shell SCF:
 Using DIIS extrapolation, IDIIS=  1040.
 NGot=  2147483648 LenX=  2147294283 LenY=  2147201426
 Requested convergence on RMS density matrix=1.00D-08 within2000 cycles.
 Requested convergence on MAX density matrix=1.00D-06.
 Requested convergence on             energy=1.00D-06.
 No special actions if energy rises.

 Cycle   1  Pass 1  IDiag  1:
 FoFJK:  IHMeth= 1 ICntrl=       0 DoSepK=F KAlg= 0 I1Cent=           0 FoldK=F
 IRaf= 740000000 NMat=       1 IRICut=       1 DoRegI=T DoRafI=F ISym2E= 0 IDoP0=0 IntGTp=1.
 FoFCou: FMM=F IPFlag=           0 FMFlag=      100000 FMFlg1=           0
         NFxFlg=           0 DoJE=F BraDBF=F KetDBF=F FulRan=T
         wScrn=  0.000000 ICntrl=         0 IOpCl=  0 I1Cent=           0 NGrid=           0
         NMat0=    1 NMatS0=      1 NMatT0=    0 NMatD0=    1 NMtDS0=    0 NMtDT0=    0
 Symmetry not used in FoFCou.
 Inv3:  Mode=1 IEnd=    17919408.
 Iteration    1 A*A^-1 deviation from unit magnitude is 3.11D-15 for    754.
 Iteration    1 A*A^-1 deviation from orthogonality  is 2.55D-15 for   2284    809.
 Iteration    1 A^-1*A deviation from unit magnitude is 3.11D-15 for   1900.
 Iteration    1 A^-1*A deviation from orthogonality  is 1.79D-15 for   2100   1459.
 E= -1211.53261821956    
 DIIS: error= 3.66D-02 at cycle   1 NSaved=   1.
 NSaved= 1 IEnMin= 1 EnMin= -1211.53261821956     IErMin= 1 ErrMin= 3.66D-02
 ErrMax= 3.66D-02  0.00D+00 EMaxC= 1.00D-01 BMatC= 6.09D-01 BMatP= 6.09D-01
 IDIUse=3 WtCom= 6.34D-01 WtEn= 3.66D-01
 Coeff-Com:  0.100D+01
 Coeff-En:   0.100D+01
 Coeff:      0.100D+01
 Gap=     0.373 Goal=   None    Shift=    0.000
 GapD=    0.373 DampG=1.000 DampE=0.500 DampFc=0.5000 IDamp=-1.
 Damping current iteration by 5.00D-01
 RMSDP=6.45D-03 MaxDP=6.63D-01              OVMax= 2.87D-01

 Cycle   2  Pass 1  IDiag  1:
 E= -1211.62013319813     Delta-E=       -0.087514978571 Rises=F Damp=T
 DIIS: error= 2.09D-02 at cycle   2 NSaved=   2.
 NSaved= 2 IEnMin= 2 EnMin= -1211.62013319813     IErMin= 2 ErrMin= 2.09D-02
 ErrMax= 2.09D-02  0.00D+00 EMaxC= 1.00D-01 BMatC= 1.23D-01 BMatP= 6.09D-01
 IDIUse=3 WtCom= 7.91D-01 WtEn= 2.09D-01
 Coeff-Com:  0.268D+00 0.732D+00
 Coeff-En:   0.422D+00 0.578D+00
 Coeff:      0.300D+00 0.700D+00
 Gap=     0.180 Goal=   None    Shift=    0.000
 RMSDP=1.79D-03 MaxDP=1.37D-01 DE=-8.75D-02 OVMax= 2.38D-01

 Cycle   3  Pass 1  IDiag  1:
 E= -1212.02431001699     Delta-E=       -0.404176818863 Rises=F Damp=F
 DIIS: error= 8.77D-03 at cycle   3 NSaved=   3.
 NSaved= 3 IEnMin= 3 EnMin= -1212.02431001699     IErMin= 3 ErrMin= 8.77D-03
 ErrMax= 8.77D-03  0.00D+00 EMaxC= 1.00D-01 BMatC= 4.32D-02 BMatP= 1.23D-01
 IDIUse=3 WtCom= 9.12D-01 WtEn= 8.77D-02
 Coeff-Com:  0.968D-01 0.374D+00 0.529D+00
 Coeff-En:   0.000D+00 0.000D+00 0.100D+01
 Coeff:      0.883D-01 0.341D+00 0.571D+00
 Gap=     0.195 Goal=   None    Shift=    0.000
 RMSDP=8.57D-04 MaxDP=3.38D-02 DE=-4.04D-01 OVMax= 6.26D-02

 Cycle   4  Pass 1  IDiag  1:
 E= -1212.05607002424     Delta-E=       -0.031760007253 Rises=F Damp=F
 DIIS: error= 3.40D-03 at cycle   4 NSaved=   4.
 NSaved= 4 IEnMin= 4 EnMin= -1212.05607002424     IErMin= 4 ErrMin= 3.40D-03
 ErrMax= 3.40D-03  0.00D+00 EMaxC= 1.00D-01 BMatC= 7.54D-03 BMatP= 4.32D-02
 IDIUse=3 WtCom= 9.66D-01 WtEn= 3.40D-02
 Coeff-Com:  0.581D-02 0.736D-01 0.307D+00 0.614D+00
 Coeff-En:   0.000D+00 0.000D+00 0.136D+00 0.864D+00
 Coeff:      0.561D-02 0.711D-01 0.301D+00 0.623D+00
 Gap=     0.184 Goal=   None    Shift=    0.000
 RMSDP=2.98D-04 MaxDP=1.37D-02 DE=-3.18D-02 OVMax= 2.03D-02

 Cycle   5  Pass 1  IDiag  1:
 E= -1212.06198134977     Delta-E=       -0.005911325527 Rises=F Damp=F
 DIIS: error= 9.86D-04 at cycle   5 NSaved=   5.
 NSaved= 5 IEnMin= 5 EnMin= -1212.06198134977     IErMin= 5 ErrMin= 9.86D-04
 ErrMax= 9.86D-04  0.00D+00 EMaxC= 1.00D-01 BMatC= 6.91D-04 BMatP= 7.54D-03
 IDIUse=3 WtCom= 9.90D-01 WtEn= 9.86D-03
 Coeff-Com: -0.380D-02 0.175D-01 0.128D+00 0.344D+00 0.515D+00
 Coeff-En:   0.000D+00 0.000D+00 0.000D+00 0.000D+00 0.100D+01
 Coeff:     -0.376D-02 0.173D-01 0.126D+00 0.340D+00 0.520D+00
 Gap=     0.185 Goal=   None    Shift=    0.000
 RMSDP=9.65D-05 MaxDP=4.59D-03 DE=-5.91D-03 OVMax= 8.10D-03

 Cycle   6  Pass 1  IDiag  1:
 E= -1212.06256362656     Delta-E=       -0.000582276792 Rises=F Damp=F
 DIIS: error= 4.89D-04 at cycle   6 NSaved=   6.
 NSaved= 6 IEnMin= 6 EnMin= -1212.06256362656     IErMin= 6 ErrMin= 4.89D-04
 ErrMax= 4.89D-04  0.00D+00 EMaxC= 1.00D-01 BMatC= 6.16D-05 BMatP= 6.91D-04
 IDIUse=3 WtCom= 9.95D-01 WtEn= 4.89D-03
 Coeff-Com: -0.275D-02 0.402D-02 0.415D-01 0.129D+00 0.289D+00 0.540D+00
 Coeff-En:   0.000D+00 0.000D+00 0.000D+00 0.000D+00 0.213D-01 0.979D+00
 Coeff:     -0.273D-02 0.400D-02 0.413D-01 0.128D+00 0.288D+00 0.542D+00
 Gap=     0.185 Goal=   None    Shift=    0.000
 RMSDP=2.90D-05 MaxDP=1.62D-03 DE=-5.82D-04 OVMax= 2.98D-03

 Cycle   7  Pass 1  IDiag  1:
 E= -1212.06261698283     Delta-E=       -0.000053356271 Rises=F Damp=F
 DIIS: error= 1.18D-04 at cycle   7 NSaved=   7.
 NSaved= 7 IEnMin= 7 EnMin= -1212.06261698283     IErMin= 7 ErrMin= 1.18D-04
 ErrMax= 1.18D-04  0.00D+00 EMaxC= 1.00D-01 BMatC= 7.88D-06 BMatP= 6.16D-05
 IDIUse=3 WtCom= 9.99D-01 WtEn= 1.18D-03
 Coeff-Com: -0.143D-02 0.742D-03 0.129D-01 0.454D-01 0.127D+00 0.327D+00
 Coeff-Com:  0.488D+00
 Coeff-En:   0.000D+00 0.000D+00 0.000D+00 0.000D+00 0.000D+00 0.458D-01
 Coeff-En:   0.954D+00
 Coeff:     -0.143D-02 0.741D-03 0.129D-01 0.453D-01 0.127D+00 0.327D+00
 Coeff:      0.489D+00
 Gap=     0.185 Goal=   None    Shift=    0.000
 RMSDP=8.45D-06 MaxDP=5.79D-04 DE=-5.34D-05 OVMax= 6.48D-04

 Cycle   8  Pass 1  IDiag  1:
 E= -1212.06262347249     Delta-E=       -0.000006489653 Rises=F Damp=F
 DIIS: error= 2.13D-05 at cycle   8 NSaved=   8.
 NSaved= 8 IEnMin= 8 EnMin= -1212.06262347249     IErMin= 8 ErrMin= 2.13D-05
 ErrMax= 2.13D-05  0.00D+00 EMaxC= 1.00D-01 BMatC= 3.44D-07 BMatP= 7.88D-06
 IDIUse=1 WtCom= 1.00D+00 WtEn= 0.00D+00
 Coeff-Com: -0.377D-03-0.337D-04 0.114D-02 0.601D-02 0.251D-01 0.905D-01
 Coeff-Com:  0.222D+00 0.656D+00
 Coeff:     -0.377D-03-0.337D-04 0.114D-02 0.601D-02 0.251D-01 0.905D-01
 Coeff:      0.222D+00 0.656D+00
 Gap=     0.185 Goal=   None    Shift=    0.000
 RMSDP=2.00D-06 MaxDP=1.33D-04 DE=-6.49D-06 OVMax= 1.11D-04

 Cycle   9  Pass 1  IDiag  1:
 E= -1212.06262373413     Delta-E=       -0.000000261647 Rises=F Damp=F
 DIIS: error= 7.15D-06 at cycle   9 NSaved=   9.
 NSaved= 9 IEnMin= 9 EnMin= -1212.06262373413     IErMin= 9 ErrMin= 7.15D-06
 ErrMax= 7.15D-06  0.00D+00 EMaxC= 1.00D-01 BMatC= 4.27D-08 BMatP= 3.44D-07
 IDIUse=1 WtCom= 1.00D+00 WtEn= 0.00D+00
 Coeff-Com: -0.514D-04-0.662D-04-0.730D-03-0.152D-02-0.147D-03 0.126D-01
 Coeff-Com:  0.614D-01 0.327D+00 0.601D+00
 Coeff:     -0.514D-04-0.662D-04-0.730D-03-0.152D-02-0.147D-03 0.126D-01
 Coeff:      0.614D-01 0.327D+00 0.601D+00
 Gap=     0.185 Goal=   None    Shift=    0.000
 RMSDP=6.80D-07 MaxDP=3.38D-05 DE=-2.62D-07 OVMax= 3.93D-05

 Cycle  10  Pass 1  IDiag  1:
 E= -1212.06262376801     Delta-E=       -0.000000033876 Rises=F Damp=F
 DIIS: error= 2.90D-06 at cycle  10 NSaved=  10.
 NSaved=10 IEnMin=10 EnMin= -1212.06262376801     IErMin=10 ErrMin= 2.90D-06
 ErrMax= 2.90D-06  0.00D+00 EMaxC= 1.00D-01 BMatC= 3.86D-09 BMatP= 4.27D-08
 IDIUse=1 WtCom= 1.00D+00 WtEn= 0.00D+00
 Coeff-Com: -0.717D-05-0.277D-04-0.449D-03-0.113D-02-0.172D-02 0.776D-03
 Coeff-Com:  0.171D-01 0.128D+00 0.309D+00 0.548D+00
 Coeff:     -0.717D-05-0.277D-04-0.449D-03-0.113D-02-0.172D-02 0.776D-03
 Coeff:      0.171D-01 0.128D+00 0.309D+00 0.548D+00
 Gap=     0.185 Goal=   None    Shift=    0.000
 RMSDP=2.36D-07 MaxDP=1.18D-05 DE=-3.39D-08 OVMax= 1.78D-05

 Cycle  11  Pass 1  IDiag  1:
 E= -1212.06262377104     Delta-E=       -0.000000003028 Rises=F Damp=F
 DIIS: error= 1.08D-06 at cycle  11 NSaved=  11.
 NSaved=11 IEnMin=11 EnMin= -1212.06262377104     IErMin=11 ErrMin= 1.08D-06
 ErrMax= 1.08D-06  0.00D+00 EMaxC= 1.00D-01 BMatC= 5.08D-10 BMatP= 3.86D-09
 IDIUse=1 WtCom= 1.00D+00 WtEn= 0.00D+00
 Coeff-Com:  0.135D-05-0.355D-05-0.162D-03-0.426D-03-0.946D-03-0.108D-02
 Coeff-Com:  0.187D-02 0.305D-01 0.901D-01 0.295D+00 0.585D+00
 Coeff:      0.135D-05-0.355D-05-0.162D-03-0.426D-03-0.946D-03-0.108D-02
 Coeff:      0.187D-02 0.305D-01 0.901D-01 0.295D+00 0.585D+00
 Gap=     0.185 Goal=   None    Shift=    0.000
 RMSDP=8.32D-08 MaxDP=4.45D-06 DE=-3.03D-09 OVMax= 6.93D-06

 Cycle  12  Pass 1  IDiag  1:
 E= -1212.06262377138     Delta-E=       -0.000000000343 Rises=F Damp=F
 DIIS: error= 6.38D-07 at cycle  12 NSaved=  12.
 NSaved=12 IEnMin=12 EnMin= -1212.06262377138     IErMin=12 ErrMin= 6.38D-07
 ErrMax= 6.38D-07  0.00D+00 EMaxC= 1.00D-01 BMatC= 1.23D-10 BMatP= 5.08D-10
 IDIUse=1 WtCom= 1.00D+00 WtEn= 0.00D+00
 Coeff-Com:  0.198D-05 0.205D-05-0.470D-04-0.127D-03-0.409D-03-0.890D-03
 Coeff-Com: -0.137D-02 0.143D-02 0.131D-01 0.115D+00 0.383D+00 0.490D+00
 Coeff:      0.198D-05 0.205D-05-0.470D-04-0.127D-03-0.409D-03-0.890D-03
 Coeff:     -0.137D-02 0.143D-02 0.131D-01 0.115D+00 0.383D+00 0.490D+00
 Gap=     0.185 Goal=   None    Shift=    0.000
 RMSDP=3.21D-08 MaxDP=1.56D-06 DE=-3.43D-10 OVMax= 2.43D-06

 Cycle  13  Pass 1  IDiag  1:
 E= -1212.06262377147     Delta-E=       -0.000000000095 Rises=F Damp=F
 DIIS: error= 6.50D-08 at cycle  13 NSaved=  13.
 NSaved=13 IEnMin=13 EnMin= -1212.06262377147     IErMin=13 ErrMin= 6.50D-08
 ErrMax= 6.50D-08  0.00D+00 EMaxC= 1.00D-01 BMatC= 2.60D-12 BMatP= 1.23D-10
 IDIUse=1 WtCom= 1.00D+00 WtEn= 0.00D+00
 Coeff-Com:  0.564D-06 0.873D-06-0.562D-05-0.134D-04-0.825D-04-0.268D-03
 Coeff-Com: -0.737D-03-0.233D-02-0.394D-02 0.185D-01 0.921D-01 0.176D+00
 Coeff-Com:  0.721D+00
 Coeff:      0.564D-06 0.873D-06-0.562D-05-0.134D-04-0.825D-04-0.268D-03
 Coeff:     -0.737D-03-0.233D-02-0.394D-02 0.185D-01 0.921D-01 0.176D+00
 Coeff:      0.721D+00
 Gap=     0.185 Goal=   None    Shift=    0.000
 RMSDP=7.75D-09 MaxDP=3.04D-07 DE=-9.46D-11 OVMax= 8.31D-07

 Error on total polarization charges =  0.01851
 SCF Done:  E(RB3LYP) =  -1212.06262377     A.U. after   13 cycles
            NFock= 13  Conv=0.77D-08     -V/T= 2.0079
 KE= 1.202530353167D+03 PE=-5.768458316425D+03 EE= 1.867068207652D+03
 Leave Link  502 at Thu Sep 24 17:37:58 2020, MaxMem=  2147483648 cpu:             248.8 elap:              62.2
 (Enter /prod/apps/gaussian/g16b1/l601.exe)
 Copying SCF densities to generalized density rwf, IOpCl= 0 IROHF=0.

 **********************************************************************

            Population analysis using the SCF Density.

 **********************************************************************

 Alpha  occ. eigenvalues --  -89.19481 -19.21837 -19.21801 -14.50511 -14.49009
 Alpha  occ. eigenvalues --  -14.48880 -14.47259 -14.44121 -10.33569 -10.29351
 Alpha  occ. eigenvalues --  -10.26907 -10.25627 -10.25578 -10.22144 -10.21953
 Alpha  occ. eigenvalues --  -10.21184 -10.21139 -10.21045  -8.21829  -6.18290
 Alpha  occ. eigenvalues --   -6.18268  -6.18189  -1.19502  -1.18993  -1.08061
 Alpha  occ. eigenvalues --   -1.02349  -1.01600  -0.99187  -0.88225  -0.87963
 Alpha  occ. eigenvalues --   -0.80035  -0.77394  -0.76683  -0.75345  -0.71718
 Alpha  occ. eigenvalues --   -0.71555  -0.68411  -0.63847  -0.63119  -0.62036
 Alpha  occ. eigenvalues --   -0.61460  -0.57850  -0.56379  -0.56151  -0.55982
 Alpha  occ. eigenvalues --   -0.54412  -0.51639  -0.51460  -0.50926  -0.50108
 Alpha  occ. eigenvalues --   -0.47345  -0.46437  -0.45721  -0.44551  -0.44507
 Alpha  occ. eigenvalues --   -0.43186  -0.42574  -0.41871  -0.41274  -0.40263
 Alpha  occ. eigenvalues --   -0.38717  -0.38177  -0.38114  -0.37753  -0.37322
 Alpha  occ. eigenvalues --   -0.36485  -0.35773  -0.32152  -0.27500  -0.27289
 Alpha virt. eigenvalues --   -0.08824  -0.05596  -0.03636  -0.02433  -0.00925
 Alpha virt. eigenvalues --    0.01410   0.04152   0.04987   0.05385   0.08129
 Alpha virt. eigenvalues --    0.08873   0.09998   0.10356   0.11597   0.12337
 Alpha virt. eigenvalues --    0.13089   0.13310   0.13727   0.14141   0.14814
 Alpha virt. eigenvalues --    0.14900   0.15877   0.16389   0.16629   0.17683
 Alpha virt. eigenvalues --    0.18160   0.18540   0.18774   0.19705   0.21684
 Alpha virt. eigenvalues --    0.26963   0.27909   0.28538   0.29522   0.31960
 Alpha virt. eigenvalues --    0.32759   0.33974   0.35718   0.38013   0.40220
 Alpha virt. eigenvalues --    0.42372   0.45141   0.45422   0.46150   0.47175
 Alpha virt. eigenvalues --    0.48766   0.49463   0.50697   0.52033   0.52446
 Alpha virt. eigenvalues --    0.53441   0.53575   0.54906   0.55392   0.55486
 Alpha virt. eigenvalues --    0.56687   0.57301   0.57579   0.58990   0.59479
 Alpha virt. eigenvalues --    0.60003   0.60234   0.61083   0.62100   0.63000
 Alpha virt. eigenvalues --    0.64747   0.65375   0.67744   0.69992   0.71752
 Alpha virt. eigenvalues --    0.72065   0.73264   0.73796   0.74858   0.75431
 Alpha virt. eigenvalues --    0.76325   0.77108   0.77667   0.78946   0.79721
 Alpha virt. eigenvalues --    0.80124   0.80543   0.82591   0.83132   0.83736
 Alpha virt. eigenvalues --    0.84160   0.85414   0.86530   0.87022   0.88791
 Alpha virt. eigenvalues --    0.88983   0.90068   0.91486   0.92406   0.92705
 Alpha virt. eigenvalues --    0.93496   0.93909   0.94530   0.95438   0.97085
 Alpha virt. eigenvalues --    0.97684   0.99077   0.99469   1.00689   1.02597
 Alpha virt. eigenvalues --    1.02883   1.03615   1.06666   1.07537   1.07935
 Alpha virt. eigenvalues --    1.11441   1.12450   1.13852   1.14344   1.15407
 Alpha virt. eigenvalues --    1.16410   1.17425   1.18779   1.21689   1.24397
 Alpha virt. eigenvalues --    1.25597   1.29249   1.31006   1.33271   1.35940
 Alpha virt. eigenvalues --    1.36688   1.40000   1.40635   1.41543   1.43621
 Alpha virt. eigenvalues --    1.44224   1.45814   1.46938   1.48320   1.49367
 Alpha virt. eigenvalues --    1.50648   1.53874   1.56796   1.59814   1.63770
 Alpha virt. eigenvalues --    1.67367   1.69341   1.71917   1.72924   1.74171
 Alpha virt. eigenvalues --    1.74926   1.76808   1.77567   1.77933   1.78971
 Alpha virt. eigenvalues --    1.80348   1.82135   1.82869   1.83974   1.86475
 Alpha virt. eigenvalues --    1.87512   1.88129   1.90419   1.92153   1.93014
 Alpha virt. eigenvalues --    1.94625   1.98199   1.98930   1.99188   2.02001
 Alpha virt. eigenvalues --    2.03505   2.04025   2.05379   2.05838   2.06138
 Alpha virt. eigenvalues --    2.08874   2.10080   2.11972   2.12536   2.13723
 Alpha virt. eigenvalues --    2.14679   2.16878   2.17612   2.19441   2.19955
 Alpha virt. eigenvalues --    2.21362   2.23790   2.25605   2.27094   2.27998
 Alpha virt. eigenvalues --    2.29134   2.30386   2.31554   2.33646   2.37647
 Alpha virt. eigenvalues --    2.39777   2.42228   2.48879   2.51466   2.52882
 Alpha virt. eigenvalues --    2.54162   2.56391   2.58296   2.60517   2.62033
 Alpha virt. eigenvalues --    2.64078   2.64338   2.67854   2.69838   2.70752
 Alpha virt. eigenvalues --    2.72581   2.73806   2.77333   2.77796   2.81512
 Alpha virt. eigenvalues --    2.85209   2.95007   3.02271   3.09554   3.20869
 Alpha virt. eigenvalues --    3.40279   3.55856   3.78371   3.87215   3.94638
 Alpha virt. eigenvalues --    3.97718   3.99483   4.04160   4.06710   4.07213
 Alpha virt. eigenvalues --    4.09423   4.12786   4.16490   4.21505   4.29010
 Alpha virt. eigenvalues --    4.30616   4.37146   4.44418   4.68891
          Condensed to atoms (all electrons):
               1          2          3          4          5          6
     1  O    8.150128   0.446937  -0.056258   0.012677  -0.001189  -0.000011
     2  S    0.446937  13.499081   0.171258  -0.012489  -0.005153   0.000251
     3  N   -0.056258   0.171258   7.337948   0.267922  -0.056661   0.004310
     4  C    0.012677  -0.012489   0.267922   4.518615   0.285103  -0.059353
     5  N   -0.001189  -0.005153  -0.056661   0.285103   6.690271   0.262195
     6  N   -0.000011   0.000251   0.004310  -0.059353   0.262195   6.653582
     7  C    0.000075  -0.002187  -0.068450   0.526958  -0.052574  -0.088749
     8  N   -0.000043  -0.000127   0.003776  -0.012013  -0.083948   0.267028
     9  C   -0.000001  -0.000011  -0.000102   0.001832   0.006453  -0.052637
    10  C   -0.000000   0.000000   0.000005   0.001137  -0.000324   0.003163
    11  C   -0.000000   0.000000   0.000000  -0.000008   0.000002  -0.000067
    12  C    0.000000  -0.000000  -0.000000  -0.000000  -0.000000   0.000014
    13  C   -0.000000  -0.000000  -0.000000   0.000006  -0.000004   0.000185
    14  C   -0.000000   0.000000   0.000000  -0.000609   0.000493  -0.000745
    15  N   -0.044667   0.106334  -0.046113  -0.000959   0.000310   0.000005
    16  C   -0.000935  -0.013912   0.001574   0.000043  -0.000008   0.000000
    17  C    0.001127  -0.011420  -0.002271   0.000441   0.000007  -0.000000
    18  O   -0.033337   0.446158  -0.046287   0.000222  -0.000020   0.000000
    19  H    0.000560  -0.010114   0.295751  -0.016574   0.000414   0.000006
    20  H    0.000037   0.000322  -0.000624  -0.023783   0.003170   0.002937
    21  H   -0.000000  -0.000000   0.000000  -0.000026  -0.000010  -0.000047
    22  H   -0.000000   0.000000   0.000000   0.000000  -0.000000   0.000001
    23  H    0.000000  -0.000000  -0.000000  -0.000000  -0.000000   0.000000
    24  H   -0.000000   0.000000   0.000000  -0.000000   0.000000  -0.000006
    25  H   -0.000000  -0.000000  -0.000000   0.000009  -0.000273   0.009301
    26  H    0.007427  -0.002517   0.000038   0.000003  -0.000001   0.000000
    27  H    0.000037   0.001866  -0.000067  -0.000004   0.000001  -0.000000
    28  H   -0.000577  -0.001018  -0.000008   0.000000  -0.000000   0.000000
    29  H    0.000002  -0.004133   0.007037   0.000213  -0.000004   0.000000
    30  H   -0.000001  -0.002510  -0.000102  -0.000005  -0.000000  -0.000000
    31  H   -0.000039   0.001861  -0.000038  -0.000013   0.000001   0.000000
    32  H    0.000379  -0.003849   0.001031   0.000143   0.000794  -0.000008
    33  H   -0.000072  -0.000161   0.000777  -0.021676   0.303534  -0.025739
               7          8          9         10         11         12
     1  O    0.000075  -0.000043  -0.000001  -0.000000  -0.000000   0.000000
     2  S   -0.002187  -0.000127  -0.000011   0.000000   0.000000  -0.000000
     3  N   -0.068450   0.003776  -0.000102   0.000005   0.000000  -0.000000
     4  C    0.526958  -0.012013   0.001832   0.001137  -0.000008  -0.000000
     5  N   -0.052574  -0.083948   0.006453  -0.000324   0.000002  -0.000000
     6  N   -0.088749   0.267028  -0.052637   0.003163  -0.000067   0.000014
     7  C    4.902740   0.317927  -0.031822  -0.004329  -0.000020   0.000016
     8  N    0.317927   6.771643   0.204965  -0.048572   0.004306   0.000362
     9  C   -0.031822   0.204965   4.640887   0.531687  -0.011564  -0.036795
    10  C   -0.004329  -0.048572   0.531687   4.952021   0.530204  -0.041103
    11  C   -0.000020   0.004306  -0.011564   0.530204   4.854469   0.541862
    12  C    0.000016   0.000362  -0.036795  -0.041103   0.541862   4.856237
    13  C   -0.000072   0.004233  -0.011507  -0.041183  -0.023863   0.538472
    14  C    0.006081  -0.053944   0.520098  -0.065409  -0.040560  -0.040154
    15  N    0.000011  -0.000001  -0.000000  -0.000000   0.000000   0.000000
    16  C    0.000001   0.000000   0.000000  -0.000000  -0.000000   0.000000
    17  C   -0.000005   0.000000  -0.000000  -0.000000  -0.000000  -0.000000
    18  O    0.000070  -0.000000  -0.000000   0.000000   0.000000  -0.000000
    19  H   -0.001185   0.000015   0.000002  -0.000000  -0.000000   0.000000
    20  H    0.364481  -0.030316  -0.001609   0.002035   0.000080  -0.000000
    21  H    0.004715  -0.008135  -0.039807   0.356970  -0.031445   0.004140
    22  H   -0.000003  -0.000111   0.003424  -0.036685   0.364470  -0.038108
    23  H   -0.000000   0.000004   0.000479   0.004862  -0.040493   0.366561
    24  H    0.000001  -0.000106   0.003503   0.000713   0.004276  -0.038511
    25  H    0.000133  -0.011056  -0.040123   0.004762   0.000119   0.004270
    26  H    0.000000   0.000000  -0.000000   0.000000   0.000000   0.000000
    27  H   -0.000000   0.000000  -0.000000   0.000000  -0.000000   0.000000
    28  H   -0.000000  -0.000000  -0.000000   0.000000   0.000000   0.000000
    29  H    0.000007  -0.000000   0.000000  -0.000000  -0.000000   0.000000
    30  H    0.000000   0.000000   0.000000   0.000000  -0.000000  -0.000000
    31  H   -0.000000  -0.000000  -0.000000  -0.000000   0.000000   0.000000
    32  H    0.000010  -0.000001  -0.000000   0.000000   0.000000  -0.000000
    33  H    0.004397   0.004002  -0.000041   0.000002  -0.000000  -0.000000
              13         14         15         16         17         18
     1  O   -0.000000  -0.000000  -0.044667  -0.000935   0.001127  -0.033337
     2  S   -0.000000   0.000000   0.106334  -0.013912  -0.011420   0.446158
     3  N   -0.000000   0.000000  -0.046113   0.001574  -0.002271  -0.046287
     4  C    0.000006  -0.000609  -0.000959   0.000043   0.000441   0.000222
     5  N   -0.000004   0.000493   0.000310  -0.000008   0.000007  -0.000020
     6  N    0.000185  -0.000745   0.000005   0.000000  -0.000000   0.000000
     7  C   -0.000072   0.006081   0.000011   0.000001  -0.000005   0.000070
     8  N    0.004233  -0.053944  -0.000001   0.000000   0.000000  -0.000000
     9  C   -0.011507   0.520098  -0.000000   0.000000  -0.000000  -0.000000
    10  C   -0.041183  -0.065409  -0.000000  -0.000000  -0.000000   0.000000
    11  C   -0.023863  -0.040560   0.000000  -0.000000  -0.000000   0.000000
    12  C    0.538472  -0.040154   0.000000   0.000000  -0.000000  -0.000000
    13  C    4.862418   0.527054   0.000000   0.000000  -0.000000  -0.000000
    14  C    0.527054   4.952028   0.000000  -0.000000   0.000000   0.000000
    15  N    0.000000   0.000000   7.109548   0.213367   0.207696  -0.047626
    16  C    0.000000  -0.000000   0.213367   5.067461  -0.039188  -0.001062
    17  C   -0.000000   0.000000   0.207696  -0.039188   5.072607   0.001878
    18  O   -0.000000   0.000000  -0.047626  -0.001062   0.001878   8.157912
    19  H   -0.000000  -0.000000   0.000675  -0.000014  -0.000313   0.001691
    20  H   -0.000005  -0.000006   0.000000   0.000000   0.000000  -0.000007
    21  H    0.000188   0.004503   0.000000  -0.000000   0.000000  -0.000000
    22  H    0.004222   0.000749   0.000000   0.000000  -0.000000  -0.000000
    23  H   -0.040389   0.004701  -0.000000   0.000000   0.000000  -0.000000
    24  H    0.364943  -0.036966   0.000000  -0.000000   0.000000   0.000000
    25  H   -0.033834   0.359786   0.000000  -0.000000   0.000000  -0.000000
    26  H    0.000000  -0.000000  -0.027197   0.375564   0.003504  -0.000297
    27  H   -0.000000   0.000000  -0.026211   0.377789  -0.002285  -0.000050
    28  H    0.000000   0.000000  -0.032353   0.378451  -0.002211   0.003757
    29  H    0.000000  -0.000000  -0.027426   0.003459   0.376668  -0.000713
    30  H    0.000000   0.000000  -0.032426  -0.002043   0.379327   0.005042
    31  H   -0.000000  -0.000000  -0.025283  -0.002349   0.375198   0.000085
    32  H   -0.000000   0.000000   0.275372  -0.018691  -0.019764   0.000801
    33  H   -0.000000  -0.000002   0.000349   0.000010  -0.000013  -0.000000
              19         20         21         22         23         24
     1  O    0.000560   0.000037  -0.000000  -0.000000   0.000000  -0.000000
     2  S   -0.010114   0.000322  -0.000000   0.000000  -0.000000   0.000000
     3  N    0.295751  -0.000624   0.000000   0.000000  -0.000000   0.000000
     4  C   -0.016574  -0.023783  -0.000026   0.000000  -0.000000  -0.000000
     5  N    0.000414   0.003170  -0.000010  -0.000000  -0.000000   0.000000
     6  N    0.000006   0.002937  -0.000047   0.000001   0.000000  -0.000006
     7  C   -0.001185   0.364481   0.004715  -0.000003  -0.000000   0.000001
     8  N    0.000015  -0.030316  -0.008135  -0.000111   0.000004  -0.000106
     9  C    0.000002  -0.001609  -0.039807   0.003424   0.000479   0.003503
    10  C   -0.000000   0.002035   0.356970  -0.036685   0.004862   0.000713
    11  C   -0.000000   0.000080  -0.031445   0.364470  -0.040493   0.004276
    12  C    0.000000  -0.000000   0.004140  -0.038108   0.366561  -0.038511
    13  C   -0.000000  -0.000005   0.000188   0.004222  -0.040389   0.364943
    14  C   -0.000000  -0.000006   0.004503   0.000749   0.004701  -0.036966
    15  N    0.000675   0.000000   0.000000   0.000000  -0.000000   0.000000
    16  C   -0.000014   0.000000  -0.000000   0.000000   0.000000  -0.000000
    17  C   -0.000313   0.000000   0.000000  -0.000000   0.000000   0.000000
    18  O    0.001691  -0.000007  -0.000000  -0.000000  -0.000000   0.000000
    19  H    0.247893   0.000204  -0.000000  -0.000000  -0.000000   0.000000
    20  H    0.000204   0.404428   0.001078  -0.000000  -0.000000   0.000000
    21  H   -0.000000   0.001078   0.521369  -0.004878  -0.000136   0.000013
    22  H   -0.000000  -0.000000  -0.004878   0.536612  -0.004908  -0.000152
    23  H   -0.000000  -0.000000  -0.000136  -0.004908   0.542940  -0.004923
    24  H    0.000000   0.000000   0.000013  -0.000152  -0.004923   0.537247
    25  H   -0.000000  -0.000006  -0.000117   0.000012  -0.000130  -0.004890
    26  H   -0.000002  -0.000000   0.000000   0.000000   0.000000  -0.000000
    27  H    0.000000  -0.000000   0.000000   0.000000  -0.000000   0.000000
    28  H    0.000001   0.000000   0.000000  -0.000000   0.000000  -0.000000
    29  H    0.000017  -0.000000  -0.000000   0.000000  -0.000000  -0.000000
    30  H    0.000022   0.000000   0.000000   0.000000   0.000000   0.000000
    31  H    0.000004  -0.000000  -0.000000  -0.000000  -0.000000   0.000000
    32  H    0.000036   0.000000   0.000000   0.000000  -0.000000   0.000000
    33  H   -0.000036  -0.000046  -0.000000   0.000000  -0.000000   0.000000
              25         26         27         28         29         30
     1  O   -0.000000   0.007427   0.000037  -0.000577   0.000002  -0.000001
     2  S   -0.000000  -0.002517   0.001866  -0.001018  -0.004133  -0.002510
     3  N   -0.000000   0.000038  -0.000067  -0.000008   0.007037  -0.000102
     4  C    0.000009   0.000003  -0.000004   0.000000   0.000213  -0.000005
     5  N   -0.000273  -0.000001   0.000001  -0.000000  -0.000004  -0.000000
     6  N    0.009301   0.000000  -0.000000   0.000000   0.000000  -0.000000
     7  C    0.000133   0.000000  -0.000000  -0.000000   0.000007   0.000000
     8  N   -0.011056   0.000000   0.000000  -0.000000  -0.000000   0.000000
     9  C   -0.040123  -0.000000  -0.000000  -0.000000   0.000000   0.000000
    10  C    0.004762   0.000000   0.000000   0.000000  -0.000000   0.000000
    11  C    0.000119   0.000000  -0.000000   0.000000  -0.000000  -0.000000
    12  C    0.004270   0.000000   0.000000   0.000000   0.000000  -0.000000
    13  C   -0.033834   0.000000  -0.000000   0.000000   0.000000   0.000000
    14  C    0.359786  -0.000000   0.000000   0.000000  -0.000000   0.000000
    15  N    0.000000  -0.027197  -0.026211  -0.032353  -0.027426  -0.032426
    16  C   -0.000000   0.375564   0.377789   0.378451   0.003459  -0.002043
    17  C    0.000000   0.003504  -0.002285  -0.002211   0.376668   0.379327
    18  O   -0.000000  -0.000297  -0.000050   0.003757  -0.000713   0.005042
    19  H   -0.000000  -0.000002   0.000000   0.000001   0.000017   0.000022
    20  H   -0.000006  -0.000000  -0.000000   0.000000  -0.000000   0.000000
    21  H   -0.000117   0.000000   0.000000   0.000000  -0.000000   0.000000
    22  H    0.000012   0.000000   0.000000  -0.000000   0.000000   0.000000
    23  H   -0.000130   0.000000  -0.000000   0.000000  -0.000000   0.000000
    24  H   -0.004890  -0.000000   0.000000  -0.000000  -0.000000   0.000000
    25  H    0.521654   0.000000   0.000000   0.000000  -0.000000   0.000000
    26  H    0.000000   0.452427  -0.019626  -0.022270  -0.000155  -0.000021
    27  H    0.000000  -0.019626   0.452517  -0.022227  -0.000033  -0.000511
    28  H    0.000000  -0.022270  -0.022227   0.458575  -0.000009   0.003627
    29  H   -0.000000  -0.000155  -0.000033  -0.000009   0.457395  -0.022079
    30  H    0.000000  -0.000021  -0.000511   0.003627  -0.022079   0.455099
    31  H   -0.000000  -0.000023   0.003127  -0.000500  -0.020700  -0.021139
    32  H   -0.000000  -0.001939  -0.003077   0.002881  -0.001907   0.002859
    33  H   -0.000001  -0.000001  -0.000002   0.000000   0.000116  -0.000000
              31         32         33
     1  O   -0.000039   0.000379  -0.000072
     2  S    0.001861  -0.003849  -0.000161
     3  N   -0.000038   0.001031   0.000777
     4  C   -0.000013   0.000143  -0.021676
     5  N    0.000001   0.000794   0.303534
     6  N    0.000000  -0.000008  -0.025739
     7  C   -0.000000   0.000010   0.004397
     8  N   -0.000000  -0.000001   0.004002
     9  C   -0.000000  -0.000000  -0.000041
    10  C   -0.000000   0.000000   0.000002
    11  C    0.000000   0.000000  -0.000000
    12  C    0.000000  -0.000000  -0.000000
    13  C   -0.000000  -0.000000  -0.000000
    14  C   -0.000000   0.000000  -0.000002
    15  N   -0.025283   0.275372   0.000349
    16  C   -0.002349  -0.018691   0.000010
    17  C    0.375198  -0.019764  -0.000013
    18  O    0.000085   0.000801  -0.000000
    19  H    0.000004   0.000036  -0.000036
    20  H   -0.000000   0.000000  -0.000046
    21  H   -0.000000   0.000000  -0.000000
    22  H   -0.000000   0.000000   0.000000
    23  H   -0.000000  -0.000000  -0.000000
    24  H    0.000000   0.000000   0.000000
    25  H   -0.000000  -0.000000  -0.000001
    26  H   -0.000023  -0.001939  -0.000001
    27  H    0.003127  -0.003077  -0.000002
    28  H   -0.000500   0.002881   0.000000
    29  H   -0.020700  -0.001907   0.000116
    30  H   -0.021139   0.002859  -0.000000
    31  H    0.454528  -0.002527  -0.000001
    32  H   -0.002527   0.256899   0.000648
    33  H   -0.000001   0.000648   0.247057
 Mulliken charges:
               1
     1  O   -0.482259
     2  S    1.395531
     3  N   -0.814445
     4  C    0.532187
     5  N   -0.352580
     6  N    0.024386
     7  C    0.121772
     8  N   -0.329889
     9  C    0.312688
    10  C   -0.149957
    11  C   -0.151768
    12  C   -0.117261
    13  C   -0.150865
    14  C   -0.137099
    15  N   -0.603405
    16  C   -0.339517
    17  C   -0.340982
    18  O   -0.488217
    19  H    0.480943
    20  H    0.277631
    21  H    0.191624
    22  H    0.175356
    23  H    0.171434
    24  H    0.174859
    25  H    0.190387
    26  H    0.235087
    27  H    0.238756
    28  H    0.233878
    29  H    0.232245
    30  H    0.234862
    31  H    0.237809
    32  H    0.509906
    33  H    0.486901
 Sum of Mulliken charges =   2.00000
 Mulliken charges with hydrogens summed into heavy atoms:
               1
     1  O   -0.482259
     2  S    1.395531
     3  N   -0.333502
     4  C    0.532187
     5  N    0.134321
     6  N    0.024386
     7  C    0.399403
     8  N   -0.329889
     9  C    0.312688
    10  C    0.041668
    11  C    0.023588
    12  C    0.054172
    13  C    0.023994
    14  C    0.053288
    15  N   -0.093499
    16  C    0.368204
    17  C    0.363934
    18  O   -0.488217
 Electronic spatial extent (au):  <R**2>=           7186.0961
 Charge=              2.0000 electrons
 Dipole moment (field-independent basis, Debye):
    X=             10.3755    Y=              6.1939    Z=             -5.7321  Tot=             13.3743
 Quadrupole moment (field-independent basis, Debye-Ang):
   XX=             -2.5960   YY=            -81.1511   ZZ=           -102.5895
   XY=             32.2477   XZ=            -11.5181   YZ=              3.5350
 Traceless Quadrupole moment (field-independent basis, Debye-Ang):
   XX=             59.5162   YY=            -19.0389   ZZ=            -40.4773
   XY=             32.2477   XZ=            -11.5181   YZ=              3.5350
 Octapole moment (field-independent basis, Debye-Ang**2):
  XXX=            148.7832  YYY=             -6.1702  ZZZ=            -31.0437  XYY=             41.0957
  XXY=             86.2206  XXZ=              1.4779  XZZ=             57.3079  YZZ=             -2.8093
  YYZ=            -15.8502  XYZ=             -7.3683
 Hexadecapole moment (field-independent basis, Debye-Ang**3):
 XXXX=          -5417.3310 YYYY=           -633.7953 ZZZZ=           -485.1291 XXXY=            375.3628
 XXXZ=           -240.6250 YYYX=            -49.4751 YYYZ=              0.8427 ZZZX=            -74.9409
 ZZZY=             -4.9449 XXYY=          -1202.4694 XXZZ=          -1378.1798 YYZZ=           -178.8666
 XXYZ=            103.5285 YYXZ=            -34.9025 ZZXY=            -43.3312
 N-N= 1.486797131835D+03 E-N=-5.768458316085D+03  KE= 1.202530353167D+03
 No NMR shielding tensors so no spin-rotation constants.
 Leave Link  601 at Thu Sep 24 17:37:59 2020, MaxMem=  2147483648 cpu:               0.4 elap:               0.1
 (Enter /prod/apps/gaussian/g16b1/l701.exe)
 ... and contract with generalized density number  0.
 Compute integral first derivatives.
 D1PCM: PCM CHGder 1st derivatives, ID1Alg=3 FixD1E=F DoIter=F DoCFld=F I1PDM=0.
 GePol: Maximum number of non-zero 1st derivatives   =     177
 Leave Link  701 at Thu Sep 24 17:38:01 2020, MaxMem=  2147483648 cpu:               9.0 elap:               2.2
 (Enter /prod/apps/gaussian/g16b1/l702.exe)
 L702 exits ... SP integral derivatives will be done elsewhere.
 Leave Link  702 at Thu Sep 24 17:38:01 2020, MaxMem=  2147483648 cpu:               0.1 elap:               0.0
 (Enter /prod/apps/gaussian/g16b1/l703.exe)
 Integral derivatives from FoFJK, PRISM(SPDF).
 Compute integral first derivatives, UseDBF=F ICtDFT=           0.
 Calling FoFJK, ICntrl=      2127 FMM=F ISym2X=0 I1Cent= 0 IOpClX= 0 NMat=1 NMatS=1 NMatT=0.
 FoFJK:  IHMeth= 1 ICntrl=    2127 DoSepK=F KAlg= 0 I1Cent=           0 FoldK=F
 IRaf=         0 NMat=       1 IRICut=       1 DoRegI=T DoRafI=F ISym2E= 0 IDoP0=0 IntGTp=1.
 FoFCou: FMM=F IPFlag=           0 FMFlag=      100000 FMFlg1=         800
         NFxFlg=           0 DoJE=F BraDBF=F KetDBF=F FulRan=T
         wScrn=  0.000000 ICntrl=      2127 IOpCl=  0 I1Cent=           0 NGrid=           0
         NMat0=    1 NMatS0=      1 NMatT0=    0 NMatD0=    1 NMtDS0=    0 NMtDT0=    0
 Symmetry not used in FoFCou.
 Leave Link  703 at Thu Sep 24 17:38:14 2020, MaxMem=  2147483648 cpu:              53.8 elap:              13.4
 (Enter /prod/apps/gaussian/g16b1/l716.exe)
 Dipole        = 4.08205163D+00 2.43687442D+00-2.25517298D+00
 -------------------------------------------------------------------
 Center     Atomic                   Forces (Hartrees/Bohr)
 Number     Number              X              Y              Z
 -------------------------------------------------------------------
      1        8           0.000175996    0.000293971    0.000098366
      2       16           0.001233992   -0.000329702   -0.001900163
      3        7           0.000136836    0.000413556    0.000344775
      4        6           0.000322706   -0.000409950   -0.000116750
      5        7           0.000432947    0.000789520   -0.000032566
      6        7          -0.000258911   -0.000940880    0.000392205
      7        6          -0.000035893   -0.000533671    0.000135372
      8        7           0.000118118    0.000442382   -0.000025826
      9        6           0.000547372   -0.000019847    0.000072411
     10        6          -0.000628712   -0.000439072   -0.000241233
     11        6           0.000057886   -0.000630256   -0.000228701
     12        6           0.000394189   -0.000206481   -0.000165763
     13        6          -0.000193415    0.000105365    0.000071240
     14        6           0.000068539    0.000449250    0.000095794
     15        7           0.000063318    0.000354177    0.000114005
     16        6           0.000500929   -0.000144029   -0.000876989
     17        6          -0.000654925   -0.000648409    0.001116787
     18        8          -0.000798856    0.001158288   -0.000085747
     19        1          -0.000103977    0.000687989    0.000536867
[...]
 Alpha virt. eigenvalues --    3.50911   3.51971   3.52921   3.53458   3.56653
 Alpha virt. eigenvalues --    3.56731   3.58710   3.67125   3.74342   3.76409
 Alpha virt. eigenvalues --    4.05874   4.27235   4.68532
          Condensed to atoms (all electrons):
               1          2          3          4          5          6
     1  O    8.915276  -0.060042  -0.040924   0.047861   0.048661   0.001707
     2  S   -0.060042  14.467934   0.549720  -2.234204   0.252592  -0.139661
     3  N   -0.040924   0.549720   9.649887  -3.848610   0.424790  -0.308688
     4  C    0.047861  -2.234204  -3.848610  19.245737  -1.991725   0.908071
     5  N    0.048661   0.252592   0.424790  -1.991725   8.376450  -0.741118
     6  N    0.001707  -0.139661  -0.308688   0.908071  -0.741118   8.675521
     7  C    0.010930   0.517932   1.477737  -7.585801   1.245446  -0.915784
     8  N    0.009008   0.149797   0.173279  -0.534909  -0.193646  -0.247311
     9  C    0.000800   0.029604   0.071978   0.145380  -0.307065  -0.337601
    10  C    0.000713  -0.019829  -0.036510  -0.030995   0.133735   0.021894
    11  C    0.000525   0.000442   0.004745   0.111262  -0.001062  -0.016053
    12  C   -0.000186  -0.002692  -0.005632   0.025465   0.013184   0.052428
    13  C   -0.000316   0.003229   0.000489  -0.017252  -0.039567  -0.034328
    14  C   -0.003159  -0.023489  -0.043860   0.122325  -0.012672   0.568078
    15  N   -0.060678  -0.415650  -0.068446   0.310221  -0.117983  -0.050777
    16  C    0.016555   0.074640  -0.083868  -0.019541   0.007649  -0.011330
    17  C   -0.004102   0.003798   0.043247  -0.015579   0.023140   0.011887
    18  O    0.056303  -0.130528  -0.045439   0.112907  -0.004953   0.002792
    19  H    0.012055  -0.067699   0.202405   0.059414   0.008049   0.014716
    20  H    0.002116   0.028571  -0.131544   0.284178  -0.103400  -0.042744
    21  H   -0.000237  -0.004531  -0.018099   0.031448  -0.000474  -0.019177
    22  H    0.000027   0.000201   0.000721  -0.000088  -0.001823   0.000351
    23  H   -0.000008  -0.000103  -0.000237   0.001557   0.000115   0.001722
    24  H   -0.000012   0.000118  -0.000069  -0.001893  -0.000643  -0.002632
    25  H   -0.000003  -0.003697  -0.002378   0.028378  -0.015600   0.009081
    26  H    0.001286   0.007548   0.013425   0.000261   0.001531   0.000156
    27  H   -0.008737   0.080371  -0.023121  -0.020276   0.002153  -0.000271
    28  H    0.016435  -0.065404   0.014761   0.016305  -0.002207  -0.000633
    29  H   -0.001795   0.020499  -0.033556   0.060941  -0.014510  -0.001324
    30  H    0.000798   0.013457  -0.017047  -0.006071   0.001414   0.000638
    31  H    0.000359  -0.015888   0.022221   0.002817   0.002809   0.000932
    32  H    0.047928   0.031827  -0.031455  -0.074583   0.032448  -0.001172
    33  H   -0.006600   0.011903   0.010087   0.039136   0.351172  -0.184033
               7          8          9         10         11         12
     1  O    0.010930   0.009008   0.000800   0.000713   0.000525  -0.000186
     2  S    0.517932   0.149797   0.029604  -0.019829   0.000442  -0.002692
     3  N    1.477737   0.173279   0.071978  -0.036510   0.004745  -0.005632
     4  C   -7.585801  -0.534909   0.145380  -0.030995   0.111262   0.025465
     5  N    1.245446  -0.193646  -0.307065   0.133735  -0.001062   0.013184
     6  N   -0.915784  -0.247311  -0.337601   0.021894  -0.016053   0.052428
     7  C   12.208521  -0.003138  -1.073365   0.319647  -0.340694  -0.043415
     8  N   -0.003138   9.282165  -0.858522   0.452391  -0.290931   0.329538
     9  C   -1.073365  -0.858522  14.595141  -5.435916   2.659698  -3.549569
    10  C    0.319647   0.452391  -5.435916  12.572606  -3.235700   2.924171
    11  C   -0.340694  -0.290931   2.659698  -3.235700   9.646958  -2.777832
    12  C   -0.043415   0.329538  -3.549569   2.924171  -2.777832   8.674858
    13  C    0.122755  -0.249662   2.576600  -3.139937   2.772667  -2.766133
    14  C   -0.243370  -0.149763  -5.236116   1.907455  -3.056149   2.894791
    15  N   -0.082207  -0.001881   0.000441   0.003044   0.000071   0.000133
    16  C   -0.015608   0.000580  -0.001622  -0.000295  -0.000045  -0.000002
    17  C   -0.000477  -0.001175   0.000030   0.000466   0.000179  -0.000025
    18  O   -0.008147  -0.004183   0.000963   0.000365  -0.000006   0.000022
    19  H   -0.088155  -0.006378  -0.000219  -0.000330   0.000569  -0.000266
    20  H   -0.599957   0.163737   0.148216   0.045244   0.082666  -0.006088
    21  H    0.085308  -0.227890   0.946284  -1.029427   0.099976  -0.195867
    22  H    0.002919   0.001785  -0.136034   0.574737  -0.664197   0.294524
    23  H   -0.004049  -0.003407   0.121240  -0.167482   0.337418  -0.536119
    24  H    0.000963  -0.009843  -0.111320   0.116798  -0.201113   0.270415
    25  H   -0.042164  -0.228265   0.766335  -0.128463   0.126911  -0.181277
    26  H    0.002930  -0.000303  -0.000249   0.000040   0.000026  -0.000009
    27  H   -0.001405   0.000286  -0.000159   0.000039  -0.000011   0.000004
    28  H   -0.003756   0.000267   0.000200  -0.000143   0.000002  -0.000006
    29  H   -0.021164   0.000325   0.000207  -0.000350  -0.000154   0.000047
    30  H   -0.001847  -0.000056   0.000015   0.000150   0.000014   0.000002
    31  H    0.002321  -0.000390   0.000092  -0.000043   0.000023  -0.000007
    32  H    0.023451   0.005774   0.000564  -0.000191  -0.000093  -0.000035
    33  H   -0.111551   0.050083   0.013028  -0.006504  -0.000243  -0.000090
              13         14         15         16         17         18
     1  O   -0.000316  -0.003159  -0.060678   0.016555  -0.004102   0.056303
     2  S    0.003229  -0.023489  -0.415650   0.074640   0.003798  -0.130528
     3  N    0.000489  -0.043860  -0.068446  -0.083868   0.043247  -0.045439
     4  C   -0.017252   0.122325   0.310221  -0.019541  -0.015579   0.112907
     5  N   -0.039567  -0.012672  -0.117983   0.007649   0.023140  -0.004953
     6  N   -0.034328   0.568078  -0.050777  -0.011330   0.011887   0.002792
     7  C    0.122755  -0.243370  -0.082207  -0.015608  -0.000477  -0.008147
     8  N   -0.249662  -0.149763  -0.001881   0.000580  -0.001175  -0.004183
     9  C    2.576600  -5.236116   0.000441  -0.001622   0.000030   0.000963
    10  C   -3.139937   1.907455   0.003044  -0.000295   0.000466   0.000365
    11  C    2.772667  -3.056149   0.000071  -0.000045   0.000179  -0.000006
    12  C   -2.766133   2.894791   0.000133  -0.000002  -0.000025   0.000022
    13  C    9.417209  -3.161148  -0.000653   0.000072  -0.000087  -0.000018
    14  C   -3.161148  12.690220  -0.001215   0.000100  -0.000758   0.000549
    15  N   -0.000653  -0.001215   8.747704  -0.069568  -0.066731  -0.011509
    16  C    0.000072   0.000100  -0.069568   4.287923  -0.068415  -0.000566
    17  C   -0.000087  -0.000758  -0.066731  -0.068415   4.114797   0.018771
    18  O   -0.000018   0.000549  -0.011509  -0.000566   0.018771   8.925204
    19  H   -0.000159  -0.000648  -0.028655   0.014164  -0.001056   0.042127
    20  H   -0.006026  -0.156254  -0.002661  -0.001100   0.001614  -0.002269
    21  H    0.132566  -0.112159   0.000801   0.000133  -0.000325   0.000033
    22  H   -0.227085   0.113769  -0.000026  -0.000003   0.000011   0.000004
    23  H    0.360996  -0.125307   0.000007  -0.000000  -0.000001   0.000001
    24  H   -0.597537   0.514844  -0.000030  -0.000002  -0.000004  -0.000002
    25  H    0.274640  -0.897718   0.000524  -0.000162   0.000146   0.000122
    26  H   -0.000000   0.000053   0.066162   0.346956  -0.038631   0.001033
    27  H   -0.000007   0.000005  -0.196560   0.432888   0.031318  -0.011180
    28  H    0.000021  -0.000018  -0.106295   0.307421   0.033674   0.033859
    29  H    0.000000   0.000772  -0.040924  -0.039075   0.333368   0.025686
    30  H   -0.000015  -0.000103  -0.165912   0.062582   0.338605  -0.007727
    31  H    0.000005  -0.000036  -0.046672   0.002634   0.395910  -0.000932
    32  H    0.000125  -0.000704   0.227012  -0.034089   0.019964   0.001736
    33  H    0.002167   0.004478   0.007397   0.004198  -0.008023   0.000862
              19         20         21         22         23         24
     1  O    0.012055   0.002116  -0.000237   0.000027  -0.000008  -0.000012
     2  S   -0.067699   0.028571  -0.004531   0.000201  -0.000103   0.000118
     3  N    0.202405  -0.131544  -0.018099   0.000721  -0.000237  -0.000069
     4  C    0.059414   0.284178   0.031448  -0.000088   0.001557  -0.001893
     5  N    0.008049  -0.103400  -0.000474  -0.001823   0.000115  -0.000643
     6  N    0.014716  -0.042744  -0.019177   0.000351   0.001722  -0.002632
     7  C   -0.088155  -0.599957   0.085308   0.002919  -0.004049   0.000963
     8  N   -0.006378   0.163737  -0.227890   0.001785  -0.003407  -0.009843
     9  C   -0.000219   0.148216   0.946284  -0.136034   0.121240  -0.111320
    10  C   -0.000330   0.045244  -1.029427   0.574737  -0.167482   0.116798
    11  C    0.000569   0.082666   0.099976  -0.664197   0.337418  -0.201113
    12  C   -0.000266  -0.006088  -0.195867   0.294524  -0.536119   0.270415
    13  C   -0.000159  -0.006026   0.132566  -0.227085   0.360996  -0.597537
    14  C   -0.000648  -0.156254  -0.112159   0.113769  -0.125307   0.514844
    15  N   -0.028655  -0.002661   0.000801  -0.000026   0.000007  -0.000030
    16  C    0.014164  -0.001100   0.000133  -0.000003  -0.000000  -0.000002
    17  C   -0.001056   0.001614  -0.000325   0.000011  -0.000001  -0.000004
    18  O    0.042127  -0.002269   0.000033   0.000004   0.000001  -0.000002
    19  H    0.791361   0.006061   0.001490   0.000016  -0.000008  -0.000005
    20  H    0.006061   1.775158  -0.041287   0.001932  -0.000099   0.000121
    21  H    0.001490  -0.041287   2.096843  -0.081689  -0.014456   0.009519
    22  H    0.000016   0.001932  -0.081689   1.589758  -0.060707  -0.017143
    23  H   -0.000008  -0.000099  -0.014456  -0.060707   1.567040  -0.064139
    24  H   -0.000005   0.000121   0.009519  -0.017143  -0.064139   1.567071
    25  H   -0.000053  -0.004129  -0.016485   0.009406  -0.011627  -0.077309
    26  H    0.000291   0.000130  -0.000006   0.000000  -0.000000   0.000003
    27  H    0.001368  -0.000014   0.000018  -0.000001   0.000000  -0.000001
    28  H   -0.000589  -0.000130  -0.000013   0.000001  -0.000000   0.000001
    29  H    0.008166   0.000483   0.000135  -0.000007   0.000002  -0.000007
    30  H    0.002473   0.000154  -0.000024   0.000000   0.000000   0.000000
    31  H   -0.003033   0.000090  -0.000030   0.000001  -0.000000   0.000001
    32  H   -0.000514   0.000701  -0.000294   0.000005  -0.000004   0.000015
    33  H    0.003403  -0.002173   0.001003  -0.000063   0.000010   0.000008
              25         26         27         28         29         30
     1  O   -0.000003   0.001286  -0.008737   0.016435  -0.001795   0.000798
     2  S   -0.003697   0.007548   0.080371  -0.065404   0.020499   0.013457
     3  N   -0.002378   0.013425  -0.023121   0.014761  -0.033556  -0.017047
     4  C    0.028378   0.000261  -0.020276   0.016305   0.060941  -0.006071
     5  N   -0.015600   0.001531   0.002153  -0.002207  -0.014510   0.001414
     6  N    0.009081   0.000156  -0.000271  -0.000633  -0.001324   0.000638
     7  C   -0.042164   0.002930  -0.001405  -0.003756  -0.021164  -0.001847
     8  N   -0.228265  -0.000303   0.000286   0.000267   0.000325  -0.000056
     9  C    0.766335  -0.000249  -0.000159   0.000200   0.000207   0.000015
    10  C   -0.128463   0.000040   0.000039  -0.000143  -0.000350   0.000150
    11  C    0.126911   0.000026  -0.000011   0.000002  -0.000154   0.000014
    12  C   -0.181277  -0.000009   0.000004  -0.000006   0.000047   0.000002
    13  C    0.274640  -0.000000  -0.000007   0.000021   0.000000  -0.000015
    14  C   -0.897718   0.000053   0.000005  -0.000018   0.000772  -0.000103
    15  N    0.000524   0.066162  -0.196560  -0.106295  -0.040924  -0.165912
    16  C   -0.000162   0.346956   0.432888   0.307421  -0.039075   0.062582
    17  C    0.000146  -0.038631   0.031318   0.033674   0.333368   0.338605
    18  O    0.000122   0.001033  -0.011180   0.033859   0.025686  -0.007727
    19  H   -0.000053   0.000291   0.001368  -0.000589   0.008166   0.002473
    20  H   -0.004129   0.000130  -0.000014  -0.000130   0.000483   0.000154
    21  H   -0.016485  -0.000006   0.000018  -0.000013   0.000135  -0.000024
    22  H    0.009406   0.000000  -0.000001   0.000001  -0.000007   0.000000
    23  H   -0.011627  -0.000000   0.000000  -0.000000   0.000002   0.000000
    24  H   -0.077309   0.000003  -0.000001   0.000001  -0.000007   0.000000
    25  H    1.912334  -0.000100  -0.000005  -0.000009   0.000079   0.000003
    26  H   -0.000100   1.155490  -0.275657  -0.178841  -0.008360   0.001773
    27  H   -0.000005  -0.275657   1.266625  -0.192145   0.006975   0.007925
    28  H   -0.000009  -0.178841  -0.192145   1.142918   0.005155   0.005996
    29  H    0.000079  -0.008360   0.006975   0.005155   1.381094  -0.223880
    30  H    0.000003   0.001773   0.007925   0.005996  -0.223880   1.160869
    31  H    0.000006   0.003056  -0.005692  -0.001490  -0.276105  -0.179479
    32  H   -0.000137  -0.016632  -0.011707   0.022591  -0.013269   0.014530
    33  H   -0.001670  -0.000666  -0.000394   0.001512  -0.000888   0.000972
              31         32         33
     1  O    0.000359   0.047928  -0.006600
     2  S   -0.015888   0.031827   0.011903
     3  N    0.022221  -0.031455   0.010087
     4  C    0.002817  -0.074583   0.039136
     5  N    0.002809   0.032448   0.351172
     6  N    0.000932  -0.001172  -0.184033
     7  C    0.002321   0.023451  -0.111551
     8  N   -0.000390   0.005774   0.050083
     9  C    0.000092   0.000564   0.013028
    10  C   -0.000043  -0.000191  -0.006504
    11  C    0.000023  -0.000093  -0.000243
    12  C   -0.000007  -0.000035  -0.000090
    13  C    0.000005   0.000125   0.002167
    14  C   -0.000036  -0.000704   0.004478
    15  N   -0.046672   0.227012   0.007397
    16  C    0.002634  -0.034089   0.004198
    17  C    0.395910   0.019964  -0.008023
    18  O   -0.000932   0.001736   0.000862
    19  H   -0.003033  -0.000514   0.003403
    20  H    0.000090   0.000701  -0.002173
    21  H   -0.000030  -0.000294   0.001003
    22  H    0.000001   0.000005  -0.000063
    23  H   -0.000000  -0.000004   0.000010
    24  H    0.000001   0.000015   0.000008
    25  H    0.000006  -0.000137  -0.001670
    26  H    0.003056  -0.016632  -0.000666
    27  H   -0.005692  -0.011707  -0.000394
    28  H   -0.001490   0.022591   0.001512
    29  H   -0.276105  -0.013269  -0.000888
    30  H   -0.179479   0.014530   0.000972
    31  H    1.202019  -0.018392  -0.001846
    32  H   -0.018392   0.600174  -0.003938
    33  H   -0.001846  -0.003938   0.801539
 Mulliken charges:
               1
     1  O   -1.002544
     2  S    2.939235
     3  N   -0.920008
     4  C    0.827862
     5  N   -0.376890
     6  N   -0.215334
     7  C    1.165194
     8  N   -0.607362
     9  C    0.970941
    10  C    0.158619
    11  C    0.740131
    12  C    0.585668
    13  C    0.576387
    14  C    0.407208
    15  N   -0.828485
    16  C    0.786796
    17  C    0.834463
    18  O   -0.995880
    19  H    0.029639
    20  H   -0.441297
    21  H   -0.643090
    22  H   -0.401302
    23  H   -0.402352
    24  H   -0.396173
    25  H   -0.516713
    26  H   -0.082696
    27  H   -0.082634
    28  H   -0.049436
    29  H   -0.168566
    30  H   -0.010209
    31  H   -0.085260
    32  H    0.178366
    33  H    0.025725
 Sum of Mulliken charges =   2.00000
 Mulliken charges with hydrogens summed into heavy atoms:
               1
     1  O   -1.002544
     2  S    2.939235
     3  N   -0.890369
     4  C    0.827862
     5  N   -0.351165
     6  N   -0.215334
     7  C    0.723897
     8  N   -0.607362
     9  C    0.970941
    10  C   -0.484471
    11  C    0.338829
    12  C    0.183315
    13  C    0.180215
    14  C   -0.109505
    15  N   -0.650119
    16  C    0.572029
    17  C    0.570428
    18  O   -0.995880
 Electronic spatial extent (au):  <R**2>=           7125.7342
 Charge=              2.0000 electrons
 Dipole moment (field-independent basis, Debye):
    X=             -8.3978    Y=             -3.7683    Z=             -4.6372  Tot=             10.3066
 Quadrupole moment (field-independent basis, Debye-Ang):
   XX=             31.7448   YY=            -86.2438   ZZ=           -103.0626
   XY=             24.0385   XZ=             12.5949   YZ=             -4.5531
 Traceless Quadrupole moment (field-independent basis, Debye-Ang):
   XX=             84.2653   YY=            -33.7233   ZZ=            -50.5420
   XY=             24.0385   XZ=             12.5949   YZ=             -4.5531
 Octapole moment (field-independent basis, Debye-Ang**2):
  XXX=            -82.5557  YYY=            -13.1748  ZZZ=            -11.8727  XYY=            -13.7717
  XXY=            -81.0956  XXZ=             21.1466  XZZ=            -61.7767  YZZ=             -5.5593
  YYZ=             -8.2093  XYZ=            -11.0668
 Hexadecapole moment (field-independent basis, Debye-Ang**3):
 XXXX=          -4087.9200 YYYY=           -642.1412 ZZZZ=           -476.1792 XXXY=            465.3501
 XXXZ=            254.5528 YYYX=             80.3740 YYYZ=            -12.5521 ZZZX=              8.1522
 ZZZY=             -2.9926 XXYY=          -1213.8113 XXZZ=          -1337.9453 YYZZ=           -177.4864
 XXYZ=           -118.6933 YYXZ=             19.2891 ZZXY=              5.7644
 N-N= 1.489665470888D+03 E-N=-5.774901614469D+03  KE= 1.204772073377D+03
 Leave Link  601 at Thu Sep 24 19:09:16 2020, MaxMem=   262144000 cpu:               1.2 elap:               0.4
 (Enter /prod/apps/gaussian/g16b1/l9999.exe)
 1\1\GINC-PIRINEUS7\SP\RMP2-FC\Aug-CC-pVDZ\C10H15N5O2S1(2+)\UBAFAR01\24
 -Sep-2020\0\\#p mp2/aug-cc-pVDZ scf=(MaxCycle=2000,NoVarAcc,NoIncFock)
  maxdisk=120GB geom=allcheck\\SM46_m3.b.10.pdb.xyz\\2,1\O,0,1.97614491
 86,0.0323491999,1.7777598975\S,0,2.6486568395,-0.4174620933,0.57689685
 5\N,0,1.5867640973,-0.5219732387,-0.6912389685\C,0,0.2684637579,-0.085
 2239135,-0.5764210053\N,0,-0.1164629613,1.1967646049,-0.8190631447\N,0
 ,-1.4024660769,1.3778818167,-0.677543367\C,0,-0.8912015209,-0.75332805
 97,-0.2587882212\N,0,-1.8720616336,0.1841067984,-0.3417506987\C,0,-3.2
 774088638,0.0194818879,-0.0967755782\C,0,-3.877369532,-1.2053264863,-0
 .3857644744\C,0,-5.2411385903,-1.3514771117,-0.1388537237\C,0,-5.98253
 27635,-0.2859738983,0.3751963909\C,0,-5.3606885155,0.9341053125,0.6510
 243072\C,0,-3.996640957,1.0956317291,0.4219331721\N,0,3.6441279174,1.0
 542637556,0.0495049723\C,0,4.563516935,1.4723088788,1.160584065\C,0,4.
 3543268947,0.7975259441,-1.2424551539\O,0,3.5815973665,-1.5225849414,0
 .5111726596\H,0,1.776900581,-1.3065930775,-1.3213397958\H,0,-1.0626346
 216,-1.7755362105,0.0297872859\H,0,-3.3047161545,-2.0210448531,-0.8099
 547749\H,0,-5.7220527367,-2.2970257144,-0.3600224268\H,0,-7.0437898396
 ,-0.4060985737,0.5609671685\H,0,-5.9335048238,1.7608003186,1.054729067
 8\H,0,-3.4947679072,2.0280706089,0.6464116395\H,0,3.9679915212,1.65325
 74015,2.0514076159\H,0,5.0544852513,2.3886552673,0.8391432362\H,0,5.29
 71068021,0.6863975215,1.3282088677\H,0,3.618247249,0.5145144591,-1.990
 8732945\H,0,5.0873926128,0.0089548427,-1.0930879138\H,0,4.842225373,1.
 7266248887,-1.5310556629\H,0,2.9480005823,1.8069859301,-0.0997425293\H
 ,0,0.4734887984,1.9899670058,-1.0909964675\\Version=ES64L-G16RevB.01\S
 tate=1-A\HF=-1206.2833125\MP2=-1209.0866057\RMSD=6.872e-09\PG=C01 [X(C
 10H15N5O2S1)]\\@


 At the touch of love, everyone becomes a poet.
                                -- Plato
 Job cpu time:       0 days  2 hours 11 minutes 38.5 seconds.
 Elapsed time:       0 days  0 hours 36 minutes  8.0 seconds.
 File lengths (MBytes):  RWF=  79962 Int=      0 D2E=      0 Chk=     25 Scr=      1
 Normal termination of Gaussian 16 at Thu Sep 24 19:09:18 2020.
