 Entering Gaussian System, Link 0=g16
 Initial command:
 /prod/apps/gaussian/g16b1/l1.exe "/tmp/ubafar01/1462018/Gau-121277.inp" -scrdir="/tmp/ubafar01/1462018/"
 Entering Link 1 = /prod/apps/gaussian/g16b1/l1.exe PID=    121278.
  
 Copyright (c) 1988-2017, Gaussian, Inc.  All Rights Reserved.
  
 This is part of the Gaussian(R) 16 program.  It is based on
 the Gaussian(R) 09 system (copyright 2009, Gaussian, Inc.),
 the Gaussian(R) 03 system (copyright 2003, Gaussian, Inc.),
 the Gaussian(R) 98 system (copyright 1998, Gaussian, Inc.),
 the Gaussian(R) 94 system (copyright 1995, Gaussian, Inc.),
 the Gaussian 92(TM) system (copyright 1992, Gaussian, Inc.),
 the Gaussian 90(TM) system (copyright 1990, Gaussian, Inc.),
 the Gaussian 88(TM) system (copyright 1988, Gaussian, Inc.),
 the Gaussian 86(TM) system (copyright 1986, Carnegie Mellon
 University), and the Gaussian 82(TM) system (copyright 1983,
 Carnegie Mellon University). Gaussian is a federally registered
 trademark of Gaussian, Inc.
  
 This software contains proprietary and confidential information,
 including trade secrets, belonging to Gaussian, Inc.
  
 This software is provided under written license and may be
 used, copied, transmitted, or stored only in accord with that
 written license.
  
 The following legend is applicable only to US Government
 contracts under FAR:
  
                    RESTRICTED RIGHTS LEGEND
  
 Use, reproduction and disclosure by the US Government is
 subject to restrictions as set forth in subparagraphs (a)
 and (c) of the Commercial Computer Software - Restricted
 Rights clause in FAR 52.227-19.
  
 Gaussian, Inc.
 340 Quinnipiac St., Bldg. 40, Wallingford CT 06492
  
  
 ---------------------------------------------------------------
 Warning -- This program may not be used in any manner that
 competes with the business of Gaussian, Inc. or will provide
 assistance to any competitor of Gaussian, Inc.  The licensee
 of this program is prohibited from giving any competitor of
 Gaussian, Inc. access to this program.  By using this program,
 the user acknowledges that Gaussian, Inc. is engaged in the
 business of creating and licensing software in the field of
 computational chemistry and represents and warrants to the
 licensee that it is not a competitor of Gaussian, Inc. and that
 it will not use this program in any manner prohibited above.
 ---------------------------------------------------------------
  

 Cite this work as:
 Gaussian 16, Revision B.01,
 M. J. Frisch, G. W. Trucks, H. B. Schlegel, G. E. Scuseria, 
 M. A. Robb, J. R. Cheeseman, G. Scalmani, V. Barone, 
 G. A. Petersson, H. Nakatsuji, X. Li, M. Caricato, A. V. Marenich, 
 J. Bloino, B. G. Janesko, R. Gomperts, B. Mennucci, H. P. Hratchian, 
 J. V. Ortiz, A. F. Izmaylov, J. L. Sonnenberg, D. Williams-Young, 
 F. Ding, F. Lipparini, F. Egidi, J. Goings, B. Peng, A. Petrone, 
 T. Henderson, D. Ranasinghe, V. G. Zakrzewski, J. Gao, N. Rega, 
 G. Zheng, W. Liang, M. Hada, M. Ehara, K. Toyota, R. Fukuda, 
 J. Hasegawa, M. Ishida, T. Nakajima, Y. Honda, O. Kitao, H. Nakai, 
 T. Vreven, K. Throssell, J. A. Montgomery, Jr., J. E. Peralta, 
 F. Ogliaro, M. J. Bearpark, J. J. Heyd, E. N. Brothers, K. N. Kudin, 
 V. N. Staroverov, T. A. Keith, R. Kobayashi, J. Normand, 
 K. Raghavachari, A. P. Rendell, J. C. Burant, S. S. Iyengar, 
 J. Tomasi, M. Cossi, J. M. Millam, M. Klene, C. Adamo, R. Cammi, 
 J. W. Ochterski, R. L. Martin, K. Morokuma, O. Farkas, 
 J. B. Foresman, and D. J. Fox, Gaussian, Inc., Wallingford CT, 2016.
 
 ******************************************
 Gaussian 16:  ES64L-G16RevB.01 20-Dec-2017
                28-Sep-2020 
 ******************************************
 %nproc=4
 Will use up to    4 processors via shared memory.
 %Chk=SM46_m2.b.1.pdb.xyz.mst.b.w.chk
 %mem=16GB
 ----------------------------------------------------------------------
 #p b3lyp/6-31G(d) opt freq NoSymm scf=(MaxCycle=2000,NoVarAcc,NoIncFoc
 k) scrf=(iefpcm,read,solvent=water)
 ----------------------------------------------------------------------
 1/18=20,19=15,26=3,38=1,40=2/1,3;
 2/9=110,12=2,15=1,17=6,18=5,40=1/2;
 3/5=1,6=6,7=1,11=2,25=1,30=1,70=2203,71=1,72=1,74=-5/1,2,3;
 4//1;
 5/5=100002,7=2000,38=1,53=1/2;
 6/7=2,8=2,9=2,10=2,28=1/1;
 7/30=1/1,2,3,16;
 1/18=20,19=15,26=3/3(2);
 2/9=110,15=1/2;
 99//99;
 2/9=110,15=1/2;
 3/5=1,6=6,7=1,11=2,25=1,30=1,70=2205,71=1,72=1,74=-5/1,2,3;
 4/5=5,16=3,69=1/1;
 5/5=100002,7=2000,38=1,53=1/2;
 7/30=1/1,2,3,16;
 1/18=20,19=15,26=3/3(-5);
 2/9=110,15=1/2;
 6/7=2,8=2,9=2,10=2,19=2,28=1/1;
 99/9=1/99;
 Leave Link    1 at Mon Sep 28 08:22:29 2020, MaxMem=  2147483648 cpu:               0.2 elap:               0.0
 (Enter /prod/apps/gaussian/g16b1/l101.exe)
 -------------------
 SM46_m2.b.1.pdb.xyz
 -------------------
 Symbolic Z-matrix:
 Charge =  1 Multiplicity = 1
 O                    -2.533    -0.025    -1.836 
 S                    -2.982    -0.197    -0.455 
 N                    -1.959    -1.265     0.402 
 C                    -0.592    -1.224     0.223 
 N                     0.175    -2.332     0.049 
 N                     1.464    -2.066    -0.044 
 C                     0.306    -0.174     0.226 
 N                     1.527    -0.752     0.054 
 C                     2.799    -0.093    -0.007 
 C                     2.868     1.189    -0.551 
 C                     4.106     1.827    -0.6 
 C                     5.249     1.184    -0.12 
 C                     5.157    -0.102     0.416 
 C                     3.927    -0.752     0.482 
 N                    -2.623     1.21      0.357 
 C                    -2.804     2.452    -0.42 
 C                    -3.12      1.274     1.743 
 O                    -4.317    -0.737    -0.189 
 H                    -2.366    -2.201     0.465 
 H                     0.16      0.882     0.362 
 H                     1.982     1.671    -0.945 
 H                     4.174     2.823    -1.023 
 H                     6.209     1.685    -0.164 
 H                     6.042    -0.601     0.794 
 H                     3.835    -1.741     0.91 
 H                    -2.361     2.329    -1.406 
 H                    -2.274     3.24      0.117 
 H                    -3.858     2.731    -0.516 
 H                    -2.877     0.346     2.26 
 H                    -4.201     1.449     1.783 
 H                    -2.6       2.098     2.233 
 H                    -0.134    -3.306    -0.004 
 
 ITRead=  0  0  0  0  0  0  0  0  0  0  0  0  0  0  0  0  0  0  0  0
 ITRead=  0  0  0  0  0  0  0  0  0  0  0  0
 MicOpt= -1 -1 -1 -1 -1 -1 -1 -1 -1 -1 -1 -1 -1 -1 -1 -1 -1 -1 -1 -1
 MicOpt= -1 -1 -1 -1 -1 -1 -1 -1 -1 -1 -1 -1
 NAtoms=     32 NQM=       32 NQMF=       0 NMMI=      0 NMMIF=      0
                NMic=       0 NMicF=      0.
                    Isotopes and Nuclear Properties:
 (Nuclear quadrupole moments (NQMom) in fm**2, nuclear magnetic moments (NMagM)
  in nuclear magnetons)

  Atom         1           2           3           4           5           6           7           8           9          10
 IAtWgt=          16          32          14          12          14          14          12          14          12          12
 AtmWgt=  15.9949146  31.9720718  14.0030740  12.0000000  14.0030740  14.0030740  12.0000000  14.0030740  12.0000000  12.0000000
 NucSpn=           0           0           2           0           2           2           0           2           0           0
 AtZEff=  -0.0000000  -0.0000000  -0.0000000  -0.0000000  -0.0000000  -0.0000000  -0.0000000  -0.0000000  -0.0000000  -0.0000000
 NQMom=    0.0000000   0.0000000   2.0440000   0.0000000   2.0440000   2.0440000   0.0000000   2.0440000   0.0000000   0.0000000
 NMagM=    0.0000000   0.0000000   0.4037610   0.0000000   0.4037610   0.4037610   0.0000000   0.4037610   0.0000000   0.0000000
 AtZNuc=   8.0000000  16.0000000   7.0000000   6.0000000   7.0000000   7.0000000   6.0000000   7.0000000   6.0000000   6.0000000

  Atom        11          12          13          14          15          16          17          18          19          20
 IAtWgt=          12          12          12          12          14          12          12          16           1           1
 AtmWgt=  12.0000000  12.0000000  12.0000000  12.0000000  14.0030740  12.0000000  12.0000000  15.9949146   1.0078250   1.0078250
 NucSpn=           0           0           0           0           2           0           0           0           1           1
 AtZEff=  -0.0000000  -0.0000000  -0.0000000  -0.0000000  -0.0000000  -0.0000000  -0.0000000  -0.0000000  -0.0000000  -0.0000000
 NQMom=    0.0000000   0.0000000   0.0000000   0.0000000   2.0440000   0.0000000   0.0000000   0.0000000   0.0000000   0.0000000
 NMagM=    0.0000000   0.0000000   0.0000000   0.0000000   0.4037610   0.0000000   0.0000000   0.0000000   2.7928460   2.7928460
 AtZNuc=   6.0000000   6.0000000   6.0000000   6.0000000   7.0000000   6.0000000   6.0000000   8.0000000   1.0000000   1.0000000

  Atom        21          22          23          24          25          26          27          28          29          30
 IAtWgt=           1           1           1           1           1           1           1           1           1           1
 AtmWgt=   1.0078250   1.0078250   1.0078250   1.0078250   1.0078250   1.0078250   1.0078250   1.0078250   1.0078250   1.0078250
 NucSpn=           1           1           1           1           1           1           1           1           1           1
 AtZEff=  -0.0000000  -0.0000000  -0.0000000  -0.0000000  -0.0000000  -0.0000000  -0.0000000  -0.0000000  -0.0000000  -0.0000000
 NQMom=    0.0000000   0.0000000   0.0000000   0.0000000   0.0000000   0.0000000   0.0000000   0.0000000   0.0000000   0.0000000
 NMagM=    2.7928460   2.7928460   2.7928460   2.7928460   2.7928460   2.7928460   2.7928460   2.7928460   2.7928460   2.7928460
 AtZNuc=   1.0000000   1.0000000   1.0000000   1.0000000   1.0000000   1.0000000   1.0000000   1.0000000   1.0000000   1.0000000

  Atom        31          32
 IAtWgt=           1           1
 AtmWgt=   1.0078250   1.0078250
 NucSpn=           1           1
 AtZEff=  -0.0000000  -0.0000000
 NQMom=    0.0000000   0.0000000
 NMagM=    2.7928460   2.7928460
 AtZNuc=   1.0000000   1.0000000
 Leave Link  101 at Mon Sep 28 08:22:29 2020, MaxMem=  2147483648 cpu:               1.4 elap:               0.4
 (Enter /prod/apps/gaussian/g16b1/l103.exe)

 GradGradGradGradGradGradGradGradGradGradGradGradGradGradGradGradGradGrad
 Berny optimization.
 Initialization pass.
                           ----------------------------
                           !    Initial Parameters    !
                           ! (Angstroms and Degrees)  !
 --------------------------                            --------------------------
 ! Name  Definition              Value          Derivative Info.                !
 --------------------------------------------------------------------------------
 ! R1    R(1,2)                  1.4623         estimate D2E/DX2                !
 ! R2    R(2,3)                  1.7093         estimate D2E/DX2                !
 ! R3    R(2,15)                 1.6637         estimate D2E/DX2                !
 ! R4    R(2,18)                 1.4644         estimate D2E/DX2                !
 ! R5    R(3,4)                  1.3793         estimate D2E/DX2                !
 ! R6    R(3,19)                 1.0226         estimate D2E/DX2                !
 ! R7    R(4,5)                  1.3588         estimate D2E/DX2                !
 ! R8    R(4,7)                  1.3816         estimate D2E/DX2                !
 ! R9    R(5,6)                  1.3194         estimate D2E/DX2                !
 ! R10   R(5,32)                 1.0232         estimate D2E/DX2                !
 ! R11   R(6,8)                  1.3192         estimate D2E/DX2                !
 ! R12   R(7,8)                  1.3618         estimate D2E/DX2                !
 ! R13   R(7,20)                 1.0747         estimate D2E/DX2                !
 ! R14   R(8,9)                  1.4339         estimate D2E/DX2                !
 ! R15   R(9,10)                 1.3944         estimate D2E/DX2                !
 ! R16   R(9,14)                 1.3949         estimate D2E/DX2                !
 ! R17   R(10,11)                1.3936         estimate D2E/DX2                !
 ! R18   R(10,21)                1.0828         estimate D2E/DX2                !
 ! R19   R(11,12)                1.3965         estimate D2E/DX2                !
 ! R20   R(11,22)                1.0842         estimate D2E/DX2                !
 ! R21   R(12,13)                1.3963         estimate D2E/DX2                !
 ! R22   R(12,23)                1.0838         estimate D2E/DX2                !
 ! R23   R(13,14)                1.3928         estimate D2E/DX2                !
 ! R24   R(13,24)                1.084          estimate D2E/DX2                !
 ! R25   R(14,25)                1.0816         estimate D2E/DX2                !
 ! R26   R(15,16)                1.4762         estimate D2E/DX2                !
 ! R27   R(15,17)                1.4738         estimate D2E/DX2                !
 ! R28   R(16,26)                1.0879         estimate D2E/DX2                !
 ! R29   R(16,27)                1.091          estimate D2E/DX2                !
 ! R30   R(16,28)                1.0945         estimate D2E/DX2                !
 ! R31   R(17,29)                1.0897         estimate D2E/DX2                !
 ! R32   R(17,30)                1.0958         estimate D2E/DX2                !
 ! R33   R(17,31)                1.0906         estimate D2E/DX2                !
 ! A1    A(1,2,3)              111.2987         estimate D2E/DX2                !
 ! A2    A(1,2,15)             107.1697         estimate D2E/DX2                !
 ! A3    A(1,2,18)             119.658          estimate D2E/DX2                !
 ! A4    A(3,2,15)              98.8915         estimate D2E/DX2                !
 ! A5    A(3,2,18)             102.9517         estimate D2E/DX2                !
 ! A6    A(15,2,18)            114.8288         estimate D2E/DX2                !
 ! A7    A(2,3,4)              120.6326         estimate D2E/DX2                !
 ! A8    A(2,3,19)             111.3827         estimate D2E/DX2                !
 ! A9    A(4,3,19)             115.4463         estimate D2E/DX2                !
 ! A10   A(3,4,5)              123.4933         estimate D2E/DX2                !
 ! A11   A(3,4,7)              131.7958         estimate D2E/DX2                !
 ! A12   A(5,4,7)              104.6613         estimate D2E/DX2                !
 ! A13   A(4,5,6)              113.3341         estimate D2E/DX2                !
 ! A14   A(4,5,32)             127.7627         estimate D2E/DX2                !
 ! A15   A(6,5,32)             118.8995         estimate D2E/DX2                !
 ! A16   A(5,6,8)              104.0183         estimate D2E/DX2                !
 ! A17   A(4,7,8)              105.0653         estimate D2E/DX2                !
 ! A18   A(4,7,20)             131.2033         estimate D2E/DX2                !
 ! A19   A(8,7,20)             123.7003         estimate D2E/DX2                !
 ! A20   A(6,8,7)              112.9135         estimate D2E/DX2                !
 ! A21   A(6,8,9)              119.8021         estimate D2E/DX2                !
 ! A22   A(7,8,9)              127.2785         estimate D2E/DX2                !
 ! A23   A(8,9,10)             118.8854         estimate D2E/DX2                !
 ! A24   A(8,9,14)             119.0336         estimate D2E/DX2                !
 ! A25   A(10,9,14)            122.0809         estimate D2E/DX2                !
 ! A26   A(9,10,11)            118.594          estimate D2E/DX2                !
 ! A27   A(9,10,21)            120.712          estimate D2E/DX2                !
 ! A28   A(11,10,21)           120.683          estimate D2E/DX2                !
 ! A29   A(10,11,12)           120.2787         estimate D2E/DX2                !
 ! A30   A(10,11,22)           119.3397         estimate D2E/DX2                !
 ! A31   A(12,11,22)           120.3791         estimate D2E/DX2                !
 ! A32   A(11,12,13)           120.1378         estimate D2E/DX2                !
 ! A33   A(11,12,23)           119.8805         estimate D2E/DX2                !
 ! A34   A(13,12,23)           119.9817         estimate D2E/DX2                !
 ! A35   A(12,13,14)           120.4129         estimate D2E/DX2                !
 ! A36   A(12,13,24)           120.2674         estimate D2E/DX2                !
 ! A37   A(14,13,24)           119.3171         estimate D2E/DX2                !
 ! A38   A(9,14,13)            118.4935         estimate D2E/DX2                !
 ! A39   A(9,14,25)            120.1284         estimate D2E/DX2                !
 ! A40   A(13,14,25)           121.375          estimate D2E/DX2                !
 ! A41   A(2,15,16)            115.3529         estimate D2E/DX2                !
 ! A42   A(2,15,17)            115.021          estimate D2E/DX2                !
 ! A43   A(16,15,17)           114.6529         estimate D2E/DX2                !
 ! A44   A(15,16,26)           109.3901         estimate D2E/DX2                !
 ! A45   A(15,16,27)           106.8017         estimate D2E/DX2                !
 ! A46   A(15,16,28)           112.2541         estimate D2E/DX2                !
 ! A47   A(26,16,27)           109.2658         estimate D2E/DX2                !
 ! A48   A(26,16,28)           109.9653         estimate D2E/DX2                !
 ! A49   A(27,16,28)           109.0794         estimate D2E/DX2                !
 ! A50   A(15,17,29)           109.5108         estimate D2E/DX2                !
 ! A51   A(15,17,30)           111.9582         estimate D2E/DX2                !
 ! A52   A(15,17,31)           107.1299         estimate D2E/DX2                !
 ! A53   A(29,17,30)           109.7951         estimate D2E/DX2                !
 ! A54   A(29,17,31)           108.9003         estimate D2E/DX2                !
 ! A55   A(30,17,31)           109.4685         estimate D2E/DX2                !
 ! D1    D(1,2,3,4)             39.8524         estimate D2E/DX2                !
 ! D2    D(1,2,3,19)          -100.3332         estimate D2E/DX2                !
 ! D3    D(15,2,3,4)           -72.5859         estimate D2E/DX2                !
 ! D4    D(15,2,3,19)          147.2285         estimate D2E/DX2                !
 ! D5    D(18,2,3,4)           169.2441         estimate D2E/DX2                !
 ! D6    D(18,2,3,19)           29.0585         estimate D2E/DX2                !
 ! D7    D(1,2,15,16)           37.5192         estimate D2E/DX2                !
 ! D8    D(1,2,15,17)          174.451          estimate D2E/DX2                !
 ! D9    D(3,2,15,16)          153.1858         estimate D2E/DX2                !
 ! D10   D(3,2,15,17)          -69.8824         estimate D2E/DX2                !
 ! D11   D(18,2,15,16)         -98.0095         estimate D2E/DX2                !
 ! D12   D(18,2,15,17)          38.9223         estimate D2E/DX2                !
 ! D13   D(2,3,4,5)           -134.3905         estimate D2E/DX2                !
 ! D14   D(2,3,4,7)             48.5845         estimate D2E/DX2                !
 ! D15   D(19,3,4,5)             4.288          estimate D2E/DX2                !
 ! D16   D(19,3,4,7)          -172.737          estimate D2E/DX2                !
 ! D17   D(3,4,5,6)           -177.1451         estimate D2E/DX2                !
 ! D18   D(3,4,5,32)             2.1523         estimate D2E/DX2                !
 ! D19   D(7,4,5,6)              0.5627         estimate D2E/DX2                !
 ! D20   D(7,4,5,32)           179.8602         estimate D2E/DX2                !
 ! D21   D(3,4,7,8)            177.4117         estimate D2E/DX2                !
 ! D22   D(3,4,7,20)            -0.5652         estimate D2E/DX2                !
 ! D23   D(5,4,7,8)             -0.0241         estimate D2E/DX2                !
 ! D24   D(5,4,7,20)          -178.001          estimate D2E/DX2                !
 ! D25   D(4,5,6,8)             -0.8598         estimate D2E/DX2                !
 ! D26   D(32,5,6,8)           179.7746         estimate D2E/DX2                !
 ! D27   D(5,6,8,7)              0.8386         estimate D2E/DX2                !
 ! D28   D(5,6,8,9)           -179.9781         estimate D2E/DX2                !
 ! D29   D(4,7,8,6)             -0.5189         estimate D2E/DX2                !
 ! D30   D(4,7,8,9)           -179.6282         estimate D2E/DX2                !
 ! D31   D(20,7,8,6)           177.6516         estimate D2E/DX2                !
 ! D32   D(20,7,8,9)            -1.4577         estimate D2E/DX2                !
 ! D33   D(6,8,9,10)           148.6881         estimate D2E/DX2                !
 ! D34   D(6,8,9,14)           -31.4668         estimate D2E/DX2                !
 ! D35   D(7,8,9,10)           -32.2573         estimate D2E/DX2                !
 ! D36   D(7,8,9,14)           147.5877         estimate D2E/DX2                !
 ! D37   D(8,9,10,11)          179.6226         estimate D2E/DX2                !
 ! D38   D(8,9,10,21)           -1.5731         estimate D2E/DX2                !
 ! D39   D(14,9,10,11)          -0.2175         estimate D2E/DX2                !
 ! D40   D(14,9,10,21)         178.5868         estimate D2E/DX2                !
 ! D41   D(8,9,14,13)          179.939          estimate D2E/DX2                !
 ! D42   D(8,9,14,25)           -0.6885         estimate D2E/DX2                !
 ! D43   D(10,9,14,13)          -0.2211         estimate D2E/DX2                !
 ! D44   D(10,9,14,25)         179.1514         estimate D2E/DX2                !
 ! D45   D(9,10,11,12)           0.4201         estimate D2E/DX2                !
 ! D46   D(9,10,11,22)         179.8349         estimate D2E/DX2                !
 ! D47   D(21,10,11,12)       -178.3846         estimate D2E/DX2                !
 ! D48   D(21,10,11,22)          1.0302         estimate D2E/DX2                !
 ! D49   D(10,11,12,13)         -0.1864         estimate D2E/DX2                !
 ! D50   D(10,11,12,23)        179.8156         estimate D2E/DX2                !
 ! D51   D(22,11,12,13)       -179.5951         estimate D2E/DX2                !
 ! D52   D(22,11,12,23)          0.407          estimate D2E/DX2                !
 ! D53   D(11,12,13,14)         -0.2639         estimate D2E/DX2                !
 ! D54   D(11,12,13,24)       -179.675          estimate D2E/DX2                !
 ! D55   D(23,12,13,14)        179.7341         estimate D2E/DX2                !
 ! D56   D(23,12,13,24)          0.323          estimate D2E/DX2                !
 ! D57   D(12,13,14,9)           0.4606         estimate D2E/DX2                !
 ! D58   D(12,13,14,25)       -178.9037         estimate D2E/DX2                !
 ! D59   D(24,13,14,9)         179.8773         estimate D2E/DX2                !
 ! D60   D(24,13,14,25)          0.5129         estimate D2E/DX2                !
 ! D61   D(2,15,16,26)         -45.9901         estimate D2E/DX2                !
 ! D62   D(2,15,16,27)        -164.1325         estimate D2E/DX2                !
 ! D63   D(2,15,16,28)          76.363          estimate D2E/DX2                !
 ! D64   D(17,15,16,26)        176.9193         estimate D2E/DX2                !
 ! D65   D(17,15,16,27)         58.7768         estimate D2E/DX2                !
 ! D66   D(17,15,16,28)        -60.7276         estimate D2E/DX2                !
 ! D67   D(2,15,17,29)          47.0669         estimate D2E/DX2                !
 ! D68   D(2,15,17,30)         -74.9554         estimate D2E/DX2                !
 ! D69   D(2,15,17,31)         165.0245         estimate D2E/DX2                !
 ! D70   D(16,15,17,29)       -175.6977         estimate D2E/DX2                !
 ! D71   D(16,15,17,30)         62.28           estimate D2E/DX2                !
 ! D72   D(16,15,17,31)        -57.7401         estimate D2E/DX2                !
 --------------------------------------------------------------------------------
 Trust Radius=3.00D-01 FncErr=1.00D-07 GrdErr=1.00D-06 EigMax=2.50D+02 EigMin=1.00D-04
 Number of steps in this run=    170 maximum allowed number of steps=    192.
 GradGradGradGradGradGradGradGradGradGradGradGradGradGradGradGradGradGrad

 Leave Link  103 at Mon Sep 28 08:22:29 2020, MaxMem=  2147483648 cpu:               0.1 elap:               0.0
 (Enter /prod/apps/gaussian/g16b1/l202.exe)
                          Input orientation:                          
 ---------------------------------------------------------------------
 Center     Atomic      Atomic             Coordinates (Angstroms)
 Number     Number       Type             X           Y           Z
 ---------------------------------------------------------------------
      1          8           0       -2.533000   -0.025000   -1.836000
      2         16           0       -2.982000   -0.197000   -0.455000
      3          7           0       -1.959000   -1.265000    0.402000
      4          6           0       -0.592000   -1.224000    0.223000
      5          7           0        0.175000   -2.332000    0.049000
      6          7           0        1.464000   -2.066000   -0.044000
      7          6           0        0.306000   -0.174000    0.226000
      8          7           0        1.527000   -0.752000    0.054000
      9          6           0        2.799000   -0.093000   -0.007000
     10          6           0        2.868000    1.189000   -0.551000
     11          6           0        4.106000    1.827000   -0.600000
     12          6           0        5.249000    1.184000   -0.120000
     13          6           0        5.157000   -0.102000    0.416000
     14          6           0        3.927000   -0.752000    0.482000
     15          7           0       -2.623000    1.210000    0.357000
     16          6           0       -2.804000    2.452000   -0.420000
     17          6           0       -3.120000    1.274000    1.743000
     18          8           0       -4.317000   -0.737000   -0.189000
     19          1           0       -2.366000   -2.201000    0.465000
     20          1           0        0.160000    0.882000    0.362000
     21          1           0        1.982000    1.671000   -0.945000
     22          1           0        4.174000    2.823000   -1.023000
     23          1           0        6.209000    1.685000   -0.164000
     24          1           0        6.042000   -0.601000    0.794000
     25          1           0        3.835000   -1.741000    0.910000
     26          1           0       -2.361000    2.329000   -1.406000
     27          1           0       -2.274000    3.240000    0.117000
     28          1           0       -3.858000    2.731000   -0.516000
     29          1           0       -2.877000    0.346000    2.260000
     30          1           0       -4.201000    1.449000    1.783000
     31          1           0       -2.600000    2.098000    2.233000
     32          1           0       -0.134000   -3.306000   -0.004000
 ---------------------------------------------------------------------
                    Distance matrix (angstroms):
                    1          2          3          4          5
     1  O    0.000000
     2  S    1.462308   0.000000
     3  N    2.622159   1.709269   0.000000
     4  C    3.073201   2.688217   1.379279   0.000000
     5  N    4.026008   3.844332   2.411857   1.358760   0.000000
     6  N    4.832489   4.840351   3.543649   2.237720   1.319442
     7  C    3.511975   3.357862   2.520215   1.381634   2.169206
     8  N    4.536985   4.571453   3.540688   2.177500   2.079502
     9  C    5.637383   5.799266   4.917258   3.582030   3.449874
    10  C    5.682941   6.012713   5.498205   4.288735   4.473219
    11  C    7.002423   7.372743   6.881039   5.661902   5.759448
    12  C    8.060140   8.352769   7.630554   6.327195   6.175459
    13  C    8.013335   8.186024   7.210424   5.860643   5.470641
    14  C    6.901685   6.994303   5.908855   4.550959   4.094068
    15  N    2.518447   1.663693   2.562917   3.172897   4.524316
    16  C    2.866012   2.655204   3.899461   4.338130   5.655180
    17  C    3.852429   2.648413   3.097212   3.865383   5.170096
    18  O    2.530259   1.464439   2.487615   3.779225   4.772707
    19  H    3.171351   2.289513   1.022602   2.039649   2.578158
    20  H    3.592506   3.421095   3.016848   2.240549   3.229240
    21  H    4.904643   5.326427   5.095683   4.046075   4.503032
    22  H    7.331843   7.787898   7.507067   6.375381   6.611748
    23  H    9.063236   9.386218   8.702820   7.407135   7.251952
    24  H    8.987731   9.118980   8.038069   6.687610   6.162230
    25  H    7.143990   7.121703   5.835673   4.509721   3.806074
    26  H    2.399125   2.769606   4.043180   4.290316   5.502113
    27  H    3.813334   3.555477   4.524983   4.771546   6.086823
    28  H    3.330700   3.056842   4.518511   5.182172   6.497560
    29  H    4.127129   2.770758   2.624921   3.440275   4.623301
    30  H    4.248772   3.033796   3.781471   4.754304   6.037557
    31  H    4.590030   3.555038   3.882423   4.371252   5.665279
    32  H    4.458294   4.240329   2.767877   2.143832   1.023214
                    6          7          8          9         10
     6  N    0.000000
     7  C    2.234620   0.000000
     8  N    1.319155   1.361804   0.000000
     9  C    2.382504   2.505174   1.433871   0.000000
    10  C    3.580962   3.004221   2.435526   1.394353   0.000000
    11  C    4.737589   4.373360   3.705428   2.397144   1.393589
    12  C    4.989439   5.137814   4.199007   2.765140   2.419700
    13  C    4.207986   4.855253   3.705461   2.395657   2.800231
    14  C    2.840711   3.675767   2.437865   1.394914   2.440502
    15  N    5.253241   3.242169   4.600408   5.588237   5.565607
    16  C    6.226518   4.121322   5.408128   6.167755   5.812393
    17  C    5.946598   4.016898   5.343408   6.321847   6.412940
    18  O    5.933568   4.675609   5.849069   7.147399   7.447466
    19  H    3.866032   3.362355   4.174203   5.598542   6.318157
    20  H    3.248993   1.074685   2.152559   2.837447   2.874210
    21  H    3.878826   2.753950   2.660067   2.158478   1.082846
    22  H    5.674933   5.050092   4.576807   3.380227   2.144382
    23  H    6.049746   6.201080   5.282766   3.848900   3.399716
    24  H    4.879196   5.779849   4.577732   3.378863   3.884250
    25  H    2.576312   3.921376   2.652870   2.151764   3.413870
    26  H    5.983452   4.005162   5.171142   5.869317   5.419692
    27  H    6.492473   4.280616   5.512498   6.071210   5.576109
    28  H    7.180367   5.131129   6.438510   7.249118   6.900584
    29  H    5.474527   3.813010   5.046509   6.127723   6.451155
    30  H    6.912697   5.037006   6.375251   7.387954   7.448887
    31  H    6.248177   4.199389   5.468333   6.242378   6.202899
    32  H    2.023068   3.171108   3.047163   4.350387   5.432885
                   11         12         13         14         15
    11  C    0.000000
    12  C    1.396531   0.000000
    13  C    2.420309   1.396265   0.000000
    14  C    2.802500   2.420369   1.392751   0.000000
    15  N    6.824660   7.886481   7.890071   6.838682   0.000000
    16  C    6.940542   8.157735   8.402341   7.509033   1.476162
    17  C    7.616465   8.574324   8.494883   7.440094   1.473805
    18  O    8.814190   9.757221   9.514511   8.271276   2.637908
    19  H    7.697129   8.353962   7.810489   6.457688   3.422373
    20  H    4.170058   5.120688   5.093249   4.107876   2.802267
    21  H    2.157484   3.404568   3.882844   3.419106   4.807676
    22  H    1.084237   2.158091   3.404796   3.886729   7.120771
    23  H    2.152410   1.083761   2.153247   3.400560   8.860095
    24  H    3.403897   2.156495   1.084025   2.143215   8.863008
    25  H    3.883834   3.408214   2.162878   1.081559   7.121796
    26  H    6.536339   7.802366   8.108623   7.252313   2.104513
    27  H    6.573816   7.802489   8.153412   7.383880   2.073717
    28  H    8.015583   9.245944   9.495511   8.586822   2.144946
    29  H    7.689945   8.508732   8.255071   7.117675   2.105332
    30  H    8.650308   9.643347   9.583656   8.520645   2.140253
    31  H    7.284900   8.244926   8.265140   7.334182   2.075680
    32  H    6.684348   7.010724   6.199734   4.821912   5.169110
                   16         17         18         19         20
    16  C    0.000000
    17  C    2.483165   0.000000
    18  O    3.537266   3.034725   0.000000
    19  H    4.756625   3.778548   2.525354   0.000000
    20  H    3.444085   3.580395   4.792524   3.987001   0.000000
    21  H    4.877641   5.780429   6.785824   5.990458   2.377068
    22  H    7.013824   7.953150   9.244795   8.380115   4.668822
    23  H    9.049199   9.530782  10.801083   9.435426   6.124695
    24  H    9.436436   9.399919  10.406424   8.565203   6.081434
    25  H    7.964074   7.626017   8.286792   6.233941   4.548193
    26  H    1.087922   3.406656   3.835020   4.901180   3.402216
    27  H    1.090969   2.687889   4.481519   5.452894   3.397726
    28  H    1.094520   2.787575   3.513493   5.245288   4.509325
    29  H    3.409247   1.089735   3.040410   3.157587   3.621197
    30  H    2.794786   1.095804   2.946326   4.292651   4.621585
    31  H    2.684277   1.090631   4.105045   4.654243   3.549211
    32  H    6.360544   5.739739   4.912380   2.534326   4.214230
                   21         22         23         24         25
    21  H    0.000000
    22  H    2.477509   0.000000
    23  H    4.298568   2.484784   0.000000
    24  H    4.966861   4.302870   2.484240   0.000000
    25  H    4.303066   4.968049   4.304280   2.486746   0.000000
    26  H    4.416688   6.564827   8.683444   9.167077   7.766542
    27  H    4.658663   6.561265   8.628921   9.185176   7.922064
    28  H    5.950903   8.048511  10.127315  10.527503   9.011909
    29  H    5.969718   8.162734   9.498636   9.088153   7.157445
    30  H    6.761713   8.938800  10.593140  10.492839   8.689967
    31  H    5.592561   7.550777   9.138636   9.167305   7.609039
    32  H    5.489396   7.560547   8.072752   6.789463   4.363208
                   26         27         28         29         30
    26  H    0.000000
    27  H    1.776800   0.000000
    28  H    1.787376   1.780120   0.000000
    29  H    4.199774   3.651204   3.789032   0.000000
    30  H    3.785462   3.113931   2.654538   1.788048   0.000000
    31  H    3.654149   2.426499   3.088730   1.773968   1.785190
    32  H    6.219193   6.887986   7.111659   5.097730   6.507218
                   31         32
    31  H    0.000000
    32  H    6.347325   0.000000
 Symmetry turned off by external request.
 Stoichiometry    C10H14N5O2S(1+)
 Framework group  C1[X(C10H14N5O2S)]
 Deg. of freedom    90
 Full point group                 C1      NOp   1
 Rotational constants (GHZ):           0.8608176           0.1902304           0.1699839
 Leave Link  202 at Mon Sep 28 08:22:29 2020, MaxMem=  2147483648 cpu:               0.1 elap:               0.0
 (Enter /prod/apps/gaussian/g16b1/l301.exe)
 Standard basis: 6-31G(d) (6D, 7F)
 Ernie: Thresh=  0.10000D-02 Tol=  0.10000D-05 Strict=F.
   302 basis functions,   584 primitive gaussians,   302 cartesian basis functions
    70 alpha electrons       70 beta electrons
       nuclear repulsion energy      1495.9633696191 Hartrees.
 IExCor=  402 DFT=T Ex+Corr=B3LYP ExCW=0 ScaHFX=  0.200000
 ScaDFX=  0.800000  0.720000  1.000000  0.810000 ScalE2=  1.000000  1.000000
 IRadAn=      5 IRanWt=     -1 IRanGd=            0 ICorTp=0 IEmpDi=  4
 NAtoms=   32 NActive=   32 NUniq=   32 SFac= 1.00D+00 NAtFMM=   60 NAOKFM=F Big=F
 Integral buffers will be    131072 words long.
 Raffenetti 2 integral format.
 Two-electron integral symmetry is turned off.
 Using the following non-standard input for PCM:
 MSTModel=DFT cav MSTcharged
 --- end of non-standard input.
 MST model for solvation energy: B3LYP parametrization.
 MST cavity parameters:
 ISph   IAn     Re0     Alpha   Atom Type   QCorr
 ------------------------------------------------
   1      8     1.40     1.25      O          F
   2     16     1.75     1.25      S          F
   3      7     1.50     1.25      NH         F
   4      6     1.50     1.25      C          F
   5      7     1.50     1.15      NH         T
   6      7     1.40     1.25      N          F
   7      6     1.50     1.25      CH         F
   8      7     1.40     1.25      N          F
   9      6     1.50     1.25      C          F
  10      6     1.50     1.25      CH         F
  11      6     1.50     1.25      CH         F
  12      6     1.50     1.25      CH         F
  13      6     1.50     1.25      CH         F
  14      6     1.50     1.25      CH         F
  15      7     1.40     1.25      N          F
  16      6     1.50     1.25      CH3        F
  17      6     1.50     1.25      CH3        F
  18      8     1.40     1.25      O          F
  19      1     0.90     1.25      NH         F
  20      1     1.20     1.25      CH         F
  21      1     1.20     1.25      CH         F
  22      1     1.20     1.25      CH         F
  23      1     1.20     1.25      CH         F
  24      1     1.20     1.25      CH         F
  25      1     1.20     1.25      CH         F
  26      1     1.20     1.25      CH3        F
  27      1     1.20     1.25      CH3        F
  28      1     1.20     1.25      CH3        F
  29      1     1.20     1.25      CH3        F
  30      1     1.20     1.25      CH3        F
  31      1     1.20     1.25      CH3        F
  32      1     0.90     1.15      NH         T
 ------------------------------------------------------------------------------
 Polarizable Continuum Model (PCM)
 =================================
 Model                : PCM.
 Atomic radii         : MST.
 Polarization charges : Total charges.
 Charge compensation  : None.
 Solution method      : On-the-fly selection.
 Cavity type          : Scaled VdW (van der Waals Surface) (Alpha=1.250).
 Cavity algorithm     : GePol (No added spheres)
                        Default sphere list used, NSphG=   32.
                        Lebedev-Laikov grids with approx.  5.0 points / Ang**2.
                        Smoothing algorithm: York/Karplus (Gamma=1.0000).
                        Polarization charges: spherical gaussians, with
                                              point-specific exponents (IZeta= 3).
                        Self-potential: point-specific (ISelfS= 7).
                        Self-field    : sphere-specific E.n sum rule (ISelfD= 2).
 1st derivatives      : Analytical E(r).r(x)/FMM algorithm (CHGder, D1EAlg=3).
                        Cavity 1st derivative terms included.
 Solvent              : Water, Eps=  78.355300 Eps(inf)=   1.777849
 ------------------------------------------------------------------------------
 GePol: Number of generator spheres                  =      32
 GePol: Total number of spheres                      =      32
 GePol: Number of exposed spheres                    =      32 (100.00%)
 GePol: Number of points                             =    2400
 GePol: Average weight of points                     =       0.13
 GePol: Minimum weight of points                     =   0.23D-08
 GePol: Maximum weight of points                     =    0.22001
 GePol: Number of points with low weight             =     159
 GePol: Fraction of low-weight points (<1% of avg)   =       6.63%
 GePol: Cavity surface area                          =    309.795 Ang**2
 GePol: Cavity volume                                =    291.585 Ang**3
 PCM non-electrostatic energy =         0.0024722829 Hartrees.
 Nuclear repulsion after PCM non-electrostatic terms =     1495.9658419019 Hartrees.
 Leave Link  301 at Mon Sep 28 08:22:29 2020, MaxMem=  2147483648 cpu:               0.3 elap:               0.1
 (Enter /prod/apps/gaussian/g16b1/l302.exe)
 NPDir=0 NMtPBC=     1 NCelOv=     1 NCel=       1 NClECP=     1 NCelD=      1
         NCelK=      1 NCelE2=     1 NClLst=     1 CellRange=     0.0.
 One-electron integrals computed using PRISM.
 NBasis=   302 RedAO= T EigKep=  4.73D-04  NBF=   302
 NBsUse=   302 1.00D-06 EigRej= -1.00D+00 NBFU=   302
 Precomputing XC quadrature grid using
 IXCGrd= 4 IRadAn=           5 IRanWt=          -1 IRanGd=           0 AccXCQ= 0.00D+00.
 Generated NRdTot=       0 NPtTot=           0 NUsed=           0 NTot=          32
 NSgBfM=   301   301   301   301   301 MxSgAt=    32 MxSgA2=    32.
 Leave Link  302 at Mon Sep 28 08:22:30 2020, MaxMem=  2147483648 cpu:               1.6 elap:               0.4
 (Enter /prod/apps/gaussian/g16b1/l303.exe)
 DipDrv:  MaxL=1.
 Leave Link  303 at Mon Sep 28 08:22:30 2020, MaxMem=  2147483648 cpu:               0.1 elap:               0.1
 (Enter /prod/apps/gaussian/g16b1/l401.exe)
 ExpMin= 1.17D-01 ExpMax= 2.19D+04 ExpMxC= 3.30D+03 IAcc=3 IRadAn=         5 AccDes= 0.00D+00
 Harris functional with IExCor=  402 and IRadAn=       5 diagonalized for initial guess.
 HarFok:  IExCor=  402 AccDes= 0.00D+00 IRadAn=         5 IDoV= 1 UseB2=F ITyADJ=14
 ICtDFT=  3500011 ScaDFX=  1.000000  1.000000  1.000000  1.000000
 FoFCou: FMM=F IPFlag=           0 FMFlag=      100000 FMFlg1=           0
         NFxFlg=           0 DoJE=T BraDBF=F KetDBF=T FulRan=T
         wScrn=  0.000000 ICntrl=       500 IOpCl=  0 I1Cent=   200000004 NGrid=           0
         NMat0=    1 NMatS0=      1 NMatT0=    0 NMatD0=    1 NMtDS0=    0 NMtDT0=    0
 Symmetry not used in FoFCou.
 Harris En= -1211.56600883492    
 JPrj=0 DoOrth=F DoCkMO=F.
 Leave Link  401 at Mon Sep 28 08:22:32 2020, MaxMem=  2147483648 cpu:               8.9 elap:               2.2
 (Enter /prod/apps/gaussian/g16b1/l502.exe)
 Two-electron integral symmetry not used.
 Closed shell SCF:
 Using DIIS extrapolation, IDIIS=  1040.
 NGot=  2147483648 LenX=  2147296760 LenY=  2147205115
 Requested convergence on RMS density matrix=1.00D-08 within2000 cycles.
 Requested convergence on MAX density matrix=1.00D-06.
 Requested convergence on             energy=1.00D-06.
 No special actions if energy rises.

 Cycle   1  Pass 1  IDiag  1:
 FoFJK:  IHMeth= 1 ICntrl=       0 DoSepK=F KAlg= 0 I1Cent=           0 FoldK=F
 IRaf= 790000000 NMat=       1 IRICut=       1 DoRegI=T DoRafI=F ISym2E= 0 IDoP0=0 IntGTp=1.
 FoFCou: FMM=F IPFlag=           0 FMFlag=      100000 FMFlg1=           0
         NFxFlg=           0 DoJE=F BraDBF=F KetDBF=F FulRan=T
         wScrn=  0.000000 ICntrl=         0 IOpCl=  0 I1Cent=           0 NGrid=           0
         NMat0=    1 NMatS0=      1 NMatT0=    0 NMatD0=    1 NMtDS0=    0 NMtDT0=    0
 Symmetry not used in FoFCou.
 Inv3:  Mode=1 IEnd=    17280000.
 Iteration    1 A*A^-1 deviation from unit magnitude is 3.55D-15 for   1266.
 Iteration    1 A*A^-1 deviation from orthogonality  is 2.44D-15 for   2213    219.
 Iteration    1 A^-1*A deviation from unit magnitude is 3.22D-15 for     92.
 Iteration    1 A^-1*A deviation from orthogonality  is 3.77D-15 for   2254   2202.
 E= -1211.10506361054    
 DIIS: error= 3.03D-02 at cycle   1 NSaved=   1.
 NSaved= 1 IEnMin= 1 EnMin= -1211.10506361054     IErMin= 1 ErrMin= 3.03D-02
 ErrMax= 3.03D-02  0.00D+00 EMaxC= 1.00D-01 BMatC= 6.12D-01 BMatP= 6.12D-01
 IDIUse=3 WtCom= 6.97D-01 WtEn= 3.03D-01
 Coeff-Com:  0.100D+01
 Coeff-En:   0.100D+01
 Coeff:      0.100D+01
 Gap=     0.309 Goal=   None    Shift=    0.000
 GapD=    0.309 DampG=1.000 DampE=0.500 DampFc=0.5000 IDamp=-1.
 Damping current iteration by 5.00D-01
 RMSDP=6.28D-03 MaxDP=5.92D-01              OVMax= 2.64D-01

 Cycle   2  Pass 1  IDiag  1:
 E= -1211.23965010488     Delta-E=       -0.134586494339 Rises=F Damp=T
 DIIS: error= 1.54D-02 at cycle   2 NSaved=   2.
 NSaved= 2 IEnMin= 2 EnMin= -1211.23965010488     IErMin= 2 ErrMin= 1.54D-02
 ErrMax= 1.54D-02  0.00D+00 EMaxC= 1.00D-01 BMatC= 9.01D-02 BMatP= 6.12D-01
 IDIUse=3 WtCom= 8.46D-01 WtEn= 1.54D-01
 Coeff-Com:  0.224D+00 0.776D+00
 Coeff-En:   0.363D+00 0.637D+00
 Coeff:      0.246D+00 0.754D+00
 Gap=     0.185 Goal=   None    Shift=    0.000
 RMSDP=1.68D-03 MaxDP=1.23D-01 DE=-1.35D-01 OVMax= 1.79D-01

 Cycle   3  Pass 1  IDiag  1:
 E= -1211.60210951011     Delta-E=       -0.362459405231 Rises=F Damp=F
 DIIS: error= 9.09D-03 at cycle   3 NSaved=   3.
 NSaved= 3 IEnMin= 3 EnMin= -1211.60210951011     IErMin= 3 ErrMin= 9.09D-03
 ErrMax= 9.09D-03  0.00D+00 EMaxC= 1.00D-01 BMatC= 3.71D-02 BMatP= 9.01D-02
 IDIUse=3 WtCom= 9.09D-01 WtEn= 9.09D-02
 Coeff-Com:  0.707D-01 0.393D+00 0.536D+00
 Coeff-En:   0.000D+00 0.000D+00 0.100D+01
 Coeff:      0.643D-01 0.357D+00 0.579D+00
 Gap=     0.193 Goal=   None    Shift=    0.000
 RMSDP=8.67D-04 MaxDP=3.24D-02 DE=-3.62D-01 OVMax= 3.87D-02

 Cycle   4  Pass 1  IDiag  1:
 E= -1211.62751610260     Delta-E=       -0.025406592489 Rises=F Damp=F
 DIIS: error= 3.69D-03 at cycle   4 NSaved=   4.
 NSaved= 4 IEnMin= 4 EnMin= -1211.62751610260     IErMin= 4 ErrMin= 3.69D-03
 ErrMax= 3.69D-03  0.00D+00 EMaxC= 1.00D-01 BMatC= 8.15D-03 BMatP= 3.71D-02
 IDIUse=3 WtCom= 9.63D-01 WtEn= 3.69D-02
 Coeff-Com:  0.371D-02 0.841D-01 0.332D+00 0.581D+00
 Coeff-En:   0.000D+00 0.000D+00 0.182D+00 0.818D+00
 Coeff:      0.358D-02 0.810D-01 0.326D+00 0.589D+00
 Gap=     0.186 Goal=   None    Shift=    0.000
 RMSDP=3.20D-04 MaxDP=1.55D-02 DE=-2.54D-02 OVMax= 1.89D-02

 Cycle   5  Pass 1  IDiag  1:
 E= -1211.63390307150     Delta-E=       -0.006386968893 Rises=F Damp=F
 DIIS: error= 8.78D-04 at cycle   5 NSaved=   5.
 NSaved= 5 IEnMin= 5 EnMin= -1211.63390307150     IErMin= 5 ErrMin= 8.78D-04
 ErrMax= 8.78D-04  0.00D+00 EMaxC= 1.00D-01 BMatC= 5.69D-04 BMatP= 8.15D-03
 IDIUse=3 WtCom= 9.91D-01 WtEn= 8.78D-03
 Coeff-Com: -0.347D-02 0.176D-01 0.131D+00 0.313D+00 0.542D+00
 Coeff-En:   0.000D+00 0.000D+00 0.000D+00 0.000D+00 0.100D+01
 Coeff:     -0.344D-02 0.174D-01 0.130D+00 0.311D+00 0.546D+00
 Gap=     0.188 Goal=   None    Shift=    0.000
 RMSDP=8.92D-05 MaxDP=3.77D-03 DE=-6.39D-03 OVMax= 6.24D-03

 Cycle   6  Pass 1  IDiag  1:
 E= -1211.63436843136     Delta-E=       -0.000465359861 Rises=F Damp=F
 DIIS: error= 3.45D-04 at cycle   6 NSaved=   6.
 NSaved= 6 IEnMin= 6 EnMin= -1211.63436843136     IErMin= 6 ErrMin= 3.45D-04
 ErrMax= 3.45D-04  0.00D+00 EMaxC= 1.00D-01 BMatC= 4.49D-05 BMatP= 5.69D-04
 IDIUse=3 WtCom= 9.97D-01 WtEn= 3.45D-03
 Coeff-Com: -0.216D-02 0.383D-02 0.440D-01 0.119D+00 0.292D+00 0.543D+00
 Coeff-En:   0.000D+00 0.000D+00 0.000D+00 0.000D+00 0.000D+00 0.100D+01
 Coeff:     -0.216D-02 0.381D-02 0.438D-01 0.119D+00 0.291D+00 0.544D+00
 Gap=     0.187 Goal=   None    Shift=    0.000
 RMSDP=2.62D-05 MaxDP=1.42D-03 DE=-4.65D-04 OVMax= 2.26D-03

 Cycle   7  Pass 1  IDiag  1:
 E= -1211.63440626067     Delta-E=       -0.000037829318 Rises=F Damp=F
 DIIS: error= 9.98D-05 at cycle   7 NSaved=   7.
 NSaved= 7 IEnMin= 7 EnMin= -1211.63440626067     IErMin= 7 ErrMin= 9.98D-05
 ErrMax= 9.98D-05  0.00D+00 EMaxC= 1.00D-01 BMatC= 5.94D-06 BMatP= 4.49D-05
 IDIUse=1 WtCom= 1.00D+00 WtEn= 0.00D+00
 Coeff-Com: -0.109D-02 0.588D-03 0.144D-01 0.429D-01 0.128D+00 0.328D+00
 Coeff-Com:  0.487D+00
 Coeff:     -0.109D-02 0.588D-03 0.144D-01 0.429D-01 0.128D+00 0.328D+00
 Coeff:      0.487D+00
 Gap=     0.187 Goal=   None    Shift=    0.000
 RMSDP=8.38D-06 MaxDP=6.20D-04 DE=-3.78D-05 OVMax= 6.51D-04

 Cycle   8  Pass 1  IDiag  1:
 E= -1211.63441135036     Delta-E=       -0.000005089687 Rises=F Damp=F
 DIIS: error= 2.18D-05 at cycle   8 NSaved=   8.
 NSaved= 8 IEnMin= 8 EnMin= -1211.63441135036     IErMin= 8 ErrMin= 2.18D-05
 ErrMax= 2.18D-05  0.00D+00 EMaxC= 1.00D-01 BMatC= 3.91D-07 BMatP= 5.94D-06
 IDIUse=1 WtCom= 1.00D+00 WtEn= 0.00D+00
 Coeff-Com: -0.313D-03-0.108D-03 0.205D-02 0.750D-02 0.313D-01 0.107D+00
 Coeff-Com:  0.252D+00 0.600D+00
 Coeff:     -0.313D-03-0.108D-03 0.205D-02 0.750D-02 0.313D-01 0.107D+00
 Coeff:      0.252D+00 0.600D+00
 Gap=     0.187 Goal=   None    Shift=    0.000
 RMSDP=2.15D-06 MaxDP=1.73D-04 DE=-5.09D-06 OVMax= 1.42D-04

 Cycle   9  Pass 1  IDiag  1:
 E= -1211.63441165457     Delta-E=       -0.000000304206 Rises=F Damp=F
 DIIS: error= 5.72D-06 at cycle   9 NSaved=   9.
 NSaved= 9 IEnMin= 9 EnMin= -1211.63441165457     IErMin= 9 ErrMin= 5.72D-06
 ErrMax= 5.72D-06  0.00D+00 EMaxC= 1.00D-01 BMatC= 3.56D-08 BMatP= 3.91D-07
 IDIUse=1 WtCom= 1.00D+00 WtEn= 0.00D+00
 Coeff-Com: -0.340D-04-0.918D-04-0.589D-03-0.116D-02 0.103D-02 0.149D-01
 Coeff-Com:  0.663D-01 0.290D+00 0.629D+00
 Coeff:     -0.340D-04-0.918D-04-0.589D-03-0.116D-02 0.103D-02 0.149D-01
 Coeff:      0.663D-01 0.290D+00 0.629D+00
 Gap=     0.187 Goal=   None    Shift=    0.000
 RMSDP=6.66D-07 MaxDP=4.26D-05 DE=-3.04D-07 OVMax= 5.34D-05

 Cycle  10  Pass 1  IDiag  1:
 E= -1211.63441168130     Delta-E=       -0.000000026730 Rises=F Damp=F
 DIIS: error= 2.91D-06 at cycle  10 NSaved=  10.
 NSaved=10 IEnMin=10 EnMin= -1211.63441168130     IErMin=10 ErrMin= 2.91D-06
 ErrMax= 2.91D-06  0.00D+00 EMaxC= 1.00D-01 BMatC= 4.56D-09 BMatP= 3.56D-08
 IDIUse=1 WtCom= 1.00D+00 WtEn= 0.00D+00
 Coeff-Com: -0.406D-05-0.477D-04-0.458D-03-0.109D-02-0.125D-02 0.207D-02
 Coeff-Com:  0.223D-01 0.131D+00 0.361D+00 0.487D+00
 Coeff:     -0.406D-05-0.477D-04-0.458D-03-0.109D-02-0.125D-02 0.207D-02
 Coeff:      0.223D-01 0.131D+00 0.361D+00 0.487D+00
 Gap=     0.187 Goal=   None    Shift=    0.000
 RMSDP=2.42D-07 MaxDP=1.47D-05 DE=-2.67D-08 OVMax= 1.93D-05

 Cycle  11  Pass 1  IDiag  1:
 E= -1211.63441168512     Delta-E=       -0.000000003823 Rises=F Damp=F
 DIIS: error= 7.95D-07 at cycle  11 NSaved=  11.
 NSaved=11 IEnMin=11 EnMin= -1211.63441168512     IErMin=11 ErrMin= 7.95D-07
 ErrMax= 7.95D-07  0.00D+00 EMaxC= 1.00D-01 BMatC= 3.68D-10 BMatP= 4.56D-09
 IDIUse=1 WtCom= 1.00D+00 WtEn= 0.00D+00
 Coeff-Com:  0.214D-05-0.741D-05-0.161D-03-0.409D-03-0.849D-03-0.109D-02
 Coeff-Com:  0.215D-02 0.280D-01 0.959D-01 0.243D+00 0.634D+00
 Coeff:      0.214D-05-0.741D-05-0.161D-03-0.409D-03-0.849D-03-0.109D-02
 Coeff:      0.215D-02 0.280D-01 0.959D-01 0.243D+00 0.634D+00
 Gap=     0.187 Goal=   None    Shift=    0.000
 RMSDP=7.73D-08 MaxDP=5.09D-06 DE=-3.82D-09 OVMax= 9.36D-06

 Cycle  12  Pass 1  IDiag  1:
 E= -1211.63441168540     Delta-E=       -0.000000000286 Rises=F Damp=F
 DIIS: error= 3.90D-07 at cycle  12 NSaved=  12.
 NSaved=12 IEnMin=12 EnMin= -1211.63441168540     IErMin=12 ErrMin= 3.90D-07
 ErrMax= 3.90D-07  0.00D+00 EMaxC= 1.00D-01 BMatC= 9.15D-11 BMatP= 3.68D-10
 IDIUse=1 WtCom= 1.00D+00 WtEn= 0.00D+00
 Coeff-Com:  0.184D-05 0.104D-05-0.516D-04-0.134D-03-0.402D-03-0.967D-03
 Coeff-Com: -0.132D-02 0.230D-02 0.175D-01 0.919D-01 0.398D+00 0.493D+00
 Coeff:      0.184D-05 0.104D-05-0.516D-04-0.134D-03-0.402D-03-0.967D-03
 Coeff:     -0.132D-02 0.230D-02 0.175D-01 0.919D-01 0.398D+00 0.493D+00
 Gap=     0.187 Goal=   None    Shift=    0.000
 RMSDP=2.79D-08 MaxDP=2.32D-06 DE=-2.86D-10 OVMax= 2.33D-06

 Cycle  13  Pass 1  IDiag  1:
 E= -1211.63441168547     Delta-E=       -0.000000000063 Rises=F Damp=F
 DIIS: error= 5.59D-08 at cycle  13 NSaved=  13.
 NSaved=13 IEnMin=13 EnMin= -1211.63441168547     IErMin=13 ErrMin= 5.59D-08
 ErrMax= 5.59D-08  0.00D+00 EMaxC= 1.00D-01 BMatC= 1.87D-12 BMatP= 9.15D-11
 IDIUse=1 WtCom= 1.00D+00 WtEn= 0.00D+00
 Coeff-Com:  0.482D-06 0.950D-06-0.586D-05-0.139D-04-0.823D-04-0.300D-03
 Coeff-Com: -0.763D-03-0.201D-02-0.338D-02 0.102D-01 0.931D-01 0.167D+00
 Coeff-Com:  0.736D+00
 Coeff:      0.482D-06 0.950D-06-0.586D-05-0.139D-04-0.823D-04-0.300D-03
 Coeff:     -0.763D-03-0.201D-02-0.338D-02 0.102D-01 0.931D-01 0.167D+00
 Coeff:      0.736D+00
 Gap=     0.187 Goal=   None    Shift=    0.000
 RMSDP=6.77D-09 MaxDP=3.08D-07 DE=-6.32D-11 OVMax= 6.48D-07

 Error on total polarization charges =  0.01946
 SCF Done:  E(RB3LYP) =  -1211.63441169     A.U. after   13 cycles
            NFock= 13  Conv=0.68D-08     -V/T= 2.0077
 KE= 1.202347964274D+03 PE=-5.807605011346D+03 EE= 1.897656793485D+03
 Leave Link  502 at Mon Sep 28 08:23:36 2020, MaxMem=  2147483648 cpu:             257.1 elap:              64.4
 (Enter /prod/apps/gaussian/g16b1/l601.exe)
 Copying SCF densities to generalized density rwf, IOpCl= 0 IROHF=0.

 **********************************************************************

            Population analysis using the SCF Density.

 **********************************************************************

 Alpha  occ. eigenvalues --  -89.15793 -19.17378 -19.17258 -14.49539 -14.47369
 Alpha  occ. eigenvalues --  -14.45684 -14.41085 -14.39252 -10.32495 -10.27459
 Alpha  occ. eigenvalues --  -10.26467 -10.22598 -10.22534 -10.21795 -10.21613
 Alpha  occ. eigenvalues --  -10.20944 -10.20900 -10.20790  -8.18005  -6.14531
 Alpha  occ. eigenvalues --   -6.14406  -6.14378  -1.18019  -1.14933  -1.03162
 Alpha  occ. eigenvalues --   -1.00950  -0.97188  -0.95275  -0.87854  -0.86200
 Alpha  occ. eigenvalues --   -0.79573  -0.77066  -0.73966  -0.73048  -0.71333
 Alpha  occ. eigenvalues --   -0.69528  -0.64352  -0.62968  -0.61907  -0.59873
 Alpha  occ. eigenvalues --   -0.55833  -0.55538  -0.54691  -0.53678  -0.52940
 Alpha  occ. eigenvalues --   -0.50590  -0.50077  -0.49130  -0.47159  -0.46700
 Alpha  occ. eigenvalues --   -0.45789  -0.45388  -0.44339  -0.42537  -0.41660
 Alpha  occ. eigenvalues --   -0.41352  -0.39856  -0.39380  -0.38144  -0.37934
 Alpha  occ. eigenvalues --   -0.37327  -0.36761  -0.36374  -0.35635  -0.34167
 Alpha  occ. eigenvalues --   -0.32824  -0.28334  -0.27300  -0.27184  -0.26552
 Alpha virt. eigenvalues --   -0.07821  -0.02472  -0.01896  -0.00013   0.04550
 Alpha virt. eigenvalues --    0.05065   0.07578   0.08267   0.08560   0.09084
 Alpha virt. eigenvalues --    0.10204   0.10840   0.13319   0.13503   0.14064
 Alpha virt. eigenvalues --    0.14394   0.15292   0.15756   0.15954   0.16613
 Alpha virt. eigenvalues --    0.17466   0.17704   0.18315   0.18740   0.19486
 Alpha virt. eigenvalues --    0.19536   0.21377   0.21644   0.23717   0.27805
 Alpha virt. eigenvalues --    0.28485   0.29257   0.31907   0.32416   0.33438
 Alpha virt. eigenvalues --    0.34400   0.36182   0.39788   0.41863   0.43392
 Alpha virt. eigenvalues --    0.45799   0.46501   0.47925   0.48799   0.49842
 Alpha virt. eigenvalues --    0.51335   0.51937   0.52421   0.55001   0.55604
 Alpha virt. eigenvalues --    0.55876   0.56409   0.57097   0.57467   0.57806
 Alpha virt. eigenvalues --    0.58456   0.59761   0.59834   0.60248   0.60572
 Alpha virt. eigenvalues --    0.61553   0.62860   0.63815   0.64367   0.66951
 Alpha virt. eigenvalues --    0.67848   0.70025   0.71555   0.72643   0.73923
 Alpha virt. eigenvalues --    0.74551   0.75449   0.76962   0.77639   0.78515
 Alpha virt. eigenvalues --    0.79326   0.79593   0.80968   0.82955   0.83130
 Alpha virt. eigenvalues --    0.83689   0.84166   0.85010   0.85333   0.86270
 Alpha virt. eigenvalues --    0.87999   0.88533   0.88760   0.90116   0.91720
 Alpha virt. eigenvalues --    0.92586   0.93568   0.93709   0.94545   0.94701
 Alpha virt. eigenvalues --    0.95742   0.96359   0.98388   0.98620   1.00401
 Alpha virt. eigenvalues --    1.01798   1.03175   1.04191   1.04678   1.06922
 Alpha virt. eigenvalues --    1.07736   1.10594   1.11140   1.12604   1.14020
 Alpha virt. eigenvalues --    1.15349   1.17065   1.17737   1.19125   1.20358
 Alpha virt. eigenvalues --    1.23391   1.24730   1.25647   1.29891   1.32234
 Alpha virt. eigenvalues --    1.32760   1.35913   1.37032   1.38921   1.40498
 Alpha virt. eigenvalues --    1.41210   1.42503   1.43962   1.44408   1.45324
 Alpha virt. eigenvalues --    1.47158   1.48314   1.48935   1.50762   1.53790
 Alpha virt. eigenvalues --    1.55900   1.58535   1.64301   1.64667   1.68576
 Alpha virt. eigenvalues --    1.69801   1.74304   1.76806   1.77915   1.78117
 Alpha virt. eigenvalues --    1.78408   1.79349   1.80157   1.81428   1.84233
 Alpha virt. eigenvalues --    1.85546   1.86849   1.88580   1.91623   1.92718
 Alpha virt. eigenvalues --    1.93545   1.95219   1.96285   1.97019   1.99409
 Alpha virt. eigenvalues --    2.00133   2.01642   2.04009   2.05548   2.06763
 Alpha virt. eigenvalues --    2.07275   2.08105   2.08775   2.10232   2.12240
 Alpha virt. eigenvalues --    2.13272   2.13692   2.14253   2.16413   2.18247
 Alpha virt. eigenvalues --    2.19741   2.21395   2.22864   2.24070   2.25643
 Alpha virt. eigenvalues --    2.28300   2.28686   2.29625   2.31364   2.32914
 Alpha virt. eigenvalues --    2.35986   2.40516   2.41410   2.43570   2.46946
 Alpha virt. eigenvalues --    2.49047   2.51575   2.54430   2.56837   2.57413
 Alpha virt. eigenvalues --    2.59869   2.61817   2.63267   2.64946   2.68367
 Alpha virt. eigenvalues --    2.69104   2.70372   2.72288   2.73129   2.75045
 Alpha virt. eigenvalues --    2.78468   2.80575   2.82121   2.86805   2.97493
 Alpha virt. eigenvalues --    3.03488   3.11712   3.22654   3.40996   3.57251
 Alpha virt. eigenvalues --    3.77065   3.89813   3.93429   4.00072   4.02368
 Alpha virt. eigenvalues --    4.06408   4.08678   4.09748   4.12323   4.16917
 Alpha virt. eigenvalues --    4.20498   4.25114   4.30900   4.32312   4.37689
 Alpha virt. eigenvalues --    4.45222   4.69439
          Condensed to atoms (all electrons):
               1          2          3          4          5          6
     1  O    8.232851   0.452691  -0.056481   0.005403  -0.000137  -0.000001
     2  S    0.452691  13.557979   0.113912   0.007058  -0.002727   0.000197
     3  N   -0.056481   0.113912   7.398534   0.278045  -0.058236   0.004775
     4  C    0.005403   0.007058   0.278045   4.476790   0.286531  -0.057329
     5  N   -0.000137  -0.002727  -0.058236   0.286531   6.746715   0.243080
     6  N   -0.000001   0.000197   0.004775  -0.057329   0.243080   6.690208
     7  C   -0.000100  -0.007532  -0.061805   0.505925  -0.043059  -0.092598
     8  N   -0.000052  -0.000324   0.003050  -0.018187  -0.083989   0.277641
     9  C    0.000001  -0.000007  -0.000087   0.002331   0.006877  -0.052997
    10  C   -0.000001  -0.000003   0.000004   0.001173  -0.000331   0.003343
    11  C   -0.000000  -0.000000   0.000000  -0.000009   0.000003  -0.000072
    12  C    0.000000   0.000000  -0.000000   0.000000  -0.000000   0.000014
    13  C   -0.000000  -0.000000  -0.000000   0.000006  -0.000004   0.000230
    14  C    0.000000   0.000000  -0.000000  -0.000620   0.000443  -0.001157
    15  N   -0.053810   0.154071  -0.047928  -0.007842   0.000117  -0.000000
    16  C   -0.003462  -0.030468   0.002051   0.000036   0.000001  -0.000000
    17  C    0.001454  -0.009942  -0.006919   0.000159  -0.000009  -0.000000
    18  O   -0.043788   0.449541  -0.054355   0.001203  -0.000007   0.000000
    19  H   -0.000189  -0.012525   0.298830  -0.017123  -0.002788  -0.000008
    20  H   -0.000172   0.001050  -0.001585  -0.026539   0.003409   0.003099
    21  H    0.000001   0.000003  -0.000001   0.000013  -0.000012  -0.000074
    22  H   -0.000000  -0.000000   0.000000   0.000000  -0.000000   0.000001
    23  H    0.000000  -0.000000  -0.000000  -0.000000  -0.000000   0.000000
    24  H   -0.000000  -0.000000   0.000000  -0.000000   0.000000  -0.000006
    25  H    0.000000  -0.000000  -0.000000   0.000011  -0.000300   0.010517
    26  H    0.010281  -0.004130   0.000118   0.000004  -0.000000   0.000000
    27  H    0.000251   0.002186  -0.000080   0.000008  -0.000000   0.000000
    28  H   -0.000365  -0.003051  -0.000081  -0.000005   0.000000   0.000000
    29  H    0.000017  -0.002118   0.009693  -0.000143  -0.000014   0.000000
    30  H   -0.000035  -0.007721  -0.000163  -0.000013   0.000000  -0.000000
    31  H   -0.000049   0.003015  -0.000067  -0.000007  -0.000001   0.000000
    32  H   -0.000000  -0.000037  -0.000910  -0.022383   0.310414  -0.026126
               7          8          9         10         11         12
     1  O   -0.000100  -0.000052   0.000001  -0.000001  -0.000000   0.000000
     2  S   -0.007532  -0.000324  -0.000007  -0.000003  -0.000000   0.000000
     3  N   -0.061805   0.003050  -0.000087   0.000004   0.000000  -0.000000
     4  C    0.505925  -0.018187   0.002331   0.001173  -0.000009   0.000000
     5  N   -0.043059  -0.083989   0.006877  -0.000331   0.000003  -0.000000
     6  N   -0.092598   0.277641  -0.052997   0.003343  -0.000072   0.000014
     7  C    4.955465   0.320238  -0.034486  -0.004810  -0.000001   0.000015
     8  N    0.320238   6.757742   0.209583  -0.048762   0.004462   0.000363
     9  C   -0.034486   0.209583   4.637788   0.529936  -0.011456  -0.037192
    10  C   -0.004810  -0.048762   0.529936   4.961188   0.529150  -0.040875
    11  C   -0.000001   0.004462  -0.011456   0.529150   4.857046   0.541955
    12  C    0.000015   0.000363  -0.037192  -0.040875   0.541955   4.858343
    13  C   -0.000080   0.004366  -0.011175  -0.041488  -0.023748   0.538833
    14  C    0.006431  -0.054576   0.519799  -0.067088  -0.040801  -0.039909
    15  N    0.007567   0.000216   0.000001   0.000001  -0.000000   0.000000
    16  C   -0.000073  -0.000003   0.000000  -0.000002   0.000000   0.000000
    17  C    0.000122  -0.000007   0.000000  -0.000000  -0.000000  -0.000000
    18  O   -0.000008   0.000000  -0.000000  -0.000000  -0.000000   0.000000
    19  H    0.003025  -0.000008   0.000001   0.000000   0.000000  -0.000000
    20  H    0.364138  -0.030267  -0.001980   0.002271   0.000113  -0.000001
    21  H    0.005504  -0.008570  -0.039992   0.356305  -0.032024   0.004164
    22  H   -0.000003  -0.000113   0.003446  -0.037002   0.364534  -0.038434
    23  H   -0.000000   0.000004   0.000474   0.004896  -0.040745   0.366705
    24  H    0.000001  -0.000108   0.003509   0.000718   0.004328  -0.038851
    25  H    0.000125  -0.011504  -0.039983   0.004988   0.000110   0.004308
    26  H   -0.000003  -0.000002   0.000000  -0.000002  -0.000000   0.000000
    27  H   -0.000009  -0.000001  -0.000000  -0.000000  -0.000000   0.000000
    28  H    0.000015   0.000000  -0.000000   0.000000   0.000000  -0.000000
    29  H   -0.000095  -0.000001  -0.000000   0.000000   0.000000  -0.000000
    30  H    0.000025   0.000000   0.000000  -0.000000  -0.000000   0.000000
    31  H   -0.000044  -0.000001  -0.000000   0.000000   0.000000  -0.000000
    32  H    0.004527   0.004077  -0.000064   0.000002  -0.000000  -0.000000
              13         14         15         16         17         18
     1  O   -0.000000   0.000000  -0.053810  -0.003462   0.001454  -0.043788
     2  S   -0.000000   0.000000   0.154071  -0.030468  -0.009942   0.449541
     3  N   -0.000000  -0.000000  -0.047928   0.002051  -0.006919  -0.054355
     4  C    0.000006  -0.000620  -0.007842   0.000036   0.000159   0.001203
     5  N   -0.000004   0.000443   0.000117   0.000001  -0.000009  -0.000007
     6  N    0.000230  -0.001157  -0.000000  -0.000000  -0.000000   0.000000
     7  C   -0.000080   0.006431   0.007567  -0.000073   0.000122  -0.000008
     8  N    0.004366  -0.054576   0.000216  -0.000003  -0.000007   0.000000
     9  C   -0.011175   0.519799   0.000001   0.000000   0.000000  -0.000000
    10  C   -0.041488  -0.067088   0.000001  -0.000002  -0.000000  -0.000000
    11  C   -0.023748  -0.040801  -0.000000   0.000000  -0.000000  -0.000000
    12  C    0.538833  -0.039909   0.000000   0.000000  -0.000000   0.000000
    13  C    4.866330   0.524595  -0.000000  -0.000000  -0.000000   0.000000
    14  C    0.524595   4.960361   0.000000   0.000000  -0.000000   0.000000
    15  N   -0.000000   0.000000   7.212621   0.280415   0.259195  -0.053978
    16  C   -0.000000   0.000000   0.280415   4.986246  -0.045777  -0.001529
    17  C   -0.000000  -0.000000   0.259195  -0.045777   4.989152   0.003111
    18  O    0.000000   0.000000  -0.053978  -0.001529   0.003111   8.237021
    19  H    0.000000  -0.000000   0.002038  -0.000033  -0.000161   0.003389
    20  H   -0.000006  -0.000032   0.005932   0.000048  -0.000180   0.000005
    21  H    0.000196   0.004699  -0.000006   0.000011  -0.000000  -0.000000
    22  H    0.004277   0.000753   0.000000  -0.000000   0.000000  -0.000000
    23  H   -0.040761   0.004723   0.000000   0.000000  -0.000000  -0.000000
    24  H    0.364916  -0.037276   0.000000  -0.000000  -0.000000   0.000000
    25  H   -0.034681   0.359280   0.000000   0.000000  -0.000000  -0.000000
    26  H   -0.000000   0.000000  -0.031025   0.377188   0.004111  -0.000065
    27  H   -0.000000  -0.000000  -0.037224   0.380437  -0.002778  -0.000090
    28  H    0.000000  -0.000000  -0.045511   0.378209  -0.001028   0.001335
    29  H    0.000000   0.000000  -0.032226   0.004162   0.376619  -0.001711
    30  H   -0.000000  -0.000000  -0.044395  -0.001116   0.379752   0.004175
    31  H    0.000000  -0.000000  -0.032723  -0.003769   0.377610   0.000058
    32  H   -0.000000  -0.000001   0.000002  -0.000000   0.000000  -0.000003
              19         20         21         22         23         24
     1  O   -0.000189  -0.000172   0.000001  -0.000000   0.000000  -0.000000
     2  S   -0.012525   0.001050   0.000003  -0.000000  -0.000000  -0.000000
     3  N    0.298830  -0.001585  -0.000001   0.000000  -0.000000   0.000000
     4  C   -0.017123  -0.026539   0.000013   0.000000  -0.000000  -0.000000
     5  N   -0.002788   0.003409  -0.000012  -0.000000  -0.000000   0.000000
     6  N   -0.000008   0.003099  -0.000074   0.000001   0.000000  -0.000006
     7  C    0.003025   0.364138   0.005504  -0.000003  -0.000000   0.000001
     8  N   -0.000008  -0.030267  -0.008570  -0.000113   0.000004  -0.000108
     9  C    0.000001  -0.001980  -0.039992   0.003446   0.000474   0.003509
    10  C    0.000000   0.002271   0.356305  -0.037002   0.004896   0.000718
    11  C    0.000000   0.000113  -0.032024   0.364534  -0.040745   0.004328
    12  C   -0.000000  -0.000001   0.004164  -0.038434   0.366705  -0.038851
    13  C    0.000000  -0.000006   0.000196   0.004277  -0.040761   0.364916
    14  C   -0.000000  -0.000032   0.004699   0.000753   0.004723  -0.037276
    15  N    0.002038   0.005932  -0.000006   0.000000   0.000000   0.000000
    16  C   -0.000033   0.000048   0.000011  -0.000000   0.000000  -0.000000
    17  C   -0.000161  -0.000180  -0.000000   0.000000  -0.000000  -0.000000
    18  O    0.003389   0.000005  -0.000000  -0.000000  -0.000000   0.000000
    19  H    0.276486  -0.000011  -0.000000  -0.000000   0.000000  -0.000000
    20  H   -0.000011   0.416145   0.001142  -0.000000  -0.000000   0.000000
    21  H   -0.000000   0.001142   0.524645  -0.004906  -0.000137   0.000013
    22  H   -0.000000  -0.000000  -0.004906   0.539232  -0.004969  -0.000155
    23  H    0.000000  -0.000000  -0.000137  -0.004969   0.545714  -0.005004
    24  H   -0.000000   0.000000   0.000013  -0.000155  -0.005004   0.540104
    25  H   -0.000000  -0.000008  -0.000121   0.000013  -0.000131  -0.004917
    26  H   -0.000004  -0.000049   0.000012  -0.000000   0.000000  -0.000000
    27  H    0.000000  -0.000154   0.000002  -0.000000  -0.000000  -0.000000
    28  H    0.000004   0.000025  -0.000000   0.000000  -0.000000   0.000000
    29  H   -0.000285  -0.000043   0.000000   0.000000   0.000000  -0.000000
    30  H    0.000045   0.000021  -0.000000   0.000000  -0.000000  -0.000000
    31  H   -0.000001  -0.000078   0.000000  -0.000000   0.000000  -0.000000
    32  H    0.001720  -0.000048  -0.000000   0.000000  -0.000000   0.000000
              25         26         27         28         29         30
     1  O    0.000000   0.010281   0.000251  -0.000365   0.000017  -0.000035
     2  S   -0.000000  -0.004130   0.002186  -0.003051  -0.002118  -0.007721
     3  N   -0.000000   0.000118  -0.000080  -0.000081   0.009693  -0.000163
     4  C    0.000011   0.000004   0.000008  -0.000005  -0.000143  -0.000013
     5  N   -0.000300  -0.000000  -0.000000   0.000000  -0.000014   0.000000
     6  N    0.010517   0.000000   0.000000   0.000000   0.000000  -0.000000
     7  C    0.000125  -0.000003  -0.000009   0.000015  -0.000095   0.000025
     8  N   -0.011504  -0.000002  -0.000001   0.000000  -0.000001   0.000000
     9  C   -0.039983   0.000000  -0.000000  -0.000000  -0.000000   0.000000
    10  C    0.004988  -0.000002  -0.000000   0.000000   0.000000  -0.000000
    11  C    0.000110  -0.000000  -0.000000   0.000000   0.000000  -0.000000
    12  C    0.004308   0.000000   0.000000  -0.000000  -0.000000   0.000000
    13  C   -0.034681  -0.000000  -0.000000   0.000000   0.000000  -0.000000
    14  C    0.359280   0.000000  -0.000000  -0.000000   0.000000  -0.000000
    15  N    0.000000  -0.031025  -0.037224  -0.045511  -0.032226  -0.044395
    16  C    0.000000   0.377188   0.380437   0.378209   0.004162  -0.001116
    17  C   -0.000000   0.004111  -0.002778  -0.001028   0.376619   0.379752
    18  O   -0.000000  -0.000065  -0.000090   0.001335  -0.001711   0.004175
    19  H   -0.000000  -0.000004   0.000000   0.000004  -0.000285   0.000045
    20  H   -0.000008  -0.000049  -0.000154   0.000025  -0.000043   0.000021
    21  H   -0.000121   0.000012   0.000002  -0.000000   0.000000  -0.000000
    22  H    0.000013  -0.000000  -0.000000   0.000000   0.000000   0.000000
    23  H   -0.000131   0.000000  -0.000000  -0.000000   0.000000  -0.000000
    24  H   -0.004917  -0.000000  -0.000000   0.000000  -0.000000  -0.000000
    25  H    0.524550   0.000000  -0.000000  -0.000000   0.000000   0.000000
    26  H    0.000000   0.490966  -0.020039  -0.029032  -0.000181  -0.000144
    27  H   -0.000000  -0.020039   0.517243  -0.037128   0.000075  -0.001542
    28  H   -0.000000  -0.029032  -0.037128   0.550141  -0.000162   0.006657
    29  H    0.000000  -0.000181   0.000075  -0.000162   0.499736  -0.029678
    30  H    0.000000  -0.000144  -0.001542   0.006657  -0.029678   0.544014
    31  H   -0.000000   0.000022   0.004716  -0.001193  -0.021823  -0.032633
    32  H   -0.000002  -0.000000  -0.000000   0.000000  -0.000001   0.000000
              31         32
     1  O   -0.000049  -0.000000
     2  S    0.003015  -0.000037
     3  N   -0.000067  -0.000910
     4  C   -0.000007  -0.022383
     5  N   -0.000001   0.310414
     6  N    0.000000  -0.026126
     7  C   -0.000044   0.004527
     8  N   -0.000001   0.004077
     9  C   -0.000000  -0.000064
    10  C    0.000000   0.000002
    11  C    0.000000  -0.000000
    12  C   -0.000000  -0.000000
    13  C    0.000000  -0.000000
    14  C   -0.000000  -0.000001
    15  N   -0.032723   0.000002
    16  C   -0.003769  -0.000000
    17  C    0.377610   0.000000
    18  O    0.000058  -0.000003
    19  H   -0.000001   0.001720
    20  H   -0.000078  -0.000048
    21  H    0.000000  -0.000000
    22  H   -0.000000   0.000000
    23  H    0.000000  -0.000000
    24  H   -0.000000   0.000000
    25  H   -0.000000  -0.000002
    26  H    0.000022  -0.000000
    27  H    0.004716  -0.000000
    28  H   -0.001193   0.000000
    29  H   -0.021823  -0.000001
    30  H   -0.032633   0.000000
    31  H    0.511527  -0.000000
    32  H   -0.000000   0.254830
 Mulliken charges:
               1
     1  O   -0.544307
     2  S    1.338881
     3  N   -0.820314
     4  C    0.585505
     5  N   -0.405978
     6  N   -0.002738
     7  C    0.071582
     8  N   -0.325268
     9  C    0.315672
    10  C   -0.153614
    11  C   -0.152845
    12  C   -0.119440
    13  C   -0.151805
    14  C   -0.139625
    15  N   -0.535508
    16  C   -0.322571
    17  C   -0.324482
    18  O   -0.544303
    19  H    0.447596
    20  H    0.263753
    21  H    0.189134
    22  H    0.173327
    23  H    0.169232
    24  H    0.172727
    25  H    0.187746
    26  H    0.201973
    27  H    0.194127
    28  H    0.181170
    29  H    0.198180
    30  H    0.182751
    31  H    0.195441
    32  H    0.474002
 Sum of Mulliken charges =   1.00000
 Mulliken charges with hydrogens summed into heavy atoms:
               1
     1  O   -0.544307
     2  S    1.338881
     3  N   -0.372719
     4  C    0.585505
     5  N    0.068025
     6  N   -0.002738
     7  C    0.335335
     8  N   -0.325268
     9  C    0.315672
    10  C    0.035520
    11  C    0.020482
    12  C    0.049793
    13  C    0.020922
    14  C    0.048121
    15  N   -0.535508
    16  C    0.254699
    17  C    0.251890
    18  O   -0.544303
 Electronic spatial extent (au):  <R**2>=           6213.5117
 Charge=              1.0000 electrons
 Dipole moment (field-independent basis, Debye):
    X=              4.0440    Y=             -2.5930    Z=              4.1167  Tot=              6.3265
 Quadrupole moment (field-independent basis, Debye-Ang):
   XX=            -89.7636   YY=            -70.7624   ZZ=           -112.4956
   XY=             -0.6002   XZ=             -9.0332   YZ=             -3.9238
 Traceless Quadrupole moment (field-independent basis, Debye-Ang):
   XX=              1.2436   YY=             20.2448   ZZ=            -21.4884
   XY=             -0.6002   XZ=             -9.0332   YZ=             -3.9238
 Octapole moment (field-independent basis, Debye-Ang**2):
  XXX=            179.1859  YYY=            -59.0765  ZZZ=             23.4133  XYY=            -34.7350
  XXY=             54.6664  XXZ=             43.7148  XZZ=            -12.3221  YZZ=              2.4341
  YYZ=              3.1307  XYZ=            -14.3127
 Hexadecapole moment (field-independent basis, Debye-Ang**3):
 XXXX=          -5814.5558 YYYY=           -910.2237 ZZZZ=           -466.5370 XXXY=            -49.8404
 XXXZ=            -28.7716 YYYX=             53.2209 YYYZ=             -0.7345 ZZZX=            -52.0584
 ZZZY=             29.8858 XXYY=          -1100.6680 XXZZ=          -1176.2634 YYZZ=           -268.9012
 XXYZ=            -52.6034 YYXZ=            -26.3064 ZZXY=            -22.0792
 N-N= 1.495965841902D+03 E-N=-5.807605007729D+03  KE= 1.202347964274D+03
 No NMR shielding tensors so no spin-rotation constants.
 Leave Link  601 at Mon Sep 28 08:23:36 2020, MaxMem=  2147483648 cpu:               0.5 elap:               0.2
 (Enter /prod/apps/gaussian/g16b1/l701.exe)
 ... and contract with generalized density number  0.
 Compute integral first derivatives.
 D1PCM: PCM CHGder 1st derivatives, ID1Alg=3 FixD1E=F DoIter=F DoCFld=F I1PDM=0.
 GePol: Maximum number of non-zero 1st derivatives   =     178
 Leave Link  701 at Mon Sep 28 08:23:39 2020, MaxMem=  2147483648 cpu:               9.7 elap:               2.4
 (Enter /prod/apps/gaussian/g16b1/l702.exe)
 L702 exits ... SP integral derivatives will be done elsewhere.
 Leave Link  702 at Mon Sep 28 08:23:39 2020, MaxMem=  2147483648 cpu:               0.1 elap:               0.0
 (Enter /prod/apps/gaussian/g16b1/l703.exe)
 Integral derivatives from FoFJK, PRISM(SPDF).
 Compute integral first derivatives, UseDBF=F ICtDFT=           0.
 Calling FoFJK, ICntrl=      2127 FMM=F ISym2X=0 I1Cent= 0 IOpClX= 0 NMat=1 NMatS=1 NMatT=0.
 FoFJK:  IHMeth= 1 ICntrl=    2127 DoSepK=F KAlg= 0 I1Cent=           0 FoldK=F
 IRaf=         0 NMat=       1 IRICut=       1 DoRegI=T DoRafI=F ISym2E= 0 IDoP0=0 IntGTp=1.
 FoFCou: FMM=F IPFlag=           0 FMFlag=      100000 FMFlg1=         800
         NFxFlg=           0 DoJE=F BraDBF=F KetDBF=F FulRan=T
         wScrn=  0.000000 ICntrl=      2127 IOpCl=  0 I1Cent=           0 NGrid=           0
         NMat0=    1 NMatS0=      1 NMatT0=    0 NMatD0=    1 NMtDS0=    0 NMtDT0=    0
 Symmetry not used in FoFCou.
 Leave Link  703 at Mon Sep 28 08:23:53 2020, MaxMem=  2147483648 cpu:              56.7 elap:              14.2
 (Enter /prod/apps/gaussian/g16b1/l716.exe)
 Dipole        = 1.59102129D+00-1.02017721D+00 1.61964879D+00
 -------------------------------------------------------------------
 Center     Atomic                   Forces (Hartrees/Bohr)
 Number     Number              X              Y              Z
 -------------------------------------------------------------------
      1        8           0.000067937   -0.000039324    0.000007455
      2       16          -0.000034273    0.000519773   -0.000014455
      3        7          -0.000322825   -0.000526830    0.000075222
      4        6           0.000868075   -0.000009555   -0.000139315
      5        7          -0.000262421    0.000024018    0.000052641
      6        7          -0.000219442   -0.000044109    0.000087022
      7        6           0.000138181    0.000098930    0.000082296
      8        7          -0.000584405   -0.000132075   -0.000117508
      9        6           0.000449006    0.000474139   -0.000019415
     10        6           0.000210791   -0.000347143    0.000062587
     11        6           0.000097446    0.000107664    0.000034296
     12        6          -0.000639235    0.000441272   -0.000308148
     13        6           0.000429398   -0.000620414    0.000224675
     14        6          -0.000473800    0.000641432   -0.000267502
     15        7           0.000169884    0.000044157   -0.000476900
     16        6           0.000571787   -0.000206155    0.000056330
     17        6          -0.000718620   -0.000092664    0.000032975
     18        8          -0.000197045   -0.000161356    0.000055730
     19        1           0.000137084    0.000288925   -0.000004163
     20        1           0.000019110   -0.000100813   -0.000003766
     21        1          -0.000129335    0.000048711    0.000014189
     22        1           0.000044678   -0.000248376    0.000095877
     23        1           0.000309240    0.000086383    0.000040324
     24        1          -0.000033388    0.000080331   -0.000032840
     25        1           0.000033934   -0.000432514    0.000170027
     26        1          -0.000114183    0.000073921    0.000275096
     27        1          -0.000093896   -0.000111215   -0.000129837
     28        1          -0.000311533    0.000078996   -0.000016593
     29        1           0.000057064    0.000060698    0.000020862
     30        1           0.000495405    0.000001437    0.000084396
     31        1           0.000003010    0.000040964    0.000093384
     32        1           0.000032373   -0.000039210   -0.000034944
 -------------------------------------------------------------------
 Cartesian Forces:  Max     0.000868075 RMS     0.000267908
 Leave Link  716 at Mon Sep 28 08:23:53 2020, MaxMem=  2147483648 cpu:               0.1 elap:               0.0
 (Enter /prod/apps/gaussian/g16b1/l103.exe)

 GradGradGradGradGradGradGradGradGradGradGradGradGradGradGradGradGradGrad
 Berny optimization.
 FormGI is forming the generalized inverse of G from B-inverse, IUseBI=4.
 GSVD:  received Info=                   1 from GESDD.
 Internal  Forces:  Max     0.000483706 RMS     0.000126170
 Search for a local minimum.
 Step number   1 out of a maximum of  170
 All quantities printed in internal units (Hartrees-Bohrs-Radians)
 RMS Force = .12617D-03 SwitMx=.10000D-02 MixMth= 2
 Mixed Optimization -- En-DIIS/RFO-DIIS
 Second derivative matrix not updated -- first step.
 ITU=  0
     Eigenvalues ---    0.00684   0.00715   0.01174   0.01244   0.01776
     Eigenvalues ---    0.01851   0.01889   0.01966   0.02018   0.02136
     Eigenvalues ---    0.02145   0.02153   0.02159   0.02165   0.02166
     Eigenvalues ---    0.02167   0.02169   0.02173   0.02262   0.02267
     Eigenvalues ---    0.02283   0.02319   0.02379   0.07176   0.07216
     Eigenvalues ---    0.07748   0.07767   0.10668   0.11347   0.12399
     Eigenvalues ---    0.13953   0.15984   0.15996   0.15999   0.15999
     Eigenvalues ---    0.15999   0.15999   0.16000   0.16000   0.16000
     Eigenvalues ---    0.16000   0.16000   0.16000   0.16000   0.18053
     Eigenvalues ---    0.19605   0.19858   0.22000   0.22000   0.22664
     Eigenvalues ---    0.23363   0.23501   0.24066   0.24960   0.24997
     Eigenvalues ---    0.25000   0.25000   0.34150   0.34296   0.34701
     Eigenvalues ---    0.34740   0.34797   0.34843   0.35013   0.35054
     Eigenvalues ---    0.35289   0.35487   0.35512   0.35544   0.35653
[...]
      3          7           0       -1.935476   -1.278524    0.374521
      4          6           0       -0.569204   -1.229874    0.188540
      5          7           0        0.193003   -2.327718   -0.054264
      6          7           0        1.481990   -2.059642   -0.140816
      7          6           0        0.331227   -0.183697    0.245988
      8          7           0        1.548993   -0.753498    0.031623
      9          6           0        2.822662   -0.094035   -0.000021
     10          6           0        2.890886    1.216558   -0.469714
     11          6           0        4.129991    1.853963   -0.490372
     12          6           0        5.274450    1.182102   -0.056844
     13          6           0        5.183825   -0.133271    0.404662
     14          6           0        3.952053   -0.782558    0.441988
     15          7           0       -2.593373    1.196525    0.476795
     16          6           0       -2.776868    2.481390   -0.225437
     17          6           0       -3.081442    1.181236    1.867894
     18          8           0       -4.296462   -0.712359   -0.168148
     19          1           0       -2.344066   -2.215401    0.386477
     20          1           0        0.188869    0.862847    0.443763
     21          1           0        2.002831    1.722507   -0.827963
     22          1           0        4.197927    2.872192   -0.855514
     23          1           0        6.235961    1.682734   -0.078152
     24          1           0        6.070388   -0.654518    0.746776
     25          1           0        3.860877   -1.795233    0.812719
     26          1           0       -2.341422    2.415241   -1.219739
     27          1           0       -2.241617    3.236150    0.351954
     28          1           0       -3.831391    2.767653   -0.297657
     29          1           0       -2.836388    0.224794    2.328943
     30          1           0       -4.160803    1.356129    1.925806
     31          1           0       -2.556184    1.974534    2.401363
     32          1           0       -0.118718   -3.296382   -0.161771
 ---------------------------------------------------------------------
 Rotational constants (GHZ):           0.8608092           0.1902251           0.1699774
 Leave Link  202 at Mon Sep 28 08:37:15 2020, MaxMem=   262144000 cpu:               0.1 elap:               0.0
 (Enter /prod/apps/gaussian/g16b1/l301.exe)
 Standard basis: Aug-CC-pVDZ (5D, 7F)
 Ernie: Thresh=  0.10000D-02 Tol=  0.10000D-05 Strict=F.
 Ernie:  44 primitive shells out of 576 were deleted.
 There are   580 symmetry adapted cartesian basis functions of A   symmetry.
 There are   544 symmetry adapted basis functions of A   symmetry.
   544 basis functions,   966 primitive gaussians,   580 cartesian basis functions
    70 alpha electrons       70 beta electrons
       nuclear repulsion energy      1495.9430589488 Hartrees.
 IExCor=    0 DFT=F Ex=HF Corr=None ExCW=0 ScaHFX=  1.000000
 ScaDFX=  1.000000  1.000000  1.000000  1.000000 ScalE2=  1.000000  1.000000
 IRadAn=      5 IRanWt=     -1 IRanGd=            0 ICorTp=0 IEmpDi=  4
 NAtoms=   32 NActive=   32 NUniq=   32 SFac= 1.00D+00 NAtFMM=   60 NAOKFM=F Big=F
 Integral buffers will be    131072 words long.
 Raffenetti 1 integral format.
 Two-electron integral symmetry is turned on.
 Leave Link  301 at Mon Sep 28 08:37:16 2020, MaxMem=   262144000 cpu:               0.2 elap:               0.1
 (Enter /prod/apps/gaussian/g16b1/l302.exe)
 NPDir=0 NMtPBC=     1 NCelOv=     1 NCel=       1 NClECP=     1 NCelD=      1
         NCelK=      1 NCelE2=     1 NClLst=     1 CellRange=     0.0.
 One-electron integrals computed using PRISM.
 One-electron integral symmetry used in STVInt
 NBasis=   544 RedAO= T EigKep=  1.97D-06  NBF=   544
 NBsUse=   544 1.00D-06 EigRej= -1.00D+00 NBFU=   544
 Leave Link  302 at Mon Sep 28 08:37:16 2020, MaxMem=   262144000 cpu:               1.7 elap:               0.4
 (Enter /prod/apps/gaussian/g16b1/l303.exe)
 DipDrv:  MaxL=1.
 Leave Link  303 at Mon Sep 28 08:37:16 2020, MaxMem=   262144000 cpu:               0.4 elap:               0.1
 (Enter /prod/apps/gaussian/g16b1/l401.exe)
 ExpMin= 2.97D-02 ExpMax= 1.11D+05 ExpMxC= 1.07D+03 IAcc=3 IRadAn=         5 AccDes= 0.00D+00
 Harris functional with IExCor=  205 and IRadAn=       5 diagonalized for initial guess.
 HarFok:  IExCor=  205 AccDes= 0.00D+00 IRadAn=         5 IDoV= 1 UseB2=F ITyADJ=14
 ICtDFT=  3500011 ScaDFX=  1.000000  1.000000  1.000000  1.000000
 FoFCou: FMM=F IPFlag=           0 FMFlag=      100000 FMFlg1=           0
         NFxFlg=           0 DoJE=T BraDBF=F KetDBF=T FulRan=T
         wScrn=  0.000000 ICntrl=       500 IOpCl=  0 I1Cent=   200000004 NGrid=           0
         NMat0=    1 NMatS0=      1 NMatT0=    0 NMatD0=    1 NMtDS0=    0 NMtDT0=    0
 Petite list used in FoFCou.
 Harris En= -1206.63975087485    
 JPrj=0 DoOrth=F DoCkMO=F.
 Leave Link  401 at Mon Sep 28 08:37:19 2020, MaxMem=   262144000 cpu:              13.2 elap:               3.3
 (Enter /prod/apps/gaussian/g16b1/l502.exe)
 Integral symmetry usage will be decided dynamically.
 Closed shell SCF:
 Using DIIS extrapolation, IDIIS=  1040.
 NGot=   262144000 LenX=   261462304 LenY=   261125324
 Requested convergence on RMS density matrix=1.00D-08 within2000 cycles.
 Requested convergence on MAX density matrix=1.00D-06.
 Requested convergence on             energy=1.00D-06.
 No special actions if energy rises.

 Cycle   1  Pass 1  IDiag  1:
 FoFJK:  IHMeth= 1 ICntrl=       0 DoSepK=F KAlg= 0 I1Cent=           0 FoldK=F
 IRaf= 920000000 NMat=       1 IRICut=       1 DoRegI=T DoRafI=F ISym2E= 0 IDoP0=0 IntGTp=1.
 FoFCou: FMM=F IPFlag=           0 FMFlag=      100000 FMFlg1=           0
         NFxFlg=           0 DoJE=F BraDBF=F KetDBF=F FulRan=T
         wScrn=  0.000000 ICntrl=         0 IOpCl=  0 I1Cent=           0 NGrid=           0
         NMat0=    1 NMatS0=      1 NMatT0=    0 NMatD0=    1 NMtDS0=    0 NMtDT0=    0
 Symmetry not used in FoFCou.
 E= -1205.33279622443    
 DIIS: error= 1.99D-02 at cycle   1 NSaved=   1.
 NSaved= 1 IEnMin= 1 EnMin= -1205.33279622443     IErMin= 1 ErrMin= 1.99D-02
 ErrMax= 1.99D-02  0.00D+00 EMaxC= 1.00D-01 BMatC= 1.04D+00 BMatP= 1.04D+00
 IDIUse=3 WtCom= 8.01D-01 WtEn= 1.99D-01
 Coeff-Com:  0.100D+01
 Coeff-En:   0.100D+01
 Coeff:      0.100D+01
 Gap=     0.652 Goal=   None    Shift=    0.000
 GapD=    0.652 DampG=2.000 DampE=0.500 DampFc=1.0000 IDamp=-1.
 RMSDP=4.48D-02 MaxDP=4.78D+00              OVMax= 2.08D-01

 Cycle   2  Pass 1  IDiag  1:
 E= -1205.84642222885     Delta-E=       -0.513626004417 Rises=F Damp=F
 DIIS: error= 1.47D-02 at cycle   2 NSaved=   2.
 NSaved= 2 IEnMin= 2 EnMin= -1205.84642222885     IErMin= 2 ErrMin= 1.47D-02
 ErrMax= 1.47D-02  0.00D+00 EMaxC= 1.00D-01 BMatC= 2.57D-01 BMatP= 1.04D+00
 IDIUse=3 WtCom= 8.53D-01 WtEn= 1.47D-01
 Coeff-Com:  0.293D+00 0.707D+00
 Coeff-En:   0.000D+00 0.100D+01
 Coeff:      0.250D+00 0.750D+00
 Gap=     0.423 Goal=   None    Shift=    0.000
 RMSDP=3.91D-03 MaxDP=4.39D-01 DE=-5.14D-01 OVMax= 1.00D-01

 Cycle   3  Pass 1  IDiag  1:
 E= -1206.03897149049     Delta-E=       -0.192549261642 Rises=F Damp=F
 DIIS: error= 3.54D-03 at cycle   3 NSaved=   3.
 NSaved= 3 IEnMin= 3 EnMin= -1206.03897149049     IErMin= 3 ErrMin= 3.54D-03
 ErrMax= 3.54D-03  0.00D+00 EMaxC= 1.00D-01 BMatC= 2.77D-02 BMatP= 2.57D-01
 IDIUse=3 WtCom= 9.65D-01 WtEn= 3.54D-02
 Coeff-Com: -0.153D-01 0.222D+00 0.793D+00
 Coeff-En:   0.000D+00 0.000D+00 0.100D+01
 Coeff:     -0.147D-01 0.214D+00 0.801D+00
 Gap=     0.386 Goal=   None    Shift=    0.000
 RMSDP=1.37D-03 MaxDP=1.02D-01 DE=-1.93D-01 OVMax= 2.84D-02

 Cycle   4  Pass 1  IDiag  1:
 E= -1206.06050875477     Delta-E=       -0.021537264287 Rises=F Damp=F
 DIIS: error= 5.54D-04 at cycle   4 NSaved=   4.
 NSaved= 4 IEnMin= 4 EnMin= -1206.06050875477     IErMin= 4 ErrMin= 5.54D-04
 ErrMax= 5.54D-04  0.00D+00 EMaxC= 1.00D-01 BMatC= 9.78D-04 BMatP= 2.77D-02
 IDIUse=3 WtCom= 9.94D-01 WtEn= 5.54D-03
 Coeff-Com: -0.150D-01 0.294D-01 0.212D+00 0.774D+00
 Coeff-En:   0.000D+00 0.000D+00 0.000D+00 0.100D+01
 Coeff:     -0.149D-01 0.292D-01 0.211D+00 0.775D+00
 Gap=     0.379 Goal=   None    Shift=    0.000
 RMSDP=4.86D-04 MaxDP=7.75D-02 DE=-2.15D-02 OVMax= 5.96D-03

 Cycle   5  Pass 1  IDiag  1:
 E= -1206.06154728606     Delta-E=       -0.001038531285 Rises=F Damp=F
 DIIS: error= 1.94D-04 at cycle   5 NSaved=   5.
 NSaved= 5 IEnMin= 5 EnMin= -1206.06154728606     IErMin= 5 ErrMin= 1.94D-04
 ErrMax= 1.94D-04  0.00D+00 EMaxC= 1.00D-01 BMatC= 8.20D-05 BMatP= 9.78D-04
 IDIUse=3 WtCom= 9.98D-01 WtEn= 1.94D-03
 Coeff-Com: -0.424D-03-0.142D-01-0.472D-01 0.102D+00 0.959D+00
 Coeff-En:   0.000D+00 0.000D+00 0.000D+00 0.000D+00 0.100D+01
 Coeff:     -0.423D-03-0.142D-01-0.471D-01 0.102D+00 0.960D+00
 Gap=     0.381 Goal=   None    Shift=    0.000
 RMSDP=1.02D-04 MaxDP=7.29D-03 DE=-1.04D-03 OVMax= 4.26D-03

 Cycle   6  Pass 1  IDiag  1:
 E= -1206.06168641563     Delta-E=       -0.000139129566 Rises=F Damp=F
 DIIS: error= 1.14D-04 at cycle   6 NSaved=   6.
 NSaved= 6 IEnMin= 6 EnMin= -1206.06168641563     IErMin= 6 ErrMin= 1.14D-04
 ErrMax= 1.14D-04  0.00D+00 EMaxC= 1.00D-01 BMatC= 1.13D-05 BMatP= 8.20D-05
 IDIUse=3 WtCom= 9.99D-01 WtEn= 1.14D-03
 Coeff-Com:  0.161D-02-0.665D-02-0.355D-01-0.642D-01 0.174D+00 0.931D+00
 Coeff-En:   0.000D+00 0.000D+00 0.000D+00 0.000D+00 0.000D+00 0.100D+01
 Coeff:      0.160D-02-0.664D-02-0.354D-01-0.641D-01 0.173D+00 0.931D+00
 Gap=     0.381 Goal=   None    Shift=    0.000
 RMSDP=4.62D-05 MaxDP=5.17D-03 DE=-1.39D-04 OVMax= 1.61D-03

 Cycle   7  Pass 1  IDiag  1:
 E= -1206.06171108244     Delta-E=       -0.000024666812 Rises=F Damp=F
 DIIS: error= 3.47D-05 at cycle   7 NSaved=   7.
 NSaved= 7 IEnMin= 7 EnMin= -1206.06171108244     IErMin= 7 ErrMin= 3.47D-05
 ErrMax= 3.47D-05  0.00D+00 EMaxC= 1.00D-01 BMatC= 1.92D-06 BMatP= 1.13D-05
 IDIUse=1 WtCom= 1.00D+00 WtEn= 0.00D+00
 Coeff-Com:  0.353D-03 0.457D-03-0.580D-03-0.226D-01-0.922D-01 0.160D+00
 Coeff-Com:  0.954D+00
 Coeff:      0.353D-03 0.457D-03-0.580D-03-0.226D-01-0.922D-01 0.160D+00
 Coeff:      0.954D+00
 Gap=     0.382 Goal=   None    Shift=    0.000
 RMSDP=2.18D-05 MaxDP=1.83D-03 DE=-2.47D-05 OVMax= 1.14D-03

 Cycle   8  Pass 1  IDiag  1:
 E= -1206.06171644316     Delta-E=       -0.000005360724 Rises=F Damp=F
 DIIS: error= 3.10D-05 at cycle   8 NSaved=   8.
 NSaved= 8 IEnMin= 8 EnMin= -1206.06171644316     IErMin= 8 ErrMin= 3.10D-05
 ErrMax= 3.10D-05  0.00D+00 EMaxC= 1.00D-01 BMatC= 4.76D-07 BMatP= 1.92D-06
 IDIUse=1 WtCom= 1.00D+00 WtEn= 0.00D+00
 Coeff-Com: -0.253D-03 0.144D-02 0.731D-02 0.105D-01-0.539D-01-0.161D+00
 Coeff-Com:  0.163D+00 0.103D+01
 Coeff:     -0.253D-03 0.144D-02 0.731D-02 0.105D-01-0.539D-01-0.161D+00
 Coeff:      0.163D+00 0.103D+01
 Gap=     0.382 Goal=   None    Shift=    0.000
 RMSDP=1.36D-05 MaxDP=1.73D-03 DE=-5.36D-06 OVMax= 6.56D-04

 Cycle   9  Pass 1  IDiag  1:
 E= -1206.06171815522     Delta-E=       -0.000001712060 Rises=F Damp=F
 DIIS: error= 1.32D-05 at cycle   9 NSaved=   9.
 NSaved= 9 IEnMin= 9 EnMin= -1206.06171815522     IErMin= 9 ErrMin= 1.32D-05
 ErrMax= 1.32D-05  0.00D+00 EMaxC= 1.00D-01 BMatC= 1.07D-07 BMatP= 4.76D-07
 IDIUse=1 WtCom= 1.00D+00 WtEn= 0.00D+00
 Coeff-Com: -0.132D-03 0.191D-03 0.162D-02 0.779D-02 0.924D-02-0.641D-01
 Coeff-Com: -0.201D+00 0.188D+00 0.106D+01
 Coeff:     -0.132D-03 0.191D-03 0.162D-02 0.779D-02 0.924D-02-0.641D-01
 Coeff:     -0.201D+00 0.188D+00 0.106D+01
 Gap=     0.382 Goal=   None    Shift=    0.000
 RMSDP=8.62D-06 MaxDP=1.03D-03 DE=-1.71D-06 OVMax= 4.54D-04

 Cycle  10  Pass 1  IDiag  1:
 E= -1206.06171863797     Delta-E=       -0.000000482749 Rises=F Damp=F
 DIIS: error= 7.50D-06 at cycle  10 NSaved=  10.
 NSaved=10 IEnMin=10 EnMin= -1206.06171863797     IErMin=10 ErrMin= 7.50D-06
 ErrMax= 7.50D-06  0.00D+00 EMaxC= 1.00D-01 BMatC= 1.76D-08 BMatP= 1.07D-07
 IDIUse=1 WtCom= 1.00D+00 WtEn= 0.00D+00
 Coeff-Com:  0.560D-04-0.280D-03-0.148D-02-0.267D-02 0.701D-02 0.393D-01
 Coeff-Com: -0.391D-02-0.214D+00-0.186D+00 0.136D+01
 Coeff:      0.560D-04-0.280D-03-0.148D-02-0.267D-02 0.701D-02 0.393D-01
 Coeff:     -0.391D-02-0.214D+00-0.186D+00 0.136D+01
 Gap=     0.382 Goal=   None    Shift=    0.000
 RMSDP=4.47D-06 MaxDP=3.40D-04 DE=-4.83D-07 OVMax= 2.43D-04

 Cycle  11  Pass 1  IDiag  1:
 E= -1206.06171874598     Delta-E=       -0.000000108008 Rises=F Damp=F
 DIIS: error= 2.10D-06 at cycle  11 NSaved=  11.
 NSaved=11 IEnMin=11 EnMin= -1206.06171874598     IErMin=11 ErrMin= 2.10D-06
 ErrMax= 2.10D-06  0.00D+00 EMaxC= 1.00D-01 BMatC= 2.80D-09 BMatP= 1.76D-08
 IDIUse=1 WtCom= 1.00D+00 WtEn= 0.00D+00
 Coeff-Com:  0.328D-04-0.819D-04-0.506D-03-0.180D-02-0.803D-03 0.179D-01
 Coeff-Com:  0.383D-01-0.601D-01-0.241D+00 0.202D+00 0.105D+01
 Coeff:      0.328D-04-0.819D-04-0.506D-03-0.180D-02-0.803D-03 0.179D-01
 Coeff:      0.383D-01-0.601D-01-0.241D+00 0.202D+00 0.105D+01
 Gap=     0.382 Goal=   None    Shift=    0.000
 RMSDP=1.47D-06 MaxDP=7.85D-05 DE=-1.08D-07 OVMax= 8.72D-05

 Cycle  12  Pass 1  IDiag  1:
 E= -1206.06171875789     Delta-E=       -0.000000011908 Rises=F Damp=F
 DIIS: error= 5.94D-07 at cycle  12 NSaved=  12.
 NSaved=12 IEnMin=12 EnMin= -1206.06171875789     IErMin=12 ErrMin= 5.94D-07
 ErrMax= 5.94D-07  0.00D+00 EMaxC= 1.00D-01 BMatC= 2.41D-10 BMatP= 2.80D-09
 IDIUse=1 WtCom= 1.00D+00 WtEn= 0.00D+00
 Coeff-Com: -0.667D-05 0.305D-04 0.183D-03 0.364D-03-0.830D-03-0.545D-02
 Coeff-Com: -0.166D-02 0.292D-01 0.215D-01-0.158D+00-0.147D-01 0.113D+01
 Coeff:     -0.667D-05 0.305D-04 0.183D-03 0.364D-03-0.830D-03-0.545D-02
 Coeff:     -0.166D-02 0.292D-01 0.215D-01-0.158D+00-0.147D-01 0.113D+01
 Gap=     0.382 Goal=   None    Shift=    0.000
 RMSDP=5.37D-07 MaxDP=6.56D-05 DE=-1.19D-08 OVMax= 2.13D-05

 Cycle  13  Pass 1  IDiag  1:
 E= -1206.06171875878     Delta-E=       -0.000000000896 Rises=F Damp=F
 DIIS: error= 1.55D-07 at cycle  13 NSaved=  13.
 NSaved=13 IEnMin=13 EnMin= -1206.06171875878     IErMin=13 ErrMin= 1.55D-07
 ErrMax= 1.55D-07  0.00D+00 EMaxC= 1.00D-01 BMatC= 3.71D-11 BMatP= 2.41D-10
 IDIUse=1 WtCom= 1.00D+00 WtEn= 0.00D+00
 Coeff-Com: -0.385D-05 0.108D-04 0.714D-04 0.227D-03 0.321D-04-0.236D-02
 Coeff-Com: -0.425D-02 0.114D-01 0.233D-01-0.377D-01-0.107D+00 0.147D+00
 Coeff-Com:  0.969D+00
 Coeff:     -0.385D-05 0.108D-04 0.714D-04 0.227D-03 0.321D-04-0.236D-02
 Coeff:     -0.425D-02 0.114D-01 0.233D-01-0.377D-01-0.107D+00 0.147D+00
 Coeff:      0.969D+00
 Gap=     0.382 Goal=   None    Shift=    0.000
 RMSDP=1.02D-07 MaxDP=6.83D-06 DE=-8.96D-10 OVMax= 4.85D-06

 Cycle  14  Pass 1  IDiag  1:
 E= -1206.06171875885     Delta-E=       -0.000000000062 Rises=F Damp=F
 DIIS: error= 7.49D-08 at cycle  14 NSaved=  14.
 NSaved=14 IEnMin=14 EnMin= -1206.06171875885     IErMin=14 ErrMin= 7.49D-08
 ErrMax= 7.49D-08  0.00D+00 EMaxC= 1.00D-01 BMatC= 1.08D-11 BMatP= 3.71D-11
 IDIUse=1 WtCom= 1.00D+00 WtEn= 0.00D+00
 Coeff-Com:  0.129D-05-0.642D-05-0.355D-04-0.800D-04 0.179D-03 0.113D-02
 Coeff-Com: -0.774D-04-0.500D-02-0.611D-02 0.379D-01-0.417D-02-0.251D+00
 Coeff-Com:  0.818D-01 0.114D+01
 Coeff:      0.129D-05-0.642D-05-0.355D-04-0.800D-04 0.179D-03 0.113D-02
 Coeff:     -0.774D-04-0.500D-02-0.611D-02 0.379D-01-0.417D-02-0.251D+00
 Coeff:      0.818D-01 0.114D+01
 Gap=     0.382 Goal=   None    Shift=    0.000
 RMSDP=5.12D-08 MaxDP=4.81D-06 DE=-6.18D-11 OVMax= 2.93D-06

 Cycle  15  Pass 1  IDiag  1:
 E= -1206.06171875893     Delta-E=       -0.000000000080 Rises=F Damp=F
 DIIS: error= 3.49D-08 at cycle  15 NSaved=  15.
 NSaved=15 IEnMin=15 EnMin= -1206.06171875893     IErMin=15 ErrMin= 3.49D-08
 ErrMax= 3.49D-08  0.00D+00 EMaxC= 1.00D-01 BMatC= 1.62D-12 BMatP= 1.08D-11
 IDIUse=1 WtCom= 1.00D+00 WtEn= 0.00D+00
 Coeff-Com:  0.821D-06-0.276D-05-0.161D-04-0.525D-04 0.203D-04 0.570D-03
 Coeff-Com:  0.595D-03-0.218D-02-0.601D-02 0.120D-01 0.173D-01-0.506D-01
 Coeff-Com: -0.135D+00 0.367D-01 0.113D+01
 Coeff:      0.821D-06-0.276D-05-0.161D-04-0.525D-04 0.203D-04 0.570D-03
 Coeff:      0.595D-03-0.218D-02-0.601D-02 0.120D-01 0.173D-01-0.506D-01
 Coeff:     -0.135D+00 0.367D-01 0.113D+01
 Gap=     0.382 Goal=   None    Shift=    0.000
 RMSDP=2.57D-08 MaxDP=3.14D-06 DE=-8.05D-11 OVMax= 1.76D-06

 Cycle  16  Pass 1  IDiag  1:
 E= -1206.06171875892     Delta-E=        0.000000000010 Rises=F Damp=F
 DIIS: error= 1.66D-08 at cycle  16 NSaved=  16.
 NSaved=16 IEnMin=15 EnMin= -1206.06171875893     IErMin=16 ErrMin= 1.66D-08
 ErrMax= 1.66D-08  0.00D+00 EMaxC= 1.00D-01 BMatC= 5.47D-13 BMatP= 1.62D-12
 IDIUse=1 WtCom= 1.00D+00 WtEn= 0.00D+00
 Coeff-Com: -0.746D-07 0.670D-06 0.375D-05 0.371D-05-0.316D-04-0.926D-04
 Coeff-Com:  0.101D-03 0.747D-03-0.432D-03-0.440D-02 0.374D-02 0.391D-01
 Coeff-Com: -0.460D-01-0.277D+00 0.359D+00 0.925D+00
 Coeff:     -0.746D-07 0.670D-06 0.375D-05 0.371D-05-0.316D-04-0.926D-04
 Coeff:      0.101D-03 0.747D-03-0.432D-03-0.440D-02 0.374D-02 0.391D-01
 Coeff:     -0.460D-01-0.277D+00 0.359D+00 0.925D+00
 Gap=     0.382 Goal=   None    Shift=    0.000
 RMSDP=1.17D-08 MaxDP=9.04D-07 DE= 1.05D-11 OVMax= 7.10D-07

 Cycle  17  Pass 1  IDiag  1:
 E= -1206.06171875894     Delta-E=       -0.000000000020 Rises=F Damp=F
 DIIS: error= 4.19D-09 at cycle  17 NSaved=  17.
 NSaved=17 IEnMin=17 EnMin= -1206.06171875894     IErMin=17 ErrMin= 4.19D-09
 ErrMax= 4.19D-09  0.00D+00 EMaxC= 1.00D-01 BMatC= 4.96D-14 BMatP= 5.47D-13
 IDIUse=1 WtCom= 1.00D+00 WtEn= 0.00D+00
 Coeff-Com: -0.143D-06 0.534D-06 0.314D-05 0.946D-05-0.605D-05-0.104D-03
 Coeff-Com: -0.121D-03 0.527D-03 0.812D-03-0.222D-02-0.298D-02 0.132D-01
 Coeff-Com:  0.234D-01-0.383D-01-0.131D+00 0.143D-01 0.112D+01
 Coeff:     -0.143D-06 0.534D-06 0.314D-05 0.946D-05-0.605D-05-0.104D-03
 Coeff:     -0.121D-03 0.527D-03 0.812D-03-0.222D-02-0.298D-02 0.132D-01
 Coeff:      0.234D-01-0.383D-01-0.131D+00 0.143D-01 0.112D+01
 Gap=     0.382 Goal=   None    Shift=    0.000
 RMSDP=5.44D-09 MaxDP=8.79D-07 DE=-2.05D-11 OVMax= 2.94D-07

 SCF Done:  E(RHF) =  -1206.06171876     A.U. after   17 cycles
            NFock= 17  Conv=0.54D-08     -V/T= 2.0013
 KE= 1.204514487546D+03 PE=-5.806968393013D+03 EE= 1.900449127759D+03
 Leave Link  502 at Mon Sep 28 08:50:38 2020, MaxMem=   262144000 cpu:            3192.5 elap:             798.3
 (Enter /prod/apps/gaussian/g16b1/l801.exe)
 ExpMin= 2.97D-02 ExpMax= 1.11D+05 ExpMxC= 1.07D+03 IAcc=3 IRadAn=         5 AccDes= 0.00D+00
 HarFok:  IExCor=  205 AccDes= 0.00D+00 IRadAn=         5 IDoV=-2 UseB2=F ITyADJ=14
 ICtDFT= 12500011 ScaDFX=  1.000000  1.000000  1.000000  1.000000
 GSVD:  LWork=        -660 too small for GESVD, short by        2750 words or        2750 for optimal perf.
 Largest valence mixing into a core orbital is  3.54D-04
 Largest core mixing into a valence orbital is  9.32D-05
 Range of M.O.s used for correlation:    23   544
 NBasis=   544 NAE=    70 NBE=    70 NFC=    22 NFV=     0
 NROrb=    522 NOA=    48 NOB=    48 NVA=   474 NVB=   474

 **** Warning!!: The largest alpha MO coefficient is  0.10348105D+03

 Leave Link  801 at Mon Sep 28 08:50:38 2020, MaxMem=   262144000 cpu:               1.0 elap:               0.3
 (Enter /prod/apps/gaussian/g16b1/l906.exe)
 FulOut=F Deriv=F AODrv=F NAtomX=    32
   MMem=           4  MDisk=          48 MDiskD=          48
  W3Min=    13196160 MinDsk=    13694138 NBas6D=         580
 NBas2D=      169279    NTT=      168490    LW2=     2000000
    MDV=   260081928 MDiskM=        6180 NBas2p=      151382
 Disk-based method using OVN memory for 48 occupieds at a time.
 Estimated scratch disk usage= 10592246592 words.
 IMap=   1   2   3   4   5   6   7   8   9  10  11  12  13  14  15  16  17  18  19  20
 IMap=  21  22  23  24  25  26  27  28  29  30  31  32  33  34  35  36  37  38  39  40
 IMap=  41  42  43  44  45  46  47  48
 Actual    scratch disk usage= 10359750464 words.
 JobTyp=1 Pass  1:  I=   1 to  48 NPSUse=  4 ParTrn=T ParDer=T DoDerP=F.
Erroneous write. Write -1 instead of 3538032.
fd = 4
orig len = 8384512 left = 3538032
g_write
