 Entering Gaussian System, Link 0=g16
 Initial command:
 /prod/apps/gaussian/g16b1/l1.exe "/tmp/ubafar01/1462024/Gau-161068.inp" -scrdir="/tmp/ubafar01/1462024/"
 Entering Link 1 = /prod/apps/gaussian/g16b1/l1.exe PID=    161069.
  
 Copyright (c) 1988-2017, Gaussian, Inc.  All Rights Reserved.
  
 This is part of the Gaussian(R) 16 program.  It is based on
 the Gaussian(R) 09 system (copyright 2009, Gaussian, Inc.),
 the Gaussian(R) 03 system (copyright 2003, Gaussian, Inc.),
 the Gaussian(R) 98 system (copyright 1998, Gaussian, Inc.),
 the Gaussian(R) 94 system (copyright 1995, Gaussian, Inc.),
 the Gaussian 92(TM) system (copyright 1992, Gaussian, Inc.),
 the Gaussian 90(TM) system (copyright 1990, Gaussian, Inc.),
 the Gaussian 88(TM) system (copyright 1988, Gaussian, Inc.),
 the Gaussian 86(TM) system (copyright 1986, Carnegie Mellon
 University), and the Gaussian 82(TM) system (copyright 1983,
 Carnegie Mellon University). Gaussian is a federally registered
 trademark of Gaussian, Inc.
  
 This software contains proprietary and confidential information,
 including trade secrets, belonging to Gaussian, Inc.
  
 This software is provided under written license and may be
 used, copied, transmitted, or stored only in accord with that
 written license.
  
 The following legend is applicable only to US Government
 contracts under FAR:
  
                    RESTRICTED RIGHTS LEGEND
  
 Use, reproduction and disclosure by the US Government is
 subject to restrictions as set forth in subparagraphs (a)
 and (c) of the Commercial Computer Software - Restricted
 Rights clause in FAR 52.227-19.
  
 Gaussian, Inc.
 340 Quinnipiac St., Bldg. 40, Wallingford CT 06492
  
  
 ---------------------------------------------------------------
 Warning -- This program may not be used in any manner that
 competes with the business of Gaussian, Inc. or will provide
 assistance to any competitor of Gaussian, Inc.  The licensee
 of this program is prohibited from giving any competitor of
 Gaussian, Inc. access to this program.  By using this program,
 the user acknowledges that Gaussian, Inc. is engaged in the
 business of creating and licensing software in the field of
 computational chemistry and represents and warrants to the
 licensee that it is not a competitor of Gaussian, Inc. and that
 it will not use this program in any manner prohibited above.
 ---------------------------------------------------------------
  

 Cite this work as:
 Gaussian 16, Revision B.01,
 M. J. Frisch, G. W. Trucks, H. B. Schlegel, G. E. Scuseria, 
 M. A. Robb, J. R. Cheeseman, G. Scalmani, V. Barone, 
 G. A. Petersson, H. Nakatsuji, X. Li, M. Caricato, A. V. Marenich, 
 J. Bloino, B. G. Janesko, R. Gomperts, B. Mennucci, H. P. Hratchian, 
 J. V. Ortiz, A. F. Izmaylov, J. L. Sonnenberg, D. Williams-Young, 
 F. Ding, F. Lipparini, F. Egidi, J. Goings, B. Peng, A. Petrone, 
 T. Henderson, D. Ranasinghe, V. G. Zakrzewski, J. Gao, N. Rega, 
 G. Zheng, W. Liang, M. Hada, M. Ehara, K. Toyota, R. Fukuda, 
 J. Hasegawa, M. Ishida, T. Nakajima, Y. Honda, O. Kitao, H. Nakai, 
 T. Vreven, K. Throssell, J. A. Montgomery, Jr., J. E. Peralta, 
 F. Ogliaro, M. J. Bearpark, J. J. Heyd, E. N. Brothers, K. N. Kudin, 
 V. N. Staroverov, T. A. Keith, R. Kobayashi, J. Normand, 
 K. Raghavachari, A. P. Rendell, J. C. Burant, S. S. Iyengar, 
 J. Tomasi, M. Cossi, J. M. Millam, M. Klene, C. Adamo, R. Cammi, 
 J. W. Ochterski, R. L. Martin, K. Morokuma, O. Farkas, 
 J. B. Foresman, and D. J. Fox, Gaussian, Inc., Wallingford CT, 2016.
 
 ******************************************
 Gaussian 16:  ES64L-G16RevB.01 20-Dec-2017
                28-Sep-2020 
 ******************************************
 %nproc=4
 Will use up to    4 processors via shared memory.
 %Chk=SM46_m3.b.2.pdb.xyz.mst.b.w.chk
 %mem=16GB
 ----------------------------------------------------------------------
 #p b3lyp/6-31G(d) opt freq NoSymm scf=(MaxCycle=2000,NoVarAcc,NoIncFoc
 k) scrf=(iefpcm,read,solvent=water)
 ----------------------------------------------------------------------
 1/18=20,19=15,26=3,38=1,40=2/1,3;
 2/9=110,12=2,15=1,17=6,18=5,40=1/2;
 3/5=1,6=6,7=1,11=2,25=1,30=1,70=2203,71=1,72=1,74=-5/1,2,3;
 4//1;
 5/5=100002,7=2000,38=1,53=1/2;
 6/7=2,8=2,9=2,10=2,28=1/1;
 7/30=1/1,2,3,16;
 1/18=20,19=15,26=3/3(2);
 2/9=110,15=1/2;
 99//99;
 2/9=110,15=1/2;
 3/5=1,6=6,7=1,11=2,25=1,30=1,70=2205,71=1,72=1,74=-5/1,2,3;
 4/5=5,16=3,69=1/1;
 5/5=100002,7=2000,38=1,53=1/2;
 7/30=1/1,2,3,16;
 1/18=20,19=15,26=3/3(-5);
 2/9=110,15=1/2;
 6/7=2,8=2,9=2,10=2,19=2,28=1/1;
 99/9=1/99;
 Leave Link    1 at Mon Sep 28 08:22:33 2020, MaxMem=  2147483648 cpu:               0.1 elap:               0.0
 (Enter /prod/apps/gaussian/g16b1/l101.exe)
 -------------------
 SM46_m3.b.2.pdb.xyz
 -------------------
 Symbolic Z-matrix:
 Charge =  2 Multiplicity = 1
 O                    -2.292    -0.311     1.805 
 S                    -2.818     0.671     0.881 
 N                    -1.774     0.832    -0.411 
 C                    -0.489     0.29     -0.355 
 N                    -0.216    -1.027    -0.539 
 N                     1.063    -1.296    -0.484 
 C                     0.737     0.889    -0.176 
 N                     1.64     -0.123    -0.274 
 C                     3.068    -0.046    -0.156 
 C                     3.711     1.146    -0.483 
 C                     5.097     1.211    -0.359 
 C                     5.818     0.097     0.076 
 C                     5.153    -1.089     0.394 
 C                     3.767    -1.17      0.285 
 N                    -4.238    -0.187     0.054 
 C                    -4.953     0.712    -0.912 
 C                    -3.845    -1.504    -0.547 
 O                    -3.374     1.953     1.26 
 H                    -1.846     1.752    -0.861 
 H                     1.005     1.912     0.02 
 H                     3.15      2.       -0.843 
 H                     5.611     2.131    -0.612 
 H                     6.897     0.154     0.168 
 H                     5.71     -1.953     0.737 
 H                     3.234    -2.076     0.54 
 H                    -5.22      1.63     -0.397 
 H                    -5.847     0.182    -1.235 
 H                    -4.301     0.904    -1.761 
 H                    -3.269    -2.063     0.187 
 H                    -3.272    -1.317    -1.452 
 H                    -4.768    -2.032    -0.781 
 H                    -4.874    -0.375     0.852 
 H                    -0.88     -1.792    -0.7 
 
 ITRead=  0  0  0  0  0  0  0  0  0  0  0  0  0  0  0  0  0  0  0  0
 ITRead=  0  0  0  0  0  0  0  0  0  0  0  0  0
 MicOpt= -1 -1 -1 -1 -1 -1 -1 -1 -1 -1 -1 -1 -1 -1 -1 -1 -1 -1 -1 -1
 MicOpt= -1 -1 -1 -1 -1 -1 -1 -1 -1 -1 -1 -1 -1
 NAtoms=     33 NQM=       33 NQMF=       0 NMMI=      0 NMMIF=      0
                NMic=       0 NMicF=      0.
                    Isotopes and Nuclear Properties:
 (Nuclear quadrupole moments (NQMom) in fm**2, nuclear magnetic moments (NMagM)
  in nuclear magnetons)

  Atom         1           2           3           4           5           6           7           8           9          10
 IAtWgt=          16          32          14          12          14          14          12          14          12          12
 AtmWgt=  15.9949146  31.9720718  14.0030740  12.0000000  14.0030740  14.0030740  12.0000000  14.0030740  12.0000000  12.0000000
 NucSpn=           0           0           2           0           2           2           0           2           0           0
 AtZEff=  -0.0000000  -0.0000000  -0.0000000  -0.0000000  -0.0000000  -0.0000000  -0.0000000  -0.0000000  -0.0000000  -0.0000000
 NQMom=    0.0000000   0.0000000   2.0440000   0.0000000   2.0440000   2.0440000   0.0000000   2.0440000   0.0000000   0.0000000
 NMagM=    0.0000000   0.0000000   0.4037610   0.0000000   0.4037610   0.4037610   0.0000000   0.4037610   0.0000000   0.0000000
 AtZNuc=   8.0000000  16.0000000   7.0000000   6.0000000   7.0000000   7.0000000   6.0000000   7.0000000   6.0000000   6.0000000

  Atom        11          12          13          14          15          16          17          18          19          20
 IAtWgt=          12          12          12          12          14          12          12          16           1           1
 AtmWgt=  12.0000000  12.0000000  12.0000000  12.0000000  14.0030740  12.0000000  12.0000000  15.9949146   1.0078250   1.0078250
 NucSpn=           0           0           0           0           2           0           0           0           1           1
 AtZEff=  -0.0000000  -0.0000000  -0.0000000  -0.0000000  -0.0000000  -0.0000000  -0.0000000  -0.0000000  -0.0000000  -0.0000000
 NQMom=    0.0000000   0.0000000   0.0000000   0.0000000   2.0440000   0.0000000   0.0000000   0.0000000   0.0000000   0.0000000
 NMagM=    0.0000000   0.0000000   0.0000000   0.0000000   0.4037610   0.0000000   0.0000000   0.0000000   2.7928460   2.7928460
 AtZNuc=   6.0000000   6.0000000   6.0000000   6.0000000   7.0000000   6.0000000   6.0000000   8.0000000   1.0000000   1.0000000

  Atom        21          22          23          24          25          26          27          28          29          30
 IAtWgt=           1           1           1           1           1           1           1           1           1           1
 AtmWgt=   1.0078250   1.0078250   1.0078250   1.0078250   1.0078250   1.0078250   1.0078250   1.0078250   1.0078250   1.0078250
 NucSpn=           1           1           1           1           1           1           1           1           1           1
 AtZEff=  -0.0000000  -0.0000000  -0.0000000  -0.0000000  -0.0000000  -0.0000000  -0.0000000  -0.0000000  -0.0000000  -0.0000000
 NQMom=    0.0000000   0.0000000   0.0000000   0.0000000   0.0000000   0.0000000   0.0000000   0.0000000   0.0000000   0.0000000
 NMagM=    2.7928460   2.7928460   2.7928460   2.7928460   2.7928460   2.7928460   2.7928460   2.7928460   2.7928460   2.7928460
 AtZNuc=   1.0000000   1.0000000   1.0000000   1.0000000   1.0000000   1.0000000   1.0000000   1.0000000   1.0000000   1.0000000

  Atom        31          32          33
 IAtWgt=           1           1           1
 AtmWgt=   1.0078250   1.0078250   1.0078250
 NucSpn=           1           1           1
 AtZEff=  -0.0000000  -0.0000000  -0.0000000
 NQMom=    0.0000000   0.0000000   0.0000000
 NMagM=    2.7928460   2.7928460   2.7928460
 AtZNuc=   1.0000000   1.0000000   1.0000000
 Leave Link  101 at Mon Sep 28 08:22:33 2020, MaxMem=  2147483648 cpu:               1.4 elap:               0.4
 (Enter /prod/apps/gaussian/g16b1/l103.exe)

 GradGradGradGradGradGradGradGradGradGradGradGradGradGradGradGradGradGrad
 Berny optimization.
 Initialization pass.
                           ----------------------------
                           !    Initial Parameters    !
                           ! (Angstroms and Degrees)  !
 --------------------------                            --------------------------
 ! Name  Definition              Value          Derivative Info.                !
 --------------------------------------------------------------------------------
 ! R1    R(1,2)                  1.4473         estimate D2E/DX2                !
 ! R2    R(2,3)                  1.6689         estimate D2E/DX2                !
 ! R3    R(2,15)                 1.8538         estimate D2E/DX2                !
 ! R4    R(2,18)                 1.4479         estimate D2E/DX2                !
 ! R5    R(3,4)                  1.3958         estimate D2E/DX2                !
 ! R6    R(3,19)                 1.0267         estimate D2E/DX2                !
 ! R7    R(4,5)                  1.3575         estimate D2E/DX2                !
 ! R8    R(4,7)                  1.3762         estimate D2E/DX2                !
 ! R9    R(5,6)                  1.3081         estimate D2E/DX2                !
 ! R10   R(5,33)                 1.0257         estimate D2E/DX2                !
 ! R11   R(6,8)                  1.324          estimate D2E/DX2                !
 ! R12   R(7,8)                  1.3598         estimate D2E/DX2                !
 ! R13   R(7,20)                 1.0755         estimate D2E/DX2                !
 ! R14   R(8,9)                  1.4349         estimate D2E/DX2                !
 ! R15   R(9,10)                 1.3933         estimate D2E/DX2                !
 ! R16   R(9,14)                 1.3952         estimate D2E/DX2                !
 ! R17   R(10,11)                1.3931         estimate D2E/DX2                !
 ! R18   R(10,21)                1.0833         estimate D2E/DX2                !
 ! R19   R(11,12)                1.3964         estimate D2E/DX2                !
 ! R20   R(11,22)                1.0838         estimate D2E/DX2                !
 ! R21   R(12,13)                1.3964         estimate D2E/DX2                !
 ! R22   R(12,23)                1.0844         estimate D2E/DX2                !
 ! R23   R(13,14)                1.3926         estimate D2E/DX2                !
 ! R24   R(13,24)                1.0837         estimate D2E/DX2                !
 ! R25   R(14,25)                1.0816         estimate D2E/DX2                !
 ! R26   R(15,16)                1.5009         estimate D2E/DX2                !
 ! R27   R(15,17)                1.5            estimate D2E/DX2                !
 ! R28   R(15,32)                1.0376         estimate D2E/DX2                !
 ! R29   R(16,26)                1.0859         estimate D2E/DX2                !
 ! R30   R(16,27)                1.0883         estimate D2E/DX2                !
 ! R31   R(16,28)                1.0876         estimate D2E/DX2                !
 ! R32   R(17,29)                1.0877         estimate D2E/DX2                !
 ! R33   R(17,30)                1.0873         estimate D2E/DX2                !
 ! R34   R(17,31)                1.0888         estimate D2E/DX2                !
 ! A1    A(1,2,3)              109.4116         estimate D2E/DX2                !
 ! A2    A(1,2,15)             104.428          estimate D2E/DX2                !
 ! A3    A(1,2,18)             124.9744         estimate D2E/DX2                !
 ! A4    A(3,2,15)             100.2806         estimate D2E/DX2                !
 ! A5    A(3,2,18)             110.9444         estimate D2E/DX2                !
 ! A6    A(15,2,18)            103.4407         estimate D2E/DX2                !
 ! A7    A(2,3,4)              120.4915         estimate D2E/DX2                !
 ! A8    A(2,3,19)             112.4515         estimate D2E/DX2                !
 ! A9    A(4,3,19)             115.4751         estimate D2E/DX2                !
 ! A10   A(3,4,5)              123.8096         estimate D2E/DX2                !
 ! A11   A(3,4,7)              131.0236         estimate D2E/DX2                !
 ! A12   A(5,4,7)              105.114          estimate D2E/DX2                !
 ! A13   A(4,5,6)              112.9806         estimate D2E/DX2                !
 ! A14   A(4,5,33)             127.9274         estimate D2E/DX2                !
 ! A15   A(6,5,33)             119.0896         estimate D2E/DX2                !
 ! A16   A(5,6,8)              104.5118         estimate D2E/DX2                !
 ! A17   A(4,7,8)              104.9681         estimate D2E/DX2                !
 ! A18   A(4,7,20)             131.2759         estimate D2E/DX2                !
 ! A19   A(8,7,20)             123.7468         estimate D2E/DX2                !
 ! A20   A(6,8,7)              112.4186         estimate D2E/DX2                !
 ! A21   A(6,8,9)              119.6224         estimate D2E/DX2                !
 ! A22   A(7,8,9)              127.9505         estimate D2E/DX2                !
 ! A23   A(8,9,10)             119.07           estimate D2E/DX2                !
 ! A24   A(8,9,14)             118.7743         estimate D2E/DX2                !
 ! A25   A(10,9,14)            122.1557         estimate D2E/DX2                !
 ! A26   A(9,10,11)            118.5673         estimate D2E/DX2                !
 ! A27   A(9,10,21)            120.8921         estimate D2E/DX2                !
 ! A28   A(11,10,21)           120.5318         estimate D2E/DX2                !
 ! A29   A(10,11,12)           120.2784         estimate D2E/DX2                !
 ! A30   A(10,11,22)           119.3859         estimate D2E/DX2                !
 ! A31   A(12,11,22)           120.3333         estimate D2E/DX2                !
 ! A32   A(11,12,13)           120.1721         estimate D2E/DX2                !
 ! A33   A(11,12,23)           119.8829         estimate D2E/DX2                !
 ! A34   A(13,12,23)           119.945          estimate D2E/DX2                !
 ! A35   A(12,13,14)           120.3665         estimate D2E/DX2                !
 ! A36   A(12,13,24)           120.2949         estimate D2E/DX2                !
 ! A37   A(14,13,24)           119.3362         estimate D2E/DX2                !
 ! A38   A(9,14,13)            118.4579         estimate D2E/DX2                !
 ! A39   A(9,14,25)            120.1625         estimate D2E/DX2                !
 ! A40   A(13,14,25)           121.3783         estimate D2E/DX2                !
 ! A41   A(2,15,16)            112.013          estimate D2E/DX2                !
 ! A42   A(2,15,17)            112.6072         estimate D2E/DX2                !
 ! A43   A(2,15,32)            102.1389         estimate D2E/DX2                !
 ! A44   A(16,15,17)           113.131          estimate D2E/DX2                !
 ! A45   A(16,15,32)           108.1511         estimate D2E/DX2                !
 ! A46   A(17,15,32)           108.0377         estimate D2E/DX2                !
 ! A47   A(15,16,26)           108.5573         estimate D2E/DX2                !
 ! A48   A(15,16,27)           106.8969         estimate D2E/DX2                !
 ! A49   A(15,16,28)           108.82           estimate D2E/DX2                !
 ! A50   A(26,16,27)           110.5153         estimate D2E/DX2                !
 ! A51   A(26,16,28)           111.616          estimate D2E/DX2                !
 ! A52   A(27,16,28)           110.2888         estimate D2E/DX2                !
 ! A53   A(15,17,29)           108.6385         estimate D2E/DX2                !
 ! A54   A(15,17,30)           108.6953         estimate D2E/DX2                !
 ! A55   A(15,17,31)           106.8445         estimate D2E/DX2                !
 ! A56   A(29,17,30)           111.7765         estimate D2E/DX2                !
 ! A57   A(29,17,31)           110.1658         estimate D2E/DX2                !
 ! A58   A(30,17,31)           110.5639         estimate D2E/DX2                !
 ! D1    D(1,2,3,4)            -12.8668         estimate D2E/DX2                !
 ! D2    D(1,2,3,19)          -154.4408         estimate D2E/DX2                !
 ! D3    D(15,2,3,4)          -122.2817         estimate D2E/DX2                !
 ! D4    D(15,2,3,19)           96.1444         estimate D2E/DX2                !
 ! D5    D(18,2,3,4)           128.9121         estimate D2E/DX2                !
 ! D6    D(18,2,3,19)          -12.6618         estimate D2E/DX2                !
 ! D7    D(1,2,15,16)          177.5746         estimate D2E/DX2                !
 ! D8    D(1,2,15,17)          -53.5711         estimate D2E/DX2                !
 ! D9    D(1,2,15,32)           62.0649         estimate D2E/DX2                !
 ! D10   D(3,2,15,16)          -69.132          estimate D2E/DX2                !
 ! D11   D(3,2,15,17)           59.7223         estimate D2E/DX2                !
 ! D12   D(3,2,15,32)          175.3583         estimate D2E/DX2                !
 ! D13   D(18,2,15,16)          45.5052         estimate D2E/DX2                !
 ! D14   D(18,2,15,17)         174.3595         estimate D2E/DX2                !
 ! D15   D(18,2,15,32)         -70.0045         estimate D2E/DX2                !
 ! D16   D(2,3,4,5)             78.2996         estimate D2E/DX2                !
 ! D17   D(2,3,4,7)           -104.7524         estimate D2E/DX2                !
 ! D18   D(19,3,4,5)          -141.2138         estimate D2E/DX2                !
 ! D19   D(19,3,4,7)            35.7342         estimate D2E/DX2                !
 ! D20   D(3,4,5,6)            177.9076         estimate D2E/DX2                !
 ! D21   D(3,4,5,33)            -2.6602         estimate D2E/DX2                !
 ! D22   D(7,4,5,6)              0.2922         estimate D2E/DX2                !
 ! D23   D(7,4,5,33)           179.7244         estimate D2E/DX2                !
 ! D24   D(3,4,7,8)           -177.135          estimate D2E/DX2                !
 ! D25   D(3,4,7,20)             3.9673         estimate D2E/DX2                !
 ! D26   D(5,4,7,8)              0.2386         estimate D2E/DX2                !
 ! D27   D(5,4,7,20)          -178.6591         estimate D2E/DX2                !
 ! D28   D(4,5,6,8)             -0.7028         estimate D2E/DX2                !
 ! D29   D(33,5,6,8)           179.8097         estimate D2E/DX2                !
 ! D30   D(5,6,8,7)              0.8647         estimate D2E/DX2                !
 ! D31   D(5,6,8,9)            179.8818         estimate D2E/DX2                !
 ! D32   D(4,7,8,6)             -0.7004         estimate D2E/DX2                !
 ! D33   D(4,7,8,9)           -179.6169         estimate D2E/DX2                !
 ! D34   D(20,7,8,6)           178.3033         estimate D2E/DX2                !
 ! D35   D(20,7,8,9)            -0.6132         estimate D2E/DX2                !
 ! D36   D(6,8,9,10)           153.7949         estimate D2E/DX2                !
 ! D37   D(6,8,9,14)           -26.2792         estimate D2E/DX2                !
 ! D38   D(7,8,9,10)           -27.3573         estimate D2E/DX2                !
 ! D39   D(7,8,9,14)           152.5685         estimate D2E/DX2                !
 ! D40   D(8,9,10,11)          179.7222         estimate D2E/DX2                !
 ! D41   D(8,9,10,21)           -1.3527         estimate D2E/DX2                !
 ! D42   D(14,9,10,11)          -0.2011         estimate D2E/DX2                !
 ! D43   D(14,9,10,21)         178.7241         estimate D2E/DX2                !
 ! D44   D(8,9,14,13)          179.8468         estimate D2E/DX2                !
 ! D45   D(8,9,14,25)           -0.5582         estimate D2E/DX2                !
 ! D46   D(10,9,14,13)          -0.2297         estimate D2E/DX2                !
 ! D47   D(10,9,14,25)         179.3653         estimate D2E/DX2                !
 ! D48   D(9,10,11,12)           0.4213         estimate D2E/DX2                !
 ! D49   D(9,10,11,22)         179.858          estimate D2E/DX2                !
 ! D50   D(21,10,11,12)       -178.5078         estimate D2E/DX2                !
 ! D51   D(21,10,11,22)          0.9288         estimate D2E/DX2                !
 ! D52   D(10,11,12,13)         -0.2131         estimate D2E/DX2                !
 ! D53   D(10,11,12,23)        179.8575         estimate D2E/DX2                !
 ! D54   D(22,11,12,13)       -179.6443         estimate D2E/DX2                !
 ! D55   D(22,11,12,23)          0.4263         estimate D2E/DX2                !
 ! D56   D(11,12,13,14)         -0.2291         estimate D2E/DX2                !
 ! D57   D(11,12,13,24)       -179.6613         estimate D2E/DX2                !
 ! D58   D(23,12,13,14)        179.7002         estimate D2E/DX2                !
 ! D59   D(23,12,13,24)          0.2681         estimate D2E/DX2                !
 ! D60   D(12,13,14,9)           0.4432         estimate D2E/DX2                !
 ! D61   D(12,13,14,25)       -179.1467         estimate D2E/DX2                !
 ! D62   D(24,13,14,9)         179.8807         estimate D2E/DX2                !
 ! D63   D(24,13,14,25)          0.2909         estimate D2E/DX2                !
 ! D64   D(2,15,16,26)         -52.603          estimate D2E/DX2                !
 ! D65   D(2,15,16,27)        -171.8341         estimate D2E/DX2                !
 ! D66   D(2,15,16,28)          69.0621         estimate D2E/DX2                !
 ! D67   D(17,15,16,26)        178.8183         estimate D2E/DX2                !
 ! D68   D(17,15,16,27)         59.5872         estimate D2E/DX2                !
 ! D69   D(17,15,16,28)        -59.5167         estimate D2E/DX2                !
 ! D70   D(32,15,16,26)         59.1889         estimate D2E/DX2                !
 ! D71   D(32,15,16,27)        -60.0422         estimate D2E/DX2                !
 ! D72   D(32,15,16,28)       -179.1461         estimate D2E/DX2                !
 ! D73   D(2,15,17,29)          47.4354         estimate D2E/DX2                !
 ! D74   D(2,15,17,30)         -74.3989         estimate D2E/DX2                !
 ! D75   D(2,15,17,31)         166.2676         estimate D2E/DX2                !
 ! D76   D(16,15,17,29)        175.7068         estimate D2E/DX2                !
 ! D77   D(16,15,17,30)         53.8725         estimate D2E/DX2                !
 ! D78   D(16,15,17,31)        -65.461          estimate D2E/DX2                !
 ! D79   D(32,15,17,29)        -64.5988         estimate D2E/DX2                !
 ! D80   D(32,15,17,30)        173.5669         estimate D2E/DX2                !
 ! D81   D(32,15,17,31)         54.2334         estimate D2E/DX2                !
 --------------------------------------------------------------------------------
 Trust Radius=3.00D-01 FncErr=1.00D-07 GrdErr=1.00D-06 EigMax=2.50D+02 EigMin=1.00D-04
 Number of steps in this run=    183 maximum allowed number of steps=    198.
 GradGradGradGradGradGradGradGradGradGradGradGradGradGradGradGradGradGrad

 Leave Link  103 at Mon Sep 28 08:22:33 2020, MaxMem=  2147483648 cpu:               0.0 elap:               0.0
 (Enter /prod/apps/gaussian/g16b1/l202.exe)
                          Input orientation:                          
 ---------------------------------------------------------------------
 Center     Atomic      Atomic             Coordinates (Angstroms)
 Number     Number       Type             X           Y           Z
 ---------------------------------------------------------------------
      1          8           0       -2.292000   -0.311000    1.805000
      2         16           0       -2.818000    0.671000    0.881000
      3          7           0       -1.774000    0.832000   -0.411000
      4          6           0       -0.489000    0.290000   -0.355000
      5          7           0       -0.216000   -1.027000   -0.539000
      6          7           0        1.063000   -1.296000   -0.484000
      7          6           0        0.737000    0.889000   -0.176000
      8          7           0        1.640000   -0.123000   -0.274000
      9          6           0        3.068000   -0.046000   -0.156000
     10          6           0        3.711000    1.146000   -0.483000
     11          6           0        5.097000    1.211000   -0.359000
     12          6           0        5.818000    0.097000    0.076000
     13          6           0        5.153000   -1.089000    0.394000
     14          6           0        3.767000   -1.170000    0.285000
     15          7           0       -4.238000   -0.187000    0.054000
     16          6           0       -4.953000    0.712000   -0.912000
     17          6           0       -3.845000   -1.504000   -0.547000
     18          8           0       -3.374000    1.953000    1.260000
     19          1           0       -1.846000    1.752000   -0.861000
     20          1           0        1.005000    1.912000    0.020000
     21          1           0        3.150000    2.000000   -0.843000
     22          1           0        5.611000    2.131000   -0.612000
     23          1           0        6.897000    0.154000    0.168000
     24          1           0        5.710000   -1.953000    0.737000
     25          1           0        3.234000   -2.076000    0.540000
     26          1           0       -5.220000    1.630000   -0.397000
     27          1           0       -5.847000    0.182000   -1.235000
     28          1           0       -4.301000    0.904000   -1.761000
     29          1           0       -3.269000   -2.063000    0.187000
     30          1           0       -3.272000   -1.317000   -1.452000
     31          1           0       -4.768000   -2.032000   -0.781000
     32          1           0       -4.874000   -0.375000    0.852000
     33          1           0       -0.880000   -1.792000   -0.700000
 ---------------------------------------------------------------------
                    Distance matrix (angstroms):
                    1          2          3          4          5
     1  O    0.000000
     2  S    1.447334   0.000000
     3  N    2.546651   1.668868   0.000000
     4  C    2.877084   2.664038   1.395752   0.000000
     5  N    3.211973   3.416139   2.428915   1.357525   0.000000
     6  N    4.179207   4.560096   3.547151   2.222778   1.308139
     7  C    3.813031   3.715212   2.522617   1.376197   2.170492
     8  N    4.451765   4.673139   3.547702   2.170201   2.081388
     9  C    5.713611   6.019506   4.927563   3.578372   3.448725
    10  C    6.587397   6.686850   5.494452   4.288254   4.488473
    11  C    7.848357   8.029721   6.881641   5.661418   5.767930
    12  C    8.302289   8.692410   7.643027   6.324655   6.168530
    13  C    7.617364   8.177506   7.233367   5.856177   5.449816
    14  C    6.305534   6.863434   5.932546   4.544748   4.069854
    15  N    2.620743   1.853778   2.706637   3.801291   4.151353
    16  C    3.938215   2.788325   3.220472   4.518366   5.059883
    17  C    3.060549   2.797238   3.124809   3.810254   3.660223
    18  O    2.567770   1.447861   2.570775   3.700948   4.699975
    19  H    3.400359   2.268900   1.026686   2.057894   3.237812
    20  H    4.358688   4.110563   3.012474   2.236861   3.231260
    21  H    6.478271   6.352593   5.079038   4.050255   4.537081
    22  H    8.617579   8.683818   7.501068   6.376937   6.628139
    23  H    9.345251   9.754839   8.716718   7.405742   7.244955
    24  H    8.238252   8.923727   8.067489   6.682149   6.132139
    25  H    5.937350   6.654998   5.868639   4.501079   3.763926
    26  H    4.146018   2.884886   3.537219   4.917288   5.667436
    27  H    4.703475   3.727119   4.206044   5.430859   5.801229
    28  H    4.269504   3.038707   2.865905   4.109158   4.680734
    29  H    2.577199   2.856535   3.312651   3.682224   3.304721
    30  H    3.546898   3.098572   2.818845   3.395725   3.202625
    31  H    3.972381   3.724373   4.159739   4.887024   4.667900
    32  H    2.753004   2.306966   3.558373   4.596444   4.904788
    33  H    3.234522   3.510238   2.787137   2.146306   1.025691
                    6          7          8          9         10
     6  N    0.000000
     7  C    2.230553   0.000000
     8  N    1.323993   1.359837   0.000000
     9  C    2.385395   2.511610   1.434934   0.000000
    10  C    3.602120   3.000829   2.437844   1.393285   0.000000
    11  C    4.751192   4.375703   3.706431   2.395433   1.393053
    12  C    4.986389   5.148527   4.198403   2.763471   2.419159
    13  C    4.188297   4.872211   3.704126   2.395323   2.800664
    14  C    2.814046   3.692276   2.435738   1.395155   2.440659
    15  N    5.442419   5.095223   5.887492   7.310377   8.077862
    16  C    6.356690   5.740133   6.676220   8.092128   8.685464
    17  C    4.912809   5.182549   5.662766   7.075890   8.007480
    18  O    5.769273   4.482690   5.639426   6.892055   7.340744
    19  H    4.230214   2.808181   4.001548   5.279889   5.602711
    20  H    3.247868   1.075532   2.151949   2.849686   2.856957
    21  H    3.917661   2.738938   2.666644   2.159817   1.083345
    22  H    5.696053   5.048617   4.578603   3.378478   2.144030
    23  H    6.046748   6.213225   5.282816   3.847885   3.399774
    24  H    4.849443   5.800109   4.575579   3.378500   3.884353
    25  H    2.523929   3.941940   2.649083   2.152411   3.413992
    26  H    6.931460   6.006977   7.081507   8.459196   8.944519
    27  H    7.106095   6.705996   7.554582   8.982953   9.635879
    28  H    5.936600   5.281467   6.209781   7.601361   8.116895
    29  H    4.450253   4.989400   5.298528   6.659092   7.711484
    30  H    4.441812   4.750441   5.190478   6.594745   7.467772
    31  H    5.884766   6.261253   6.705505   8.107880   9.059908
    32  H    6.154763   5.842756   6.615404   8.012470   8.820311
    33  H    2.016909   3.174433   3.052448   4.350995   5.454926
                   11         12         13         14         15
    11  C    0.000000
    12  C    1.396446   0.000000
    13  C    2.420774   1.396404   0.000000
    14  C    2.802284   2.419829   1.392637   0.000000
    15  N    9.448132  10.060034   9.440343   8.068437   0.000000
    16  C   10.077565  10.833689  10.347970   9.000730   1.500860
    17  C    9.346975   9.814525   9.056584   7.664615   1.500046
    18  O    8.656187   9.451955   9.094693   7.854784   2.603945
    19  H    6.982115   7.896448   7.657174   6.430954   3.212259
    20  H    4.168873   5.144155   5.133399   4.146998   5.647655
    21  H    2.155826   3.403556   3.883825   3.420815   7.756940
    22  H    1.083792   2.157162   3.404438   3.886071  10.139994
    23  H    2.152900   1.084414   2.153523   3.400524  11.140803
    24  H    3.404098   2.156637   1.083695   2.143045  10.126596
    25  H    3.883727   3.407973   2.162879   1.081642   7.722390
    26  H   10.325575  11.153980  10.752570   9.437759   2.114052
    27  H   11.027119  11.738747  11.192367   9.826866   2.094412
    28  H    9.506958  10.316006   9.899201   8.577891   2.118602
    29  H    9.000397   9.340851   8.480661   7.093120   2.115662
    30  H    8.810539   9.325357   8.627881   7.251641   2.116150
    31  H   10.392948  10.831920  10.034745   8.644398   2.093359
    32  H   10.168715  10.730509  10.062817   8.695999   1.037615
    33  H    6.697673   7.002407   6.171558   4.790795   3.797460
                   16         17         18         19         20
    16  C    0.000000
    17  C    2.504305   0.000000
    18  O    2.958193   3.929114   0.000000
    19  H    3.276835   3.833554   2.621798   0.000000
    20  H    6.148690   5.959282   4.551365   2.988304   0.000000
    21  H    8.205018   7.829154   6.854735   5.002184   2.313771
    22  H   10.663098  10.130814   9.179667   7.470776   4.654312
    23  H   11.912190  10.892693  10.484384   8.947206   6.150458
    24  H   11.114000   9.651336   9.901991   8.565849   6.131015
    25  H    8.769733   7.184775   7.772831   6.513278   4.598150
    26  H    1.085927   3.425650   2.501538   3.407940   6.245321
    27  H    1.088331   2.706279   3.934107   4.314253   7.177592
    28  H    1.087552   2.734995   3.329590   2.748841   5.686973
    29  H    3.426993   1.087664   4.158198   4.204457   5.839143
    30  H    2.689647   1.087347   4.249500   3.435334   5.557513
    31  H    2.753347   1.088792   4.689258   4.781542   7.037348
    32  H    2.073525   2.071396   2.799294   4.077656   6.362801
    33  H    4.785843   2.982881   4.907816   3.676821   4.217966
                   21         22         23         24         25
    21  H    0.000000
    22  H    2.475286   0.000000
    23  H    4.297656   2.484094   0.000000
    24  H    4.967515   4.302169   2.484387   0.000000
    25  H    4.305058   4.967503   4.304515   2.486868   0.000000
    26  H    8.390037  10.844712  12.219635  11.558060   9.278067
    27  H    9.187208  11.639265  12.821027  11.916848   9.524377
    28  H    7.586919  10.053530  11.387658  10.706193   8.423255
    29  H    7.666318   9.853042  10.404951   8.996502   6.512587
    30  H    7.253651   9.565667  10.401769   9.266744   6.846326
    31  H    8.885696  11.184041  11.905941  10.587684   8.110424
    32  H    8.538046  10.879272  11.802717  10.701606   8.290381
    33  H    5.535396   7.584903   8.063626   6.746776   4.306188
                   26         27         28         29         30
    26  H    0.000000
    27  H    1.786638   0.000000
    28  H    1.797813   1.785518   0.000000
    29  H    4.217310   3.702458   3.696325   0.000000
    30  H    3.686806   2.987426   2.467218   1.800790   0.000000
    31  H    3.709718   2.504427   3.130269   1.784653   1.788710
    32  H    2.387413   2.369081   2.965120   2.422312   2.960099
    33  H    5.535115   5.371591   4.483010   2.562719   2.552017
                   31         32         33
    31  H    0.000000
    32  H    2.328857   0.000000
    33  H    3.896242   4.513162   0.000000
 Symmetry turned off by external request.
 Stoichiometry    C10H15N5O2S(2+)
 Framework group  C1[X(C10H15N5O2S)]
 Deg. of freedom    93
 Full point group                 C1      NOp   1
 Rotational constants (GHZ):           1.2422331           0.1546606           0.1485084
 Leave Link  202 at Mon Sep 28 08:22:33 2020, MaxMem=  2147483648 cpu:               0.1 elap:               0.0
 (Enter /prod/apps/gaussian/g16b1/l301.exe)
 Standard basis: 6-31G(d) (6D, 7F)
 Ernie: Thresh=  0.10000D-02 Tol=  0.10000D-05 Strict=F.
   304 basis functions,   588 primitive gaussians,   304 cartesian basis functions
    70 alpha electrons       70 beta electrons
       nuclear repulsion energy      1494.6554245516 Hartrees.
 IExCor=  402 DFT=T Ex+Corr=B3LYP ExCW=0 ScaHFX=  0.200000
 ScaDFX=  0.800000  0.720000  1.000000  0.810000 ScalE2=  1.000000  1.000000
 IRadAn=      5 IRanWt=     -1 IRanGd=            0 ICorTp=0 IEmpDi=  4
 NAtoms=   33 NActive=   33 NUniq=   33 SFac= 1.00D+00 NAtFMM=   60 NAOKFM=F Big=F
 Integral buffers will be    131072 words long.
 Raffenetti 2 integral format.
 Two-electron integral symmetry is turned off.
 Using the following non-standard input for PCM:
 MSTModel=DFT cav MSTcharged
 --- end of non-standard input.
 MST model for solvation energy: B3LYP parametrization.
 MST cavity parameters:
 ISph   IAn     Re0     Alpha   Atom Type   QCorr
 ------------------------------------------------
   1      8     1.40     1.25      O          F
   2     16     1.75     1.25      S          F
   3      7     1.50     1.25      NH         F
   4      6     1.50     1.25      C          F
   5      7     1.50     1.15      NH         T
   6      7     1.40     1.25      N          F
   7      6     1.50     1.25      CH         F
   8      7     1.40     1.25      N          F
   9      6     1.50     1.25      C          F
  10      6     1.50     1.25      CH         F
  11      6     1.50     1.25      CH         F
  12      6     1.50     1.25      CH         F
  13      6     1.50     1.25      CH         F
  14      6     1.50     1.25      CH         F
  15      7     1.50     1.15      NH         T
  16      6     1.50     1.25      CH3        F
  17      6     1.50     1.25      CH3        F
  18      8     1.40     1.25      O          F
  19      1     0.90     1.25      NH         F
  20      1     1.20     1.25      CH         F
  21      1     1.20     1.25      CH         F
  22      1     1.20     1.25      CH         F
  23      1     1.20     1.25      CH         F
  24      1     1.20     1.25      CH         F
  25      1     1.20     1.25      CH         F
  26      1     1.20     1.25      CH3        F
  27      1     1.20     1.25      CH3        F
  28      1     1.20     1.25      CH3        F
  29      1     1.20     1.25      CH3        F
  30      1     1.20     1.25      CH3        F
  31      1     1.20     1.25      CH3        F
  32      1     0.90     1.15      NH         T
  33      1     0.90     1.15      NH         T
 ------------------------------------------------------------------------------
 Polarizable Continuum Model (PCM)
 =================================
 Model                : PCM.
 Atomic radii         : MST.
 Polarization charges : Total charges.
 Charge compensation  : None.
 Solution method      : On-the-fly selection.
 Cavity type          : Scaled VdW (van der Waals Surface) (Alpha=1.250).
 Cavity algorithm     : GePol (No added spheres)
                        Default sphere list used, NSphG=   33.
                        Lebedev-Laikov grids with approx.  5.0 points / Ang**2.
                        Smoothing algorithm: York/Karplus (Gamma=1.0000).
                        Polarization charges: spherical gaussians, with
                                              point-specific exponents (IZeta= 3).
                        Self-potential: point-specific (ISelfS= 7).
                        Self-field    : sphere-specific E.n sum rule (ISelfD= 2).
 1st derivatives      : Analytical E(r).r(x)/FMM algorithm (CHGder, D1EAlg=3).
                        Cavity 1st derivative terms included.
 Solvent              : Water, Eps=  78.355300 Eps(inf)=   1.777849
 ------------------------------------------------------------------------------
 GePol: Number of generator spheres                  =      33
 GePol: Total number of spheres                      =      33
 GePol: Number of exposed spheres                    =      33 (100.00%)
 GePol: Number of points                             =    2423
 GePol: Average weight of points                     =       0.13
 GePol: Minimum weight of points                     =   0.13D-10
 GePol: Maximum weight of points                     =    0.22001
 GePol: Number of points with low weight             =     153
 GePol: Fraction of low-weight points (<1% of avg)   =       6.31%
 GePol: Cavity surface area                          =    312.872 Ang**2
 GePol: Cavity volume                                =    293.935 Ang**3
 PCM non-electrostatic energy =         0.0021621078 Hartrees.
 Nuclear repulsion after PCM non-electrostatic terms =     1494.6575866594 Hartrees.
 Leave Link  301 at Mon Sep 28 08:22:33 2020, MaxMem=  2147483648 cpu:               0.3 elap:               0.1
 (Enter /prod/apps/gaussian/g16b1/l302.exe)
 NPDir=0 NMtPBC=     1 NCelOv=     1 NCel=       1 NClECP=     1 NCelD=      1
         NCelK=      1 NCelE2=     1 NClLst=     1 CellRange=     0.0.
 One-electron integrals computed using PRISM.
 NBasis=   304 RedAO= T EigKep=  4.72D-04  NBF=   304
 NBsUse=   304 1.00D-06 EigRej= -1.00D+00 NBFU=   304
 Precomputing XC quadrature grid using
 IXCGrd= 4 IRadAn=           5 IRanWt=          -1 IRanGd=           0 AccXCQ= 0.00D+00.
 Generated NRdTot=       0 NPtTot=           0 NUsed=           0 NTot=          32
 NSgBfM=   300   300   300   300   300 MxSgAt=    33 MxSgA2=    33.
 Leave Link  302 at Mon Sep 28 08:22:34 2020, MaxMem=  2147483648 cpu:               1.6 elap:               0.4
 (Enter /prod/apps/gaussian/g16b1/l303.exe)
 DipDrv:  MaxL=1.
 Leave Link  303 at Mon Sep 28 08:22:34 2020, MaxMem=  2147483648 cpu:               0.1 elap:               0.1
 (Enter /prod/apps/gaussian/g16b1/l401.exe)
 ExpMin= 1.17D-01 ExpMax= 2.19D+04 ExpMxC= 3.30D+03 IAcc=3 IRadAn=         5 AccDes= 0.00D+00
 Harris functional with IExCor=  402 and IRadAn=       5 diagonalized for initial guess.
 HarFok:  IExCor=  402 AccDes= 0.00D+00 IRadAn=         5 IDoV= 1 UseB2=F ITyADJ=14
 ICtDFT=  3500011 ScaDFX=  1.000000  1.000000  1.000000  1.000000
 FoFCou: FMM=F IPFlag=           0 FMFlag=      100000 FMFlg1=           0
         NFxFlg=           0 DoJE=T BraDBF=F KetDBF=T FulRan=T
         wScrn=  0.000000 ICntrl=       500 IOpCl=  0 I1Cent=   200000004 NGrid=           0
         NMat0=    1 NMatS0=      1 NMatT0=    0 NMatD0=    1 NMtDS0=    0 NMtDT0=    0
 Symmetry not used in FoFCou.
 Harris En= -1211.95758185440    
 JPrj=0 DoOrth=F DoCkMO=F.
 Leave Link  401 at Mon Sep 28 08:22:36 2020, MaxMem=  2147483648 cpu:               8.1 elap:               2.0
 (Enter /prod/apps/gaussian/g16b1/l502.exe)
 Two-electron integral symmetry not used.
 Closed shell SCF:
 Using DIIS extrapolation, IDIIS=  1040.
 NGot=  2147483648 LenX=  2147294283 LenY=  2147201426
 Requested convergence on RMS density matrix=1.00D-08 within2000 cycles.
 Requested convergence on MAX density matrix=1.00D-06.
 Requested convergence on             energy=1.00D-06.
 No special actions if energy rises.

 Cycle   1  Pass 1  IDiag  1:
 FoFJK:  IHMeth= 1 ICntrl=       0 DoSepK=F KAlg= 0 I1Cent=           0 FoldK=F
 IRaf= 750000000 NMat=       1 IRICut=       1 DoRegI=T DoRafI=F ISym2E= 0 IDoP0=0 IntGTp=1.
 FoFCou: FMM=F IPFlag=           0 FMFlag=      100000 FMFlg1=           0
         NFxFlg=           0 DoJE=F BraDBF=F KetDBF=F FulRan=T
         wScrn=  0.000000 ICntrl=         0 IOpCl=  0 I1Cent=           0 NGrid=           0
         NMat0=    1 NMatS0=      1 NMatT0=    0 NMatD0=    1 NMtDS0=    0 NMtDT0=    0
 Symmetry not used in FoFCou.
 Inv3:  Mode=1 IEnd=    17612787.
 Iteration    1 A*A^-1 deviation from unit magnitude is 3.55D-15 for   1263.
 Iteration    1 A*A^-1 deviation from orthogonality  is 3.22D-15 for   1682    107.
 Iteration    1 A^-1*A deviation from unit magnitude is 3.11D-15 for    755.
 Iteration    1 A^-1*A deviation from orthogonality  is 3.66D-15 for   1801   1774.
 E= -1211.52695468236    
 DIIS: error= 3.80D-02 at cycle   1 NSaved=   1.
 NSaved= 1 IEnMin= 1 EnMin= -1211.52695468236     IErMin= 1 ErrMin= 3.80D-02
 ErrMax= 3.80D-02  0.00D+00 EMaxC= 1.00D-01 BMatC= 6.12D-01 BMatP= 6.12D-01
 IDIUse=3 WtCom= 6.20D-01 WtEn= 3.80D-01
 Coeff-Com:  0.100D+01
 Coeff-En:   0.100D+01
 Coeff:      0.100D+01
 Gap=     0.331 Goal=   None    Shift=    0.000
 GapD=    0.331 DampG=1.000 DampE=0.500 DampFc=0.5000 IDamp=-1.
 Damping current iteration by 5.00D-01
 RMSDP=6.51D-03 MaxDP=6.68D-01              OVMax= 2.97D-01

 Cycle   2  Pass 1  IDiag  1:
 E= -1211.61396537746     Delta-E=       -0.087010695098 Rises=F Damp=T
 DIIS: error= 1.51D-02 at cycle   2 NSaved=   2.
 NSaved= 2 IEnMin= 2 EnMin= -1211.61396537746     IErMin= 2 ErrMin= 1.51D-02
 ErrMax= 1.51D-02  0.00D+00 EMaxC= 1.00D-01 BMatC= 1.25D-01 BMatP= 6.12D-01
 IDIUse=3 WtCom= 8.49D-01 WtEn= 1.51D-01
 Coeff-Com:  0.269D+00 0.731D+00
 Coeff-En:   0.424D+00 0.576D+00
 Coeff:      0.292D+00 0.708D+00
 Gap=     0.185 Goal=   None    Shift=    0.000
 RMSDP=1.85D-03 MaxDP=1.43D-01 DE=-8.70D-02 OVMax= 2.36D-01

 Cycle   3  Pass 1  IDiag  1:
 E= -1212.01882087032     Delta-E=       -0.404855492867 Rises=F Damp=F
 DIIS: error= 8.80D-03 at cycle   3 NSaved=   3.
 NSaved= 3 IEnMin= 3 EnMin= -1212.01882087032     IErMin= 3 ErrMin= 8.80D-03
 ErrMax= 8.80D-03  0.00D+00 EMaxC= 1.00D-01 BMatC= 4.85D-02 BMatP= 1.25D-01
 IDIUse=3 WtCom= 9.12D-01 WtEn= 8.80D-02
 Coeff-Com:  0.918D-01 0.389D+00 0.520D+00
 Coeff-En:   0.000D+00 0.000D+00 0.100D+01
 Coeff:      0.838D-01 0.354D+00 0.562D+00
 Gap=     0.190 Goal=   None    Shift=    0.000
 RMSDP=8.90D-04 MaxDP=3.20D-02 DE=-4.05D-01 OVMax= 4.94D-02

 Cycle   4  Pass 1  IDiag  1:
 E= -1212.05416002261     Delta-E=       -0.035339152288 Rises=F Damp=F
 DIIS: error= 3.62D-03 at cycle   4 NSaved=   4.
 NSaved= 4 IEnMin= 4 EnMin= -1212.05416002261     IErMin= 4 ErrMin= 3.62D-03
 ErrMax= 3.62D-03  0.00D+00 EMaxC= 1.00D-01 BMatC= 8.01D-03 BMatP= 4.85D-02
 IDIUse=3 WtCom= 9.64D-01 WtEn= 3.62D-02
 Coeff-Com:  0.312D-02 0.801D-01 0.305D+00 0.612D+00
 Coeff-En:   0.000D+00 0.000D+00 0.132D+00 0.868D+00
 Coeff:      0.301D-02 0.772D-01 0.299D+00 0.621D+00
 Gap=     0.182 Goal=   None    Shift=    0.000
 RMSDP=3.10D-04 MaxDP=1.40D-02 DE=-3.53D-02 OVMax= 1.72D-02

 Cycle   5  Pass 1  IDiag  1:
 E= -1212.06039374651     Delta-E=       -0.006233723901 Rises=F Damp=F
 DIIS: error= 1.09D-03 at cycle   5 NSaved=   5.
 NSaved= 5 IEnMin= 5 EnMin= -1212.06039374651     IErMin= 5 ErrMin= 1.09D-03
 ErrMax= 1.09D-03  0.00D+00 EMaxC= 1.00D-01 BMatC= 7.51D-04 BMatP= 8.01D-03
 IDIUse=3 WtCom= 9.89D-01 WtEn= 1.09D-02
 Coeff-Com: -0.512D-02 0.197D-01 0.126D+00 0.345D+00 0.514D+00
 Coeff-En:   0.000D+00 0.000D+00 0.000D+00 0.232D-02 0.998D+00
 Coeff:     -0.507D-02 0.195D-01 0.125D+00 0.341D+00 0.519D+00
 Gap=     0.183 Goal=   None    Shift=    0.000
 RMSDP=1.01D-04 MaxDP=4.70D-03 DE=-6.23D-03 OVMax= 8.43D-03

 Cycle   6  Pass 1  IDiag  1:
 E= -1212.06101845509     Delta-E=       -0.000624708576 Rises=F Damp=F
 DIIS: error= 4.00D-04 at cycle   6 NSaved=   6.
 NSaved= 6 IEnMin= 6 EnMin= -1212.06101845509     IErMin= 6 ErrMin= 4.00D-04
 ErrMax= 4.00D-04  0.00D+00 EMaxC= 1.00D-01 BMatC= 6.99D-05 BMatP= 7.51D-04
 IDIUse=3 WtCom= 9.96D-01 WtEn= 4.00D-03
 Coeff-Com: -0.331D-02 0.481D-02 0.414D-01 0.131D+00 0.293D+00 0.533D+00
 Coeff-En:   0.000D+00 0.000D+00 0.000D+00 0.000D+00 0.258D-01 0.974D+00
 Coeff:     -0.329D-02 0.479D-02 0.412D-01 0.130D+00 0.292D+00 0.535D+00
 Gap=     0.183 Goal=   None    Shift=    0.000
 RMSDP=3.06D-05 MaxDP=1.66D-03 DE=-6.25D-04 OVMax= 2.85D-03

 Cycle   7  Pass 1  IDiag  1:
 E= -1212.06107779613     Delta-E=       -0.000059341040 Rises=F Damp=F
 DIIS: error= 1.57D-04 at cycle   7 NSaved=   7.
 NSaved= 7 IEnMin= 7 EnMin= -1212.06107779613     IErMin= 7 ErrMin= 1.57D-04
 ErrMax= 1.57D-04  0.00D+00 EMaxC= 1.00D-01 BMatC= 8.67D-06 BMatP= 6.99D-05
 IDIUse=3 WtCom= 9.98D-01 WtEn= 1.57D-03
 Coeff-Com: -0.163D-02 0.949D-03 0.122D-01 0.447D-01 0.126D+00 0.323D+00
 Coeff-Com:  0.495D+00
 Coeff-En:   0.000D+00 0.000D+00 0.000D+00 0.000D+00 0.000D+00 0.402D-01
 Coeff-En:   0.960D+00
 Coeff:     -0.163D-02 0.947D-03 0.122D-01 0.446D-01 0.126D+00 0.323D+00
 Coeff:      0.495D+00
 Gap=     0.183 Goal=   None    Shift=    0.000
 RMSDP=8.81D-06 MaxDP=5.46D-04 DE=-5.93D-05 OVMax= 5.70D-04

 Cycle   8  Pass 1  IDiag  1:
 E= -1212.06108473074     Delta-E=       -0.000006934607 Rises=F Damp=F
 DIIS: error= 2.36D-05 at cycle   8 NSaved=   8.
 NSaved= 8 IEnMin= 8 EnMin= -1212.06108473074     IErMin= 8 ErrMin= 2.36D-05
 ErrMax= 2.36D-05  0.00D+00 EMaxC= 1.00D-01 BMatC= 3.88D-07 BMatP= 8.67D-06
 IDIUse=1 WtCom= 1.00D+00 WtEn= 0.00D+00
 Coeff-Com: -0.429D-03 0.934D-07 0.101D-02 0.605D-02 0.261D-01 0.919D-01
 Coeff-Com:  0.226D+00 0.650D+00
 Coeff:     -0.429D-03 0.934D-07 0.101D-02 0.605D-02 0.261D-01 0.919D-01
 Coeff:      0.226D+00 0.650D+00
 Gap=     0.183 Goal=   None    Shift=    0.000
 RMSDP=2.20D-06 MaxDP=1.16D-04 DE=-6.93D-06 OVMax= 1.10D-04

 Cycle   9  Pass 1  IDiag  1:
 E= -1212.06108501347     Delta-E=       -0.000000282730 Rises=F Damp=F
 DIIS: error= 8.42D-06 at cycle   9 NSaved=   9.
 NSaved= 9 IEnMin= 9 EnMin= -1212.06108501347     IErMin= 9 ErrMin= 8.42D-06
 ErrMax= 8.42D-06  0.00D+00 EMaxC= 1.00D-01 BMatC= 5.86D-08 BMatP= 3.88D-07
 IDIUse=1 WtCom= 1.00D+00 WtEn= 0.00D+00
 Coeff-Com: -0.639D-04-0.699D-04-0.753D-03-0.146D-02 0.685D-03 0.154D-01
 Coeff-Com:  0.685D-01 0.344D+00 0.574D+00
 Coeff:     -0.639D-04-0.699D-04-0.753D-03-0.146D-02 0.685D-03 0.154D-01
 Coeff:      0.685D-01 0.344D+00 0.574D+00
 Gap=     0.183 Goal=   None    Shift=    0.000
 RMSDP=8.50D-07 MaxDP=3.73D-05 DE=-2.83D-07 OVMax= 5.24D-05

 Cycle  10  Pass 1  IDiag  1:
 E= -1212.06108505701     Delta-E=       -0.000000043541 Rises=F Damp=F
 DIIS: error= 4.83D-06 at cycle  10 NSaved=  10.
 NSaved=10 IEnMin=10 EnMin= -1212.06108505701     IErMin=10 ErrMin= 4.83D-06
 ErrMax= 4.83D-06  0.00D+00 EMaxC= 1.00D-01 BMatC= 8.31D-09 BMatP= 5.86D-08
 IDIUse=1 WtCom= 1.00D+00 WtEn= 0.00D+00
 Coeff-Com: -0.790D-05-0.377D-04-0.523D-03-0.130D-02-0.171D-02 0.163D-02
 Coeff-Com:  0.217D-01 0.151D+00 0.341D+00 0.488D+00
 Coeff:     -0.790D-05-0.377D-04-0.523D-03-0.130D-02-0.171D-02 0.163D-02
 Coeff:      0.217D-01 0.151D+00 0.341D+00 0.488D+00
 Gap=     0.183 Goal=   None    Shift=    0.000
 RMSDP=3.13D-07 MaxDP=1.77D-05 DE=-4.35D-08 OVMax= 2.10D-05

 Cycle  11  Pass 1  IDiag  1:
 E= -1212.06108506350     Delta-E=       -0.000000006492 Rises=F Damp=F
 DIIS: error= 1.05D-06 at cycle  11 NSaved=  11.
 NSaved=11 IEnMin=11 EnMin= -1212.06108506350     IErMin=11 ErrMin= 1.05D-06
 ErrMax= 1.05D-06  0.00D+00 EMaxC= 1.00D-01 BMatC= 7.14D-10 BMatP= 8.31D-09
 IDIUse=1 WtCom= 1.00D+00 WtEn= 0.00D+00
 Coeff-Com:  0.225D-05-0.785D-05-0.193D-03-0.513D-03-0.104D-02-0.101D-02
 Coeff-Com:  0.317D-02 0.393D-01 0.109D+00 0.260D+00 0.592D+00
 Coeff:      0.225D-05-0.785D-05-0.193D-03-0.513D-03-0.104D-02-0.101D-02
 Coeff:      0.317D-02 0.393D-01 0.109D+00 0.260D+00 0.592D+00
 Gap=     0.183 Goal=   None    Shift=    0.000
 RMSDP=9.18D-08 MaxDP=5.58D-06 DE=-6.49D-09 OVMax= 6.22D-06

 Cycle  12  Pass 1  IDiag  1:
 E= -1212.06108506399     Delta-E=       -0.000000000487 Rises=F Damp=F
 DIIS: error= 3.26D-07 at cycle  12 NSaved=  12.
 NSaved=12 IEnMin=12 EnMin= -1212.06108506399     IErMin=12 ErrMin= 3.26D-07
 ErrMax= 3.26D-07  0.00D+00 EMaxC= 1.00D-01 BMatC= 1.12D-10 BMatP= 7.14D-10
 IDIUse=1 WtCom= 1.00D+00 WtEn= 0.00D+00
 Coeff-Com:  0.254D-05 0.126D-05-0.460D-04-0.127D-03-0.402D-03-0.876D-03
 Coeff-Com: -0.126D-02 0.189D-02 0.138D-01 0.798D-01 0.340D+00 0.567D+00
 Coeff:      0.254D-05 0.126D-05-0.460D-04-0.127D-03-0.402D-03-0.876D-03
 Coeff:     -0.126D-02 0.189D-02 0.138D-01 0.798D-01 0.340D+00 0.567D+00
 Gap=     0.183 Goal=   None    Shift=    0.000
 RMSDP=3.10D-08 MaxDP=1.80D-06 DE=-4.87D-10 OVMax= 2.12D-06

 Cycle  13  Pass 1  IDiag  1:
 E= -1212.06108506408     Delta-E=       -0.000000000093 Rises=F Damp=F
 DIIS: error= 8.10D-08 at cycle  13 NSaved=  13.
 NSaved=13 IEnMin=13 EnMin= -1212.06108506408     IErMin=13 ErrMin= 8.10D-08
 ErrMax= 8.10D-08  0.00D+00 EMaxC= 1.00D-01 BMatC= 2.65D-12 BMatP= 1.12D-10
 IDIUse=1 WtCom= 1.00D+00 WtEn= 0.00D+00
 Coeff-Com:  0.722D-06 0.688D-06-0.468D-05-0.117D-04-0.807D-04-0.274D-03
 Coeff-Com: -0.748D-03-0.231D-02-0.372D-02 0.102D-01 0.819D-01 0.192D+00
 Coeff-Com:  0.723D+00
 Coeff:      0.722D-06 0.688D-06-0.468D-05-0.117D-04-0.807D-04-0.274D-03
 Coeff:     -0.748D-03-0.231D-02-0.372D-02 0.102D-01 0.819D-01 0.192D+00
 Coeff:      0.723D+00
 Gap=     0.183 Goal=   None    Shift=    0.000
 RMSDP=8.04D-09 MaxDP=3.59D-07 DE=-9.28D-11 OVMax= 9.01D-07

 Error on total polarization charges =  0.01877
 SCF Done:  E(RB3LYP) =  -1212.06108506     A.U. after   13 cycles
            NFock= 13  Conv=0.80D-08     -V/T= 2.0078
 KE= 1.202626065352D+03 PE=-5.784253973705D+03 EE= 1.874909236630D+03
 Leave Link  502 at Mon Sep 28 08:23:38 2020, MaxMem=  2147483648 cpu:             250.5 elap:              62.7
 (Enter /prod/apps/gaussian/g16b1/l601.exe)
 Copying SCF densities to generalized density rwf, IOpCl= 0 IROHF=0.

 **********************************************************************

            Population analysis using the SCF Density.

 **********************************************************************

 Alpha  occ. eigenvalues --  -89.19601 -19.21997 -19.21996 -14.50485 -14.49142
 Alpha  occ. eigenvalues --  -14.48833 -14.47037 -14.44394 -10.33718 -10.29143
 Alpha  occ. eigenvalues --  -10.26853 -10.25700 -10.25643 -10.22085 -10.21853
 Alpha  occ. eigenvalues --  -10.21134 -10.21087 -10.20988  -8.21986  -6.18448
 Alpha  occ. eigenvalues --   -6.18419  -6.18340  -1.19618  -1.19130  -1.08292
 Alpha  occ. eigenvalues --   -1.02526  -1.01980  -0.99291  -0.88242  -0.88007
 Alpha  occ. eigenvalues --   -0.80095  -0.77431  -0.76829  -0.75415  -0.72166
 Alpha  occ. eigenvalues --   -0.71609  -0.69354  -0.63451  -0.62648  -0.61515
 Alpha  occ. eigenvalues --   -0.60921  -0.57985  -0.57425  -0.56152  -0.55651
 Alpha  occ. eigenvalues --   -0.54511  -0.52388  -0.51567  -0.50946  -0.49975
 Alpha  occ. eigenvalues --   -0.47304  -0.46426  -0.45727  -0.44599  -0.44543
 Alpha  occ. eigenvalues --   -0.43698  -0.42806  -0.42149  -0.41622  -0.40187
 Alpha  occ. eigenvalues --   -0.38953  -0.38401  -0.38107  -0.37875  -0.37482
 Alpha  occ. eigenvalues --   -0.36646  -0.36465  -0.31275  -0.27507  -0.27122
 Alpha virt. eigenvalues --   -0.08840  -0.05556  -0.03458  -0.02314  -0.00550
 Alpha virt. eigenvalues --    0.01268   0.04033   0.05088   0.06005   0.07776
 Alpha virt. eigenvalues --    0.08068   0.09609   0.10547   0.10775   0.12196
 Alpha virt. eigenvalues --    0.12958   0.13690   0.14168   0.14228   0.14661
 Alpha virt. eigenvalues --    0.15066   0.15517   0.16464   0.17091   0.17600
 Alpha virt. eigenvalues --    0.18331   0.18540   0.19059   0.19865   0.22129
 Alpha virt. eigenvalues --    0.26960   0.28300   0.28578   0.29561   0.31779
 Alpha virt. eigenvalues --    0.33045   0.33586   0.35419   0.37153   0.40539
 Alpha virt. eigenvalues --    0.43136   0.44925   0.45886   0.46343   0.47075
 Alpha virt. eigenvalues --    0.49330   0.50069   0.50919   0.51663   0.52069
 Alpha virt. eigenvalues --    0.53178   0.54303   0.54595   0.55456   0.55741
 Alpha virt. eigenvalues --    0.56984   0.57174   0.57612   0.59105   0.59571
 Alpha virt. eigenvalues --    0.59999   0.60278   0.60302   0.62555   0.63549
 Alpha virt. eigenvalues --    0.65413   0.65894   0.67592   0.69527   0.70681
 Alpha virt. eigenvalues --    0.71665   0.72726   0.73990   0.74771   0.76019
 Alpha virt. eigenvalues --    0.76188   0.76963   0.77815   0.79060   0.79586
 Alpha virt. eigenvalues --    0.80044   0.82415   0.82865   0.83344   0.83757
 Alpha virt. eigenvalues --    0.84371   0.85662   0.86396   0.87342   0.88356
 Alpha virt. eigenvalues --    0.89631   0.90236   0.90937   0.91969   0.93096
 Alpha virt. eigenvalues --    0.94007   0.94063   0.95399   0.96523   0.97237
 Alpha virt. eigenvalues --    0.98279   0.98673   1.00226   1.01313   1.03611
 Alpha virt. eigenvalues --    1.04072   1.04816   1.05635   1.09529   1.10272
 Alpha virt. eigenvalues --    1.12121   1.12761   1.13730   1.15200   1.15718
 Alpha virt. eigenvalues --    1.16425   1.17619   1.21913   1.24148   1.25295
 Alpha virt. eigenvalues --    1.26473   1.29804   1.32890   1.33688   1.36397
 Alpha virt. eigenvalues --    1.37158   1.39778   1.40387   1.41266   1.42867
 Alpha virt. eigenvalues --    1.44331   1.45086   1.45567   1.46968   1.48348
 Alpha virt. eigenvalues --    1.50032   1.54027   1.56881   1.59503   1.63310
 Alpha virt. eigenvalues --    1.67652   1.69320   1.71495   1.72803   1.73168
 Alpha virt. eigenvalues --    1.75219   1.76636   1.77702   1.78072   1.78913
 Alpha virt. eigenvalues --    1.80659   1.82502   1.84175   1.85354   1.86680
 Alpha virt. eigenvalues --    1.87412   1.88704   1.90831   1.92813   1.93254
 Alpha virt. eigenvalues --    1.95064   1.97613   1.98281   1.99605   2.02305
 Alpha virt. eigenvalues --    2.03582   2.05041   2.05910   2.06453   2.07217
 Alpha virt. eigenvalues --    2.08691   2.10417   2.12117   2.12909   2.13552
 Alpha virt. eigenvalues --    2.15340   2.16128   2.18001   2.20152   2.20865
 Alpha virt. eigenvalues --    2.21903   2.23922   2.25543   2.26933   2.28148
 Alpha virt. eigenvalues --    2.29706   2.31404   2.32312   2.34256   2.37687
 Alpha virt. eigenvalues --    2.40010   2.43986   2.49225   2.52070   2.52571
 Alpha virt. eigenvalues --    2.54836   2.55063   2.56861   2.60238   2.62711
 Alpha virt. eigenvalues --    2.64086   2.64423   2.67962   2.69958   2.71120
 Alpha virt. eigenvalues --    2.73053   2.73458   2.77612   2.78804   2.81447
 Alpha virt. eigenvalues --    2.86224   2.95422   3.02619   3.09785   3.22533
 Alpha virt. eigenvalues --    3.40892   3.55977   3.75846   3.87590   3.93168
 Alpha virt. eigenvalues --    3.97915   3.99879   4.04637   4.07051   4.09518
 Alpha virt. eigenvalues --    4.12296   4.13135   4.17237   4.25990   4.26587
 Alpha virt. eigenvalues --    4.30611   4.37232   4.43863   4.69261
          Condensed to atoms (all electrons):
               1          2          3          4          5          6
     1  O    8.160296   0.442229  -0.053928   0.012078  -0.000699  -0.000022
     2  S    0.442229  13.518682   0.150803  -0.019488  -0.005567   0.000220
     3  N   -0.053928   0.150803   7.346300   0.271884  -0.054220   0.004242
     4  C    0.012078  -0.019488   0.271884   4.513281   0.288010  -0.057895
     5  N   -0.000699  -0.005567  -0.054220   0.288010   6.700989   0.259159
     6  N   -0.000022   0.000220   0.004242  -0.057895   0.259159   6.656111
     7  C   -0.000159  -0.001191  -0.066242   0.527850  -0.049663  -0.090055
     8  N   -0.000025  -0.000034   0.003612  -0.013840  -0.083109   0.269972
     9  C   -0.000000  -0.000010  -0.000103   0.002038   0.006659  -0.054108
    10  C   -0.000000   0.000000   0.000006   0.001346  -0.000357   0.003612
    11  C   -0.000000   0.000000   0.000000  -0.000011   0.000003  -0.000068
    12  C    0.000000   0.000000  -0.000000   0.000000  -0.000000   0.000014
    13  C   -0.000000  -0.000000  -0.000000   0.000007  -0.000006   0.000244
    14  C    0.000000  -0.000000   0.000000  -0.000647   0.000558  -0.002019
    15  N   -0.042914   0.111198  -0.048307  -0.000914   0.000242   0.000000
    16  C    0.001064  -0.010684   0.000148   0.000338  -0.000009  -0.000000
    17  C   -0.002795  -0.012444   0.001575  -0.000164  -0.000306   0.000014
    18  O   -0.033378   0.452417  -0.046314  -0.000717  -0.000011   0.000000
    19  H    0.000748  -0.008623   0.295349  -0.018146   0.001122  -0.000004
    20  H    0.000015   0.000129  -0.000736  -0.023478   0.003194   0.002984
    21  H   -0.000000  -0.000000   0.000001   0.000074  -0.000010  -0.000072
    22  H    0.000000   0.000000   0.000000   0.000000  -0.000000   0.000001
    23  H    0.000000   0.000000  -0.000000  -0.000000  -0.000000   0.000000
    24  H   -0.000000  -0.000000   0.000000  -0.000000   0.000000  -0.000006
    25  H    0.000000  -0.000000  -0.000000   0.000015  -0.000280   0.011296
    26  H    0.000013  -0.001831  -0.000161  -0.000007   0.000000  -0.000000
    27  H   -0.000039   0.001875  -0.000039  -0.000004   0.000000   0.000000
    28  H   -0.000010  -0.005642   0.005127   0.000247  -0.000014   0.000000
    29  H    0.006890   0.000986  -0.000797  -0.000021   0.000166   0.000004
    30  H   -0.000098  -0.005387   0.004237   0.000061   0.000055   0.000010
    31  H    0.000001   0.001620   0.000094  -0.000016   0.000021  -0.000000
    32  H    0.000940  -0.009063   0.001255   0.000030  -0.000005   0.000000
    33  H    0.000032   0.000211  -0.000333  -0.021208   0.302462  -0.025937
               7          8          9         10         11         12
     1  O   -0.000159  -0.000025  -0.000000  -0.000000  -0.000000   0.000000
     2  S   -0.001191  -0.000034  -0.000010   0.000000   0.000000   0.000000
     3  N   -0.066242   0.003612  -0.000103   0.000006   0.000000  -0.000000
     4  C    0.527850  -0.013840   0.002038   0.001346  -0.000011   0.000000
     5  N   -0.049663  -0.083109   0.006659  -0.000357   0.000003  -0.000000
     6  N   -0.090055   0.269972  -0.054108   0.003612  -0.000068   0.000014
     7  C    4.906767   0.322565  -0.034338  -0.004621   0.000007   0.000017
     8  N    0.322565   6.770028   0.203694  -0.048043   0.004372   0.000366
     9  C   -0.034338   0.203694   4.633624   0.529967  -0.010399  -0.037216
    10  C   -0.004621  -0.048043   0.529967   4.960504   0.530492  -0.040923
    11  C    0.000007   0.004372  -0.010399   0.530492   4.852650   0.542049
    12  C    0.000017   0.000366  -0.037216  -0.040923   0.542049   4.856325
    13  C   -0.000071   0.004308  -0.011041  -0.041432  -0.023664   0.538505
    14  C    0.006542  -0.052886   0.518903  -0.068266  -0.040537  -0.039864
    15  N   -0.000044   0.000000  -0.000000  -0.000000  -0.000000   0.000000
    16  C    0.000001   0.000000   0.000000  -0.000000   0.000000  -0.000000
    17  C    0.000034  -0.000001   0.000000   0.000000   0.000000  -0.000000
    18  O    0.000123  -0.000000  -0.000000   0.000000   0.000000  -0.000000
    19  H   -0.001721  -0.000002   0.000002  -0.000000  -0.000000  -0.000000
    20  H    0.363585  -0.030003  -0.002404   0.002331   0.000130  -0.000001
    21  H    0.005226  -0.008689  -0.040202   0.356002  -0.031279   0.004133
    22  H   -0.000003  -0.000111   0.003415  -0.036873   0.364849  -0.038222
    23  H   -0.000000   0.000004   0.000472   0.004924  -0.040590   0.366730
    24  H    0.000001  -0.000106   0.003490   0.000717   0.004314  -0.038630
    25  H    0.000112  -0.012224  -0.039139   0.004902   0.000114   0.004242
    26  H   -0.000000   0.000000  -0.000000   0.000000   0.000000  -0.000000
    27  H   -0.000000   0.000000  -0.000000  -0.000000  -0.000000   0.000000
    28  H    0.000003  -0.000000   0.000000  -0.000000  -0.000000   0.000000
    29  H    0.000002  -0.000001  -0.000000   0.000000   0.000000  -0.000000
    30  H    0.000024  -0.000001   0.000000   0.000000  -0.000000  -0.000000
    31  H   -0.000000   0.000000  -0.000000  -0.000000  -0.000000   0.000000
    32  H    0.000001  -0.000000   0.000000  -0.000000  -0.000000   0.000000
    33  H    0.004126   0.004026  -0.000042   0.000002  -0.000000  -0.000000
              13         14         15         16         17         18
     1  O   -0.000000   0.000000  -0.042914   0.001064  -0.002795  -0.033378
     2  S   -0.000000  -0.000000   0.111198  -0.010684  -0.012444   0.452417
     3  N   -0.000000   0.000000  -0.048307   0.000148   0.001575  -0.046314
     4  C    0.000007  -0.000647  -0.000914   0.000338  -0.000164  -0.000717
     5  N   -0.000006   0.000558   0.000242  -0.000009  -0.000306  -0.000011
     6  N    0.000244  -0.002019   0.000000  -0.000000   0.000014   0.000000
     7  C   -0.000071   0.006542  -0.000044   0.000001   0.000034   0.000123
     8  N    0.004308  -0.052886   0.000000   0.000000  -0.000001  -0.000000
     9  C   -0.011041   0.518903  -0.000000   0.000000   0.000000  -0.000000
    10  C   -0.041432  -0.068266  -0.000000  -0.000000   0.000000   0.000000
    11  C   -0.023664  -0.040537  -0.000000   0.000000   0.000000   0.000000
    12  C    0.538505  -0.039864   0.000000  -0.000000  -0.000000  -0.000000
    13  C    4.862898   0.526011  -0.000000  -0.000000   0.000000  -0.000000
    14  C    0.526011   4.961241   0.000000   0.000000  -0.000000  -0.000000
    15  N   -0.000000   0.000000   7.109372   0.205371   0.203783  -0.046917
    16  C   -0.000000   0.000000   0.205371   5.075466  -0.040586  -0.001092
    17  C    0.000000  -0.000000   0.203783  -0.040586   5.081191   0.001093
    18  O   -0.000000  -0.000000  -0.046917  -0.001092   0.001093   8.141205
    19  H   -0.000000   0.000000   0.000560  -0.000117   0.000154   0.001408
    20  H   -0.000004  -0.000037   0.000000   0.000000   0.000000  -0.000010
    21  H    0.000208   0.004543   0.000000  -0.000000   0.000000   0.000000
    22  H    0.004268   0.000751   0.000000   0.000000  -0.000000  -0.000000
    23  H   -0.040648   0.004733  -0.000000   0.000000  -0.000000  -0.000000
    24  H    0.365279  -0.037245   0.000000   0.000000  -0.000000   0.000000
    25  H   -0.034278   0.358930   0.000000   0.000000   0.000000  -0.000000
    26  H    0.000000   0.000000  -0.027898   0.375795   0.003457   0.006853
    27  H   -0.000000  -0.000000  -0.025225   0.374960  -0.001789   0.000111
    28  H   -0.000000  -0.000000  -0.032250   0.380701  -0.002425  -0.000291
    29  H    0.000000   0.000000  -0.028992   0.003467   0.373789   0.000022
    30  H    0.000000  -0.000000  -0.032597  -0.001669   0.381030  -0.000004
    31  H   -0.000000  -0.000000  -0.024270  -0.002326   0.374215  -0.000041
    32  H    0.000000  -0.000000   0.282355  -0.018159  -0.018428   0.000204
    33  H   -0.000000  -0.000000  -0.000230  -0.000001   0.002014   0.000000
              19         20         21         22         23         24
     1  O    0.000748   0.000015  -0.000000   0.000000   0.000000  -0.000000
     2  S   -0.008623   0.000129  -0.000000   0.000000   0.000000  -0.000000
     3  N    0.295349  -0.000736   0.000001   0.000000  -0.000000   0.000000
     4  C   -0.018146  -0.023478   0.000074   0.000000  -0.000000  -0.000000
     5  N    0.001122   0.003194  -0.000010  -0.000000  -0.000000   0.000000
     6  N   -0.000004   0.002984  -0.000072   0.000001   0.000000  -0.000006
     7  C   -0.001721   0.363585   0.005226  -0.000003  -0.000000   0.000001
     8  N   -0.000002  -0.030003  -0.008689  -0.000111   0.000004  -0.000106
     9  C    0.000002  -0.002404  -0.040202   0.003415   0.000472   0.003490
    10  C   -0.000000   0.002331   0.356002  -0.036873   0.004924   0.000717
    11  C   -0.000000   0.000130  -0.031279   0.364849  -0.040590   0.004314
    12  C   -0.000000  -0.000001   0.004133  -0.038222   0.366730  -0.038630
    13  C   -0.000000  -0.000004   0.000208   0.004268  -0.040648   0.365279
    14  C    0.000000  -0.000037   0.004543   0.000751   0.004733  -0.037245
    15  N    0.000560   0.000000   0.000000   0.000000  -0.000000   0.000000
    16  C   -0.000117   0.000000  -0.000000   0.000000   0.000000   0.000000
    17  C    0.000154   0.000000   0.000000  -0.000000  -0.000000  -0.000000
    18  O    0.001408  -0.000010   0.000000  -0.000000  -0.000000   0.000000
    19  H    0.249571   0.000488   0.000000   0.000000   0.000000   0.000000
    20  H    0.000488   0.405702   0.001360  -0.000001  -0.000000   0.000000
    21  H    0.000000   0.001360   0.523028  -0.004889  -0.000137   0.000013
    22  H    0.000000  -0.000001  -0.004889   0.536790  -0.004951  -0.000154
    23  H    0.000000  -0.000000  -0.000137  -0.004951   0.543619  -0.004979
    24  H    0.000000   0.000000   0.000013  -0.000154  -0.004979   0.537684
    25  H    0.000000  -0.000007  -0.000120   0.000012  -0.000129  -0.004857
    26  H    0.000036   0.000000   0.000000   0.000000   0.000000   0.000000
    27  H   -0.000001  -0.000000  -0.000000  -0.000000  -0.000000   0.000000
    28  H    0.000258   0.000000  -0.000000  -0.000000   0.000000  -0.000000
    29  H   -0.000002   0.000000   0.000000  -0.000000  -0.000000   0.000000
    30  H    0.000005   0.000000  -0.000000   0.000000  -0.000000  -0.000000
    31  H    0.000000  -0.000000  -0.000000   0.000000  -0.000000   0.000000
    32  H   -0.000010   0.000000  -0.000000  -0.000000   0.000000  -0.000000
    33  H   -0.000044  -0.000048  -0.000000   0.000000  -0.000000   0.000000
              25         26         27         28         29         30
     1  O    0.000000   0.000013  -0.000039  -0.000010   0.006890  -0.000098
     2  S   -0.000000  -0.001831   0.001875  -0.005642   0.000986  -0.005387
     3  N   -0.000000  -0.000161  -0.000039   0.005127  -0.000797   0.004237
     4  C    0.000015  -0.000007  -0.000004   0.000247  -0.000021   0.000061
     5  N   -0.000280   0.000000   0.000000  -0.000014   0.000166   0.000055
     6  N    0.011296  -0.000000   0.000000   0.000000   0.000004   0.000010
     7  C    0.000112  -0.000000  -0.000000   0.000003   0.000002   0.000024
     8  N   -0.012224   0.000000   0.000000  -0.000000  -0.000001  -0.000001
     9  C   -0.039139  -0.000000  -0.000000   0.000000  -0.000000   0.000000
    10  C    0.004902   0.000000  -0.000000  -0.000000   0.000000   0.000000
    11  C    0.000114   0.000000  -0.000000  -0.000000   0.000000  -0.000000
    12  C    0.004242  -0.000000   0.000000   0.000000  -0.000000  -0.000000
    13  C   -0.034278   0.000000  -0.000000  -0.000000   0.000000   0.000000
    14  C    0.358930   0.000000  -0.000000  -0.000000   0.000000  -0.000000
    15  N    0.000000  -0.027898  -0.025225  -0.032250  -0.028992  -0.032597
    16  C    0.000000   0.375795   0.374960   0.380701   0.003467  -0.001669
    17  C    0.000000   0.003457  -0.001789  -0.002425   0.373789   0.381030
    18  O   -0.000000   0.006853   0.000111  -0.000291   0.000022  -0.000004
    19  H    0.000000   0.000036  -0.000001   0.000258  -0.000002   0.000005
    20  H   -0.000007   0.000000  -0.000000   0.000000   0.000000   0.000000
    21  H   -0.000120   0.000000  -0.000000  -0.000000   0.000000  -0.000000
    22  H    0.000012   0.000000  -0.000000  -0.000000  -0.000000   0.000000
    23  H   -0.000129   0.000000  -0.000000   0.000000  -0.000000  -0.000000
    24  H   -0.004857   0.000000   0.000000  -0.000000   0.000000  -0.000000
    25  H    0.519696   0.000000  -0.000000  -0.000000   0.000000  -0.000000
    26  H    0.000000   0.448295  -0.019135  -0.021574  -0.000154   0.000033
    27  H   -0.000000  -0.019135   0.451665  -0.021851  -0.000048  -0.000613
    28  H   -0.000000  -0.021574  -0.021851   0.458277  -0.000006   0.004032
    29  H    0.000000  -0.000154  -0.000048  -0.000006   0.449560  -0.022184
    30  H   -0.000000   0.000033  -0.000613   0.004032  -0.022184   0.454540
    31  H   -0.000000  -0.000064   0.002575  -0.000334  -0.019440  -0.021276
    32  H   -0.000000  -0.001583  -0.002879   0.002799  -0.001326   0.002812
    33  H   -0.000002  -0.000000  -0.000000   0.000005   0.000803   0.001110
              31         32         33
     1  O    0.000001   0.000940   0.000032
     2  S    0.001620  -0.009063   0.000211
     3  N    0.000094   0.001255  -0.000333
     4  C   -0.000016   0.000030  -0.021208
     5  N    0.000021  -0.000005   0.302462
     6  N   -0.000000   0.000000  -0.025937
     7  C   -0.000000   0.000001   0.004126
     8  N    0.000000  -0.000000   0.004026
     9  C   -0.000000   0.000000  -0.000042
    10  C   -0.000000  -0.000000   0.000002
    11  C   -0.000000  -0.000000  -0.000000
    12  C    0.000000   0.000000  -0.000000
    13  C   -0.000000   0.000000  -0.000000
    14  C   -0.000000  -0.000000  -0.000000
    15  N   -0.024270   0.282355  -0.000230
    16  C   -0.002326  -0.018159  -0.000001
    17  C    0.374215  -0.018428   0.002014
    18  O   -0.000041   0.000204   0.000000
    19  H    0.000000  -0.000010  -0.000044
    20  H   -0.000000   0.000000  -0.000048
    21  H   -0.000000  -0.000000  -0.000000
    22  H    0.000000  -0.000000   0.000000
    23  H   -0.000000   0.000000  -0.000000
    24  H    0.000000  -0.000000   0.000000
    25  H   -0.000000  -0.000000  -0.000002
    26  H   -0.000064  -0.001583  -0.000000
    27  H    0.002575  -0.002879  -0.000000
    28  H   -0.000334   0.002799   0.000005
    29  H   -0.019440  -0.001326   0.000803
    30  H   -0.021276   0.002812   0.001110
    31  H    0.450144  -0.003000  -0.000022
    32  H   -0.003000   0.253183   0.000006
    33  H   -0.000022   0.000006   0.243892
 Mulliken charges:
               1
     1  O   -0.490239
     2  S    1.399594
     3  N   -0.813455
     4  C    0.539298
     5  N   -0.368382
     6  N    0.022303
     7  C    0.111122
     8  N   -0.333870
     9  C    0.326740
    10  C   -0.154290
    11  C   -0.152430
    12  C   -0.117526
    13  C   -0.150584
    14  C   -0.140711
    15  N   -0.602323
    16  C   -0.342668
    17  C   -0.343411
    18  O   -0.474661
    19  H    0.478969
    20  H    0.276809
    21  H    0.190811
    22  H    0.175116
    23  H    0.170952
    24  H    0.174478
    25  H    0.191716
    26  H    0.237928
    27  H    0.240436
    28  H    0.232949
    29  H    0.237284
    30  H    0.235880
    31  H    0.242118
    32  H    0.510867
    33  H    0.489177
 Sum of Mulliken charges =   2.00000
 Mulliken charges with hydrogens summed into heavy atoms:
               1
     1  O   -0.490239
     2  S    1.399594
     3  N   -0.334486
     4  C    0.539298
     5  N    0.120796
     6  N    0.022303
     7  C    0.387931
     8  N   -0.333870
     9  C    0.326740
    10  C    0.036521
    11  C    0.022686
    12  C    0.053427
    13  C    0.023894
    14  C    0.051005
    15  N   -0.091455
    16  C    0.368645
    17  C    0.371871
    18  O   -0.474661
 Electronic spatial extent (au):  <R**2>=           7055.2245
 Charge=              2.0000 electrons
 Dipole moment (field-independent basis, Debye):
    X=            -14.9513    Y=             -0.5046    Z=             -5.2850  Tot=             15.8659
 Quadrupole moment (field-independent basis, Debye-Ang):
   XX=             22.9228   YY=            -86.7435   ZZ=           -108.2754
   XY=             12.9694   XZ=             12.4871   YZ=             -4.9914
 Traceless Quadrupole moment (field-independent basis, Debye-Ang):
   XX=             80.2882   YY=            -29.3781   ZZ=            -50.9101
   XY=             12.9694   XZ=             12.4871   YZ=             -4.9914
 Octapole moment (field-independent basis, Debye-Ang**2):
  XXX=           -278.2357  YYY=            -34.6684  ZZZ=            -22.6581  XYY=             -5.1540
  XXY=            -39.9978  XXZ=            -30.5004  XZZ=            -27.5833  YZZ=            -10.3933
  YYZ=            -20.5003  XYZ=             -4.6936
 Hexadecapole moment (field-independent basis, Debye-Ang**3):
 XXXX=          -4377.1408 YYYY=           -704.8842 ZZZZ=           -446.5474 XXXY=            302.5025
 XXXZ=            260.9142 YYYX=            187.7533 YYYZ=            -55.5203 ZZZX=            123.3154
 ZZZY=            -29.0226 XXYY=          -1249.0413 XXZZ=          -1383.9794 YYZZ=           -199.0835
 XXYZ=           -116.0753 YYXZ=             77.9040 ZZXY=             47.2601
 N-N= 1.494657586659D+03 E-N=-5.784253968436D+03  KE= 1.202626065352D+03
 No NMR shielding tensors so no spin-rotation constants.
 Leave Link  601 at Mon Sep 28 08:23:39 2020, MaxMem=  2147483648 cpu:               0.4 elap:               0.1
 (Enter /prod/apps/gaussian/g16b1/l701.exe)
 ... and contract with generalized density number  0.
 Compute integral first derivatives.
 D1PCM: PCM CHGder 1st derivatives, ID1Alg=3 FixD1E=F DoIter=F DoCFld=F I1PDM=0.
 GePol: Maximum number of non-zero 1st derivatives   =     173
 Leave Link  701 at Mon Sep 28 08:23:41 2020, MaxMem=  2147483648 cpu:               9.0 elap:               2.3
 (Enter /prod/apps/gaussian/g16b1/l702.exe)
 L702 exits ... SP integral derivatives will be done elsewhere.
 Leave Link  702 at Mon Sep 28 08:23:41 2020, MaxMem=  2147483648 cpu:               0.1 elap:               0.0
 (Enter /prod/apps/gaussian/g16b1/l703.exe)
 Integral derivatives from FoFJK, PRISM(SPDF).
 Compute integral first derivatives, UseDBF=F ICtDFT=           0.
 Calling FoFJK, ICntrl=      2127 FMM=F ISym2X=0 I1Cent= 0 IOpClX= 0 NMat=1 NMatS=1 NMatT=0.
 FoFJK:  IHMeth= 1 ICntrl=    2127 DoSepK=F KAlg= 0 I1Cent=           0 FoldK=F
 IRaf=         0 NMat=       1 IRICut=       1 DoRegI=T DoRafI=F ISym2E= 0 IDoP0=0 IntGTp=1.
 FoFCou: FMM=F IPFlag=           0 FMFlag=      100000 FMFlg1=         800
         NFxFlg=           0 DoJE=F BraDBF=F KetDBF=F FulRan=T
         wScrn=  0.000000 ICntrl=      2127 IOpCl=  0 I1Cent=           0 NGrid=           0
         NMat0=    1 NMatS0=      1 NMatT0=    0 NMatD0=    1 NMtDS0=    0 NMtDT0=    0
 Symmetry not used in FoFCou.
 Leave Link  703 at Mon Sep 28 08:23:54 2020, MaxMem=  2147483648 cpu:              54.2 elap:              13.6
 (Enter /prod/apps/gaussian/g16b1/l716.exe)
 Dipole        =-5.88227987D+00-1.98516962D-01-2.07928485D+00
 -------------------------------------------------------------------
 Center     Atomic                   Forces (Hartrees/Bohr)
 Number     Number              X              Y              Z
 -------------------------------------------------------------------
      1        8           0.000015054   -0.000259253    0.000188196
      2       16           0.000213914    0.000217655   -0.000066795
      3        7           0.000046575    0.000559719   -0.000379832
      4        6          -0.000157149    0.000331012    0.000382773
      5        7           0.000041173   -0.000654719   -0.000246787
      6        7           0.000205993    0.000372753    0.000123652
      7        6          -0.000279724   -0.000165347   -0.000266274
      8        7          -0.000383894   -0.000443925   -0.000040690
      9        6           0.000255160   -0.000690863    0.000282452
     10        6          -0.000153635    0.000796254   -0.000368183
     11        6           0.000337341   -0.000243079    0.000140172
     12        6           0.000349309    0.000708327   -0.000081659
     13        6          -0.000293868   -0.000452262    0.000045100
     14        6           0.000152661    0.000514252   -0.000159356
     15        7          -0.000513544   -0.000066014    0.000293897
     16        6           0.000113208   -0.000436341    0.000061994
     17        6           0.000094941   -0.000110631    0.000399924
     18        8          -0.000077315   -0.000029605   -0.000090735
     19        1          -0.000028414   -0.000409535    0.000203174
     20        1           0.000043409    0.000187835    0.000060071
[...]
 Alpha virt. eigenvalues --    3.50513   3.51573   3.53445   3.54688   3.55604
 Alpha virt. eigenvalues --    3.56218   3.62077   3.66500   3.75478   3.76224
 Alpha virt. eigenvalues --    4.08485   4.30194   4.68676
          Condensed to atoms (all electrons):
               1          2          3          4          5          6
     1  O    8.894558   0.017644  -0.015838   0.076096   0.004789   0.004139
     2  S    0.017644  13.907231   0.534199  -1.546327   0.131454  -0.109354
     3  N   -0.015838   0.534199   9.548870  -3.441699   0.340639  -0.347084
     4  C    0.076096  -1.546327  -3.441699  18.399914  -1.409698   0.827115
     5  N    0.004789   0.131454   0.340639  -1.409698   8.896418  -1.141451
     6  N    0.004139  -0.109354  -0.347084   0.827115  -1.141451   8.982683
     7  C   -0.042440   0.479197   1.335262  -8.534173   1.310100  -1.074164
     8  N    0.025490   0.063914   0.081053  -0.230363  -0.403304  -0.095674
     9  C    0.011149   0.016537   0.058775   0.192004  -0.574578  -0.027719
    10  C   -0.002142   0.002151   0.024500  -0.292044   0.207790  -0.106781
    11  C   -0.000049   0.003298   0.022968   0.034475   0.007018   0.004737
    12  C   -0.000114  -0.001502  -0.005355   0.023600   0.020798   0.017309
    13  C    0.000002  -0.000667  -0.005313   0.012008  -0.099031   0.013529
    14  C   -0.001145  -0.022240  -0.076147   0.105703  -0.077870   0.495213
    15  N   -0.145635  -0.339575  -0.309967   0.370157  -0.046015   0.033445
    16  C   -0.000741   0.032264   0.099620  -0.139991   0.017276  -0.007923
    17  C    0.030481  -0.020418   0.016266   0.224619  -0.039818  -0.032432
    18  O    0.033426  -0.020671   0.037630  -0.039576   0.005557   0.000700
    19  H    0.009748  -0.087609   0.146592   0.233024  -0.007739   0.012300
    20  H   -0.008147   0.016118  -0.168252   0.587709  -0.123266  -0.025552
    21  H    0.000197  -0.002440  -0.013516   0.006302  -0.004569  -0.019290
    22  H    0.000008   0.000188   0.001104  -0.001190  -0.001992   0.000793
    23  H   -0.000006  -0.000047  -0.000201   0.000670   0.000244   0.001389
    24  H   -0.000006  -0.000017  -0.000073  -0.001377  -0.001562   0.002286
    25  H   -0.000294  -0.000783  -0.001810   0.010240  -0.019780  -0.008780
    26  H   -0.000104   0.091189  -0.007350  -0.023703   0.002071  -0.000541
    27  H    0.000558  -0.018100   0.020673  -0.012898   0.000729  -0.000527
    28  H    0.002142  -0.010800   0.025504   0.000167  -0.004783  -0.000086
    29  H    0.046541   0.059397   0.006631  -0.079525   0.049105   0.016161
    30  H    0.011362  -0.045075  -0.038430   0.012179   0.025233   0.016272
    31  H    0.004143  -0.021280   0.031510  -0.000020  -0.016575  -0.008604
    32  H    0.029227  -0.058175   0.046270   0.008464  -0.003074   0.000418
    33  H   -0.004710   0.014859  -0.012644   0.030752   0.329408  -0.149955
               7          8          9         10         11         12
     1  O   -0.042440   0.025490   0.011149  -0.002142  -0.000049  -0.000114
     2  S    0.479197   0.063914   0.016537   0.002151   0.003298  -0.001502
     3  N    1.335262   0.081053   0.058775   0.024500   0.022968  -0.005355
     4  C   -8.534173  -0.230363   0.192004  -0.292044   0.034475   0.023600
     5  N    1.310100  -0.403304  -0.574578   0.207790   0.007018   0.020798
     6  N   -1.074164  -0.095674  -0.027719  -0.106781   0.004737   0.017309
     7  C   13.643466  -0.146469  -1.332242   0.526173  -0.274943  -0.033519
     8  N   -0.146469   9.380616  -1.062638   0.528927  -0.346712   0.377542
     9  C   -1.332242  -1.062638  14.699947  -5.362114   2.720650  -3.518764
    10  C    0.526173   0.528927  -5.362114  12.601630  -3.334635   2.933766
    11  C   -0.274943  -0.346712   2.720650  -3.334635   9.849474  -2.822572
    12  C   -0.033519   0.377542  -3.518764   2.933766  -2.822572   8.680258
    13  C    0.102746  -0.264537   2.551254  -3.112795   2.767397  -2.778292
    14  C   -0.204231  -0.003984  -5.110328   1.878827  -3.103052   2.867727
    15  N   -0.056660   0.001173   0.002269  -0.003801  -0.000193  -0.000035
    16  C    0.028873   0.005297   0.001312   0.001071   0.000279  -0.000035
    17  C   -0.095417  -0.022352  -0.009744  -0.000587  -0.000481   0.000186
    18  O    0.026993  -0.000419   0.000455   0.000953   0.000001   0.000017
    19  H   -0.178347   0.000970   0.003069  -0.005064   0.000298  -0.000032
    20  H   -0.827015   0.161275   0.138257   0.020680   0.081054  -0.008392
    21  H    0.074988  -0.238720   1.037158  -1.049641   0.074627  -0.200330
    22  H    0.008603   0.001623  -0.137133   0.616019  -0.703712   0.289027
    23  H   -0.003180  -0.004035   0.116213  -0.168277   0.334670  -0.536260
    24  H    0.000268  -0.009838  -0.096050   0.108280  -0.201309   0.253046
    25  H   -0.027744  -0.208307   0.740657  -0.123491   0.121267  -0.171214
    26  H    0.006348   0.000085  -0.000012   0.000233   0.000052  -0.000002
    27  H    0.000874   0.000531   0.000210   0.000039   0.000015  -0.000002
    28  H   -0.000990  -0.000264  -0.000055  -0.000170  -0.000136   0.000006
    29  H    0.028727   0.012489   0.003161   0.000946   0.000069  -0.000054
    30  H   -0.006578   0.006845   0.003645  -0.000550   0.000016   0.000010
    31  H   -0.011035  -0.003154  -0.001350  -0.000069  -0.000046   0.000020
    32  H    0.002308  -0.001071  -0.000254  -0.000163  -0.000008  -0.000003
    33  H   -0.111714   0.061273   0.015712  -0.008442  -0.000208  -0.001038
              13         14         15         16         17         18
     1  O    0.000002  -0.001145  -0.145635  -0.000741   0.030481   0.033426
     2  S   -0.000667  -0.022240  -0.339575   0.032264  -0.020418  -0.020671
     3  N   -0.005313  -0.076147  -0.309967   0.099620   0.016266   0.037630
     4  C    0.012008   0.105703   0.370157  -0.139991   0.224619  -0.039576
     5  N   -0.099031  -0.077870  -0.046015   0.017276  -0.039818   0.005557
     6  N    0.013529   0.495213   0.033445  -0.007923  -0.032432   0.000700
     7  C    0.102746  -0.204231  -0.056660   0.028873  -0.095417   0.026993
     8  N   -0.264537  -0.003984   0.001173   0.005297  -0.022352  -0.000419
     9  C    2.551254  -5.110328   0.002269   0.001312  -0.009744   0.000455
    10  C   -3.112795   1.878827  -0.003801   0.001071  -0.000587   0.000953
    11  C    2.767397  -3.103052  -0.000193   0.000279  -0.000481   0.000001
    12  C   -2.778292   2.867727  -0.000035  -0.000035   0.000186   0.000017
    13  C    9.537990  -3.235436   0.000331  -0.000038  -0.000153  -0.000022
    14  C   -3.235436  12.664098   0.002707  -0.001174   0.001368   0.000339
    15  N    0.000331   0.002707   8.840913  -0.082885  -0.099915  -0.104046
    16  C   -0.000038  -0.001174  -0.082885   4.184204  -0.067454   0.002435
    17  C   -0.000153   0.001368  -0.099915  -0.067454   4.204411   0.033136
    18  O   -0.000022   0.000339  -0.104046   0.002435   0.033136   8.918545
    19  H   -0.000583   0.001233  -0.034839  -0.021520   0.021980   0.039313
    20  H    0.002325  -0.131494   0.000992   0.000014  -0.002211  -0.001512
    21  H    0.131056  -0.111508   0.000014  -0.000427   0.000282   0.000036
    22  H   -0.224368   0.109264  -0.000003   0.000018  -0.000028   0.000004
    23  H    0.365567  -0.122104  -0.000001  -0.000001   0.000004   0.000001
    24  H   -0.626006   0.545002   0.000007   0.000004  -0.000032  -0.000000
    25  H    0.283387  -0.876737  -0.000025  -0.000052   0.000048   0.000070
    26  H   -0.000013  -0.000197  -0.093856   0.356610  -0.015519  -0.000019
    27  H   -0.000001  -0.000042  -0.073088   0.393859   0.040146  -0.002184
    28  H    0.000042   0.000376  -0.136830   0.346918   0.018384   0.009537
    29  H    0.000058  -0.001298  -0.073041   0.004241   0.167005   0.003382
    30  H    0.000029   0.000658  -0.116483   0.007072   0.261903   0.006019
    31  H   -0.000016   0.000083  -0.151826   0.042010   0.474921   0.002969
    32  H    0.000015   0.000077   0.293327  -0.006444  -0.001902   0.026029
    33  H    0.004366  -0.000006   0.000272  -0.003786   0.022681  -0.001395
              19         20         21         22         23         24
     1  O    0.009748  -0.008147   0.000197   0.000008  -0.000006  -0.000006
     2  S   -0.087609   0.016118  -0.002440   0.000188  -0.000047  -0.000017
     3  N    0.146592  -0.168252  -0.013516   0.001104  -0.000201  -0.000073
     4  C    0.233024   0.587709   0.006302  -0.001190   0.000670  -0.001377
     5  N   -0.007739  -0.123266  -0.004569  -0.001992   0.000244  -0.001562
     6  N    0.012300  -0.025552  -0.019290   0.000793   0.001389   0.002286
     7  C   -0.178347  -0.827015   0.074988   0.008603  -0.003180   0.000268
     8  N    0.000970   0.161275  -0.238720   0.001623  -0.004035  -0.009838
     9  C    0.003069   0.138257   1.037158  -0.137133   0.116213  -0.096050
    10  C   -0.005064   0.020680  -1.049641   0.616019  -0.168277   0.108280
    11  C    0.000298   0.081054   0.074627  -0.703712   0.334670  -0.201309
    12  C   -0.000032  -0.008392  -0.200330   0.289027  -0.536260   0.253046
    13  C   -0.000583   0.002325   0.131056  -0.224368   0.365567  -0.626006
    14  C    0.001233  -0.131494  -0.111508   0.109264  -0.122104   0.545002
    15  N   -0.034839   0.000992   0.000014  -0.000003  -0.000001   0.000007
    16  C   -0.021520   0.000014  -0.000427   0.000018  -0.000001   0.000004
    17  C    0.021980  -0.002211   0.000282  -0.000028   0.000004  -0.000032
    18  O    0.039313  -0.001512   0.000036   0.000004   0.000001  -0.000000
    19  H    0.823242   0.005602   0.002513  -0.000023  -0.000008  -0.000019
    20  H    0.005602   1.762350  -0.053254   0.001683   0.000016   0.000550
    21  H    0.002513  -0.053254   2.111986  -0.076654  -0.014794   0.009486
    22  H   -0.000023   0.001683  -0.076654   1.590214  -0.059884  -0.016997
    23  H   -0.000008   0.000016  -0.014794  -0.059884   1.566978  -0.062796
    24  H   -0.000019   0.000550   0.009486  -0.016997  -0.062796   1.572882
    25  H    0.000005  -0.004609  -0.015973   0.009091  -0.011437  -0.076087
    26  H    0.005891   0.000318  -0.000063   0.000003  -0.000000   0.000001
    27  H   -0.004324  -0.000085  -0.000015   0.000001  -0.000000   0.000000
    28  H    0.000576  -0.000619   0.000047  -0.000003   0.000001  -0.000001
    29  H   -0.000792   0.000551  -0.000007   0.000003  -0.000001   0.000014
    30  H    0.005302   0.001089   0.000207   0.000001   0.000001  -0.000007
    31  H    0.003621  -0.000397  -0.000004  -0.000002   0.000000  -0.000004
    32  H   -0.002886   0.000526  -0.000009  -0.000000  -0.000000  -0.000001
    33  H    0.002818  -0.001019   0.000586  -0.000032  -0.000013   0.000130
              25         26         27         28         29         30
     1  O   -0.000294  -0.000104   0.000558   0.002142   0.046541   0.011362
     2  S   -0.000783   0.091189  -0.018100  -0.010800   0.059397  -0.045075
     3  N   -0.001810  -0.007350   0.020673   0.025504   0.006631  -0.038430
     4  C    0.010240  -0.023703  -0.012898   0.000167  -0.079525   0.012179
     5  N   -0.019780   0.002071   0.000729  -0.004783   0.049105   0.025233
     6  N   -0.008780  -0.000541  -0.000527  -0.000086   0.016161   0.016272
     7  C   -0.027744   0.006348   0.000874  -0.000990   0.028727  -0.006578
     8  N   -0.208307   0.000085   0.000531  -0.000264   0.012489   0.006845
     9  C    0.740657  -0.000012   0.000210  -0.000055   0.003161   0.003645
    10  C   -0.123491   0.000233   0.000039  -0.000170   0.000946  -0.000550
    11  C    0.121267   0.000052   0.000015  -0.000136   0.000069   0.000016
    12  C   -0.171214  -0.000002  -0.000002   0.000006  -0.000054   0.000010
    13  C    0.283387  -0.000013  -0.000001   0.000042   0.000058   0.000029
    14  C   -0.876737  -0.000197  -0.000042   0.000376  -0.001298   0.000658
    15  N   -0.000025  -0.093856  -0.073088  -0.136830  -0.073041  -0.116483
    16  C   -0.000052   0.356610   0.393859   0.346918   0.004241   0.007072
    17  C    0.000048  -0.015519   0.040146   0.018384   0.167005   0.261903
    18  O    0.000070  -0.000019  -0.002184   0.009537   0.003382   0.006019
    19  H    0.000005   0.005891  -0.004324   0.000576  -0.000792   0.005302
    20  H   -0.004609   0.000318  -0.000085  -0.000619   0.000551   0.001089
    21  H   -0.015973  -0.000063  -0.000015   0.000047  -0.000007   0.000207
    22  H    0.009091   0.000003   0.000001  -0.000003   0.000003   0.000001
    23  H   -0.011437  -0.000000  -0.000000   0.000001  -0.000001   0.000001
    24  H   -0.076087   0.000001   0.000000  -0.000001   0.000014  -0.000007
    25  H    1.907310  -0.000001  -0.000003   0.000010   0.000033   0.000111
    26  H   -0.000001   1.193514  -0.259228  -0.172505  -0.001751   0.003443
    27  H   -0.000003  -0.259228   1.165202  -0.168875   0.010575  -0.006057
    28  H    0.000010  -0.172505  -0.168875   1.161550   0.002369   0.004657
    29  H    0.000033  -0.001751   0.010575   0.002369   1.437251  -0.177604
    30  H    0.000111   0.003443  -0.006057   0.004657  -0.177604   1.335839
    31  H   -0.000007   0.005458  -0.001019  -0.003484  -0.350445  -0.272012
    32  H    0.000016  -0.025007  -0.022182   0.033184  -0.029946   0.033040
    33  H   -0.003481  -0.000450   0.000294   0.000411  -0.013461  -0.005238
              31         32         33
     1  O    0.004143   0.029227  -0.004710
     2  S   -0.021280  -0.058175   0.014859
     3  N    0.031510   0.046270  -0.012644
     4  C   -0.000020   0.008464   0.030752
     5  N   -0.016575  -0.003074   0.329408
     6  N   -0.008604   0.000418  -0.149955
     7  C   -0.011035   0.002308  -0.111714
     8  N   -0.003154  -0.001071   0.061273
     9  C   -0.001350  -0.000254   0.015712
    10  C   -0.000069  -0.000163  -0.008442
    11  C   -0.000046  -0.000008  -0.000208
    12  C    0.000020  -0.000003  -0.001038
    13  C   -0.000016   0.000015   0.004366
    14  C    0.000083   0.000077  -0.000006
    15  N   -0.151826   0.293327   0.000272
    16  C    0.042010  -0.006444  -0.003786
    17  C    0.474921  -0.001902   0.022681
    18  O    0.002969   0.026029  -0.001395
    19  H    0.003621  -0.002886   0.002818
    20  H   -0.000397   0.000526  -0.001019
    21  H   -0.000004  -0.000009   0.000586
    22  H   -0.000002  -0.000000  -0.000032
    23  H    0.000000  -0.000000  -0.000013
    24  H   -0.000004  -0.000001   0.000130
    25  H   -0.000007   0.000016  -0.003481
    26  H    0.005458  -0.025007  -0.000450
    27  H   -0.001019  -0.022182   0.000294
    28  H   -0.003484   0.033184   0.000411
    29  H   -0.350445  -0.029946  -0.013461
    30  H   -0.272012   0.033040  -0.005238
    31  H    1.443452  -0.024586   0.002748
    32  H   -0.024586   0.523062   0.000239
    33  H    0.002748   0.000239   0.800547
 Mulliken charges:
               1
     1  O   -0.980327
     2  S    2.935440
     3  N   -0.934389
     4  C    0.597387
     5  N   -0.373528
     6  N   -0.272569
     7  C    1.385934
     8  N   -0.667261
     9  C    0.920546
    10  C    0.118782
    11  C    0.765689
    12  C    0.614202
    13  C    0.575167
    14  C    0.406320
    15  N   -0.676889
    16  C    0.809095
    17  C    0.890646
    18  O   -0.977703
    19  H    0.025687
    20  H   -0.425285
    21  H   -0.648272
    22  H   -0.405628
    23  H   -0.402710
    24  H   -0.399773
    25  H   -0.521634
    26  H   -0.064895
    27  H   -0.065077
    28  H   -0.106282
    29  H   -0.120783
    30  H   -0.066899
    31  H   -0.144998
    32  H    0.179508
    33  H    0.030498
 Sum of Mulliken charges =   2.00000
 Mulliken charges with hydrogens summed into heavy atoms:
               1
     1  O   -0.980327
     2  S    2.935440
     3  N   -0.908702
     4  C    0.597387
     5  N   -0.343030
     6  N   -0.272569
     7  C    0.960649
     8  N   -0.667261
     9  C    0.920546
    10  C   -0.529489
    11  C    0.360061
    12  C    0.211492
    13  C    0.175394
    14  C   -0.115314
    15  N   -0.497381
    16  C    0.572841
    17  C    0.557966
    18  O   -0.977703
 Electronic spatial extent (au):  <R**2>=           7030.0947
 Charge=              2.0000 electrons
 Dipole moment (field-independent basis, Debye):
    X=              9.9501    Y=              2.5302    Z=             -5.0910  Tot=             11.4596
 Quadrupole moment (field-independent basis, Debye-Ang):
   XX=             40.8370   YY=            -87.0196   ZZ=           -106.9211
   XY=             18.4901   XZ=            -15.3123   YZ=              6.5179
 Traceless Quadrupole moment (field-independent basis, Debye-Ang):
   XX=             91.8716   YY=            -35.9850   ZZ=            -55.8865
   XY=             18.4901   XZ=            -15.3123   YZ=              6.5179
 Octapole moment (field-independent basis, Debye-Ang**2):
  XXX=            141.2040  YYY=             19.9557  ZZZ=             -7.0978  XYY=             21.7247
  XXY=             45.1480  XXZ=            -27.9839  XZZ=             45.9187  YZZ=             -1.8368
  YYZ=            -12.4645  XYZ=            -18.2350
 Hexadecapole moment (field-independent basis, Debye-Ang**3):
 XXXX=          -3629.0852 YYYY=           -691.8972 ZZZZ=           -435.1794 XXXY=            327.9298
 XXXZ=           -322.7783 YYYX=             93.2136 YYYZ=             21.6175 ZZZX=            -24.3309
 ZZZY=              1.0775 XXYY=          -1222.6608 XXZZ=          -1345.2566 YYZZ=           -186.5788
 XXYZ=            135.5645 YYXZ=            -26.8681 ZZXY=            -12.4261
 N-N= 1.494560351232D+03 E-N=-5.784557469410D+03  KE= 1.204752925387D+03
 Leave Link  601 at Mon Sep 28 09:10:54 2020, MaxMem=   262144000 cpu:               0.5 elap:               0.2
 (Enter /prod/apps/gaussian/g16b1/l9999.exe)
 1\1\GINC-PIRINEUS11\SP\RMP2-FC\Aug-CC-pVDZ\C10H15N5O2S1(2+)\UBAFAR01\2
 8-Sep-2020\0\\#p mp2/aug-cc-pVDZ scf=(MaxCycle=2000,NoVarAcc,NoIncFock
 ) maxdisk=120GB geom=allcheck\\SM46_m3.b.2.pdb.xyz\\2,1\O,0,-2.2936508
 704,-0.3129026854,1.8052296528\S,0,-2.8181865357,0.6703828087,0.881406
 0089\N,0,-1.7737422123,0.831807379,-0.4102821111\C,0,-0.4892088063,0.2
 889220864,-0.3537937585\N,0,-0.2159804346,-1.0284155146,-0.5395847001\
 N,0,1.0630669026,-1.2970871866,-0.4843253691\C,0,0.7367561283,0.887589
 9942,-0.1756887479\N,0,1.6398101448,-0.1246840529,-0.2738255936\C,0,3.
 0684057665,-0.047080142,-0.1559724899\C,0,3.7105344892,1.1455548672,-0
 .4848048113\C,0,5.0966961602,1.2112379854,-0.3601090862\C,0,5.81835366
 81,0.0985727026,0.0762020441\C,0,5.1539123837,-1.0883074485,0.39488336
 78\C,0,3.7680423191,-1.1698260274,0.2860154793\N,0,-4.2387682231,-0.18
 67973877,0.053331636\C,0,-4.9530809553,0.7133126414,-0.9117760228\C,0,
 -3.8446532292,-1.5036591339,-0.5474883021\O,0,-3.3743002648,1.95237104
 43,1.260257214\H,0,-1.8455732418,1.7516063624,-0.8594641964\H,0,1.0050
 29833,1.9105646345,0.0214955364\H,0,3.149101311,1.9983935155,-0.845577
 9369\H,0,5.6095633462,2.1314804472,-0.6142989892\H,0,6.8970278734,0.15
 57654618,0.1680893713\H,0,5.7115050938,-1.9517106322,0.7387022185\H,0,
 3.2352398042,-2.0760301007,0.5423977747\H,0,-5.2185120773,1.6320827719
 ,-0.3959397121\H,0,-5.8484716045,0.1849079571,-1.2337919792\H,0,-4.301
 8408713,0.9055979644,-1.7617409463\H,0,-3.2686917713,-2.0621241585,0.1
 866327226\H,0,-3.2708438516,-1.3166264048,-1.4523876976\H,0,-4.7671310
 554,-2.0323735503,-0.7823337561\H,0,-4.8749722311,-0.3749611365,0.8504
 00158\H,0,-0.8804369882,-1.7925650618,-0.700856978\\Version=ES64L-G16R
 evB.01\State=1-A\HF=-1206.2830966\MP2=-1209.0883876\RMSD=6.670e-09\PG=
 C01 [X(C10H15N5O2S1)]\\@


 "A LITTLE BIT GOES A LONG WAY"
 R.S. MULLIKEN AS QUOTED BY K. RUEDENBERG
 Job cpu time:       0 days  1 hours 52 minutes 20.1 seconds.
 Elapsed time:       0 days  0 hours 30 minutes  2.7 seconds.
 File lengths (MBytes):  RWF=  80162 Int=      0 D2E=      0 Chk=     25 Scr=      1
 Normal termination of Gaussian 16 at Mon Sep 28 09:10:56 2020.
