 Entering Gaussian System, Link 0=g16
 Initial command:
 /prod/apps/gaussian/g16b1/l1.exe "/tmp/ubafar01/1460694/Gau-133896.inp" -scrdir="/tmp/ubafar01/1460694/"
 Entering Link 1 = /prod/apps/gaussian/g16b1/l1.exe PID=    133899.
  
 Copyright (c) 1988-2017, Gaussian, Inc.  All Rights Reserved.
  
 This is part of the Gaussian(R) 16 program.  It is based on
 the Gaussian(R) 09 system (copyright 2009, Gaussian, Inc.),
 the Gaussian(R) 03 system (copyright 2003, Gaussian, Inc.),
 the Gaussian(R) 98 system (copyright 1998, Gaussian, Inc.),
 the Gaussian(R) 94 system (copyright 1995, Gaussian, Inc.),
 the Gaussian 92(TM) system (copyright 1992, Gaussian, Inc.),
 the Gaussian 90(TM) system (copyright 1990, Gaussian, Inc.),
 the Gaussian 88(TM) system (copyright 1988, Gaussian, Inc.),
 the Gaussian 86(TM) system (copyright 1986, Carnegie Mellon
 University), and the Gaussian 82(TM) system (copyright 1983,
 Carnegie Mellon University). Gaussian is a federally registered
 trademark of Gaussian, Inc.
  
 This software contains proprietary and confidential information,
 including trade secrets, belonging to Gaussian, Inc.
  
 This software is provided under written license and may be
 used, copied, transmitted, or stored only in accord with that
 written license.
  
 The following legend is applicable only to US Government
 contracts under FAR:
  
                    RESTRICTED RIGHTS LEGEND
  
 Use, reproduction and disclosure by the US Government is
 subject to restrictions as set forth in subparagraphs (a)
 and (c) of the Commercial Computer Software - Restricted
 Rights clause in FAR 52.227-19.
  
 Gaussian, Inc.
 340 Quinnipiac St., Bldg. 40, Wallingford CT 06492
  
  
 ---------------------------------------------------------------
 Warning -- This program may not be used in any manner that
 competes with the business of Gaussian, Inc. or will provide
 assistance to any competitor of Gaussian, Inc.  The licensee
 of this program is prohibited from giving any competitor of
 Gaussian, Inc. access to this program.  By using this program,
 the user acknowledges that Gaussian, Inc. is engaged in the
 business of creating and licensing software in the field of
 computational chemistry and represents and warrants to the
 licensee that it is not a competitor of Gaussian, Inc. and that
 it will not use this program in any manner prohibited above.
 ---------------------------------------------------------------
  

 Cite this work as:
 Gaussian 16, Revision B.01,
 M. J. Frisch, G. W. Trucks, H. B. Schlegel, G. E. Scuseria, 
 M. A. Robb, J. R. Cheeseman, G. Scalmani, V. Barone, 
 G. A. Petersson, H. Nakatsuji, X. Li, M. Caricato, A. V. Marenich, 
 J. Bloino, B. G. Janesko, R. Gomperts, B. Mennucci, H. P. Hratchian, 
 J. V. Ortiz, A. F. Izmaylov, J. L. Sonnenberg, D. Williams-Young, 
 F. Ding, F. Lipparini, F. Egidi, J. Goings, B. Peng, A. Petrone, 
 T. Henderson, D. Ranasinghe, V. G. Zakrzewski, J. Gao, N. Rega, 
 G. Zheng, W. Liang, M. Hada, M. Ehara, K. Toyota, R. Fukuda, 
 J. Hasegawa, M. Ishida, T. Nakajima, Y. Honda, O. Kitao, H. Nakai, 
 T. Vreven, K. Throssell, J. A. Montgomery, Jr., J. E. Peralta, 
 F. Ogliaro, M. J. Bearpark, J. J. Heyd, E. N. Brothers, K. N. Kudin, 
 V. N. Staroverov, T. A. Keith, R. Kobayashi, J. Normand, 
 K. Raghavachari, A. P. Rendell, J. C. Burant, S. S. Iyengar, 
 J. Tomasi, M. Cossi, J. M. Millam, M. Klene, C. Adamo, R. Cammi, 
 J. W. Ochterski, R. L. Martin, K. Morokuma, O. Farkas, 
 J. B. Foresman, and D. J. Fox, Gaussian, Inc., Wallingford CT, 2016.
 
 ******************************************
 Gaussian 16:  ES64L-G16RevB.01 20-Dec-2017
                23-Sep-2020 
 ******************************************
 %nproc=4
 Will use up to    4 processors via shared memory.
 %Chk=SM46_m0.n.3.pdb.xyz.mst.n.w.chk
 %mem=16GB
 ----------------------------------------------------------------------
 #p b3lyp/6-31G(d) opt freq NoSymm scf=(MaxCycle=2000,NoVarAcc,NoIncFoc
 k) scrf=(iefpcm,read,solvent=water)
 ----------------------------------------------------------------------
 1/18=20,19=15,26=3,38=1,40=2/1,3;
 2/9=110,12=2,15=1,17=6,18=5,40=1/2;
 3/5=1,6=6,7=1,11=2,25=1,30=1,70=2203,71=1,72=1,74=-5/1,2,3;
 4//1;
 5/5=100002,7=2000,38=1,53=1/2;
 6/7=2,8=2,9=2,10=2,28=1/1;
 7/30=1/1,2,3,16;
 1/18=20,19=15,26=3/3(2);
 2/9=110,15=1/2;
 99//99;
 2/9=110,15=1/2;
 3/5=1,6=6,7=1,11=2,25=1,30=1,70=2205,71=1,72=1,74=-5/1,2,3;
 4/5=5,16=3,69=1/1;
 5/5=100002,7=2000,38=1,53=1/2;
 7/30=1/1,2,3,16;
 1/18=20,19=15,26=3/3(-5);
 2/9=110,15=1/2;
 6/7=2,8=2,9=2,10=2,19=2,28=1/1;
 99/9=1/99;
 Leave Link    1 at Wed Sep 23 11:20:27 2020, MaxMem=  2147483648 cpu:               0.2 elap:               0.0
 (Enter /prod/apps/gaussian/g16b1/l101.exe)
 -------------------
 SM46_m0.n.3.pdb.xyz
 -------------------
 Symbolic Z-matrix:
 Charge =  0 Multiplicity = 1
 O                    -4.322    -0.208    -1.002 
 S                    -3.17     -0.337    -0.11 
 N                    -1.861    -0.516    -1.189 
 C                    -0.546    -0.676    -0.718 
 N                    -0.126    -1.836    -0.143 
 N                     1.145    -1.728     0.143 
 C                     0.523     0.192    -0.802 
 N                     1.556    -0.503    -0.265 
 C                     2.914    -0.099    -0.108 
 C                     3.444     0.879    -0.952 
 C                     4.771     1.272    -0.785 
 C                     5.563     0.684     0.203 
 C                     5.02     -0.299     1.033 
 C                     3.692    -0.692     0.888 
 N                    -3.096     1.074     0.777 
 C                    -2.178     1.122     1.922 
 C                    -3.206     2.326     0.018 
 O                    -3.07     -1.438     0.846 
 H                    -1.949     0.155    -1.954 
 H                     0.616     1.199    -1.171 
 H                     2.832     1.318    -1.731 
 H                     5.185     2.032    -1.439 
 H                     6.596     0.99      0.325 
 H                     5.628    -0.756     1.805 
 H                     3.255    -1.442     1.532 
 H                    -2.165     0.154     2.418 
 H                    -2.561     1.871     2.618 
 H                    -1.16      1.402     1.627 
 H                    -3.962     2.214    -0.757 
 H                    -2.251     2.623    -0.433 
 H                    -3.525     3.105     0.713 
 
 ITRead=  0  0  0  0  0  0  0  0  0  0  0  0  0  0  0  0  0  0  0  0
 ITRead=  0  0  0  0  0  0  0  0  0  0  0
 MicOpt= -1 -1 -1 -1 -1 -1 -1 -1 -1 -1 -1 -1 -1 -1 -1 -1 -1 -1 -1 -1
 MicOpt= -1 -1 -1 -1 -1 -1 -1 -1 -1 -1 -1
 NAtoms=     31 NQM=       31 NQMF=       0 NMMI=      0 NMMIF=      0
                NMic=       0 NMicF=      0.
                    Isotopes and Nuclear Properties:
 (Nuclear quadrupole moments (NQMom) in fm**2, nuclear magnetic moments (NMagM)
  in nuclear magnetons)

  Atom         1           2           3           4           5           6           7           8           9          10
 IAtWgt=          16          32          14          12          14          14          12          14          12          12
 AtmWgt=  15.9949146  31.9720718  14.0030740  12.0000000  14.0030740  14.0030740  12.0000000  14.0030740  12.0000000  12.0000000
 NucSpn=           0           0           2           0           2           2           0           2           0           0
 AtZEff=  -0.0000000  -0.0000000  -0.0000000  -0.0000000  -0.0000000  -0.0000000  -0.0000000  -0.0000000  -0.0000000  -0.0000000
 NQMom=    0.0000000   0.0000000   2.0440000   0.0000000   2.0440000   2.0440000   0.0000000   2.0440000   0.0000000   0.0000000
 NMagM=    0.0000000   0.0000000   0.4037610   0.0000000   0.4037610   0.4037610   0.0000000   0.4037610   0.0000000   0.0000000
 AtZNuc=   8.0000000  16.0000000   7.0000000   6.0000000   7.0000000   7.0000000   6.0000000   7.0000000   6.0000000   6.0000000

  Atom        11          12          13          14          15          16          17          18          19          20
 IAtWgt=          12          12          12          12          14          12          12          16           1           1
 AtmWgt=  12.0000000  12.0000000  12.0000000  12.0000000  14.0030740  12.0000000  12.0000000  15.9949146   1.0078250   1.0078250
 NucSpn=           0           0           0           0           2           0           0           0           1           1
 AtZEff=  -0.0000000  -0.0000000  -0.0000000  -0.0000000  -0.0000000  -0.0000000  -0.0000000  -0.0000000  -0.0000000  -0.0000000
 NQMom=    0.0000000   0.0000000   0.0000000   0.0000000   2.0440000   0.0000000   0.0000000   0.0000000   0.0000000   0.0000000
 NMagM=    0.0000000   0.0000000   0.0000000   0.0000000   0.4037610   0.0000000   0.0000000   0.0000000   2.7928460   2.7928460
 AtZNuc=   6.0000000   6.0000000   6.0000000   6.0000000   7.0000000   6.0000000   6.0000000   8.0000000   1.0000000   1.0000000

  Atom        21          22          23          24          25          26          27          28          29          30
 IAtWgt=           1           1           1           1           1           1           1           1           1           1
 AtmWgt=   1.0078250   1.0078250   1.0078250   1.0078250   1.0078250   1.0078250   1.0078250   1.0078250   1.0078250   1.0078250
 NucSpn=           1           1           1           1           1           1           1           1           1           1
 AtZEff=  -0.0000000  -0.0000000  -0.0000000  -0.0000000  -0.0000000  -0.0000000  -0.0000000  -0.0000000  -0.0000000  -0.0000000
 NQMom=    0.0000000   0.0000000   0.0000000   0.0000000   0.0000000   0.0000000   0.0000000   0.0000000   0.0000000   0.0000000
 NMagM=    2.7928460   2.7928460   2.7928460   2.7928460   2.7928460   2.7928460   2.7928460   2.7928460   2.7928460   2.7928460
 AtZNuc=   1.0000000   1.0000000   1.0000000   1.0000000   1.0000000   1.0000000   1.0000000   1.0000000   1.0000000   1.0000000

  Atom        31
 IAtWgt=           1
 AtmWgt=   1.0078250
 NucSpn=           1
 AtZEff=  -0.0000000
 NQMom=    0.0000000
 NMagM=    2.7928460
 AtZNuc=   1.0000000
 Leave Link  101 at Wed Sep 23 11:20:27 2020, MaxMem=  2147483648 cpu:               1.5 elap:               0.4
 (Enter /prod/apps/gaussian/g16b1/l103.exe)

 GradGradGradGradGradGradGradGradGradGradGradGradGradGradGradGradGradGrad
 Berny optimization.
 Initialization pass.
                           ----------------------------
                           !    Initial Parameters    !
                           ! (Angstroms and Degrees)  !
 --------------------------                            --------------------------
 ! Name  Definition              Value          Derivative Info.                !
 --------------------------------------------------------------------------------
 ! R1    R(1,2)                  1.4627         estimate D2E/DX2                !
 ! R2    R(2,3)                  1.7058         estimate D2E/DX2                !
 ! R3    R(2,15)                 1.6683         estimate D2E/DX2                !
 ! R4    R(2,18)                 1.4616         estimate D2E/DX2                !
 ! R5    R(3,4)                  1.4059         estimate D2E/DX2                !
 ! R6    R(3,19)                 1.0214         estimate D2E/DX2                !
 ! R7    R(4,5)                  1.3611         estimate D2E/DX2                !
 ! R8    R(4,7)                  1.3796         estimate D2E/DX2                !
 ! R9    R(5,6)                  1.3072         estimate D2E/DX2                !
 ! R10   R(6,8)                  1.355          estimate D2E/DX2                !
 ! R11   R(7,8)                  1.3559         estimate D2E/DX2                !
 ! R12   R(7,20)                 1.0765         estimate D2E/DX2                !
 ! R13   R(8,9)                  1.4255         estimate D2E/DX2                !
 ! R14   R(9,10)                 1.3963         estimate D2E/DX2                !
 ! R15   R(9,14)                 1.396          estimate D2E/DX2                !
 ! R16   R(10,11)                1.394          estimate D2E/DX2                !
 ! R17   R(10,21)                1.0836         estimate D2E/DX2                !
 ! R18   R(11,12)                1.3961         estimate D2E/DX2                !
 ! R19   R(11,22)                1.0848         estimate D2E/DX2                !
 ! R20   R(12,13)                1.3964         estimate D2E/DX2                !
 ! R21   R(12,23)                1.0843         estimate D2E/DX2                !
 ! R22   R(13,14)                1.3925         estimate D2E/DX2                !
 ! R23   R(13,24)                1.0837         estimate D2E/DX2                !
 ! R24   R(14,25)                1.0808         estimate D2E/DX2                !
 ! R25   R(15,16)                1.4684         estimate D2E/DX2                !
 ! R26   R(15,17)                1.4682         estimate D2E/DX2                !
 ! R27   R(16,26)                1.0878         estimate D2E/DX2                !
 ! R28   R(16,27)                1.0918         estimate D2E/DX2                !
 ! R29   R(16,28)                1.0962         estimate D2E/DX2                !
 ! R30   R(17,29)                1.0884         estimate D2E/DX2                !
 ! R31   R(17,30)                1.0971         estimate D2E/DX2                !
 ! R32   R(17,31)                1.0916         estimate D2E/DX2                !
 ! A1    A(1,2,3)              103.1728         estimate D2E/DX2                !
 ! A2    A(1,2,15)             106.5341         estimate D2E/DX2                !
 ! A3    A(1,2,18)             121.2802         estimate D2E/DX2                !
 ! A4    A(3,2,15)             113.0186         estimate D2E/DX2                !
 ! A5    A(3,2,18)             106.3912         estimate D2E/DX2                !
 ! A6    A(15,2,18)            106.638          estimate D2E/DX2                !
 ! A7    A(2,3,4)              121.1834         estimate D2E/DX2                !
 ! A8    A(2,3,19)             109.7987         estimate D2E/DX2                !
 ! A9    A(4,3,19)             113.9705         estimate D2E/DX2                !
 ! A10   A(3,4,5)              121.8113         estimate D2E/DX2                !
 ! A11   A(3,4,7)              129.2535         estimate D2E/DX2                !
 ! A12   A(5,4,7)              108.8342         estimate D2E/DX2                !
 ! A13   A(4,5,6)              108.7857         estimate D2E/DX2                !
 ! A14   A(5,6,8)              107.6815         estimate D2E/DX2                !
 ! A15   A(4,7,8)              104.1065         estimate D2E/DX2                !
 ! A16   A(4,7,20)             132.5605         estimate D2E/DX2                !
 ! A17   A(8,7,20)             123.327          estimate D2E/DX2                !
 ! A18   A(6,8,7)              110.583          estimate D2E/DX2                !
 ! A19   A(6,8,9)              120.7984         estimate D2E/DX2                !
 ! A20   A(7,8,9)              128.6185         estimate D2E/DX2                !
 ! A21   A(8,9,10)             119.5728         estimate D2E/DX2                !
 ! A22   A(8,9,14)             119.281          estimate D2E/DX2                !
 ! A23   A(10,9,14)            121.1461         estimate D2E/DX2                !
 ! A24   A(9,10,11)            119.1023         estimate D2E/DX2                !
 ! A25   A(9,10,21)            120.2608         estimate D2E/DX2                !
 ! A26   A(11,10,21)           120.6346         estimate D2E/DX2                !
 ! A27   A(10,11,12)           120.4017         estimate D2E/DX2                !
 ! A28   A(10,11,22)           119.2483         estimate D2E/DX2                !
 ! A29   A(12,11,22)           120.3463         estimate D2E/DX2                !
 ! A30   A(11,12,13)           119.7692         estimate D2E/DX2                !
 ! A31   A(11,12,23)           120.0817         estimate D2E/DX2                !
 ! A32   A(13,12,23)           120.1491         estimate D2E/DX2                !
 ! A33   A(12,13,14)           120.5049         estimate D2E/DX2                !
 ! A34   A(12,13,24)           120.1381         estimate D2E/DX2                !
 ! A35   A(14,13,24)           119.3536         estimate D2E/DX2                !
 ! A36   A(9,14,13)            119.0703         estimate D2E/DX2                !
 ! A37   A(9,14,25)            119.6385         estimate D2E/DX2                !
 ! A38   A(13,14,25)           121.2909         estimate D2E/DX2                !
 ! A39   A(2,15,16)            118.033          estimate D2E/DX2                !
 ! A40   A(2,15,17)            116.2983         estimate D2E/DX2                !
 ! A41   A(16,15,17)           114.9657         estimate D2E/DX2                !
 ! A42   A(15,16,26)           109.5088         estimate D2E/DX2                !
 ! A43   A(15,16,27)           107.4695         estimate D2E/DX2                !
 ! A44   A(15,16,28)           112.2765         estimate D2E/DX2                !
 ! A45   A(26,16,27)           108.9048         estimate D2E/DX2                !
 ! A46   A(26,16,28)           109.8102         estimate D2E/DX2                !
 ! A47   A(27,16,28)           108.7883         estimate D2E/DX2                !
 ! A48   A(15,17,29)           109.413          estimate D2E/DX2                !
 ! A49   A(15,17,30)           112.2184         estimate D2E/DX2                !
 ! A50   A(15,17,31)           107.5352         estimate D2E/DX2                !
 ! A51   A(29,17,30)           109.8623         estimate D2E/DX2                !
 ! A52   A(29,17,31)           108.892          estimate D2E/DX2                !
 ! A53   A(30,17,31)           108.8392         estimate D2E/DX2                !
 ! D1    D(1,2,3,4)           -179.7982         estimate D2E/DX2                !
 ! D2    D(1,2,3,19)            43.9329         estimate D2E/DX2                !
 ! D3    D(15,2,3,4)            65.5566         estimate D2E/DX2                !
 ! D4    D(15,2,3,19)          -70.7123         estimate D2E/DX2                !
 ! D5    D(18,2,3,4)           -51.1387         estimate D2E/DX2                !
 ! D6    D(18,2,3,19)          172.5924         estimate D2E/DX2                !
 ! D7    D(1,2,15,16)          169.2451         estimate D2E/DX2                !
 ! D8    D(1,2,15,17)          -47.9564         estimate D2E/DX2                !
 ! D9    D(3,2,15,16)          -78.148          estimate D2E/DX2                !
 ! D10   D(3,2,15,17)           64.6506         estimate D2E/DX2                !
 ! D11   D(18,2,15,16)          38.4013         estimate D2E/DX2                !
 ! D12   D(18,2,15,17)        -178.8002         estimate D2E/DX2                !
 ! D13   D(2,3,4,5)             72.8868         estimate D2E/DX2                !
 ! D14   D(2,3,4,7)           -111.1928         estimate D2E/DX2                !
 ! D15   D(19,3,4,5)          -152.4949         estimate D2E/DX2                !
 ! D16   D(19,3,4,7)            23.4255         estimate D2E/DX2                !
 ! D17   D(3,4,5,6)            177.1477         estimate D2E/DX2                !
 ! D18   D(7,4,5,6)              0.4845         estimate D2E/DX2                !
 ! D19   D(3,4,7,8)           -176.216          estimate D2E/DX2                !
 ! D20   D(3,4,7,20)             4.681          estimate D2E/DX2                !
 ! D21   D(5,4,7,8)              0.1217         estimate D2E/DX2                !
 ! D22   D(5,4,7,20)          -178.9813         estimate D2E/DX2                !
 ! D23   D(4,5,6,8)             -0.8908         estimate D2E/DX2                !
 ! D24   D(5,6,8,7)              0.9969         estimate D2E/DX2                !
 ! D25   D(5,6,8,9)           -178.859          estimate D2E/DX2                !
 ! D26   D(4,7,8,6)             -0.6729         estimate D2E/DX2                !
 ! D27   D(4,7,8,9)            179.1687         estimate D2E/DX2                !
 ! D28   D(20,7,8,6)           178.5364         estimate D2E/DX2                !
 ! D29   D(20,7,8,9)            -1.622          estimate D2E/DX2                !
 ! D30   D(6,8,9,10)           155.1043         estimate D2E/DX2                !
 ! D31   D(6,8,9,14)           -24.7815         estimate D2E/DX2                !
 ! D32   D(7,8,9,10)           -24.723          estimate D2E/DX2                !
 ! D33   D(7,8,9,14)           155.3912         estimate D2E/DX2                !
 ! D34   D(8,9,10,11)          179.6482         estimate D2E/DX2                !
 ! D35   D(8,9,10,21)           -0.9008         estimate D2E/DX2                !
 ! D36   D(14,9,10,11)          -0.4682         estimate D2E/DX2                !
 ! D37   D(14,9,10,21)         178.9828         estimate D2E/DX2                !
 ! D38   D(8,9,14,13)          179.6717         estimate D2E/DX2                !
 ! D39   D(8,9,14,25)           -0.5178         estimate D2E/DX2                !
 ! D40   D(10,9,14,13)          -0.2123         estimate D2E/DX2                !
 ! D41   D(10,9,14,25)         179.5982         estimate D2E/DX2                !
 ! D42   D(9,10,11,12)           0.7333         estimate D2E/DX2                !
 ! D43   D(9,10,11,22)        -179.9652         estimate D2E/DX2                !
 ! D44   D(21,10,11,12)       -178.7156         estimate D2E/DX2                !
 ! D45   D(21,10,11,22)          0.5859         estimate D2E/DX2                !
 ! D46   D(10,11,12,13)         -0.3198         estimate D2E/DX2                !
 ! D47   D(10,11,12,23)        179.6853         estimate D2E/DX2                !
 ! D48   D(22,11,12,13)       -179.6136         estimate D2E/DX2                !
 ! D49   D(22,11,12,23)          0.3915         estimate D2E/DX2                !
 ! D50   D(11,12,13,14)         -0.3747         estimate D2E/DX2                !
 ! D51   D(11,12,13,24)       -179.705          estimate D2E/DX2                !
 ! D52   D(23,12,13,14)        179.6202         estimate D2E/DX2                !
 ! D53   D(23,12,13,24)          0.2899         estimate D2E/DX2                !
 ! D54   D(12,13,14,9)           0.6354         estimate D2E/DX2                !
 ! D55   D(12,13,14,25)       -179.1718         estimate D2E/DX2                !
 ! D56   D(24,13,14,9)         179.9709         estimate D2E/DX2                !
 ! D57   D(24,13,14,25)          0.1637         estimate D2E/DX2                !
 ! D58   D(2,15,16,26)         -36.7499         estimate D2E/DX2                !
 ! D59   D(2,15,16,27)        -154.9045         estimate D2E/DX2                !
 ! D60   D(2,15,16,28)          85.5048         estimate D2E/DX2                !
 ! D61   D(17,15,16,26)        179.9704         estimate D2E/DX2                !
 ! D62   D(17,15,16,27)         61.8158         estimate D2E/DX2                !
 ! D63   D(17,15,16,28)        -57.7749         estimate D2E/DX2                !
 ! D64   D(2,15,17,29)          40.4245         estimate D2E/DX2                !
 ! D65   D(2,15,17,30)         -81.7895         estimate D2E/DX2                !
 ! D66   D(2,15,17,31)         158.5488         estimate D2E/DX2                !
 ! D67   D(16,15,17,29)       -175.6396         estimate D2E/DX2                !
 ! D68   D(16,15,17,30)         62.1464         estimate D2E/DX2                !
 ! D69   D(16,15,17,31)        -57.5153         estimate D2E/DX2                !
 --------------------------------------------------------------------------------
 Trust Radius=3.00D-01 FncErr=1.00D-07 GrdErr=1.00D-06 EigMax=2.50D+02 EigMin=1.00D-04
 Number of steps in this run=    164 maximum allowed number of steps=    186.
 GradGradGradGradGradGradGradGradGradGradGradGradGradGradGradGradGradGrad

 Leave Link  103 at Wed Sep 23 11:20:27 2020, MaxMem=  2147483648 cpu:               0.1 elap:               0.0
 (Enter /prod/apps/gaussian/g16b1/l202.exe)
                          Input orientation:                          
 ---------------------------------------------------------------------
 Center     Atomic      Atomic             Coordinates (Angstroms)
 Number     Number       Type             X           Y           Z
 ---------------------------------------------------------------------
      1          8           0       -4.322000   -0.208000   -1.002000
      2         16           0       -3.170000   -0.337000   -0.110000
      3          7           0       -1.861000   -0.516000   -1.189000
      4          6           0       -0.546000   -0.676000   -0.718000
      5          7           0       -0.126000   -1.836000   -0.143000
      6          7           0        1.145000   -1.728000    0.143000
      7          6           0        0.523000    0.192000   -0.802000
      8          7           0        1.556000   -0.503000   -0.265000
      9          6           0        2.914000   -0.099000   -0.108000
     10          6           0        3.444000    0.879000   -0.952000
     11          6           0        4.771000    1.272000   -0.785000
     12          6           0        5.563000    0.684000    0.203000
     13          6           0        5.020000   -0.299000    1.033000
     14          6           0        3.692000   -0.692000    0.888000
     15          7           0       -3.096000    1.074000    0.777000
     16          6           0       -2.178000    1.122000    1.922000
     17          6           0       -3.206000    2.326000    0.018000
     18          8           0       -3.070000   -1.438000    0.846000
     19          1           0       -1.949000    0.155000   -1.954000
     20          1           0        0.616000    1.199000   -1.171000
     21          1           0        2.832000    1.318000   -1.731000
     22          1           0        5.185000    2.032000   -1.439000
     23          1           0        6.596000    0.990000    0.325000
     24          1           0        5.628000   -0.756000    1.805000
     25          1           0        3.255000   -1.442000    1.532000
     26          1           0       -2.165000    0.154000    2.418000
     27          1           0       -2.561000    1.871000    2.618000
     28          1           0       -1.160000    1.402000    1.627000
     29          1           0       -3.962000    2.214000   -0.757000
     30          1           0       -2.251000    2.623000   -0.433000
     31          1           0       -3.525000    3.105000    0.713000
 ---------------------------------------------------------------------
                    Distance matrix (angstroms):
                    1          2          3          4          5
     1  O    0.000000
     2  S    1.462672   0.000000
     3  N    2.487238   1.705803   0.000000
     4  C    3.815476   2.714767   1.405940   0.000000
     5  N    4.581995   3.393232   2.418004   1.361112   0.000000
     6  N    5.788740   4.540717   3.504170   2.169679   1.307249
     7  C    4.865596   3.794332   2.516841   1.379580   2.228961
     8  N    5.931364   4.731454   3.539751   2.157207   2.149627
     9  C    7.291832   6.088654   4.913560   3.560425   3.501427
    10  C    7.841864   6.777361   5.490466   4.288692   4.557478
    11  C    9.215212   8.130436   6.880667   5.663010   5.835447
    12  C    9.998046   8.798051   7.648100   6.325956   6.231760
    13  C    9.561510   8.269461   7.234123   5.847092   5.497878
    14  C    8.248064   6.943275   5.931333   4.532123   4.116895
    15  N    2.512258   1.668282   2.813980   3.435116   4.258568
    16  C    3.862048   2.691054   3.530135   3.586897   4.150264
    17  C    2.950765   2.666317   3.367913   4.077904   5.180209
    18  O    2.548629   1.461553   2.540274   3.065504   3.131080
    19  H    2.582480   2.265666   1.021377   2.046134   3.250712
    20  H    5.137320   4.221234   3.012819   2.251905   3.289160
    21  H    7.351179   6.433558   5.067699   4.051307   4.606433
    22  H    9.777097   8.785467   7.496727   6.379457   6.696847
    23  H   11.063402   9.865339   8.722447   7.407535   7.306886
    24  H   10.352877   9.013745   8.068876   6.670098   6.170058
    25  H    8.084234   6.722932   5.868115   4.482952   3.793682
    26  H    4.059568   2.764397   3.681272   3.625542   3.830971
    27  H    4.530757   3.562040   4.547639   4.655785   5.224385
    28  H    4.416105   3.175120   3.478503   3.192821   3.832323
    29  H    2.460835   2.748358   3.471847   4.474671   5.611986
    30  H    3.553500   3.116166   3.252223   3.724467   4.947970
    31  H    3.814761   3.556785   4.415670   5.021769   6.058004
                    6          7          8          9         10
     6  N    0.000000
     7  C    2.228522   0.000000
     8  N    1.354994   1.355907   0.000000
     9  C    2.417851   2.506631   1.425493   0.000000
    10  C    3.644293   3.004448   2.438532   1.396324   0.000000
    11  C    4.796776   4.383172   3.709077   2.405498   1.394011
    12  C    5.033892   5.162721   4.205240   2.779750   2.421200
    13  C    4.224898   4.881733   3.704823   2.403563   2.794939
    14  C    2.848777   3.698664   2.434672   1.396048   2.432107
    15  N    5.122425   4.045779   5.021334   6.187023   6.767501
    16  C    4.725428   3.947211   4.622375   5.616067   6.318687
    17  C    5.948255   4.373991   5.546168   6.584140   6.874388
    18  O    4.283052   4.275799   4.848548   6.205747   7.143773
    19  H    4.185204   2.727500   3.945974   5.207783   5.532868
    20  H    3.251733   1.076503   2.145050   2.845273   2.854461
    21  H    3.954233   2.731739   2.663339   2.156094   1.083562
    22  H    5.741248   5.052288   4.579753   3.386763   2.144215
    23  H    6.093771   6.228022   5.289494   3.864005   3.402669
    24  H    4.878967   5.810007   4.574942   3.384821   3.878676
    25  H    2.542286   3.947320   2.645285   2.146982   3.404852
    26  H    4.435499   4.194662   4.634218   5.678109   6.583571
    27  H    5.728251   4.901683   5.558530   6.425543   7.056131
    28  H    4.160791   3.193216   3.819076   4.675543   5.302979
    29  H    6.513894   4.919932   6.170290   7.283581   7.527887
    30  H    5.549396   3.706885   4.928828   5.847404   5.978622
    31  H    6.744753   5.212207   6.307988   7.238811   7.502950
                   11         12         13         14         15
    11  C    0.000000
    12  C    1.396120   0.000000
    13  C    2.415609   1.396438   0.000000
    14  C    2.796510   2.421413   1.392501   0.000000
    15  N    8.023013   8.686763   8.235297   7.014843   0.000000
    16  C    7.459152   7.941655   7.390586   6.230301   1.468350
    17  C    8.086300   8.923326   8.694132   7.579421   1.468225
    18  O    8.454912   8.913194   8.171927   6.803155   2.513082
    19  H    6.911776   7.833431   7.595739   6.373010   3.101376
    20  H    4.173530   5.160030   5.147508   4.156578   4.193957
    21  H    2.157951   3.405976   3.878367   3.411577   6.441334
    22  H    1.084764   2.157812   3.401701   3.881257   8.625739
    23  H    2.154588   1.084255   2.155588   3.402838   9.702898
    24  H    3.399314   2.155047   1.083742   2.143147   8.972952
    25  H    3.877182   3.407782   2.161174   1.080835   6.872807
    26  H    7.721219   8.056619   7.331279   6.112370   2.099057
    27  H    8.105395   8.558070   8.043176   6.975807   2.076226
    28  H    6.404015   6.909561   6.437285   5.335997   2.139668
    29  H    8.783703   9.694747   9.497136   8.350723   2.098264
    30  H    7.159441   8.076064   7.972119   6.932064   2.139515
    31  H    8.627138   9.418762   9.203621   8.156772   2.076800
                   16         17         18         19         20
    16  C    0.000000
    17  C    2.476210   0.000000
    18  O    2.916683   3.856394   0.000000
    19  H    4.001363   3.190936   3.410908   0.000000
    20  H    4.168814   4.158309   4.960711   2.877890   0.000000
    21  H    6.203461   6.366515   7.005003   4.925470   2.288759
    22  H    8.144826   8.521629   9.241599   7.394749   4.652040
    23  H    8.919132   9.897391   9.979889   8.883023   6.167828
    24  H    8.029583   9.525316   8.777244   8.507111   6.148068
    25  H    6.020273   7.631156   6.362094   6.464072   4.609274
    26  H    1.087754   3.400186   2.413436   4.377333   4.659067
    27  H    1.091836   2.717177   3.787947   4.921624   4.990134
    28  H    1.096243   2.762023   3.510507   3.873124   3.320269
    29  H    3.398847   1.088442   4.086854   3.118406   4.707410
    30  H    2.793628   1.097103   4.335703   2.914733   3.285135
    31  H    2.684842   1.091617   4.567665   4.277752   4.932563
                   21         22         23         24         25
    21  H    0.000000
    22  H    2.476221   0.000000
    23  H    4.301443   2.487646   0.000000
    24  H    4.962095   4.300317   2.485144   0.000000
    25  H    4.294613   4.961897   4.305085   2.485207   0.000000
    26  H    6.598417   8.510337   9.046251   7.869861   5.719144
    27  H    6.950112   8.745610   9.480752   8.638392   6.780945
    28  H    5.217210   7.075046   7.875309   7.124998   5.252579
    29  H    6.921700   9.174195  10.683645  10.361122   8.407791
    30  H    5.405989   7.526979   9.028326   8.860301   7.120498
    31  H    7.041161   9.035847  10.346903   9.993858   8.204534
                   26         27         28         29         30
    26  H    0.000000
    27  H    1.773388   0.000000
    28  H    1.786956   1.779001   0.000000
    29  H    4.189682   3.670296   3.767493   0.000000
    30  H    3.772474   3.157563   2.631487   1.788792   0.000000
    31  H    3.669472   2.465984   3.054313   1.773626   1.780089
                   31
    31  H    0.000000
 Symmetry turned off by external request.
 Stoichiometry    C10H13N5O2S
 Framework group  C1[X(C10H13N5O2S)]
 Deg. of freedom    87
 Full point group                 C1      NOp   1
 Rotational constants (GHZ):           1.0024927           0.1736892           0.1665636
 Leave Link  202 at Wed Sep 23 11:20:27 2020, MaxMem=  2147483648 cpu:               0.1 elap:               0.0
 (Enter /prod/apps/gaussian/g16b1/l301.exe)
 Standard basis: 6-31G(d) (6D, 7F)
 Ernie: Thresh=  0.10000D-02 Tol=  0.10000D-05 Strict=F.
   300 basis functions,   580 primitive gaussians,   300 cartesian basis functions
    70 alpha electrons       70 beta electrons
       nuclear repulsion energy      1469.6516757039 Hartrees.
 IExCor=  402 DFT=T Ex+Corr=B3LYP ExCW=0 ScaHFX=  0.200000
 ScaDFX=  0.800000  0.720000  1.000000  0.810000 ScalE2=  1.000000  1.000000
 IRadAn=      5 IRanWt=     -1 IRanGd=            0 ICorTp=0 IEmpDi=  4
 NAtoms=   31 NActive=   31 NUniq=   31 SFac= 1.00D+00 NAtFMM=   60 NAOKFM=F Big=F
 Integral buffers will be    131072 words long.
 Raffenetti 2 integral format.
 Two-electron integral symmetry is turned off.
 Using the following non-standard input for PCM:
 MSTModel=DFT cav
 --- end of non-standard input.
 MST model for solvation energy: B3LYP parametrization.
 MST cavity parameters:
 ISph   IAn     Re0     Alpha   Atom Type   QCorr
 ------------------------------------------------
   1      8     1.40     1.25      O          F
   2     16     1.75     1.25      S          F
   3      7     1.50     1.25      NH         F
   4      6     1.50     1.25      C          F
   5      7     1.40     1.25      N          F
   6      7     1.40     1.25      N          F
   7      6     1.50     1.25      CH         F
   8      7     1.40     1.25      N          F
   9      6     1.50     1.25      C          F
  10      6     1.50     1.25      CH         F
  11      6     1.50     1.25      CH         F
  12      6     1.50     1.25      CH         F
  13      6     1.50     1.25      CH         F
  14      6     1.50     1.25      CH         F
  15      7     1.40     1.25      N          F
  16      6     1.50     1.25      CH3        F
  17      6     1.50     1.25      CH3        F
  18      8     1.40     1.25      O          F
  19      1     0.90     1.25      NH         F
  20      1     1.20     1.25      CH         F
  21      1     1.20     1.25      CH         F
  22      1     1.20     1.25      CH         F
  23      1     1.20     1.25      CH         F
  24      1     1.20     1.25      CH         F
  25      1     1.20     1.25      CH         F
  26      1     1.20     1.25      CH3        F
  27      1     1.20     1.25      CH3        F
  28      1     1.20     1.25      CH3        F
  29      1     1.20     1.25      CH3        F
  30      1     1.20     1.25      CH3        F
  31      1     1.20     1.25      CH3        F
 ------------------------------------------------------------------------------
 Polarizable Continuum Model (PCM)
 =================================
 Model                : PCM.
 Atomic radii         : MST.
 Polarization charges : Total charges.
 Charge compensation  : None.
 Solution method      : On-the-fly selection.
 Cavity type          : Scaled VdW (van der Waals Surface) (Alpha=1.250).
 Cavity algorithm     : GePol (No added spheres)
                        Default sphere list used, NSphG=   31.
                        Lebedev-Laikov grids with approx.  5.0 points / Ang**2.
                        Smoothing algorithm: York/Karplus (Gamma=1.0000).
                        Polarization charges: spherical gaussians, with
                                              point-specific exponents (IZeta= 3).
                        Self-potential: point-specific (ISelfS= 7).
                        Self-field    : sphere-specific E.n sum rule (ISelfD= 2).
 1st derivatives      : Analytical E(r).r(x)/FMM algorithm (CHGder, D1EAlg=3).
                        Cavity 1st derivative terms included.
 Solvent              : Water, Eps=  78.355300 Eps(inf)=   1.777849
 ------------------------------------------------------------------------------
 GePol: Number of generator spheres                  =      31
 GePol: Total number of spheres                      =      31
 GePol: Number of exposed spheres                    =      31 (100.00%)
 GePol: Number of points                             =    2384
 GePol: Average weight of points                     =       0.13
 GePol: Minimum weight of points                     =   0.37D-10
 GePol: Maximum weight of points                     =    0.22001
 GePol: Number of points with low weight             =     163
 GePol: Fraction of low-weight points (<1% of avg)   =       6.84%
 GePol: Cavity surface area                          =    310.898 Ang**2
 GePol: Cavity volume                                =    292.030 Ang**3
 PCM non-electrostatic energy =         0.0034139558 Hartrees.
 Nuclear repulsion after PCM non-electrostatic terms =     1469.6550896597 Hartrees.
 Leave Link  301 at Wed Sep 23 11:20:27 2020, MaxMem=  2147483648 cpu:               0.3 elap:               0.1
 (Enter /prod/apps/gaussian/g16b1/l302.exe)
 NPDir=0 NMtPBC=     1 NCelOv=     1 NCel=       1 NClECP=     1 NCelD=      1
         NCelK=      1 NCelE2=     1 NClLst=     1 CellRange=     0.0.
 One-electron integrals computed using PRISM.
 NBasis=   300 RedAO= T EigKep=  4.67D-04  NBF=   300
 NBsUse=   300 1.00D-06 EigRej= -1.00D+00 NBFU=   300
 Precomputing XC quadrature grid using
 IXCGrd= 4 IRadAn=           5 IRanWt=          -1 IRanGd=           0 AccXCQ= 0.00D+00.
 Generated NRdTot=       0 NPtTot=           0 NUsed=           0 NTot=          32
 NSgBfM=   298   298   298   298   298 MxSgAt=    31 MxSgA2=    31.
 Leave Link  302 at Wed Sep 23 11:20:28 2020, MaxMem=  2147483648 cpu:               1.5 elap:               0.4
 (Enter /prod/apps/gaussian/g16b1/l303.exe)
 DipDrv:  MaxL=1.
 Leave Link  303 at Wed Sep 23 11:20:28 2020, MaxMem=  2147483648 cpu:               0.2 elap:               0.1
 (Enter /prod/apps/gaussian/g16b1/l401.exe)
 ExpMin= 1.17D-01 ExpMax= 2.19D+04 ExpMxC= 3.30D+03 IAcc=3 IRadAn=         5 AccDes= 0.00D+00
 Harris functional with IExCor=  402 and IRadAn=       5 diagonalized for initial guess.
 HarFok:  IExCor=  402 AccDes= 0.00D+00 IRadAn=         5 IDoV= 1 UseB2=F ITyADJ=14
 ICtDFT=  3500011 ScaDFX=  1.000000  1.000000  1.000000  1.000000
 FoFCou: FMM=F IPFlag=           0 FMFlag=      100000 FMFlg1=           0
         NFxFlg=           0 DoJE=T BraDBF=F KetDBF=T FulRan=T
         wScrn=  0.000000 ICntrl=       500 IOpCl=  0 I1Cent=   200000004 NGrid=           0
         NMat0=    1 NMatS0=      1 NMatT0=    0 NMatD0=    1 NMtDS0=    0 NMtDT0=    0
 Symmetry not used in FoFCou.
 Harris En= -1211.16013946321    
 JPrj=0 DoOrth=F DoCkMO=F.
 Leave Link  401 at Wed Sep 23 11:20:30 2020, MaxMem=  2147483648 cpu:               8.6 elap:               2.2
 (Enter /prod/apps/gaussian/g16b1/l502.exe)
 Keep R1 ints in memory in canonical form, NReq=1032920423.
 FoFCou: FMM=F IPFlag=           0 FMFlag=           0 FMFlg1=           0
         NFxFlg=           0 DoJE=F BraDBF=F KetDBF=F FulRan=T
         wScrn=  0.000000 ICntrl=       600 IOpCl=  0 I1Cent=           0 NGrid=           0
         NMat0=    1 NMatS0=  45150 NMatT0=    0 NMatD0=    1 NMtDS0=    0 NMtDT0=    0
 Symmetry not used in FoFCou.
 Two-electron integral symmetry not used.
 Closed shell SCF:
 Using DIIS extrapolation, IDIIS=  1040.
 NGot=  2147483648 LenX=  1128015396 LenY=  1127924955
 Requested convergence on RMS density matrix=1.00D-08 within2000 cycles.
 Requested convergence on MAX density matrix=1.00D-06.
 Requested convergence on             energy=1.00D-06.
 No special actions if energy rises.

 Cycle   1  Pass 1  IDiag  1:
 Inv3:  Mode=1 IEnd=    17050368.
 Iteration    1 A*A^-1 deviation from unit magnitude is 3.11D-15 for    966.
 Iteration    1 A*A^-1 deviation from orthogonality  is 3.01D-15 for   1715    376.
 Iteration    1 A^-1*A deviation from unit magnitude is 3.11D-15 for     85.
 Iteration    1 A^-1*A deviation from orthogonality  is 4.07D-14 for   2357   2305.
 E= -1210.65291614906    
 DIIS: error= 2.65D-02 at cycle   1 NSaved=   1.
 NSaved= 1 IEnMin= 1 EnMin= -1210.65291614906     IErMin= 1 ErrMin= 2.65D-02
 ErrMax= 2.65D-02  0.00D+00 EMaxC= 1.00D-01 BMatC= 6.22D-01 BMatP= 6.22D-01
 IDIUse=3 WtCom= 7.35D-01 WtEn= 2.65D-01
 Coeff-Com:  0.100D+01
 Coeff-En:   0.100D+01
 Coeff:      0.100D+01
 Gap=     0.286 Goal=   None    Shift=    0.000
 GapD=    0.286 DampG=1.000 DampE=0.500 DampFc=0.5000 IDamp=-1.
 Damping current iteration by 5.00D-01
 RMSDP=6.18D-03 MaxDP=5.88D-01              OVMax= 2.31D-01

 Cycle   2  Pass 1  IDiag  1:
 E= -1210.79826820931     Delta-E=       -0.145352060251 Rises=F Damp=T
 DIIS: error= 1.15D-02 at cycle   2 NSaved=   2.
 NSaved= 2 IEnMin= 2 EnMin= -1210.79826820931     IErMin= 2 ErrMin= 1.15D-02
 ErrMax= 1.15D-02  0.00D+00 EMaxC= 1.00D-01 BMatC= 8.80D-02 BMatP= 6.22D-01
 IDIUse=3 WtCom= 8.85D-01 WtEn= 1.15D-01
 Coeff-Com:  0.217D+00 0.783D+00
 Coeff-En:   0.348D+00 0.652D+00
 Coeff:      0.232D+00 0.768D+00
 Gap=     0.218 Goal=   None    Shift=    0.000
 RMSDP=1.69D-03 MaxDP=1.36D-01 DE=-1.45D-01 OVMax= 1.53D-01

 Cycle   3  Pass 1  IDiag  1:
 E= -1211.15386119392     Delta-E=       -0.355592984611 Rises=F Damp=F
 DIIS: error= 6.48D-03 at cycle   3 NSaved=   3.
 NSaved= 3 IEnMin= 3 EnMin= -1211.15386119392     IErMin= 3 ErrMin= 6.48D-03
 ErrMax= 6.48D-03  0.00D+00 EMaxC= 1.00D-01 BMatC= 3.85D-02 BMatP= 8.80D-02
 IDIUse=3 WtCom= 9.35D-01 WtEn= 6.48D-02
 Coeff-Com:  0.595D-01 0.399D+00 0.541D+00
 Coeff-En:   0.000D+00 0.000D+00 0.100D+01
 Coeff:      0.556D-01 0.374D+00 0.571D+00
 Gap=     0.196 Goal=   None    Shift=    0.000
 RMSDP=8.29D-04 MaxDP=2.66D-02 DE=-3.56D-01 OVMax= 3.73D-02

 Cycle   4  Pass 1  IDiag  1:
 E= -1211.18256265993     Delta-E=       -0.028701466010 Rises=F Damp=F
 DIIS: error= 2.62D-03 at cycle   4 NSaved=   4.
 NSaved= 4 IEnMin= 4 EnMin= -1211.18256265993     IErMin= 4 ErrMin= 2.62D-03
 ErrMax= 2.62D-03  0.00D+00 EMaxC= 1.00D-01 BMatC= 5.90D-03 BMatP= 3.85D-02
 IDIUse=3 WtCom= 9.74D-01 WtEn= 2.62D-02
 Coeff-Com:  0.109D-02 0.896D-01 0.303D+00 0.607D+00
 Coeff-En:   0.000D+00 0.000D+00 0.109D+00 0.891D+00
 Coeff:      0.106D-02 0.872D-01 0.298D+00 0.614D+00
 Gap=     0.190 Goal=   None    Shift=    0.000
 RMSDP=2.75D-04 MaxDP=1.08D-02 DE=-2.87D-02 OVMax= 1.37D-02

 Cycle   5  Pass 1  IDiag  1:
 E= -1211.18726015299     Delta-E=       -0.004697493063 Rises=F Damp=F
 DIIS: error= 7.44D-04 at cycle   5 NSaved=   5.
 NSaved= 5 IEnMin= 5 EnMin= -1211.18726015299     IErMin= 5 ErrMin= 7.44D-04
 ErrMax= 7.44D-04  0.00D+00 EMaxC= 1.00D-01 BMatC= 4.63D-04 BMatP= 5.90D-03
 IDIUse=3 WtCom= 9.93D-01 WtEn= 7.44D-03
 Coeff-Com: -0.373D-02 0.189D-01 0.109D+00 0.313D+00 0.563D+00
 Coeff-En:   0.000D+00 0.000D+00 0.000D+00 0.000D+00 0.100D+01
 Coeff:     -0.370D-02 0.188D-01 0.108D+00 0.310D+00 0.567D+00
 Gap=     0.192 Goal=   None    Shift=    0.000
 RMSDP=8.10D-05 MaxDP=4.53D-03 DE=-4.70D-03 OVMax= 4.99D-03

 Cycle   6  Pass 1  IDiag  1:
 E= -1211.18763997939     Delta-E=       -0.000379826396 Rises=F Damp=F
 DIIS: error= 1.69D-04 at cycle   6 NSaved=   6.
 NSaved= 6 IEnMin= 6 EnMin= -1211.18763997939     IErMin= 6 ErrMin= 1.69D-04
 ErrMax= 1.69D-04  0.00D+00 EMaxC= 1.00D-01 BMatC= 2.88D-05 BMatP= 4.63D-04
 IDIUse=3 WtCom= 9.98D-01 WtEn= 1.69D-03
 Coeff-Com: -0.206D-02 0.353D-02 0.329D-01 0.112D+00 0.282D+00 0.572D+00
 Coeff-En:   0.000D+00 0.000D+00 0.000D+00 0.000D+00 0.000D+00 0.100D+01
 Coeff:     -0.206D-02 0.352D-02 0.329D-01 0.112D+00 0.281D+00 0.572D+00
 Gap=     0.191 Goal=   None    Shift=    0.000
 RMSDP=1.85D-05 MaxDP=9.57D-04 DE=-3.80D-04 OVMax= 1.40D-03

 Cycle   7  Pass 1  IDiag  1:
 E= -1211.18766197410     Delta-E=       -0.000021994708 Rises=F Damp=F
 DIIS: error= 5.73D-05 at cycle   7 NSaved=   7.
 NSaved= 7 IEnMin= 7 EnMin= -1211.18766197410     IErMin= 7 ErrMin= 5.73D-05
 ErrMax= 5.73D-05  0.00D+00 EMaxC= 1.00D-01 BMatC= 2.83D-06 BMatP= 2.88D-05
 IDIUse=1 WtCom= 1.00D+00 WtEn= 0.00D+00
 Coeff-Com: -0.876D-03 0.604D-03 0.962D-02 0.370D-01 0.111D+00 0.312D+00
 Coeff-Com:  0.530D+00
 Coeff:     -0.876D-03 0.604D-03 0.962D-02 0.370D-01 0.111D+00 0.312D+00
 Coeff:      0.530D+00
 Gap=     0.191 Goal=   None    Shift=    0.000
 RMSDP=6.44D-06 MaxDP=2.78D-04 DE=-2.20D-05 OVMax= 5.07D-04

 Cycle   8  Pass 1  IDiag  1:
 E= -1211.18766425628     Delta-E=       -0.000002282185 Rises=F Damp=F
 DIIS: error= 1.91D-05 at cycle   8 NSaved=   8.
 NSaved= 8 IEnMin= 8 EnMin= -1211.18766425628     IErMin= 8 ErrMin= 1.91D-05
 ErrMax= 1.91D-05  0.00D+00 EMaxC= 1.00D-01 BMatC= 3.02D-07 BMatP= 2.83D-06
 IDIUse=1 WtCom= 1.00D+00 WtEn= 0.00D+00
 Coeff-Com: -0.272D-03-0.884D-04 0.161D-02 0.802D-02 0.311D-01 0.110D+00
 Coeff-Com:  0.293D+00 0.557D+00
 Coeff:     -0.272D-03-0.884D-04 0.161D-02 0.802D-02 0.311D-01 0.110D+00
 Coeff:      0.293D+00 0.557D+00
 Gap=     0.191 Goal=   None    Shift=    0.000
 RMSDP=2.24D-06 MaxDP=1.18D-04 DE=-2.28D-06 OVMax= 1.99D-04

 Cycle   9  Pass 1  IDiag  1:
 E= -1211.18766448747     Delta-E=       -0.000000231192 Rises=F Damp=F
 DIIS: error= 8.01D-06 at cycle   9 NSaved=   9.
 NSaved= 9 IEnMin= 9 EnMin= -1211.18766448747     IErMin= 9 ErrMin= 8.01D-06
 ErrMax= 8.01D-06  0.00D+00 EMaxC= 1.00D-01 BMatC= 4.29D-08 BMatP= 3.02D-07
 IDIUse=1 WtCom= 1.00D+00 WtEn= 0.00D+00
 Coeff-Com: -0.269D-04-0.102D-03-0.450D-03-0.857D-03 0.152D-02 0.164D-01
 Coeff-Com:  0.888D-01 0.320D+00 0.575D+00
 Coeff:     -0.269D-04-0.102D-03-0.450D-03-0.857D-03 0.152D-02 0.164D-01
 Coeff:      0.888D-01 0.320D+00 0.575D+00
 Gap=     0.191 Goal=   None    Shift=    0.000
 RMSDP=7.57D-07 MaxDP=4.16D-05 DE=-2.31D-07 OVMax= 4.91D-05

 Cycle  10  Pass 1  IDiag  1:
 E= -1211.18766452383     Delta-E=       -0.000000036351 Rises=F Damp=F
 DIIS: error= 3.07D-06 at cycle  10 NSaved=  10.
 NSaved=10 IEnMin=10 EnMin= -1211.18766452383     IErMin=10 ErrMin= 3.07D-06
 ErrMax= 3.07D-06  0.00D+00 EMaxC= 1.00D-01 BMatC= 3.08D-09 BMatP= 4.29D-08
 IDIUse=1 WtCom= 1.00D+00 WtEn= 0.00D+00
 Coeff-Com: -0.467D-06-0.542D-04-0.346D-03-0.951D-03-0.109D-02 0.185D-02
 Coeff-Com:  0.308D-01 0.139D+00 0.313D+00 0.518D+00
 Coeff:     -0.467D-06-0.542D-04-0.346D-03-0.951D-03-0.109D-02 0.185D-02
 Coeff:      0.308D-01 0.139D+00 0.313D+00 0.518D+00
 Gap=     0.191 Goal=   None    Shift=    0.000
 RMSDP=2.15D-07 MaxDP=8.40D-06 DE=-3.64D-08 OVMax= 1.53D-05

 Cycle  11  Pass 1  IDiag  1:
 E= -1211.18766452648     Delta-E=       -0.000000002658 Rises=F Damp=F
 DIIS: error= 6.11D-07 at cycle  11 NSaved=  11.
 NSaved=11 IEnMin=11 EnMin= -1211.18766452648     IErMin=11 ErrMin= 6.11D-07
 ErrMax= 6.11D-07  0.00D+00 EMaxC= 1.00D-01 BMatC= 2.09D-10 BMatP= 3.08D-09
 IDIUse=1 WtCom= 1.00D+00 WtEn= 0.00D+00
 Coeff-Com:  0.317D-05-0.782D-05-0.104D-03-0.335D-03-0.714D-03-0.133D-02
 Coeff-Com:  0.357D-02 0.237D-01 0.712D-01 0.234D+00 0.670D+00
 Coeff:      0.317D-05-0.782D-05-0.104D-03-0.335D-03-0.714D-03-0.133D-02
 Coeff:      0.357D-02 0.237D-01 0.712D-01 0.234D+00 0.670D+00
 Gap=     0.191 Goal=   None    Shift=    0.000
 RMSDP=6.22D-08 MaxDP=4.08D-06 DE=-2.66D-09 OVMax= 5.48D-06

 Cycle  12  Pass 1  IDiag  1:
 E= -1211.18766452666     Delta-E=       -0.000000000176 Rises=F Damp=F
 DIIS: error= 3.21D-07 at cycle  12 NSaved=  12.
 NSaved=12 IEnMin=12 EnMin= -1211.18766452666     IErMin=12 ErrMin= 3.21D-07
 ErrMax= 3.21D-07  0.00D+00 EMaxC= 1.00D-01 BMatC= 6.03D-11 BMatP= 2.09D-10
 IDIUse=1 WtCom= 1.00D+00 WtEn= 0.00D+00
 Coeff-Com:  0.227D-05-0.943D-06-0.407D-04-0.143D-03-0.403D-03-0.116D-02
 Coeff-Com: -0.606D-03 0.238D-02 0.167D-01 0.102D+00 0.432D+00 0.449D+00
 Coeff:      0.227D-05-0.943D-06-0.407D-04-0.143D-03-0.403D-03-0.116D-02
 Coeff:     -0.606D-03 0.238D-02 0.167D-01 0.102D+00 0.432D+00 0.449D+00
 Gap=     0.191 Goal=   None    Shift=    0.000
 RMSDP=2.35D-08 MaxDP=1.51D-06 DE=-1.76D-10 OVMax= 1.70D-06

 Cycle  13  Pass 1  IDiag  1:
 E= -1211.18766452671     Delta-E=       -0.000000000047 Rises=F Damp=F
 DIIS: error= 5.98D-08 at cycle  13 NSaved=  13.
 NSaved=13 IEnMin=13 EnMin= -1211.18766452671     IErMin=13 ErrMin= 5.98D-08
 ErrMax= 5.98D-08  0.00D+00 EMaxC= 1.00D-01 BMatC= 1.67D-12 BMatP= 6.03D-11
 IDIUse=1 WtCom= 1.00D+00 WtEn= 0.00D+00
 Coeff-Com:  0.542D-06 0.686D-06-0.240D-05-0.116D-04-0.712D-04-0.320D-03
 Coeff-Com: -0.807D-03-0.274D-02-0.436D-02 0.777D-02 0.910D-01 0.167D+00
 Coeff-Com:  0.743D+00
 Coeff:      0.542D-06 0.686D-06-0.240D-05-0.116D-04-0.712D-04-0.320D-03
 Coeff:     -0.807D-03-0.274D-02-0.436D-02 0.777D-02 0.910D-01 0.167D+00
 Coeff:      0.743D+00
 Gap=     0.191 Goal=   None    Shift=    0.000
 RMSDP=6.53D-09 MaxDP=3.13D-07 DE=-4.68D-11 OVMax= 4.75D-07

 Error on total polarization charges =  0.02073
 SCF Done:  E(RB3LYP) =  -1211.18766453     A.U. after   13 cycles
            NFock= 13  Conv=0.65D-08     -V/T= 2.0076
 KE= 1.202079690624D+03 PE=-5.775706153327D+03 EE= 1.892783708517D+03
 Leave Link  502 at Wed Sep 23 11:21:36 2020, MaxMem=  2147483648 cpu:             210.0 elap:              66.2
 (Enter /prod/apps/gaussian/g16b1/l601.exe)
 Copying SCF densities to generalized density rwf, IOpCl= 0 IROHF=0.

 **********************************************************************

            Population analysis using the SCF Density.

 **********************************************************************

 Alpha  occ. eigenvalues --  -89.14059 -19.15916 -19.15739 -14.44622 -14.40387
 Alpha  occ. eigenvalues --  -14.38342 -14.38116 -14.37031 -10.26394 -10.25103
 Alpha  occ. eigenvalues --  -10.24351 -10.22074 -10.21956 -10.20659 -10.20376
 Alpha  occ. eigenvalues --  -10.20194 -10.20113 -10.19884  -8.16278  -6.12769
 Alpha  occ. eigenvalues --   -6.12704  -6.12666  -1.13527  -1.11298  -1.02001
 Alpha  occ. eigenvalues --   -0.95676  -0.94387  -0.92714  -0.86111  -0.80932
 Alpha  occ. eigenvalues --   -0.76428  -0.75914  -0.72718  -0.71304  -0.66727
 Alpha  occ. eigenvalues --   -0.65543  -0.62167  -0.60847  -0.58231  -0.56300
 Alpha  occ. eigenvalues --   -0.54473  -0.52696  -0.51433  -0.49792  -0.48910
 Alpha  occ. eigenvalues --   -0.48577  -0.48068  -0.46461  -0.45446  -0.44615
 Alpha  occ. eigenvalues --   -0.44396  -0.43354  -0.41817  -0.40716  -0.38979
 Alpha  occ. eigenvalues --   -0.38890  -0.37339  -0.36535  -0.36045  -0.35602
 Alpha  occ. eigenvalues --   -0.34663  -0.33469  -0.32929  -0.32115  -0.31680
 Alpha  occ. eigenvalues --   -0.29023  -0.27942  -0.26465  -0.25633  -0.23570
 Alpha virt. eigenvalues --   -0.04452  -0.01466   0.01080   0.01919   0.06080
 Alpha virt. eigenvalues --    0.08316   0.08911   0.09134   0.09906   0.10794
 Alpha virt. eigenvalues --    0.11904   0.13228   0.14397   0.14884   0.15194
 Alpha virt. eigenvalues --    0.15987   0.16479   0.16923   0.18153   0.18396
 Alpha virt. eigenvalues --    0.19259   0.19465   0.20119   0.20610   0.21672
 Alpha virt. eigenvalues --    0.22872   0.23812   0.25220   0.29444   0.30263
 Alpha virt. eigenvalues --    0.31138   0.31869   0.33468   0.33917   0.36133
 Alpha virt. eigenvalues --    0.38512   0.41421   0.43360   0.45564   0.48447
 Alpha virt. eigenvalues --    0.48712   0.49276   0.50544   0.51019   0.52462
 Alpha virt. eigenvalues --    0.53731   0.55182   0.55735   0.56268   0.57393
 Alpha virt. eigenvalues --    0.57530   0.58242   0.58438   0.59513   0.60433
 Alpha virt. eigenvalues --    0.60851   0.61421   0.62206   0.63097   0.63219
 Alpha virt. eigenvalues --    0.64308   0.64798   0.66885   0.68093   0.69335
 Alpha virt. eigenvalues --    0.70031   0.71753   0.72748   0.74740   0.75906
 Alpha virt. eigenvalues --    0.77746   0.78127   0.78948   0.80831   0.81460
 Alpha virt. eigenvalues --    0.82377   0.83337   0.83849   0.83956   0.84383
 Alpha virt. eigenvalues --    0.85312   0.86264   0.86833   0.87493   0.88389
 Alpha virt. eigenvalues --    0.89847   0.90406   0.91407   0.91846   0.93301
 Alpha virt. eigenvalues --    0.94567   0.94672   0.95645   0.97629   0.98288
 Alpha virt. eigenvalues --    0.99125   0.99981   1.01463   1.02956   1.04948
 Alpha virt. eigenvalues --    1.05206   1.06276   1.07374   1.08551   1.11219
 Alpha virt. eigenvalues --    1.12787   1.14180   1.15448   1.15806   1.16522
 Alpha virt. eigenvalues --    1.17329   1.18484   1.21381   1.22918   1.25121
 Alpha virt. eigenvalues --    1.25697   1.29363   1.31524   1.35015   1.36689
 Alpha virt. eigenvalues --    1.37821   1.40126   1.41489   1.42051   1.44043
 Alpha virt. eigenvalues --    1.44263   1.45682   1.46300   1.47853   1.49780
 Alpha virt. eigenvalues --    1.50958   1.51753   1.54379   1.57211   1.58336
 Alpha virt. eigenvalues --    1.62303   1.67964   1.69100   1.74291   1.75346
 Alpha virt. eigenvalues --    1.77829   1.79072   1.79455   1.79764   1.80837
 Alpha virt. eigenvalues --    1.83861   1.85023   1.85614   1.87891   1.88089
 Alpha virt. eigenvalues --    1.89910   1.90807   1.94273   1.94706   1.95988
 Alpha virt. eigenvalues --    1.96631   1.97046   1.98129   1.99026   2.03701
 Alpha virt. eigenvalues --    2.05229   2.06095   2.07168   2.08625   2.09553
 Alpha virt. eigenvalues --    2.10508   2.11116   2.12677   2.14008   2.14753
 Alpha virt. eigenvalues --    2.16890   2.19896   2.20178   2.21619   2.23638
 Alpha virt. eigenvalues --    2.24697   2.24933   2.26575   2.29160   2.30356
 Alpha virt. eigenvalues --    2.31581   2.33293   2.34703   2.37526   2.39022
 Alpha virt. eigenvalues --    2.42606   2.48089   2.48687   2.51211   2.53389
 Alpha virt. eigenvalues --    2.56884   2.58152   2.59061   2.59686   2.63441
 Alpha virt. eigenvalues --    2.64212   2.67010   2.69897   2.70577   2.72350
 Alpha virt. eigenvalues --    2.74060   2.74937   2.76505   2.79074   2.83511
 Alpha virt. eigenvalues --    2.86850   2.88990   3.00423   3.06092   3.13342
 Alpha virt. eigenvalues --    3.25409   3.42257   3.60294   3.73233   3.94486
 Alpha virt. eigenvalues --    3.96156   3.98223   4.04345   4.07008   4.09015
 Alpha virt. eigenvalues --    4.10538   4.13118   4.17525   4.21979   4.28855
 Alpha virt. eigenvalues --    4.31300   4.31770   4.39330   4.50549   4.71059
          Condensed to atoms (all electrons):
               1          2          3          4          5          6
     1  O    8.268059   0.449909  -0.055348   0.001740  -0.000020   0.000000
     2  S    0.449909  13.566177   0.147027  -0.022341   0.001785   0.000068
     3  N   -0.055348   0.147027   7.361030   0.259275  -0.059309   0.005613
     4  C    0.001740  -0.022341   0.259275   4.639515   0.371167  -0.083294
     5  N   -0.000020   0.001785  -0.059309   0.371167   6.893198   0.301591
     6  N    0.000000   0.000068   0.005613  -0.083294   0.301591   6.776211
     7  C   -0.000031  -0.003080  -0.070676   0.522945  -0.069892  -0.100005
     8  N    0.000000   0.000261   0.003271  -0.034839  -0.096194   0.230045
     9  C   -0.000000  -0.000013  -0.000122   0.004074   0.006547  -0.043336
    10  C   -0.000000   0.000000   0.000004   0.000974  -0.000331   0.002915
    11  C    0.000000   0.000000   0.000000  -0.000008   0.000002  -0.000068
    12  C   -0.000000  -0.000000  -0.000000   0.000000  -0.000000   0.000018
    13  C   -0.000000  -0.000000  -0.000000   0.000006  -0.000004   0.000284
    14  C    0.000000  -0.000000   0.000001  -0.000420   0.000354  -0.000158
    15  N   -0.053847   0.177134  -0.060793   0.001178  -0.000032  -0.000004
    16  C    0.001567  -0.018913   0.000066   0.000225   0.000061   0.000023
    17  C   -0.007357  -0.017113   0.000740   0.000058  -0.000004  -0.000000
    18  O   -0.040734   0.441863  -0.053870   0.000509   0.001118   0.000064
    19  H    0.001953  -0.007957   0.299495  -0.025314   0.001992  -0.000075
    20  H   -0.000000  -0.000111  -0.000769  -0.025355   0.004079   0.003507
    21  H   -0.000000  -0.000000   0.000000   0.000048  -0.000007  -0.000085
    22  H   -0.000000   0.000000   0.000000   0.000000  -0.000000   0.000001
    23  H   -0.000000  -0.000000  -0.000000  -0.000000   0.000000   0.000000
    24  H    0.000000   0.000000   0.000000  -0.000000   0.000000  -0.000008
    25  H   -0.000000  -0.000000  -0.000000   0.000038  -0.000326   0.015962
    26  H    0.000052  -0.002348  -0.000221   0.000084   0.000107   0.000006
    27  H   -0.000042   0.001781  -0.000158   0.000089   0.000004  -0.000001
    28  H   -0.000052  -0.007432   0.001497   0.001105  -0.000138  -0.000051
    29  H    0.011186  -0.000454  -0.000772  -0.000024  -0.000000   0.000000
    30  H   -0.000129  -0.008104   0.003563   0.000052   0.000004   0.000000
    31  H    0.000078   0.002337  -0.000118  -0.000004   0.000000  -0.000000
               7          8          9         10         11         12
     1  O   -0.000031   0.000000  -0.000000  -0.000000   0.000000  -0.000000
     2  S   -0.003080   0.000261  -0.000013   0.000000   0.000000  -0.000000
     3  N   -0.070676   0.003271  -0.000122   0.000004   0.000000  -0.000000
     4  C    0.522945  -0.034839   0.004074   0.000974  -0.000008   0.000000
     5  N   -0.069892  -0.096194   0.006547  -0.000331   0.000002  -0.000000
     6  N   -0.100005   0.230045  -0.043336   0.002915  -0.000068   0.000018
     7  C    5.003632   0.330209  -0.030906  -0.006908   0.000001   0.000020
     8  N    0.330209   6.877824   0.198566  -0.050274   0.004701   0.000330
     9  C   -0.030906   0.198566   4.626962   0.528938  -0.009748  -0.038346
    10  C   -0.006908  -0.050274   0.528938   4.992427   0.526364  -0.040901
    11  C    0.000001   0.004701  -0.009748   0.526364   4.866538   0.543014
    12  C    0.000020   0.000330  -0.038346  -0.040901   0.543014   4.872262
    13  C   -0.000088   0.004573  -0.010603  -0.042192  -0.024722   0.539144
    14  C    0.007204  -0.059223   0.512928  -0.071356  -0.041533  -0.039320
    15  N    0.000562  -0.000006  -0.000000   0.000000   0.000000  -0.000000
    16  C   -0.000246  -0.000106   0.000001   0.000000   0.000000  -0.000000
    17  C    0.000067   0.000000  -0.000000   0.000000   0.000000  -0.000000
    18  O    0.000044  -0.000002   0.000000  -0.000000  -0.000000   0.000000
    19  H   -0.001639   0.000004   0.000002  -0.000000   0.000000  -0.000000
    20  H    0.362366  -0.034298  -0.001659   0.002042   0.000161  -0.000001
    21  H    0.005790  -0.009174  -0.039255   0.354257  -0.035105   0.004286
    22  H   -0.000004  -0.000109   0.003431  -0.037774   0.363575  -0.039553
    23  H   -0.000000   0.000003   0.000475   0.004862  -0.041378   0.366079
    24  H    0.000001  -0.000104   0.003567   0.000707   0.004485  -0.040208
    25  H    0.000226  -0.013511  -0.039919   0.005519   0.000085   0.004540
    26  H    0.000001  -0.000003  -0.000000   0.000000   0.000000  -0.000000
    27  H    0.000043  -0.000001   0.000000   0.000000  -0.000000  -0.000000
    28  H    0.001827   0.000128   0.000010  -0.000003  -0.000000   0.000000
    29  H    0.000011  -0.000000   0.000000   0.000000   0.000000  -0.000000
    30  H    0.000058   0.000004  -0.000000  -0.000000   0.000000   0.000000
    31  H    0.000002  -0.000000  -0.000000   0.000000  -0.000000  -0.000000
              13         14         15         16         17         18
     1  O   -0.000000   0.000000  -0.053847   0.001567  -0.007357  -0.040734
     2  S   -0.000000  -0.000000   0.177134  -0.018913  -0.017113   0.441863
     3  N   -0.000000   0.000001  -0.060793   0.000066   0.000740  -0.053870
     4  C    0.000006  -0.000420   0.001178   0.000225   0.000058   0.000509
     5  N   -0.000004   0.000354  -0.000032   0.000061  -0.000004   0.001118
     6  N    0.000284  -0.000158  -0.000004   0.000023  -0.000000   0.000064
     7  C   -0.000088   0.007204   0.000562  -0.000246   0.000067   0.000044
     8  N    0.004573  -0.059223  -0.000006  -0.000106   0.000000  -0.000002
     9  C   -0.010603   0.512928  -0.000000   0.000001  -0.000000   0.000000
    10  C   -0.042192  -0.071356   0.000000   0.000000   0.000000  -0.000000
    11  C   -0.024722  -0.041533   0.000000   0.000000   0.000000  -0.000000
    12  C    0.539144  -0.039320  -0.000000  -0.000000  -0.000000   0.000000
    13  C    4.879892   0.519290  -0.000000  -0.000000   0.000000   0.000000
    14  C    0.519290   4.997800  -0.000000   0.000000   0.000000  -0.000000
    15  N   -0.000000  -0.000000   7.185413   0.269173   0.268659  -0.053164
    16  C   -0.000000   0.000000   0.269173   4.999602  -0.047894  -0.006225
    17  C    0.000000   0.000000   0.268659  -0.047894   4.999611   0.001599
    18  O    0.000000  -0.000000  -0.053164  -0.006225   0.001599   8.267143
    19  H   -0.000000   0.000000  -0.000454   0.000119   0.000352   0.001471
    20  H   -0.000004  -0.000095  -0.000098   0.000016   0.000047   0.000001
    21  H    0.000203   0.005289  -0.000000   0.000000  -0.000000  -0.000000
    22  H    0.004422   0.000730  -0.000000  -0.000000  -0.000000  -0.000000
    23  H   -0.041485   0.004676  -0.000000   0.000000  -0.000000   0.000000
    24  H    0.364139  -0.037981   0.000000   0.000000   0.000000  -0.000000
    25  H   -0.038141   0.357061  -0.000000   0.000000  -0.000000   0.000000
    26  H   -0.000000   0.000000  -0.031613   0.375085   0.004376   0.011699
    27  H   -0.000000  -0.000000  -0.037002   0.376906  -0.003203   0.000130
    28  H    0.000000  -0.000002  -0.044433   0.376711  -0.001084   0.000068
    29  H   -0.000000  -0.000000  -0.033484   0.004429   0.374470   0.000063
    30  H    0.000000  -0.000000  -0.045722  -0.001219   0.376641  -0.000038
    31  H   -0.000000   0.000000  -0.034405  -0.003325   0.379051  -0.000049
              19         20         21         22         23         24
     1  O    0.001953  -0.000000  -0.000000  -0.000000  -0.000000   0.000000
     2  S   -0.007957  -0.000111  -0.000000   0.000000  -0.000000   0.000000
     3  N    0.299495  -0.000769   0.000000   0.000000  -0.000000   0.000000
     4  C   -0.025314  -0.025355   0.000048   0.000000  -0.000000  -0.000000
     5  N    0.001992   0.004079  -0.000007  -0.000000   0.000000   0.000000
     6  N   -0.000075   0.003507  -0.000085   0.000001   0.000000  -0.000008
     7  C   -0.001639   0.362366   0.005790  -0.000004  -0.000000   0.000001
     8  N    0.000004  -0.034298  -0.009174  -0.000109   0.000003  -0.000104
     9  C    0.000002  -0.001659  -0.039255   0.003431   0.000475   0.003567
    10  C   -0.000000   0.002042   0.354257  -0.037774   0.004862   0.000707
    11  C    0.000000   0.000161  -0.035105   0.363575  -0.041378   0.004485
    12  C   -0.000000  -0.000001   0.004286  -0.039553   0.366079  -0.040208
    13  C   -0.000000  -0.000004   0.000203   0.004422  -0.041485   0.364139
    14  C    0.000000  -0.000095   0.005289   0.000730   0.004676  -0.037981
    15  N   -0.000454  -0.000098  -0.000000  -0.000000  -0.000000   0.000000
    16  C    0.000119   0.000016   0.000000  -0.000000   0.000000   0.000000
    17  C    0.000352   0.000047  -0.000000  -0.000000  -0.000000   0.000000
    18  O    0.001471   0.000001  -0.000000  -0.000000   0.000000  -0.000000
    19  H    0.305719   0.000830   0.000000   0.000000   0.000000   0.000000
    20  H    0.000830   0.459158   0.001518  -0.000001  -0.000000   0.000000
    21  H    0.000000   0.001518   0.541981  -0.005095  -0.000143   0.000013
    22  H    0.000000  -0.000001  -0.005095   0.551325  -0.005065  -0.000164
    23  H    0.000000  -0.000000  -0.000143  -0.005065   0.557231  -0.005112
    24  H    0.000000   0.000000   0.000013  -0.000164  -0.005112   0.552201
    25  H    0.000000  -0.000010  -0.000130   0.000013  -0.000135  -0.005174
    26  H   -0.000013  -0.000004   0.000000  -0.000000  -0.000000  -0.000000
    27  H   -0.000001  -0.000002  -0.000000   0.000000  -0.000000   0.000000
    28  H    0.000040   0.000315  -0.000000   0.000000   0.000000  -0.000000
    29  H    0.000062  -0.000004  -0.000000  -0.000000  -0.000000   0.000000
    30  H    0.000903   0.000510  -0.000000   0.000000   0.000000  -0.000000
    31  H   -0.000017  -0.000002  -0.000000   0.000000  -0.000000   0.000000
              25         26         27         28         29         30
     1  O   -0.000000   0.000052  -0.000042  -0.000052   0.011186  -0.000129
     2  S   -0.000000  -0.002348   0.001781  -0.007432  -0.000454  -0.008104
     3  N   -0.000000  -0.000221  -0.000158   0.001497  -0.000772   0.003563
     4  C    0.000038   0.000084   0.000089   0.001105  -0.000024   0.000052
     5  N   -0.000326   0.000107   0.000004  -0.000138  -0.000000   0.000004
     6  N    0.015962   0.000006  -0.000001  -0.000051   0.000000   0.000000
     7  C    0.000226   0.000001   0.000043   0.001827   0.000011   0.000058
     8  N   -0.013511  -0.000003  -0.000001   0.000128  -0.000000   0.000004
     9  C   -0.039919  -0.000000   0.000000   0.000010   0.000000  -0.000000
    10  C    0.005519   0.000000   0.000000  -0.000003   0.000000  -0.000000
    11  C    0.000085   0.000000  -0.000000  -0.000000   0.000000   0.000000
    12  C    0.004540  -0.000000  -0.000000   0.000000  -0.000000   0.000000
    13  C   -0.038141  -0.000000  -0.000000   0.000000  -0.000000   0.000000
    14  C    0.357061   0.000000  -0.000000  -0.000002  -0.000000  -0.000000
    15  N   -0.000000  -0.031613  -0.037002  -0.044433  -0.033484  -0.045722
    16  C    0.000000   0.375085   0.376906   0.376711   0.004429  -0.001219
    17  C   -0.000000   0.004376  -0.003203  -0.001084   0.374470   0.376641
    18  O    0.000000   0.011699   0.000130   0.000068   0.000063  -0.000038
    19  H    0.000000  -0.000013  -0.000001   0.000040   0.000062   0.000903
    20  H   -0.000010  -0.000004  -0.000002   0.000315  -0.000004   0.000510
    21  H   -0.000130   0.000000  -0.000000  -0.000000  -0.000000  -0.000000
    22  H    0.000013  -0.000000   0.000000   0.000000  -0.000000   0.000000
    23  H   -0.000135  -0.000000  -0.000000   0.000000  -0.000000   0.000000
    24  H   -0.005174  -0.000000   0.000000  -0.000000   0.000000  -0.000000
    25  H    0.539695  -0.000000  -0.000000   0.000000  -0.000000   0.000000
    26  H   -0.000000   0.495731  -0.021135  -0.028389  -0.000194  -0.000142
    27  H   -0.000000  -0.021135   0.528041  -0.036151   0.000011  -0.001373
    28  H    0.000000  -0.028389  -0.036151   0.555186  -0.000141   0.007048
    29  H   -0.000000  -0.000194   0.000011  -0.000141   0.499122  -0.029728
    30  H    0.000000  -0.000142  -0.001373   0.007048  -0.029728   0.558068
    31  H   -0.000000   0.000005   0.004969  -0.001451  -0.020856  -0.035457
              31
     1  O    0.000078
     2  S    0.002337
     3  N   -0.000118
     4  C   -0.000004
     5  N    0.000000
     6  N   -0.000000
     7  C    0.000002
     8  N   -0.000000
     9  C   -0.000000
    10  C    0.000000
    11  C   -0.000000
    12  C   -0.000000
    13  C   -0.000000
    14  C    0.000000
    15  N   -0.034405
    16  C   -0.003325
    17  C    0.379051
    18  O   -0.000049
    19  H   -0.000017
    20  H   -0.000002
    21  H   -0.000000
    22  H    0.000000
    23  H   -0.000000
    24  H    0.000000
    25  H   -0.000000
    26  H    0.000005
    27  H    0.004969
    28  H   -0.001451
    29  H   -0.020856
    30  H   -0.035457
    31  H    0.518783
 Mulliken charges:
               1
     1  O   -0.576983
     2  S    1.299524
     3  N   -0.779427
     4  C    0.388515
     5  N   -0.355750
     6  N   -0.109223
     7  C    0.048465
     8  N   -0.352079
     9  C    0.328406
    10  C   -0.169271
    11  C   -0.156365
    12  C   -0.131363
    13  C   -0.154714
    14  C   -0.155246
    15  N   -0.507062
    16  C   -0.326056
    17  C   -0.329015
    18  O   -0.571689
    19  H    0.422527
    20  H    0.227862
    21  H    0.175610
    22  H    0.164268
    23  H    0.159990
    24  H    0.163639
    25  H    0.174206
    26  H    0.196916
    27  H    0.187094
    28  H    0.175391
    29  H    0.196304
    30  H    0.175062
    31  H    0.190460
 Sum of Mulliken charges =  -0.00000
 Mulliken charges with hydrogens summed into heavy atoms:
               1
     1  O   -0.576983
     2  S    1.299524
     3  N   -0.356901
     4  C    0.388515
     5  N   -0.355750
     6  N   -0.109223
     7  C    0.276328
     8  N   -0.352079
     9  C    0.328406
    10  C    0.006339
    11  C    0.007904
    12  C    0.028628
    13  C    0.008925
    14  C    0.018960
    15  N   -0.507062
    16  C    0.233346
    17  C    0.232811
    18  O   -0.571689
 Electronic spatial extent (au):  <R**2>=           6436.9328
 Charge=              0.0000 electrons
 Dipole moment (field-independent basis, Debye):
    X=              7.7640    Y=             11.1202    Z=             -1.5471  Tot=             13.6504
 Quadrupole moment (field-independent basis, Debye-Ang):
   XX=           -118.3638   YY=           -115.8513   ZZ=           -103.1842
   XY=            -12.2610   XZ=             -0.9472   YZ=             -3.0373
 Traceless Quadrupole moment (field-independent basis, Debye-Ang):
   XX=             -5.8974   YY=             -3.3849   ZZ=              9.2822
   XY=            -12.2610   XZ=             -0.9472   YZ=             -3.0373
 Octapole moment (field-independent basis, Debye-Ang**2):
  XXX=            208.3956  YYY=             46.0517  ZZZ=             -1.1490  XYY=            -16.8403
  XXY=             74.6274  XXZ=             26.5253  XZZ=             -6.3252  YZZ=             11.8139
  YYZ=             -5.1919  XYZ=            -21.3285
 Hexadecapole moment (field-independent basis, Debye-Ang**3):
 XXXX=          -6780.2354 YYYY=           -956.0054 ZZZZ=           -574.1091 XXXY=            -13.0015
 XXXZ=             28.2994 YYYX=            -50.0601 YYYZ=              1.3643 ZZZX=              1.7532
 ZZZY=            -12.2542 XXYY=          -1261.1257 XXZZ=          -1237.9245 YYZZ=           -241.2544
 XXYZ=            -67.2879 YYXZ=            -16.7703 ZZXY=            -27.0456
 N-N= 1.469655089660D+03 E-N=-5.775706146017D+03  KE= 1.202079690624D+03
 No NMR shielding tensors so no spin-rotation constants.
 Leave Link  601 at Wed Sep 23 11:21:36 2020, MaxMem=  2147483648 cpu:               0.4 elap:               0.1
 (Enter /prod/apps/gaussian/g16b1/l701.exe)
 ... and contract with generalized density number  0.
 Compute integral first derivatives.
 D1PCM: PCM CHGder 1st derivatives, ID1Alg=3 FixD1E=F DoIter=F DoCFld=F I1PDM=0.
 GePol: Maximum number of non-zero 1st derivatives   =     187
 Leave Link  701 at Wed Sep 23 11:21:39 2020, MaxMem=  2147483648 cpu:               8.9 elap:               2.2
 (Enter /prod/apps/gaussian/g16b1/l702.exe)
 L702 exits ... SP integral derivatives will be done elsewhere.
 Leave Link  702 at Wed Sep 23 11:21:39 2020, MaxMem=  2147483648 cpu:               0.1 elap:               0.0
 (Enter /prod/apps/gaussian/g16b1/l703.exe)
 Integral derivatives from FoFJK, PRISM(SPDF).
 Compute integral first derivatives, UseDBF=F ICtDFT=           0.
 Calling FoFJK, ICntrl=      2127 FMM=F ISym2X=0 I1Cent= 0 IOpClX= 0 NMat=1 NMatS=1 NMatT=0.
 FoFJK:  IHMeth= 1 ICntrl=    2127 DoSepK=F KAlg= 0 I1Cent=           0 FoldK=F
 IRaf=         0 NMat=       1 IRICut=       1 DoRegI=T DoRafI=F ISym2E= 0 IDoP0=0 IntGTp=1.
 FoFCou: FMM=F IPFlag=           0 FMFlag=      100000 FMFlg1=         800
         NFxFlg=           0 DoJE=F BraDBF=F KetDBF=F FulRan=T
         wScrn=  0.000000 ICntrl=      2127 IOpCl=  0 I1Cent=           0 NGrid=           0
         NMat0=    1 NMatS0=      1 NMatT0=    0 NMatD0=    1 NMtDS0=    0 NMtDT0=    0
 Symmetry not used in FoFCou.
 Leave Link  703 at Wed Sep 23 11:21:53 2020, MaxMem=  2147483648 cpu:              57.4 elap:              14.4
 (Enter /prod/apps/gaussian/g16b1/l716.exe)
 Dipole        = 3.05460315D+00 4.37502149D+00-6.08667300D-01
 -------------------------------------------------------------------
 Center     Atomic                   Forces (Hartrees/Bohr)
 Number     Number              X              Y              Z
 -------------------------------------------------------------------
      1        8          -0.001232723   -0.000083801   -0.000975020
      2       16           0.000528566   -0.000686738    0.001034374
      3        7          -0.001693537    0.000417834   -0.000987520
      4        6           0.000171099    0.000567965    0.000074835
      5        7           0.000913115   -0.000836593    0.000443164
      6        7          -0.000038317    0.000165892   -0.000130937
      7        6           0.000406188    0.000518390    0.000053434
      8        7           0.000226992   -0.000315815    0.000258214
      9        6          -0.000475820    0.000126763   -0.000830637
     10        6          -0.000003426    0.000033254    0.000442958
     11        6          -0.000016033    0.000301472   -0.000600235
     12        6          -0.000117875    0.000368578   -0.000454659
     13        6           0.000949666    0.000292333    0.000288528
     14        6          -0.000287530   -0.000114051    0.000032628
     15        7          -0.000227252   -0.000318558   -0.000506781
     16        6           0.001547198    0.000126677    0.000364132
     17        6           0.000252605    0.000618340   -0.000346263
     18        8          -0.000066092    0.000032990    0.000224099
     19        1           0.000381107   -0.000093870    0.000121814
     20        1          -0.000289881   -0.000205591    0.000004636
     21        1           0.000321298   -0.000016928   -0.000105320
     22        1           0.000024399   -0.000148958    0.000281497
     23        1           0.000084712    0.000018791    0.000010815
     24        1           0.000291308   -0.000295095    0.000377977
     25        1          -0.000402455   -0.000649099    0.000510537
     26        1          -0.000157900   -0.000229678   -0.000068152
     27        1          -0.000283898    0.000242710    0.000235660
     28        1          -0.000444582   -0.000114951    0.000177798
     29        1          -0.000166667    0.000149434   -0.000064657
     30        1          -0.000112222   -0.000036530    0.000071500
     31        1          -0.000082044    0.000164834    0.000061583
 -------------------------------------------------------------------
 Cartesian Forces:  Max     0.001693537 RMS     0.000464809
 Leave Link  716 at Wed Sep 23 11:21:53 2020, MaxMem=  2147483648 cpu:               0.1 elap:               0.1
 (Enter /prod/apps/gaussian/g16b1/l103.exe)

 GradGradGradGradGradGradGradGradGradGradGradGradGradGradGradGradGradGrad
 Berny optimization.
 FormGI is forming the generalized inverse of G from B-inverse, IUseBI=4.
 GSVD:  received Info=                   1 from GESDD.
 Internal  Forces:  Max     0.001875140 RMS     0.000354635
 Search for a local minimum.
 Step number   1 out of a maximum of  164
 All quantities printed in internal units (Hartrees-Bohrs-Radians)
 RMS Force = .35463D-03 SwitMx=.10000D-02 MixMth= 2
 Mixed Optimization -- En-DIIS/RFO-DIIS
 Second derivative matrix not updated -- first step.
 ITU=  0
     Eigenvalues ---    0.00788   0.00789   0.01219   0.01355   0.01613
     Eigenvalues ---    0.01716   0.01758   0.01838   0.01904   0.02040
     Eigenvalues ---    0.02138   0.02139   0.02142   0.02149   0.02150
     Eigenvalues ---    0.02156   0.02160   0.02163   0.02170   0.02297
     Eigenvalues ---    0.02324   0.02439   0.07213   0.07225   0.07747
     Eigenvalues ---    0.07749   0.08878   0.10583   0.13684   0.15176
     Eigenvalues ---    0.15997   0.15999   0.15999   0.15999   0.16000
     Eigenvalues ---    0.16000   0.16000   0.16000   0.16000   0.16000
     Eigenvalues ---    0.16000   0.16000   0.20457   0.20696   0.21152
     Eigenvalues ---    0.22000   0.22000   0.22830   0.23494   0.23786
     Eigenvalues ---    0.24948   0.24994   0.25000   0.25000   0.25000
     Eigenvalues ---    0.34005   0.34101   0.34601   0.34626   0.34993
     Eigenvalues ---    0.35073   0.35201   0.35425   0.35485   0.35546
     Eigenvalues ---    0.35567   0.35894   0.35938   0.35953   0.36420
     Eigenvalues ---    0.39995   0.41644   0.42099   0.42252   0.44119
     Eigenvalues ---    0.44650   0.45578   0.46225   0.46276   0.46411
     Eigenvalues ---    0.46777   0.47715   0.52651   0.53271   0.62664
     Eigenvalues ---    0.90497   0.90960
 RFO step:  Lambda=-6.35556532D-05 EMin= 7.87635169D-03
 Linear search not attempted -- first point.
 Iteration  1 RMS(Cart)=  0.00668857 RMS(Int)=  0.00001344
 Iteration  2 RMS(Cart)=  0.00003331 RMS(Int)=  0.00000151
 Iteration  3 RMS(Cart)=  0.00000000 RMS(Int)=  0.00000151
 ITry= 1 IFail=0 DXMaxC= 2.41D-02 DCOld= 1.00D+10 DXMaxT= 3.00D-01 DXLimC= 3.00D+00 Rises=F
 Variable       Old X    -DE/DX   Delta X   Delta X   Delta X     New X
                                 (Linear)    (Quad)   (Total)
    R1        2.76405   0.00156   0.00000   0.00172   0.00172   2.76577
    R2        3.22350   0.00047   0.00000   0.00134   0.00134   3.22484
    R3        3.15260   0.00048   0.00000   0.00121   0.00121   3.15381
    R4        2.76193   0.00012   0.00000   0.00013   0.00013   2.76206
    R5        2.65684   0.00188   0.00000   0.00420   0.00420   2.66104
    R6        1.93012  -0.00018   0.00000  -0.00042  -0.00042   1.92970
    R7        2.57213   0.00112   0.00000   0.00223   0.00223   2.57436
    R8        2.60703   0.00059   0.00000   0.00133   0.00133   2.60836
    R9        2.47034  -0.00006   0.00000  -0.00013  -0.00013   2.47021
   R10        2.56057  -0.00016   0.00000  -0.00042  -0.00042   2.56015
   R11        2.56229   0.00063   0.00000   0.00114   0.00114   2.56343
   R12        2.03430  -0.00022   0.00000  -0.00060  -0.00060   2.03370
   R13        2.69379   0.00032   0.00000   0.00077   0.00077   2.69457
   R14        2.63867   0.00023   0.00000   0.00045   0.00045   2.63912
   R15        2.63815   0.00098   0.00000   0.00221   0.00221   2.64036
   R16        2.63430   0.00001   0.00000  -0.00011  -0.00011   2.63419
   R17        2.04763  -0.00011   0.00000  -0.00031  -0.00031   2.04732
   R18        2.63829   0.00001   0.00000  -0.00008  -0.00008   2.63821
   R19        2.04991  -0.00026   0.00000  -0.00074  -0.00074   2.04916
   R20        2.63888   0.00054   0.00000   0.00120   0.00120   2.64009
[...]
 Alpha virt. eigenvalues --    2.13098   2.13920   2.14983   2.16389   2.17179
 Alpha virt. eigenvalues --    2.18227   2.18678   2.20739   2.21474   2.22140
 Alpha virt. eigenvalues --    2.22895   2.23279   2.23668   2.24251   2.26073
 Alpha virt. eigenvalues --    2.27192   2.27527   2.28589   2.29996   2.30366
 Alpha virt. eigenvalues --    2.30737   2.30918   2.32648   2.33054   2.33771
 Alpha virt. eigenvalues --    2.34260   2.35375   2.36208   2.37093   2.37534
 Alpha virt. eigenvalues --    2.39314   2.39593   2.41186   2.41748   2.42589
 Alpha virt. eigenvalues --    2.44411   2.45241   2.47880   2.48844   2.49329
 Alpha virt. eigenvalues --    2.50314   2.50724   2.54743   2.56131   2.57339
 Alpha virt. eigenvalues --    2.58037   2.59753   2.60596   2.62287   2.63016
 Alpha virt. eigenvalues --    2.63397   2.66182   2.66988   2.69788   2.71353
 Alpha virt. eigenvalues --    2.73133   2.73367   2.75642   2.78341   2.79908
 Alpha virt. eigenvalues --    2.80592   2.82458   2.83127   2.84083   2.85205
 Alpha virt. eigenvalues --    2.87394   2.87776   2.88664   2.89382   2.90525
 Alpha virt. eigenvalues --    2.91997   2.94091   2.94739   2.95583   2.96709
 Alpha virt. eigenvalues --    2.97379   3.00381   3.01371   3.03645   3.05082
 Alpha virt. eigenvalues --    3.07184   3.09040   3.11253   3.12493   3.13725
 Alpha virt. eigenvalues --    3.14852   3.15113   3.16269   3.19343   3.20584
 Alpha virt. eigenvalues --    3.23097   3.24805   3.30077   3.32251   3.33030
 Alpha virt. eigenvalues --    3.37547   3.38962   3.40673   3.41763   3.46100
 Alpha virt. eigenvalues --    3.55918   3.58262   3.64175   3.65940   3.71889
 Alpha virt. eigenvalues --    3.73337   3.75958   3.78045   3.80403   3.80710
 Alpha virt. eigenvalues --    3.83025   3.85001   3.85227   3.90263   3.91755
 Alpha virt. eigenvalues --    3.93956   4.05608   4.27438   4.44352   4.87299
          Condensed to atoms (all electrons):
               1          2          3          4          5          6
     1  O    9.114416  -0.093513  -0.118014   0.116643  -0.018404   0.001630
     2  S   -0.093513  14.211492   0.413860  -1.609523   0.278620  -0.108000
     3  N   -0.118014   0.413860   8.560244  -2.641189   0.358299  -0.269109
     4  C    0.116643  -1.609523  -2.641189  18.300720  -2.087105   1.360041
     5  N   -0.018404   0.278620   0.358299  -2.087105   9.094128  -1.159285
     6  N    0.001630  -0.108000  -0.269109   1.360041  -1.159285   9.352741
     7  C   -0.017685   0.692351   1.183818  -9.004150   1.275378  -1.163550
     8  N   -0.001935   0.069710   0.042440  -0.178869   0.020264  -0.537452
     9  C    0.003234  -0.005103   0.031999   0.546592   0.096379  -0.350573
    10  C   -0.000877   0.001240  -0.021365  -0.144960   0.059992  -0.148272
    11  C   -0.000098   0.000604  -0.006305   0.078758   0.016537   0.003250
    12  C    0.000000  -0.000427  -0.001971   0.014337  -0.012813   0.008950
    13  C    0.000047  -0.001103   0.000393  -0.004520  -0.032880   0.003064
    14  C    0.000535  -0.005839  -0.007535   0.030238  -0.152131   0.547238
    15  N    0.006222  -0.303084   0.077755   0.144771  -0.061001   0.061309
    16  C    0.018161  -0.075920   0.011520   0.073989   0.020286  -0.019493
    17  C    0.037444  -0.238911  -0.008975   0.020136  -0.000878   0.007728
    18  O   -0.003502  -0.068970  -0.094287   0.244928  -0.062287  -0.012276
    19  H    0.027697  -0.025052   0.352776  -0.031666  -0.000899   0.016592
    20  H   -0.005771   0.035790  -0.101236  -0.035541  -0.037185  -0.132575
    21  H    0.000276  -0.003272  -0.002224  -0.009667  -0.002714  -0.025042
    22  H   -0.000003   0.000098   0.000056   0.001933  -0.000166   0.001851
    23  H    0.000000  -0.000034  -0.000065   0.000046  -0.000169   0.001318
    24  H    0.000001  -0.000051  -0.000054   0.000402   0.000472  -0.001073
    25  H    0.000062  -0.001397  -0.003664   0.033610  -0.026701   0.016069
    26  H   -0.004603   0.189905  -0.006267  -0.151464   0.021107  -0.011292
    27  H   -0.004366  -0.043505   0.017116   0.055183  -0.002505  -0.002930
    28  H    0.009718  -0.086254  -0.017377   0.019437  -0.006845   0.012953
    29  H    0.009274   0.124151  -0.017437   0.012987  -0.001604  -0.001120
    30  H    0.000227  -0.015108  -0.023240  -0.016764  -0.002196   0.007389
    31  H    0.008358  -0.070620   0.005227  -0.009936   0.001363  -0.000318
               7          8          9         10         11         12
     1  O   -0.017685  -0.001935   0.003234  -0.000877  -0.000098   0.000000
     2  S    0.692351   0.069710  -0.005103   0.001240   0.000604  -0.000427
     3  N    1.183818   0.042440   0.031999  -0.021365  -0.006305  -0.001971
     4  C   -9.004150  -0.178869   0.546592  -0.144960   0.078758   0.014337
     5  N    1.275378   0.020264   0.096379   0.059992   0.016537  -0.012813
     6  N   -1.163550  -0.537452  -0.350573  -0.148272   0.003250   0.008950
     7  C   14.720591  -0.176023  -2.215816   0.768262  -0.339358   0.035210
     8  N   -0.176023   9.315748  -0.873012   0.596664  -0.392966   0.367317
     9  C   -2.215816  -0.873012  15.235483  -5.984494   2.950038  -3.645207
    10  C    0.768262   0.596664  -5.984494  13.061366  -3.959533   3.246575
    11  C   -0.339358  -0.392966   2.950038  -3.959533  10.632896  -3.177580
    12  C    0.035210   0.367317  -3.645207   3.246575  -3.177580   9.037407
    13  C    0.052217  -0.279758   2.747354  -3.403415   3.026488  -2.970501
    14  C   -0.154447  -0.042503  -4.927815   2.342670  -3.319364   2.915121
    15  N   -0.116117  -0.033754  -0.006601   0.003716  -0.000152   0.000208
    16  C   -0.140795   0.032804   0.037210  -0.000391  -0.001868   0.000987
    17  C    0.044058  -0.022649  -0.025285   0.000832  -0.001127   0.000084
    18  O   -0.049846  -0.002387  -0.003369   0.000403   0.000024  -0.000002
    19  H   -0.094099   0.011446   0.014211  -0.003231   0.000242  -0.000273
    20  H   -0.450753   0.174610   0.067162   0.067909   0.101516   0.002148
    21  H    0.113586  -0.232616   0.857078  -1.030232   0.190648  -0.185884
    22  H    0.013948   0.002334  -0.118922   0.729484  -0.846579   0.282059
    23  H   -0.000509  -0.002973   0.118281  -0.173137   0.372196  -0.648021
    24  H   -0.001709  -0.006787  -0.104327   0.123304  -0.222701   0.282516
    25  H   -0.033443  -0.206882   0.645367  -0.121311   0.121152  -0.168012
    26  H    0.100050   0.012258  -0.001882   0.001403   0.000023   0.000052
    27  H   -0.035773   0.000182   0.003986  -0.000683  -0.000214   0.000050
    28  H   -0.008070  -0.007761   0.013309  -0.014045   0.003725  -0.002865
    29  H    0.011992   0.000066  -0.000658  -0.000025   0.000116  -0.000020
    30  H   -0.006872   0.005401   0.015661  -0.004815  -0.003515   0.000024
    31  H    0.008506  -0.001774  -0.002743   0.000464  -0.000048   0.000004
              13         14         15         16         17         18
     1  O    0.000047   0.000535   0.006222   0.018161   0.037444  -0.003502
     2  S   -0.001103  -0.005839  -0.303084  -0.075920  -0.238911  -0.068970
     3  N    0.000393  -0.007535   0.077755   0.011520  -0.008975  -0.094287
     4  C   -0.004520   0.030238   0.144771   0.073989   0.020136   0.244928
     5  N   -0.032880  -0.152131  -0.061001   0.020286  -0.000878  -0.062287
     6  N    0.003064   0.547238   0.061309  -0.019493   0.007728  -0.012276
     7  C    0.052217  -0.154447  -0.116117  -0.140795   0.044058  -0.049846
     8  N   -0.279758  -0.042503  -0.033754   0.032804  -0.022649  -0.002387
     9  C    2.747354  -4.927815  -0.006601   0.037210  -0.025285  -0.003369
    10  C   -3.403415   2.342670   0.003716  -0.000391   0.000832   0.000403
    11  C    3.026488  -3.319364  -0.000152  -0.001868  -0.001127   0.000024
    12  C   -2.970501   2.915121   0.000208   0.000987   0.000084  -0.000002
    13  C    9.763593  -3.411024   0.000372  -0.002178   0.000414  -0.000155
    14  C   -3.411024  12.291713   0.004194  -0.007964   0.003632   0.000247
    15  N    0.000372   0.004194   8.200448   0.101518   0.286503   0.047332
    16  C   -0.002178  -0.007964   0.101518   4.327249  -0.227310  -0.006540
    17  C    0.000414   0.003632   0.286503  -0.227310   4.355765   0.045471
    18  O   -0.000155   0.000247   0.047332  -0.006540   0.045471   9.067739
    19  H   -0.000011  -0.000812  -0.029448  -0.000907   0.006536   0.003870
    20  H   -0.017771  -0.161952  -0.021398  -0.008846   0.011799   0.000666
    21  H    0.132490  -0.125727   0.001374   0.000339  -0.000128  -0.000067
    22  H   -0.234412   0.104976  -0.000032  -0.000015  -0.000059   0.000001
    23  H    0.403856  -0.120840   0.000013   0.000024   0.000002  -0.000000
    24  H   -0.729236   0.609140   0.000025  -0.000081  -0.000004  -0.000009
    25  H    0.350181  -0.904227   0.000395   0.000625  -0.000074   0.000136
    26  H   -0.000361  -0.001364  -0.126388   0.361234  -0.072172  -0.012421
    27  H   -0.000161  -0.000738  -0.200056   0.461369   0.037439  -0.000101
    28  H    0.004948   0.000964   0.174730   0.096963   0.045925   0.006196
    29  H    0.000014   0.000012  -0.152691  -0.067119   0.396980  -0.002110
    30  H    0.000534   0.004757   0.152436   0.018169   0.193979   0.005169
    31  H   -0.000014  -0.000063  -0.083937   0.057303   0.390870   0.000945
              19         20         21         22         23         24
     1  O    0.027697  -0.005771   0.000276  -0.000003   0.000000   0.000001
     2  S   -0.025052   0.035790  -0.003272   0.000098  -0.000034  -0.000051
     3  N    0.352776  -0.101236  -0.002224   0.000056  -0.000065  -0.000054
     4  C   -0.031666  -0.035541  -0.009667   0.001933   0.000046   0.000402
     5  N   -0.000899  -0.037185  -0.002714  -0.000166  -0.000169   0.000472
     6  N    0.016592  -0.132575  -0.025042   0.001851   0.001318  -0.001073
     7  C   -0.094099  -0.450753   0.113586   0.013948  -0.000509  -0.001709
     8  N    0.011446   0.174610  -0.232616   0.002334  -0.002973  -0.006787
     9  C    0.014211   0.067162   0.857078  -0.118922   0.118281  -0.104327
    10  C   -0.003231   0.067909  -1.030232   0.729484  -0.173137   0.123304
    11  C    0.000242   0.101516   0.190648  -0.846579   0.372196  -0.222701
    12  C   -0.000273   0.002148  -0.185884   0.282059  -0.648021   0.282516
    13  C   -0.000011  -0.017771   0.132490  -0.234412   0.403856  -0.729236
    14  C   -0.000812  -0.161952  -0.125727   0.104976  -0.120840   0.609140
    15  N   -0.029448  -0.021398   0.001374  -0.000032   0.000013   0.000025
    16  C   -0.000907  -0.008846   0.000339  -0.000015   0.000024  -0.000081
    17  C    0.006536   0.011799  -0.000128  -0.000059   0.000002  -0.000004
    18  O    0.003870   0.000666  -0.000067   0.000001  -0.000000  -0.000009
    19  H    0.777347   0.001740   0.001741   0.000000  -0.000010   0.000008
    20  H    0.001740   2.249789  -0.112561   0.000593  -0.000349   0.000275
    21  H    0.001741  -0.112561   2.202828  -0.081908  -0.015170   0.010108
    22  H    0.000000   0.000593  -0.081908   1.655381  -0.054797  -0.017705
    23  H   -0.000010  -0.000349  -0.015170  -0.054797   1.635622  -0.058581
    24  H    0.000008   0.000275   0.010108  -0.017705  -0.058581   1.627027
    25  H   -0.000194  -0.006475  -0.015786   0.008999  -0.011417  -0.081341
    26  H    0.001182   0.016209  -0.000762   0.000002  -0.000005   0.000019
    27  H   -0.000199  -0.008216   0.000351   0.000012   0.000003  -0.000017
    28  H    0.001488  -0.005180  -0.001203   0.000043   0.000001   0.000018
    29  H    0.001879   0.005302  -0.000334   0.000012  -0.000002  -0.000001
    30  H    0.005773  -0.036065   0.004016  -0.000151   0.000035   0.000009
    31  H    0.001048   0.000661  -0.000086  -0.000007  -0.000001   0.000000
              25         26         27         28         29         30
     1  O    0.000062  -0.004603  -0.004366   0.009718   0.009274   0.000227
     2  S   -0.001397   0.189905  -0.043505  -0.086254   0.124151  -0.015108
     3  N   -0.003664  -0.006267   0.017116  -0.017377  -0.017437  -0.023240
     4  C    0.033610  -0.151464   0.055183   0.019437   0.012987  -0.016764
     5  N   -0.026701   0.021107  -0.002505  -0.006845  -0.001604  -0.002196
     6  N    0.016069  -0.011292  -0.002930   0.012953  -0.001120   0.007389
     7  C   -0.033443   0.100050  -0.035773  -0.008070   0.011992  -0.006872
     8  N   -0.206882   0.012258   0.000182  -0.007761   0.000066   0.005401
     9  C    0.645367  -0.001882   0.003986   0.013309  -0.000658   0.015661
    10  C   -0.121311   0.001403  -0.000683  -0.014045  -0.000025  -0.004815
    11  C    0.121152   0.000023  -0.000214   0.003725   0.000116  -0.003515
    12  C   -0.168012   0.000052   0.000050  -0.002865  -0.000020   0.000024
    13  C    0.350181  -0.000361  -0.000161   0.004948   0.000014   0.000534
    14  C   -0.904227  -0.001364  -0.000738   0.000964   0.000012   0.004757
    15  N    0.000395  -0.126388  -0.200056   0.174730  -0.152691   0.152436
    16  C    0.000625   0.361234   0.461369   0.096963  -0.067119   0.018169
    17  C   -0.000074  -0.072172   0.037439   0.045925   0.396980   0.193979
    18  O    0.000136  -0.012421  -0.000101   0.006196  -0.002110   0.005169
    19  H   -0.000194   0.001182  -0.000199   0.001488   0.001879   0.005773
    20  H   -0.006475   0.016209  -0.008216  -0.005180   0.005302  -0.036065
    21  H   -0.015786  -0.000762   0.000351  -0.001203  -0.000334   0.004016
    22  H    0.008999   0.000002   0.000012   0.000043   0.000012  -0.000151
    23  H   -0.011417  -0.000005   0.000003   0.000001  -0.000002   0.000035
    24  H   -0.081341   0.000019  -0.000017   0.000018  -0.000001   0.000009
    25  H    1.943384  -0.000763   0.000285   0.000252   0.000025   0.000445
    26  H   -0.000763   1.386496  -0.348834  -0.156383   0.000311  -0.013879
    27  H    0.000285  -0.348834   1.494039  -0.240902   0.002974  -0.000521
    28  H    0.000252  -0.156383  -0.240902   1.193453  -0.005099   0.004121
    29  H    0.000025   0.000311   0.002974  -0.005099   1.272761  -0.178329
    30  H    0.000445  -0.013879  -0.000521   0.004121  -0.178329   1.084746
    31  H   -0.000088   0.007230   0.001929  -0.000409  -0.278801  -0.154606
              31
     1  O    0.008358
     2  S   -0.070620
     3  N    0.005227
     4  C   -0.009936
     5  N    0.001363
     6  N   -0.000318
     7  C    0.008506
     8  N   -0.001774
     9  C   -0.002743
    10  C    0.000464
    11  C   -0.000048
    12  C    0.000004
    13  C   -0.000014
    14  C   -0.000063
    15  N   -0.083937
    16  C    0.057303
    17  C    0.390870
    18  O    0.000945
    19  H    0.001048
    20  H    0.000661
    21  H   -0.000086
    22  H   -0.000007
    23  H   -0.000001
    24  H    0.000000
    25  H   -0.000088
    26  H    0.007230
    27  H    0.001929
    28  H   -0.000409
    29  H   -0.278801
    30  H   -0.154606
    31  H    1.268318
 Mulliken charges:
               1
     1  O   -1.085177
     2  S    2.737865
     3  N   -0.715190
     4  C    0.870605
     5  N   -0.575056
     6  N   -0.459763
     7  C    0.989047
     8  N   -0.651144
     9  C    0.882466
    10  C    0.006501
    11  C    0.773197
    12  C    0.620526
    13  C    0.601535
    14  C    0.488910
    15  N   -1.128662
    16  C    0.939677
    17  C    0.711974
    18  O   -1.104795
    19  H   -0.038775
    20  H   -0.594292
    21  H   -0.669455
    22  H   -0.447027
    23  H   -0.445317
    24  H   -0.429648
    25  H   -0.539211
    26  H   -0.188641
    27  H   -0.185196
    28  H   -0.035849
    29  H   -0.133507
    30  H   -0.046828
    31  H   -0.148774
 Sum of Mulliken charges =  -0.00000
 Mulliken charges with hydrogens summed into heavy atoms:
               1
     1  O   -1.085177
     2  S    2.737865
     3  N   -0.753964
     4  C    0.870605
     5  N   -0.575056
     6  N   -0.459763
     7  C    0.394755
     8  N   -0.651144
     9  C    0.882466
    10  C   -0.662954
    11  C    0.326170
    12  C    0.175209
    13  C    0.171887
    14  C   -0.050301
    15  N   -1.128662
    16  C    0.529992
    17  C    0.382866
    18  O   -1.104795
 Electronic spatial extent (au):  <R**2>=           6437.2729
 Charge=             -0.0000 electrons
 Dipole moment (field-independent basis, Debye):
    X=              6.3968    Y=              8.1861    Z=             -0.6681  Tot=             10.4105
 Quadrupole moment (field-independent basis, Debye-Ang):
   XX=           -120.7747   YY=           -117.9573   ZZ=           -108.3993
   XY=            -11.4610   XZ=             -0.4018   YZ=             -3.3581
 Traceless Quadrupole moment (field-independent basis, Debye-Ang):
   XX=             -5.0642   YY=             -2.2469   ZZ=              7.3111
   XY=            -11.4610   XZ=             -0.4018   YZ=             -3.3581
 Octapole moment (field-independent basis, Debye-Ang**2):
  XXX=            167.6065  YYY=             31.7181  ZZZ=              2.6263  XYY=            -20.8850
  XXY=             62.6089  XXZ=             33.6123  XZZ=            -10.8243  YZZ=              8.3675
  YYZ=             -4.7686  XYZ=            -24.1204
 Hexadecapole moment (field-independent basis, Debye-Ang**3):
 XXXX=          -7006.9682 YYYY=          -1011.4253 ZZZZ=           -600.2139 XXXY=            -22.0809
 XXXZ=             42.4602 YYYX=            -46.8478 YYYZ=             -2.5872 ZZZX=              0.9795
 ZZZY=            -14.2326 XXYY=          -1308.9817 XXZZ=          -1286.7752 YYZZ=           -254.3758
 XXYZ=            -76.3606 YYXZ=            -15.0768 ZZXY=            -29.4336
 N-N= 1.469098117619D+03 E-N=-5.772666376776D+03  KE= 1.204093414211D+03
 Leave Link  601 at Wed Sep 23 12:25:38 2020, MaxMem=   262144000 cpu:               0.8 elap:               0.3
 (Enter /prod/apps/gaussian/g16b1/l9999.exe)
 1\1\GINC-PIRINEUS15\SP\RMP2-FC\Aug-CC-pVDZ\C10H13N5O2S1\UBAFAR01\23-Se
 p-2020\0\\#p mp2/aug-cc-pVDZ scf=(MaxCycle=2000,NoVarAcc,NoIncFock) ma
 xdisk=120GB geom=allcheck\\SM46_m0.n.3.pdb.xyz\\0,1\O,0,-4.3332811389,
 -0.2334444076,-0.9660676364\S,0,-3.1669803564,-0.3415738101,-0.0878474
 517\N,0,-1.8713356542,-0.5361875211,-1.1824919599\C,0,-0.5502491986,-0
 .6950042371,-0.7200343873\N,0,-0.1151980437,-1.8678264832,-0.179617067
 3\N,0,1.155740866,-1.7560928654,0.1017638492\C,0,0.5114645942,0.184271
 0669,-0.7845929633\N,0,1.55410344,-0.516170873,-0.2731461936\C,0,2.909
 9910392,-0.1061721089,-0.1103067318\C,0,3.4304574704,0.899148901,-0.92
 77400705\C,0,4.7546508371,1.2984497859,-0.7540924683\C,0,5.5540519051,
 0.6909181086,0.2158538008\C,0,5.0223711934,-0.3192809871,1.0211008923\
 C,0,3.6960271982,-0.7199817546,0.8682845953\N,0,-3.0829154631,1.086126
 486,0.7710762368\C,0,-2.1585412477,1.1536822559,1.9123959793\C,0,-3.20
 22244948,2.3270991141,-0.0064385395\O,0,-3.0490113291,-1.424324747,0.8
 870861004\H,0,-1.9606115906,0.1339023358,-1.9480202229\H,0,0.591334976
 4,1.2013345566,-1.1274670439\H,0,2.8156843869,1.3537358783,-1.69536778
 91\H,0,5.1611737575,2.0795766426,-1.3868511204\H,0,6.5848821251,1.0024
 929906,0.3433329439\H,0,5.6368061269,-0.7930155899,1.7788455017\H,0,3.
 2662103872,-1.4920747041,1.4928601897\H,0,-2.1368211052,0.1897789739,2
 .4163834794\H,0,-2.5464491703,1.9059603259,2.6030962841\H,0,-1.1452310
 448,1.4387638896,1.6098130438\H,0,-3.96854181,2.2043866235,-0.77001063
 21\H,0,-2.2529597108,2.6165545364,-0.473362179\H,0,-3.5125989453,3.116
 9676176,0.6805615604\\Version=ES64L-G16RevB.01\State=1-A\HF=-1205.6893
 564\MP2=-1208.4992482\RMSD=5.372e-09\PG=C01 [X(C10H13N5O2S1)]\\@


 A MATHEMATICIAN IS A MACHINE FOR TURNING COFFEE INTO THEOREMS.
     -- QUOTED BY PAUL ERDOS
 Job cpu time:       0 days  2 hours 36 minutes 56.0 seconds.
 Elapsed time:       0 days  0 hours 44 minutes 59.8 seconds.
 File lengths (MBytes):  RWF=  74827 Int=      0 D2E=      0 Chk=     23 Scr=      1
 Normal termination of Gaussian 16 at Wed Sep 23 12:25:41 2020.
