 Entering Gaussian System, Link 0=g16
 Initial command:
 /prod/apps/gaussian/g16b1/l1.exe "/tmp/ubafar01/1461479/Gau-73458.inp" -scrdir="/tmp/ubafar01/1461479/"
 Entering Link 1 = /prod/apps/gaussian/g16b1/l1.exe PID=     73459.
  
 Copyright (c) 1988-2017, Gaussian, Inc.  All Rights Reserved.
  
 This is part of the Gaussian(R) 16 program.  It is based on
 the Gaussian(R) 09 system (copyright 2009, Gaussian, Inc.),
 the Gaussian(R) 03 system (copyright 2003, Gaussian, Inc.),
 the Gaussian(R) 98 system (copyright 1998, Gaussian, Inc.),
 the Gaussian(R) 94 system (copyright 1995, Gaussian, Inc.),
 the Gaussian 92(TM) system (copyright 1992, Gaussian, Inc.),
 the Gaussian 90(TM) system (copyright 1990, Gaussian, Inc.),
 the Gaussian 88(TM) system (copyright 1988, Gaussian, Inc.),
 the Gaussian 86(TM) system (copyright 1986, Carnegie Mellon
 University), and the Gaussian 82(TM) system (copyright 1983,
 Carnegie Mellon University). Gaussian is a federally registered
 trademark of Gaussian, Inc.
  
 This software contains proprietary and confidential information,
 including trade secrets, belonging to Gaussian, Inc.
  
 This software is provided under written license and may be
 used, copied, transmitted, or stored only in accord with that
 written license.
  
 The following legend is applicable only to US Government
 contracts under FAR:
  
                    RESTRICTED RIGHTS LEGEND
  
 Use, reproduction and disclosure by the US Government is
 subject to restrictions as set forth in subparagraphs (a)
 and (c) of the Commercial Computer Software - Restricted
 Rights clause in FAR 52.227-19.
  
 Gaussian, Inc.
 340 Quinnipiac St., Bldg. 40, Wallingford CT 06492
  
  
 ---------------------------------------------------------------
 Warning -- This program may not be used in any manner that
 competes with the business of Gaussian, Inc. or will provide
 assistance to any competitor of Gaussian, Inc.  The licensee
 of this program is prohibited from giving any competitor of
 Gaussian, Inc. access to this program.  By using this program,
 the user acknowledges that Gaussian, Inc. is engaged in the
 business of creating and licensing software in the field of
 computational chemistry and represents and warrants to the
 licensee that it is not a competitor of Gaussian, Inc. and that
 it will not use this program in any manner prohibited above.
 ---------------------------------------------------------------
  

 Cite this work as:
 Gaussian 16, Revision B.01,
 M. J. Frisch, G. W. Trucks, H. B. Schlegel, G. E. Scuseria, 
 M. A. Robb, J. R. Cheeseman, G. Scalmani, V. Barone, 
 G. A. Petersson, H. Nakatsuji, X. Li, M. Caricato, A. V. Marenich, 
 J. Bloino, B. G. Janesko, R. Gomperts, B. Mennucci, H. P. Hratchian, 
 J. V. Ortiz, A. F. Izmaylov, J. L. Sonnenberg, D. Williams-Young, 
 F. Ding, F. Lipparini, F. Egidi, J. Goings, B. Peng, A. Petrone, 
 T. Henderson, D. Ranasinghe, V. G. Zakrzewski, J. Gao, N. Rega, 
 G. Zheng, W. Liang, M. Hada, M. Ehara, K. Toyota, R. Fukuda, 
 J. Hasegawa, M. Ishida, T. Nakajima, Y. Honda, O. Kitao, H. Nakai, 
 T. Vreven, K. Throssell, J. A. Montgomery, Jr., J. E. Peralta, 
 F. Ogliaro, M. J. Bearpark, J. J. Heyd, E. N. Brothers, K. N. Kudin, 
 V. N. Staroverov, T. A. Keith, R. Kobayashi, J. Normand, 
 K. Raghavachari, A. P. Rendell, J. C. Burant, S. S. Iyengar, 
 J. Tomasi, M. Cossi, J. M. Millam, M. Klene, C. Adamo, R. Cammi, 
 J. W. Ochterski, R. L. Martin, K. Morokuma, O. Farkas, 
 J. B. Foresman, and D. J. Fox, Gaussian, Inc., Wallingford CT, 2016.
 
 ******************************************
 Gaussian 16:  ES64L-G16RevB.01 20-Dec-2017
                24-Sep-2020 
 ******************************************
 %nproc=4
 Will use up to    4 processors via shared memory.
 %Chk=SM46_m3.b.3.pdb.xyz.mst.b.w.chk
 %mem=16GB
 ----------------------------------------------------------------------
 #p b3lyp/6-31G(d) opt freq NoSymm scf=(MaxCycle=2000,NoVarAcc,NoIncFoc
 k) scrf=(iefpcm,read,solvent=water)
 ----------------------------------------------------------------------
 1/18=20,19=15,26=3,38=1,40=2/1,3;
 2/9=110,12=2,15=1,17=6,18=5,40=1/2;
 3/5=1,6=6,7=1,11=2,25=1,30=1,70=2203,71=1,72=1,74=-5/1,2,3;
 4//1;
 5/5=100002,7=2000,38=1,53=1/2;
 6/7=2,8=2,9=2,10=2,28=1/1;
 7/30=1/1,2,3,16;
 1/18=20,19=15,26=3/3(2);
 2/9=110,15=1/2;
 99//99;
 2/9=110,15=1/2;
 3/5=1,6=6,7=1,11=2,25=1,30=1,70=2205,71=1,72=1,74=-5/1,2,3;
 4/5=5,16=3,69=1/1;
 5/5=100002,7=2000,38=1,53=1/2;
 7/30=1/1,2,3,16;
 1/18=20,19=15,26=3/3(-5);
 2/9=110,15=1/2;
 6/7=2,8=2,9=2,10=2,19=2,28=1/1;
 99/9=1/99;
 Leave Link    1 at Thu Sep 24 17:36:53 2020, MaxMem=  2147483648 cpu:               0.1 elap:               0.0
 (Enter /prod/apps/gaussian/g16b1/l101.exe)
 -------------------
 SM46_m3.b.3.pdb.xyz
 -------------------
 Symbolic Z-matrix:
 Charge =  2 Multiplicity = 1
 O                    -4.275    -0.516    -0.972 
 S                    -3.116    -0.483    -0.107 
 N                    -1.787    -0.222    -1.049 
 C                    -0.472    -0.482    -0.673 
 N                    -0.014    -1.711    -0.316 
 N                     1.273    -1.725    -0.076 
 C                     0.636     0.335    -0.657 
 N                     1.666    -0.48     -0.299 
 C                     3.052    -0.13     -0.144 
 C                     3.623     0.774    -1.04 
 C                     4.969     1.105    -0.883 
 C                     5.721     0.53      0.145 
 C                     5.128    -0.378     1.027 
 C                     3.782    -0.713     0.893 
 N                    -3.398     1.1       0.884 
 C                    -2.455     1.268     2.039 
 C                    -3.49      2.31      0.001 
 O                    -2.795    -1.474     0.9 
 H                    -1.945     0.365    -1.875 
 H                     0.746     1.388    -0.852 
 H                     3.044     1.191    -1.857 
 H                     5.429     1.803    -1.574 
 H                     6.769     0.79      0.259 
 H                     5.71     -0.821     1.829 
 H                     3.305    -1.403     1.579 
 H                    -2.43      0.341     2.609 
 H                    -2.855     2.074     2.655 
 H                    -1.466     1.536     1.671 
 H                    -4.208     2.113    -0.793 
 H                    -2.504     2.54     -0.402 
 H                    -3.842     3.132     0.624 
 H                    -4.343     0.925     1.275 
 H                    -0.544    -2.586    -0.238 
 
 ITRead=  0  0  0  0  0  0  0  0  0  0  0  0  0  0  0  0  0  0  0  0
 ITRead=  0  0  0  0  0  0  0  0  0  0  0  0  0
 MicOpt= -1 -1 -1 -1 -1 -1 -1 -1 -1 -1 -1 -1 -1 -1 -1 -1 -1 -1 -1 -1
 MicOpt= -1 -1 -1 -1 -1 -1 -1 -1 -1 -1 -1 -1 -1
 NAtoms=     33 NQM=       33 NQMF=       0 NMMI=      0 NMMIF=      0
                NMic=       0 NMicF=      0.
                    Isotopes and Nuclear Properties:
 (Nuclear quadrupole moments (NQMom) in fm**2, nuclear magnetic moments (NMagM)
  in nuclear magnetons)

  Atom         1           2           3           4           5           6           7           8           9          10
 IAtWgt=          16          32          14          12          14          14          12          14          12          12
 AtmWgt=  15.9949146  31.9720718  14.0030740  12.0000000  14.0030740  14.0030740  12.0000000  14.0030740  12.0000000  12.0000000
 NucSpn=           0           0           2           0           2           2           0           2           0           0
 AtZEff=  -0.0000000  -0.0000000  -0.0000000  -0.0000000  -0.0000000  -0.0000000  -0.0000000  -0.0000000  -0.0000000  -0.0000000
 NQMom=    0.0000000   0.0000000   2.0440000   0.0000000   2.0440000   2.0440000   0.0000000   2.0440000   0.0000000   0.0000000
 NMagM=    0.0000000   0.0000000   0.4037610   0.0000000   0.4037610   0.4037610   0.0000000   0.4037610   0.0000000   0.0000000
 AtZNuc=   8.0000000  16.0000000   7.0000000   6.0000000   7.0000000   7.0000000   6.0000000   7.0000000   6.0000000   6.0000000

  Atom        11          12          13          14          15          16          17          18          19          20
 IAtWgt=          12          12          12          12          14          12          12          16           1           1
 AtmWgt=  12.0000000  12.0000000  12.0000000  12.0000000  14.0030740  12.0000000  12.0000000  15.9949146   1.0078250   1.0078250
 NucSpn=           0           0           0           0           2           0           0           0           1           1
 AtZEff=  -0.0000000  -0.0000000  -0.0000000  -0.0000000  -0.0000000  -0.0000000  -0.0000000  -0.0000000  -0.0000000  -0.0000000
 NQMom=    0.0000000   0.0000000   0.0000000   0.0000000   2.0440000   0.0000000   0.0000000   0.0000000   0.0000000   0.0000000
 NMagM=    0.0000000   0.0000000   0.0000000   0.0000000   0.4037610   0.0000000   0.0000000   0.0000000   2.7928460   2.7928460
 AtZNuc=   6.0000000   6.0000000   6.0000000   6.0000000   7.0000000   6.0000000   6.0000000   8.0000000   1.0000000   1.0000000

  Atom        21          22          23          24          25          26          27          28          29          30
 IAtWgt=           1           1           1           1           1           1           1           1           1           1
 AtmWgt=   1.0078250   1.0078250   1.0078250   1.0078250   1.0078250   1.0078250   1.0078250   1.0078250   1.0078250   1.0078250
 NucSpn=           1           1           1           1           1           1           1           1           1           1
 AtZEff=  -0.0000000  -0.0000000  -0.0000000  -0.0000000  -0.0000000  -0.0000000  -0.0000000  -0.0000000  -0.0000000  -0.0000000
 NQMom=    0.0000000   0.0000000   0.0000000   0.0000000   0.0000000   0.0000000   0.0000000   0.0000000   0.0000000   0.0000000
 NMagM=    2.7928460   2.7928460   2.7928460   2.7928460   2.7928460   2.7928460   2.7928460   2.7928460   2.7928460   2.7928460
 AtZNuc=   1.0000000   1.0000000   1.0000000   1.0000000   1.0000000   1.0000000   1.0000000   1.0000000   1.0000000   1.0000000

  Atom        31          32          33
 IAtWgt=           1           1           1
 AtmWgt=   1.0078250   1.0078250   1.0078250
 NucSpn=           1           1           1
 AtZEff=  -0.0000000  -0.0000000  -0.0000000
 NQMom=    0.0000000   0.0000000   0.0000000
 NMagM=    2.7928460   2.7928460   2.7928460
 AtZNuc=   1.0000000   1.0000000   1.0000000
 Leave Link  101 at Thu Sep 24 17:36:53 2020, MaxMem=  2147483648 cpu:               1.3 elap:               0.3
 (Enter /prod/apps/gaussian/g16b1/l103.exe)

 GradGradGradGradGradGradGradGradGradGradGradGradGradGradGradGradGradGrad
 Berny optimization.
 Initialization pass.
                           ----------------------------
                           !    Initial Parameters    !
                           ! (Angstroms and Degrees)  !
 --------------------------                            --------------------------
 ! Name  Definition              Value          Derivative Info.                !
 --------------------------------------------------------------------------------
 ! R1    R(1,2)                  1.4466         estimate D2E/DX2                !
 ! R2    R(2,3)                  1.6498         estimate D2E/DX2                !
 ! R3    R(2,15)                 1.8888         estimate D2E/DX2                !
 ! R4    R(2,18)                 1.4489         estimate D2E/DX2                !
 ! R5    R(3,4)                  1.3922         estimate D2E/DX2                !
 ! R6    R(3,19)                 1.0256         estimate D2E/DX2                !
 ! R7    R(4,5)                  1.3593         estimate D2E/DX2                !
 ! R8    R(4,7)                  1.3767         estimate D2E/DX2                !
 ! R9    R(5,6)                  1.3093         estimate D2E/DX2                !
 ! R10   R(5,33)                 1.026          estimate D2E/DX2                !
 ! R11   R(6,8)                  1.3245         estimate D2E/DX2                !
 ! R12   R(7,8)                  1.3614         estimate D2E/DX2                !
 ! R13   R(7,20)                 1.0765         estimate D2E/DX2                !
 ! R14   R(8,9)                  1.4379         estimate D2E/DX2                !
 ! R15   R(9,10)                 1.395          estimate D2E/DX2                !
 ! R16   R(9,14)                 1.3958         estimate D2E/DX2                !
 ! R17   R(10,11)                1.395          estimate D2E/DX2                !
 ! R18   R(10,21)                1.0847         estimate D2E/DX2                !
 ! R19   R(11,12)                1.3975         estimate D2E/DX2                !
 ! R20   R(11,22)                1.0846         estimate D2E/DX2                !
 ! R21   R(12,13)                1.3979         estimate D2E/DX2                !
 ! R22   R(12,23)                1.0858         estimate D2E/DX2                !
 ! R23   R(13,14)                1.3935         estimate D2E/DX2                !
 ! R24   R(13,24)                1.0854         estimate D2E/DX2                !
 ! R25   R(14,25)                1.0836         estimate D2E/DX2                !
 ! R26   R(15,16)                1.5005         estimate D2E/DX2                !
 ! R27   R(15,17)                1.5008         estimate D2E/DX2                !
 ! R28   R(15,32)                1.0376         estimate D2E/DX2                !
 ! R29   R(16,26)                1.0885         estimate D2E/DX2                !
 ! R30   R(16,27)                1.0905         estimate D2E/DX2                !
 ! R31   R(16,28)                1.0887         estimate D2E/DX2                !
 ! R32   R(17,29)                1.0885         estimate D2E/DX2                !
 ! R33   R(17,30)                1.0897         estimate D2E/DX2                !
 ! R34   R(17,31)                1.0898         estimate D2E/DX2                !
 ! A1    A(1,2,3)              107.9147         estimate D2E/DX2                !
 ! A2    A(1,2,15)             102.312          estimate D2E/DX2                !
 ! A3    A(1,2,18)             125.2756         estimate D2E/DX2                !
 ! A4    A(3,2,15)             106.6944         estimate D2E/DX2                !
 ! A5    A(3,2,18)             109.0619         estimate D2E/DX2                !
 ! A6    A(15,2,18)            103.985          estimate D2E/DX2                !
 ! A7    A(2,3,4)              125.25           estimate D2E/DX2                !
 ! A8    A(2,3,19)             115.2342         estimate D2E/DX2                !
 ! A9    A(4,3,19)             118.0297         estimate D2E/DX2                !
 ! A10   A(3,4,5)              123.9209         estimate D2E/DX2                !
 ! A11   A(3,4,7)              130.7295         estimate D2E/DX2                !
 ! A12   A(5,4,7)              105.2083         estimate D2E/DX2                !
 ! A13   A(4,5,6)              112.8939         estimate D2E/DX2                !
 ! A14   A(4,5,33)             128.0987         estimate D2E/DX2                !
 ! A15   A(6,5,33)             118.9959         estimate D2E/DX2                !
 ! A16   A(5,6,8)              104.5227         estimate D2E/DX2                !
 ! A17   A(4,7,8)              104.8743         estimate D2E/DX2                !
 ! A18   A(4,7,20)             131.3445         estimate D2E/DX2                !
 ! A19   A(8,7,20)             123.773          estimate D2E/DX2                !
 ! A20   A(6,8,7)              112.4902         estimate D2E/DX2                !
 ! A21   A(6,8,9)              119.7803         estimate D2E/DX2                !
 ! A22   A(7,8,9)              127.7285         estimate D2E/DX2                !
 ! A23   A(8,9,10)             118.8844         estimate D2E/DX2                !
 ! A24   A(8,9,14)             118.8524         estimate D2E/DX2                !
 ! A25   A(10,9,14)            122.262          estimate D2E/DX2                !
 ! A26   A(9,10,11)            118.452          estimate D2E/DX2                !
 ! A27   A(9,10,21)            120.9573         estimate D2E/DX2                !
 ! A28   A(11,10,21)           120.5702         estimate D2E/DX2                !
 ! A29   A(10,11,12)           120.2908         estimate D2E/DX2                !
 ! A30   A(10,11,22)           119.3568         estimate D2E/DX2                !
 ! A31   A(12,11,22)           120.3479         estimate D2E/DX2                !
 ! A32   A(11,12,13)           120.2076         estimate D2E/DX2                !
 ! A33   A(11,12,23)           119.8746         estimate D2E/DX2                !
 ! A34   A(13,12,23)           119.9178         estimate D2E/DX2                !
 ! A35   A(12,13,14)           120.3467         estimate D2E/DX2                !
 ! A36   A(12,13,24)           120.2546         estimate D2E/DX2                !
 ! A37   A(14,13,24)           119.3958         estimate D2E/DX2                !
 ! A38   A(9,14,13)            118.4379         estimate D2E/DX2                !
 ! A39   A(9,14,25)            120.4035         estimate D2E/DX2                !
 ! A40   A(13,14,25)           121.1568         estimate D2E/DX2                !
 ! A41   A(2,15,16)            113.8205         estimate D2E/DX2                !
 ! A42   A(2,15,17)            112.0974         estimate D2E/DX2                !
 ! A43   A(2,15,32)            101.0898         estimate D2E/DX2                !
 ! A44   A(16,15,17)           113.6501         estimate D2E/DX2                !
 ! A45   A(16,15,32)           107.5299         estimate D2E/DX2                !
 ! A46   A(17,15,32)           107.5705         estimate D2E/DX2                !
 ! A47   A(15,16,26)           108.7937         estimate D2E/DX2                !
 ! A48   A(15,16,27)           106.6818         estimate D2E/DX2                !
 ! A49   A(15,16,28)           109.7712         estimate D2E/DX2                !
 ! A50   A(26,16,27)           110.0038         estimate D2E/DX2                !
 ! A51   A(26,16,28)           111.4546         estimate D2E/DX2                !
 ! A52   A(27,16,28)           110.0115         estimate D2E/DX2                !
 ! A53   A(15,17,29)           108.8874         estimate D2E/DX2                !
 ! A54   A(15,17,30)           109.4081         estimate D2E/DX2                !
 ! A55   A(15,17,31)           106.9526         estimate D2E/DX2                !
 ! A56   A(29,17,30)           111.425          estimate D2E/DX2                !
 ! A57   A(29,17,31)           109.9045         estimate D2E/DX2                !
 ! A58   A(30,17,31)           110.1487         estimate D2E/DX2                !
 ! D1    D(1,2,3,4)           -161.4048         estimate D2E/DX2                !
 ! D2    D(1,2,3,19)            32.8464         estimate D2E/DX2                !
 ! D3    D(15,2,3,4)            89.271          estimate D2E/DX2                !
 ! D4    D(15,2,3,19)          -76.4778         estimate D2E/DX2                !
 ! D5    D(18,2,3,4)           -22.4797         estimate D2E/DX2                !
 ! D6    D(18,2,3,19)          171.7715         estimate D2E/DX2                !
 ! D7    D(1,2,15,16)          170.013          estimate D2E/DX2                !
 ! D8    D(1,2,15,17)          -59.2558         estimate D2E/DX2                !
 ! D9    D(1,2,15,32)           55.049          estimate D2E/DX2                !
 ! D10   D(3,2,15,16)          -76.7739         estimate D2E/DX2                !
 ! D11   D(3,2,15,17)           53.9573         estimate D2E/DX2                !
 ! D12   D(3,2,15,32)          168.2621         estimate D2E/DX2                !
 ! D13   D(18,2,15,16)          38.4444         estimate D2E/DX2                !
 ! D14   D(18,2,15,17)         169.1756         estimate D2E/DX2                !
 ! D15   D(18,2,15,32)         -76.5196         estimate D2E/DX2                !
 ! D16   D(2,3,4,5)             59.5282         estimate D2E/DX2                !
 ! D17   D(2,3,4,7)           -125.4569         estimate D2E/DX2                !
 ! D18   D(19,3,4,5)          -135.0839         estimate D2E/DX2                !
 ! D19   D(19,3,4,7)            39.931          estimate D2E/DX2                !
 ! D20   D(3,4,5,6)            176.3633         estimate D2E/DX2                !
 ! D21   D(3,4,5,33)            -2.3687         estimate D2E/DX2                !
 ! D22   D(7,4,5,6)              0.2762         estimate D2E/DX2                !
 ! D23   D(7,4,5,33)          -178.4558         estimate D2E/DX2                !
 ! D24   D(3,4,7,8)           -175.3379         estimate D2E/DX2                !
 ! D25   D(3,4,7,20)             5.7009         estimate D2E/DX2                !
 ! D26   D(5,4,7,8)              0.3767         estimate D2E/DX2                !
 ! D27   D(5,4,7,20)          -178.5845         estimate D2E/DX2                !
 ! D28   D(4,5,6,8)             -0.8197         estimate D2E/DX2                !
 ! D29   D(33,5,6,8)           178.0394         estimate D2E/DX2                !
 ! D30   D(5,6,8,7)              1.0781         estimate D2E/DX2                !
 ! D31   D(5,6,8,9)           -179.2578         estimate D2E/DX2                !
 ! D32   D(4,7,8,6)             -0.9247         estimate D2E/DX2                !
 ! D33   D(4,7,8,9)            179.4439         estimate D2E/DX2                !
 ! D34   D(20,7,8,6)           178.1371         estimate D2E/DX2                !
 ! D35   D(20,7,8,9)            -1.4943         estimate D2E/DX2                !
 ! D36   D(6,8,9,10)           141.9954         estimate D2E/DX2                !
 ! D37   D(6,8,9,14)           -37.6108         estimate D2E/DX2                !
 ! D38   D(7,8,9,10)           -38.397          estimate D2E/DX2                !
 ! D39   D(7,8,9,14)           141.9968         estimate D2E/DX2                !
 ! D40   D(8,9,10,11)         -179.8664         estimate D2E/DX2                !
 ! D41   D(8,9,10,21)           -1.5051         estimate D2E/DX2                !
 ! D42   D(14,9,10,11)          -0.2743         estimate D2E/DX2                !
 ! D43   D(14,9,10,21)         178.087          estimate D2E/DX2                !
 ! D44   D(8,9,14,13)          179.3599         estimate D2E/DX2                !
 ! D45   D(8,9,14,25)           -1.1219         estimate D2E/DX2                !
 ! D46   D(10,9,14,13)          -0.2323         estimate D2E/DX2                !
 ! D47   D(10,9,14,25)         179.2858         estimate D2E/DX2                !
 ! D48   D(9,10,11,12)           0.5051         estimate D2E/DX2                !
 ! D49   D(9,10,11,22)         179.733          estimate D2E/DX2                !
 ! D50   D(21,10,11,12)       -177.8628         estimate D2E/DX2                !
 ! D51   D(21,10,11,22)          1.3651         estimate D2E/DX2                !
 ! D52   D(10,11,12,13)         -0.2336         estimate D2E/DX2                !
 ! D53   D(10,11,12,23)        179.7997         estimate D2E/DX2                !
 ! D54   D(22,11,12,13)       -179.4538         estimate D2E/DX2                !
 ! D55   D(22,11,12,23)          0.5795         estimate D2E/DX2                !
 ! D56   D(11,12,13,14)         -0.2869         estimate D2E/DX2                !
 ! D57   D(11,12,13,24)       -179.6703         estimate D2E/DX2                !
 ! D58   D(23,12,13,14)        179.6798         estimate D2E/DX2                !
 ! D59   D(23,12,13,24)          0.2964         estimate D2E/DX2                !
 ! D60   D(12,13,14,9)           0.5116         estimate D2E/DX2                !
 ! D61   D(12,13,14,25)       -179.0028         estimate D2E/DX2                !
 ! D62   D(24,13,14,9)         179.9002         estimate D2E/DX2                !
 ! D63   D(24,13,14,25)          0.3859         estimate D2E/DX2                !
 ! D64   D(2,15,16,26)         -48.6158         estimate D2E/DX2                !
 ! D65   D(2,15,16,27)        -167.2491         estimate D2E/DX2                !
 ! D66   D(2,15,16,28)          73.5851         estimate D2E/DX2                !
 ! D67   D(17,15,16,26)       -178.5758         estimate D2E/DX2                !
 ! D68   D(17,15,16,27)         62.7909         estimate D2E/DX2                !
 ! D69   D(17,15,16,28)        -56.3749         estimate D2E/DX2                !
 ! D70   D(32,15,16,26)         62.4812         estimate D2E/DX2                !
 ! D71   D(32,15,16,27)        -56.1521         estimate D2E/DX2                !
 ! D72   D(32,15,16,28)       -175.3179         estimate D2E/DX2                !
 ! D73   D(2,15,17,29)          50.4928         estimate D2E/DX2                !
 ! D74   D(2,15,17,30)         -71.5038         estimate D2E/DX2                !
 ! D75   D(2,15,17,31)         169.2085         estimate D2E/DX2                !
 ! D76   D(16,15,17,29)       -178.6891         estimate D2E/DX2                !
 ! D77   D(16,15,17,30)         59.3143         estimate D2E/DX2                !
 ! D78   D(16,15,17,31)        -59.9734         estimate D2E/DX2                !
 ! D79   D(32,15,17,29)        -59.7694         estimate D2E/DX2                !
 ! D80   D(32,15,17,30)        178.234          estimate D2E/DX2                !
 ! D81   D(32,15,17,31)         58.9463         estimate D2E/DX2                !
 --------------------------------------------------------------------------------
 Trust Radius=3.00D-01 FncErr=1.00D-07 GrdErr=1.00D-06 EigMax=2.50D+02 EigMin=1.00D-04
 Number of steps in this run=    183 maximum allowed number of steps=    198.
 GradGradGradGradGradGradGradGradGradGradGradGradGradGradGradGradGradGrad

 Leave Link  103 at Thu Sep 24 17:36:53 2020, MaxMem=  2147483648 cpu:               0.1 elap:               0.0
 (Enter /prod/apps/gaussian/g16b1/l202.exe)
                          Input orientation:                          
 ---------------------------------------------------------------------
 Center     Atomic      Atomic             Coordinates (Angstroms)
 Number     Number       Type             X           Y           Z
 ---------------------------------------------------------------------
      1          8           0       -4.275000   -0.516000   -0.972000
      2         16           0       -3.116000   -0.483000   -0.107000
      3          7           0       -1.787000   -0.222000   -1.049000
      4          6           0       -0.472000   -0.482000   -0.673000
      5          7           0       -0.014000   -1.711000   -0.316000
      6          7           0        1.273000   -1.725000   -0.076000
      7          6           0        0.636000    0.335000   -0.657000
      8          7           0        1.666000   -0.480000   -0.299000
      9          6           0        3.052000   -0.130000   -0.144000
     10          6           0        3.623000    0.774000   -1.040000
     11          6           0        4.969000    1.105000   -0.883000
     12          6           0        5.721000    0.530000    0.145000
     13          6           0        5.128000   -0.378000    1.027000
     14          6           0        3.782000   -0.713000    0.893000
     15          7           0       -3.398000    1.100000    0.884000
     16          6           0       -2.455000    1.268000    2.039000
     17          6           0       -3.490000    2.310000    0.001000
     18          8           0       -2.795000   -1.474000    0.900000
     19          1           0       -1.945000    0.365000   -1.875000
     20          1           0        0.746000    1.388000   -0.852000
     21          1           0        3.044000    1.191000   -1.857000
     22          1           0        5.429000    1.803000   -1.574000
     23          1           0        6.769000    0.790000    0.259000
     24          1           0        5.710000   -0.821000    1.829000
     25          1           0        3.305000   -1.403000    1.579000
     26          1           0       -2.430000    0.341000    2.609000
     27          1           0       -2.855000    2.074000    2.655000
     28          1           0       -1.466000    1.536000    1.671000
     29          1           0       -4.208000    2.113000   -0.793000
     30          1           0       -2.504000    2.540000   -0.402000
     31          1           0       -3.842000    3.132000    0.624000
     32          1           0       -4.343000    0.925000    1.275000
     33          1           0       -0.544000   -2.586000   -0.238000
 ---------------------------------------------------------------------
                    Distance matrix (angstroms):
                    1          2          3          4          5
     1  O    0.000000
     2  S    1.446580   0.000000
     3  N    2.506493   1.649765   0.000000
     4  C    3.814887   2.703903   1.392193   0.000000
     5  N    4.473755   3.342764   2.428567   1.359284   0.000000
     6  N    5.748461   4.561452   3.545326   2.224069   1.309261
     7  C    4.994131   3.879321   2.516911   1.376739   2.173683
     8  N    5.979106   4.785854   3.542919   2.170466   2.082799
     9  C    7.383733   6.178204   4.923760   3.580827   3.453911
    10  C    8.002945   6.918429   5.500927   4.298982   4.463986
    11  C    9.385473   8.275938   6.887091   5.671609   5.751664
    12  C   10.112459   8.898440   7.639451   6.328232   6.174531
    13  C    9.614128   8.322290   7.221588   5.853274   5.479115
    14  C    8.272381   6.973902   5.918294   4.538968   4.106982
    15  N    2.612532   1.888781   2.842445   3.672662   4.559954
    16  C    3.944766   2.847497   3.493146   3.788104   4.514305
    17  C    3.090183   2.819998   3.227032   4.166277   5.324613
    18  O    2.571488   1.448852   2.526296   2.975688   3.044468
    19  H    2.649617   2.283893   1.025577   2.081332   3.235586
    20  H    5.371225   4.355538   3.007823   2.238854   3.235537
    21  H    7.567353   6.618941   5.097842   4.069772   4.488613
    22  H    9.995388   8.966321   7.513116   6.391778   6.599773
    23  H   11.188875   9.973350   8.714364   7.410714   7.252221
    24  H   10.374915   9.042158   8.052745   6.677728   6.177160
    25  H    8.046786   6.702107   5.850608   4.492825   3.834273
    26  H    4.118499   2.919971   3.756512   3.909299   4.313164
    27  H    4.677567   3.772932   4.486854   4.825703   5.587875
    28  H    4.368825   3.155970   3.254536   3.248799   4.074246
    29  H    2.635938   2.898668   3.373278   4.550398   5.695625
    30  H    3.577775   3.098402   2.925977   3.651705   4.927321
    31  H    4.005323   3.758944   4.274491   5.108826   6.244344
    32  H    2.670227   2.323342   3.640017   4.556204   5.312252
    33  H    4.329436   3.324899   2.791284   2.149703   1.025967
                    6          7          8          9         10
     6  N    0.000000
     7  C    2.233144   0.000000
     8  N    1.324463   1.361356   0.000000
     9  C    2.390291   2.513255   1.437888   0.000000
    10  C    3.563257   3.043284   2.439559   1.395017   0.000000
    11  C    4.724465   4.406684   3.709864   2.397131   1.394965
    12  C    4.991850   5.151549   4.202411   2.764540   2.421852
    13  C    4.229899   4.849978   3.708655   2.396356   2.804393
    14  C    2.873706   3.660344   2.439797   1.395764   2.443960
    15  N    5.542605   4.385552   5.435070   6.646216   7.287146
    16  C    5.227739   4.206327   5.050187   6.086620   6.831278
    17  C    6.242862   4.621414   5.870131   6.983723   7.351037
    18  O    4.190967   4.179532   4.725056   6.089637   7.071621
    19  H    4.237927   2.854117   4.029531   5.311440   5.645098
    20  H    3.251257   1.076538   2.154445   2.850127   2.947791
    21  H    3.848566   2.823331   2.668050   2.163209   1.084721
    22  H    5.653594   5.095955   4.582345   3.381053   2.146074
    23  H    6.053385   6.217698   5.288182   3.850311   3.403671
    24  H    4.912556   5.767322   4.582423   3.381593   3.889827
    25  H    2.640404   3.891517   2.658032   2.157143   3.420470
    26  H    5.018943   4.479637   5.089963   6.152493   7.081066
    27  H    6.239483   5.116693   5.973983   6.898164   7.570172
    28  H    4.603070   3.358629   4.213618   5.146077   5.816192
    29  H    6.729465   5.161794   6.439842   7.626261   7.948490
    30  H    5.706332   3.845341   5.149748   6.169652   6.408270
    31  H    7.088277   5.432923   6.651055   7.665357   8.003455
    32  H    6.355089   5.373189   6.368641   7.603460   8.296938
    33  H    2.017190   3.178081   3.053368   4.355685   5.412642
                   11         12         13         14         15
    11  C    0.000000
    12  C    1.397467   0.000000
    13  C    2.423359   1.397869   0.000000
    14  C    2.805043   2.421626   1.393520   0.000000
    15  N    8.551550   9.166634   8.654340   7.405366   0.000000
    16  C    7.980002   8.424895   7.825302   6.643632   1.500499
    17  C    8.590004   9.382519   9.085590   7.925666   1.500751
    18  O    8.373173   8.781133   7.999455   6.620884   2.643736
    19  H    7.023892   7.929387   7.681210   6.451545   3.203672
    20  H    4.232585   5.145950   5.084419   4.083690   4.502152
    21  H    2.159096   3.407529   3.888737   3.425253   7.001480
    22  H    1.084567   2.158878   3.407721   3.889596   9.189772
    23  H    2.154852   1.085772   2.155674   3.403400  10.190908
    24  H    3.407859   2.158976   1.085439   2.145913   9.356224
    25  H    3.888496   3.410264   2.163021   1.083617   7.188758
    26  H    8.217236   8.517383   7.755195   6.530277   2.118662
    27  H    8.641260   9.068176   8.508289   7.410923   2.092837
    28  H    6.936707   7.415772   6.896301   5.762360   2.131218
    29  H    9.232632  10.098058   9.832516   8.641121   2.120047
    30  H    7.624717   8.484688   8.294829   7.195334   2.127588
    31  H    9.165888   9.922238   9.640716   8.542936   2.096130
    32  H    9.560476  10.134941   9.563428   8.297264   1.037560
    33  H    6.665784   7.007594   6.216677   4.847841   4.794872
                   16         17         18         19         20
    16  C    0.000000
    17  C    2.512058   0.000000
    18  O    2.988559   3.950934   0.000000
    19  H    4.049062   3.112784   3.435847   0.000000
    20  H    4.314937   4.418302   4.878445   3.055248   0.000000
    21  H    6.739714   6.884583   6.985499   5.056948   2.515877
    22  H    8.688927   9.071176   9.192039   7.518931   4.756469
    23  H    9.406331  10.374201   9.849197   8.981558   6.153735
    24  H    8.430614   9.888617   8.580471   8.586340   6.058774
    25  H    6.365802   7.902435   6.138085   6.528280   4.499769
    26  H    1.088510   3.435437   2.519550   4.510217   4.812661
    27  H    1.090455   2.739094   3.958779   4.926427   5.073150
    28  H    1.088747   2.735791   3.379465   3.764943   3.358627
    29  H    3.436169   1.088471   4.210628   3.057351   5.007117
    30  H    2.752974   1.089727   4.229903   2.685672   3.477370
    31  H    2.720384   1.089824   4.731556   4.183288   5.125413
    32  H    2.065403   2.066134   2.879606   3.998313   5.535018
    33  H    4.867234   5.718991   2.756554   3.653898   4.223005
                   21         22         23         24         25
    21  H    0.000000
    22  H    2.478479   0.000000
    23  H    4.302776   2.486294   0.000000
    24  H    4.974163   4.306361   2.486303   0.000000
    25  H    4.313126   4.973049   4.307081   2.487016   0.000000
    26  H    7.115640   9.022129   9.505036   8.259434   6.082159
    27  H    7.479040   9.304974  10.000542   9.078685   7.154922
    28  H    5.736367   7.625112   8.388414   7.554826   5.604340
    29  H    7.387400   9.673563  11.106375  10.670050   8.627503
    30  H    5.892124   8.052903   9.459807   9.151146   7.294936
    31  H    7.572307   9.620233  10.872512  10.407638   8.518090
    32  H    8.027948  10.216637  11.159168  10.218524   8.000244
    33  H    5.455331   7.531597   8.069966   6.819108   4.417667
                   26         27         28         29         30
    26  H    0.000000
    27  H    1.784945   0.000000
    28  H    1.799212   1.785223   0.000000
    29  H    4.227868   3.704164   3.731325   0.000000
    30  H    3.729236   3.112171   2.526418   1.799674   0.000000
    31  H    3.704545   2.493691   3.047753   1.783313   1.787004
    32  H    2.404201   2.332112   2.967704   2.388764   2.966897
    33  H    4.497748   5.951955   4.635218   5.984440   5.490389
                   31         32         33
    31  H    0.000000
    32  H    2.354921   0.000000
    33  H    6.656979   5.389684   0.000000
 Symmetry turned off by external request.
 Stoichiometry    C10H15N5O2S(2+)
 Framework group  C1[X(C10H15N5O2S)]
 Deg. of freedom    93
 Full point group                 C1      NOp   1
 Rotational constants (GHZ):           0.9867167           0.1644892           0.1582868
 Leave Link  202 at Thu Sep 24 17:36:53 2020, MaxMem=  2147483648 cpu:               0.0 elap:               0.0
 (Enter /prod/apps/gaussian/g16b1/l301.exe)
 Standard basis: 6-31G(d) (6D, 7F)
 Ernie: Thresh=  0.10000D-02 Tol=  0.10000D-05 Strict=F.
   304 basis functions,   588 primitive gaussians,   304 cartesian basis functions
    70 alpha electrons       70 beta electrons
       nuclear repulsion energy      1496.4780264664 Hartrees.
 IExCor=  402 DFT=T Ex+Corr=B3LYP ExCW=0 ScaHFX=  0.200000
 ScaDFX=  0.800000  0.720000  1.000000  0.810000 ScalE2=  1.000000  1.000000
 IRadAn=      5 IRanWt=     -1 IRanGd=            0 ICorTp=0 IEmpDi=  4
 NAtoms=   33 NActive=   33 NUniq=   33 SFac= 1.00D+00 NAtFMM=   60 NAOKFM=F Big=F
 Integral buffers will be    131072 words long.
 Raffenetti 2 integral format.
 Two-electron integral symmetry is turned off.
 Using the following non-standard input for PCM:
 MSTModel=DFT cav MSTcharged
 --- end of non-standard input.
 MST model for solvation energy: B3LYP parametrization.
 MST cavity parameters:
 ISph   IAn     Re0     Alpha   Atom Type   QCorr
 ------------------------------------------------
   1      8     1.40     1.25      O          F
   2     16     1.75     1.25      S          F
   3      7     1.50     1.25      NH         F
   4      6     1.50     1.25      C          F
   5      7     1.50     1.15      NH         T
   6      7     1.40     1.25      N          F
   7      6     1.50     1.25      CH         F
   8      7     1.40     1.25      N          F
   9      6     1.50     1.25      C          F
  10      6     1.50     1.25      CH         F
  11      6     1.50     1.25      CH         F
  12      6     1.50     1.25      CH         F
  13      6     1.50     1.25      CH         F
  14      6     1.50     1.25      CH         F
  15      7     1.50     1.15      NH         T
  16      6     1.50     1.25      CH3        F
  17      6     1.50     1.25      CH3        F
  18      8     1.40     1.25      O          F
  19      1     0.90     1.25      NH         F
  20      1     1.20     1.25      CH         F
  21      1     1.20     1.25      CH         F
  22      1     1.20     1.25      CH         F
  23      1     1.20     1.25      CH         F
  24      1     1.20     1.25      CH         F
  25      1     1.20     1.25      CH         F
  26      1     1.20     1.25      CH3        F
  27      1     1.20     1.25      CH3        F
  28      1     1.20     1.25      CH3        F
  29      1     1.20     1.25      CH3        F
  30      1     1.20     1.25      CH3        F
  31      1     1.20     1.25      CH3        F
  32      1     0.90     1.15      NH         T
  33      1     0.90     1.15      NH         T
 ------------------------------------------------------------------------------
 Polarizable Continuum Model (PCM)
 =================================
 Model                : PCM.
 Atomic radii         : MST.
 Polarization charges : Total charges.
 Charge compensation  : None.
 Solution method      : On-the-fly selection.
 Cavity type          : Scaled VdW (van der Waals Surface) (Alpha=1.250).
 Cavity algorithm     : GePol (No added spheres)
                        Default sphere list used, NSphG=   33.
                        Lebedev-Laikov grids with approx.  5.0 points / Ang**2.
                        Smoothing algorithm: York/Karplus (Gamma=1.0000).
                        Polarization charges: spherical gaussians, with
                                              point-specific exponents (IZeta= 3).
                        Self-potential: point-specific (ISelfS= 7).
                        Self-field    : sphere-specific E.n sum rule (ISelfD= 2).
 1st derivatives      : Analytical E(r).r(x)/FMM algorithm (CHGder, D1EAlg=3).
                        Cavity 1st derivative terms included.
 Solvent              : Water, Eps=  78.355300 Eps(inf)=   1.777849
 ------------------------------------------------------------------------------
 GePol: Number of generator spheres                  =      33
 GePol: Total number of spheres                      =      33
 GePol: Number of exposed spheres                    =      33 (100.00%)
 GePol: Number of points                             =    2432
 GePol: Average weight of points                     =       0.13
 GePol: Minimum weight of points                     =   0.19D-11
 GePol: Maximum weight of points                     =    0.22001
 GePol: Number of points with low weight             =     151
 GePol: Fraction of low-weight points (<1% of avg)   =       6.21%
 GePol: Cavity surface area                          =    316.099 Ang**2
 GePol: Cavity volume                                =    295.861 Ang**3
 PCM non-electrostatic energy =         0.0021998243 Hartrees.
 Nuclear repulsion after PCM non-electrostatic terms =     1496.4802262908 Hartrees.
 Leave Link  301 at Thu Sep 24 17:36:53 2020, MaxMem=  2147483648 cpu:               0.3 elap:               0.1
 (Enter /prod/apps/gaussian/g16b1/l302.exe)
 NPDir=0 NMtPBC=     1 NCelOv=     1 NCel=       1 NClECP=     1 NCelD=      1
         NCelK=      1 NCelE2=     1 NClLst=     1 CellRange=     0.0.
 One-electron integrals computed using PRISM.
 NBasis=   304 RedAO= T EigKep=  4.79D-04  NBF=   304
 NBsUse=   304 1.00D-06 EigRej= -1.00D+00 NBFU=   304
 Precomputing XC quadrature grid using
 IXCGrd= 4 IRadAn=           5 IRanWt=          -1 IRanGd=           0 AccXCQ= 0.00D+00.
 Generated NRdTot=       0 NPtTot=           0 NUsed=           0 NTot=          32
 NSgBfM=   301   301   301   301   301 MxSgAt=    33 MxSgA2=    33.
 Leave Link  302 at Thu Sep 24 17:36:54 2020, MaxMem=  2147483648 cpu:               1.6 elap:               0.4
 (Enter /prod/apps/gaussian/g16b1/l303.exe)
 DipDrv:  MaxL=1.
 Leave Link  303 at Thu Sep 24 17:36:54 2020, MaxMem=  2147483648 cpu:               0.1 elap:               0.1
 (Enter /prod/apps/gaussian/g16b1/l401.exe)
 ExpMin= 1.17D-01 ExpMax= 2.19D+04 ExpMxC= 3.30D+03 IAcc=3 IRadAn=         5 AccDes= 0.00D+00
 Harris functional with IExCor=  402 and IRadAn=       5 diagonalized for initial guess.
 HarFok:  IExCor=  402 AccDes= 0.00D+00 IRadAn=         5 IDoV= 1 UseB2=F ITyADJ=14
 ICtDFT=  3500011 ScaDFX=  1.000000  1.000000  1.000000  1.000000
 FoFCou: FMM=F IPFlag=           0 FMFlag=      100000 FMFlg1=           0
         NFxFlg=           0 DoJE=T BraDBF=F KetDBF=T FulRan=T
         wScrn=  0.000000 ICntrl=       500 IOpCl=  0 I1Cent=   200000004 NGrid=           0
         NMat0=    1 NMatS0=      1 NMatT0=    0 NMatD0=    1 NMtDS0=    0 NMtDT0=    0
 Symmetry not used in FoFCou.
 Harris En= -1211.95748494114    
 JPrj=0 DoOrth=F DoCkMO=F.
 Leave Link  401 at Thu Sep 24 17:36:56 2020, MaxMem=  2147483648 cpu:               8.6 elap:               2.2
 (Enter /prod/apps/gaussian/g16b1/l502.exe)
 Two-electron integral symmetry not used.
 Closed shell SCF:
 Using DIIS extrapolation, IDIIS=  1040.
 NGot=  2147483648 LenX=  2147294283 LenY=  2147201426
 Requested convergence on RMS density matrix=1.00D-08 within2000 cycles.
 Requested convergence on MAX density matrix=1.00D-06.
 Requested convergence on             energy=1.00D-06.
 No special actions if energy rises.

 Cycle   1  Pass 1  IDiag  1:
 FoFJK:  IHMeth= 1 ICntrl=       0 DoSepK=F KAlg= 0 I1Cent=           0 FoldK=F
 IRaf= 770000000 NMat=       1 IRICut=       1 DoRegI=T DoRafI=F ISym2E= 0 IDoP0=0 IntGTp=1.
 FoFCou: FMM=F IPFlag=           0 FMFlag=      100000 FMFlg1=           0
         NFxFlg=           0 DoJE=F BraDBF=F KetDBF=F FulRan=T
         wScrn=  0.000000 ICntrl=         0 IOpCl=  0 I1Cent=           0 NGrid=           0
         NMat0=    1 NMatS0=      1 NMatT0=    0 NMatD0=    1 NMtDS0=    0 NMtDT0=    0
 Symmetry not used in FoFCou.
 Inv3:  Mode=1 IEnd=    17743872.
 Iteration    1 A*A^-1 deviation from unit magnitude is 3.00D-15 for   1267.
 Iteration    1 A*A^-1 deviation from orthogonality  is 2.48D-15 for   1634    910.
 Iteration    1 A^-1*A deviation from unit magnitude is 2.66D-15 for    828.
 Iteration    1 A^-1*A deviation from orthogonality  is 8.77D-15 for   2062   2019.
 E= -1211.53108819017    
 DIIS: error= 3.21D-02 at cycle   1 NSaved=   1.
 NSaved= 1 IEnMin= 1 EnMin= -1211.53108819017     IErMin= 1 ErrMin= 3.21D-02
 ErrMax= 3.21D-02  0.00D+00 EMaxC= 1.00D-01 BMatC= 6.08D-01 BMatP= 6.08D-01
 IDIUse=3 WtCom= 6.79D-01 WtEn= 3.21D-01
 Coeff-Com:  0.100D+01
 Coeff-En:   0.100D+01
 Coeff:      0.100D+01
 Gap=     0.397 Goal=   None    Shift=    0.000
 GapD=    0.397 DampG=1.000 DampE=0.500 DampFc=0.5000 IDamp=-1.
 Damping current iteration by 5.00D-01
 RMSDP=6.50D-03 MaxDP=6.70D-01              OVMax= 2.77D-01

 Cycle   2  Pass 1  IDiag  1:
 E= -1211.61664933781     Delta-E=       -0.085561147645 Rises=F Damp=T
 DIIS: error= 1.74D-02 at cycle   2 NSaved=   2.
 NSaved= 2 IEnMin= 2 EnMin= -1211.61664933781     IErMin= 2 ErrMin= 1.74D-02
 ErrMax= 1.74D-02  0.00D+00 EMaxC= 1.00D-01 BMatC= 1.25D-01 BMatP= 6.08D-01
 IDIUse=3 WtCom= 8.26D-01 WtEn= 1.74D-01
 Coeff-Com:  0.269D+00 0.731D+00
 Coeff-En:   0.424D+00 0.576D+00
 Coeff:      0.296D+00 0.704D+00
 Gap=     0.167 Goal=   None    Shift=    0.000
 RMSDP=1.83D-03 MaxDP=1.46D-01 DE=-8.56D-02 OVMax= 2.23D-01

 Cycle   3  Pass 1  IDiag  1:
 E= -1212.02018824209     Delta-E=       -0.403538904276 Rises=F Damp=F
 DIIS: error= 1.08D-02 at cycle   3 NSaved=   3.
 NSaved= 3 IEnMin= 3 EnMin= -1212.02018824209     IErMin= 3 ErrMin= 1.08D-02
 ErrMax= 1.08D-02  0.00D+00 EMaxC= 1.00D-01 BMatC= 4.66D-02 BMatP= 1.25D-01
 IDIUse=3 WtCom= 8.92D-01 WtEn= 1.08D-01
 Coeff-Com:  0.945D-01 0.383D+00 0.522D+00
 Coeff-En:   0.000D+00 0.000D+00 0.100D+01
 Coeff:      0.843D-01 0.342D+00 0.574D+00
 Gap=     0.196 Goal=   None    Shift=    0.000
 RMSDP=8.96D-04 MaxDP=3.27D-02 DE=-4.04D-01 OVMax= 4.31D-02

 Cycle   4  Pass 1  IDiag  1:
 E= -1212.05354399448     Delta-E=       -0.033355752390 Rises=F Damp=F
 DIIS: error= 4.31D-03 at cycle   4 NSaved=   4.
 NSaved= 4 IEnMin= 4 EnMin= -1212.05354399448     IErMin= 4 ErrMin= 4.31D-03
 ErrMax= 4.31D-03  0.00D+00 EMaxC= 1.00D-01 BMatC= 8.96D-03 BMatP= 4.66D-02
 IDIUse=3 WtCom= 9.57D-01 WtEn= 4.31D-02
 Coeff-Com:  0.594D-02 0.760D-01 0.318D+00 0.600D+00
 Coeff-En:   0.000D+00 0.000D+00 0.161D+00 0.839D+00
 Coeff:      0.568D-02 0.728D-01 0.311D+00 0.610D+00
 Gap=     0.185 Goal=   None    Shift=    0.000
 RMSDP=3.24D-04 MaxDP=1.45D-02 DE=-3.34D-02 OVMax= 1.99D-02

 Cycle   5  Pass 1  IDiag  1:
 E= -1212.06062401969     Delta-E=       -0.007080025214 Rises=F Damp=F
 DIIS: error= 9.50D-04 at cycle   5 NSaved=   5.
 NSaved= 5 IEnMin= 5 EnMin= -1212.06062401969     IErMin= 5 ErrMin= 9.50D-04
 ErrMax= 9.50D-04  0.00D+00 EMaxC= 1.00D-01 BMatC= 7.73D-04 BMatP= 8.96D-03
 IDIUse=3 WtCom= 9.90D-01 WtEn= 9.50D-03
 Coeff-Com: -0.376D-02 0.176D-01 0.134D+00 0.341D+00 0.512D+00
 Coeff-En:   0.000D+00 0.000D+00 0.000D+00 0.000D+00 0.100D+01
 Coeff:     -0.373D-02 0.175D-01 0.133D+00 0.337D+00 0.516D+00
 Gap=     0.185 Goal=   None    Shift=    0.000
 RMSDP=1.01D-04 MaxDP=4.76D-03 DE=-7.08D-03 OVMax= 9.57D-03

 Cycle   6  Pass 1  IDiag  1:
 E= -1212.06128104950     Delta-E=       -0.000657029806 Rises=F Damp=F
 DIIS: error= 3.46D-04 at cycle   6 NSaved=   6.
 NSaved= 6 IEnMin= 6 EnMin= -1212.06128104950     IErMin= 6 ErrMin= 3.46D-04
 ErrMax= 3.46D-04  0.00D+00 EMaxC= 1.00D-01 BMatC= 6.29D-05 BMatP= 7.73D-04
 IDIUse=3 WtCom= 9.97D-01 WtEn= 3.46D-03
 Coeff-Com: -0.273D-02 0.384D-02 0.432D-01 0.127D+00 0.284D+00 0.545D+00
 Coeff-En:   0.000D+00 0.000D+00 0.000D+00 0.000D+00 0.714D-02 0.993D+00
 Coeff:     -0.272D-02 0.382D-02 0.430D-01 0.126D+00 0.283D+00 0.547D+00
 Gap=     0.185 Goal=   None    Shift=    0.000
 RMSDP=2.94D-05 MaxDP=1.72D-03 DE=-6.57D-04 OVMax= 3.21D-03

 Cycle   7  Pass 1  IDiag  1:
 E= -1212.06133485801     Delta-E=       -0.000053808513 Rises=F Damp=F
 DIIS: error= 9.87D-05 at cycle   7 NSaved=   7.
 NSaved= 7 IEnMin= 7 EnMin= -1212.06133485801     IErMin= 7 ErrMin= 9.87D-05
 ErrMax= 9.87D-05  0.00D+00 EMaxC= 1.00D-01 BMatC= 8.43D-06 BMatP= 6.29D-05
 IDIUse=1 WtCom= 1.00D+00 WtEn= 0.00D+00
 Coeff-Com: -0.142D-02 0.629D-03 0.133D-01 0.445D-01 0.124D+00 0.331D+00
 Coeff-Com:  0.487D+00
 Coeff:     -0.142D-02 0.629D-03 0.133D-01 0.445D-01 0.124D+00 0.331D+00
 Coeff:      0.487D+00
 Gap=     0.185 Goal=   None    Shift=    0.000
 RMSDP=8.75D-06 MaxDP=5.53D-04 DE=-5.38D-05 OVMax= 6.75D-04

 Cycle   8  Pass 1  IDiag  1:
 E= -1212.06134176840     Delta-E=       -0.000006910386 Rises=F Damp=F
 DIIS: error= 2.16D-05 at cycle   8 NSaved=   8.
 NSaved= 8 IEnMin= 8 EnMin= -1212.06134176840     IErMin= 8 ErrMin= 2.16D-05
 ErrMax= 2.16D-05  0.00D+00 EMaxC= 1.00D-01 BMatC= 3.69D-07 BMatP= 8.43D-06
 IDIUse=1 WtCom= 1.00D+00 WtEn= 0.00D+00
 Coeff-Com: -0.377D-03-0.592D-04 0.115D-02 0.588D-02 0.249D-01 0.925D-01
 Coeff-Com:  0.222D+00 0.654D+00
 Coeff:     -0.377D-03-0.592D-04 0.115D-02 0.588D-02 0.249D-01 0.925D-01
 Coeff:      0.222D+00 0.654D+00
 Gap=     0.185 Goal=   None    Shift=    0.000
 RMSDP=2.09D-06 MaxDP=1.25D-04 DE=-6.91D-06 OVMax= 1.00D-04

 Cycle   9  Pass 1  IDiag  1:
 E= -1212.06134204559     Delta-E=       -0.000000277190 Rises=F Damp=F
 DIIS: error= 7.65D-06 at cycle   9 NSaved=   9.
 NSaved= 9 IEnMin= 9 EnMin= -1212.06134204559     IErMin= 9 ErrMin= 7.65D-06
 ErrMax= 7.65D-06  0.00D+00 EMaxC= 1.00D-01 BMatC= 4.68D-08 BMatP= 3.69D-07
 IDIUse=1 WtCom= 1.00D+00 WtEn= 0.00D+00
 Coeff-Com: -0.555D-04-0.673D-04-0.735D-03-0.139D-02 0.332D-03 0.139D-01
 Coeff-Com:  0.634D-01 0.329D+00 0.595D+00
 Coeff:     -0.555D-04-0.673D-04-0.735D-03-0.139D-02 0.332D-03 0.139D-01
 Coeff:      0.634D-01 0.329D+00 0.595D+00
 Gap=     0.185 Goal=   None    Shift=    0.000
 RMSDP=7.38D-07 MaxDP=2.81D-05 DE=-2.77D-07 OVMax= 3.92D-05

 Cycle  10  Pass 1  IDiag  1:
 E= -1212.06134208186     Delta-E=       -0.000000036268 Rises=F Damp=F
 DIIS: error= 3.25D-06 at cycle  10 NSaved=  10.
 NSaved=10 IEnMin=10 EnMin= -1212.06134208186     IErMin=10 ErrMin= 3.25D-06
 ErrMax= 3.25D-06  0.00D+00 EMaxC= 1.00D-01 BMatC= 5.02D-09 BMatP= 4.68D-08
 IDIUse=1 WtCom= 1.00D+00 WtEn= 0.00D+00
 Coeff-Com: -0.835D-05-0.278D-04-0.482D-03-0.113D-02-0.159D-02 0.110D-02
 Coeff-Com:  0.187D-01 0.134D+00 0.322D+00 0.527D+00
 Coeff:     -0.835D-05-0.278D-04-0.482D-03-0.113D-02-0.159D-02 0.110D-02
 Coeff:      0.187D-01 0.134D+00 0.322D+00 0.527D+00
 Gap=     0.185 Goal=   None    Shift=    0.000
 RMSDP=2.63D-07 MaxDP=1.31D-05 DE=-3.63D-08 OVMax= 1.67D-05

 Cycle  11  Pass 1  IDiag  1:
 E= -1212.06134208574     Delta-E=       -0.000000003882 Rises=F Damp=F
 DIIS: error= 1.26D-06 at cycle  11 NSaved=  11.
 NSaved=11 IEnMin=11 EnMin= -1212.06134208574     IErMin=11 ErrMin= 1.26D-06
 ErrMax= 1.26D-06  0.00D+00 EMaxC= 1.00D-01 BMatC= 6.21D-10 BMatP= 5.02D-09
 IDIUse=1 WtCom= 1.00D+00 WtEn= 0.00D+00
 Coeff-Com:  0.922D-06-0.374D-05-0.179D-03-0.441D-03-0.938D-03-0.109D-02
 Coeff-Com:  0.250D-02 0.339D-01 0.991D-01 0.289D+00 0.578D+00
 Coeff:      0.922D-06-0.374D-05-0.179D-03-0.441D-03-0.938D-03-0.109D-02
 Coeff:      0.250D-02 0.339D-01 0.991D-01 0.289D+00 0.578D+00
 Gap=     0.185 Goal=   None    Shift=    0.000
 RMSDP=9.09D-08 MaxDP=4.77D-06 DE=-3.88D-09 OVMax= 6.97D-06

 Cycle  12  Pass 1  IDiag  1:
 E= -1212.06134208615     Delta-E=       -0.000000000414 Rises=F Damp=F
 DIIS: error= 4.91D-07 at cycle  12 NSaved=  12.
 NSaved=12 IEnMin=12 EnMin= -1212.06134208615     IErMin=12 ErrMin= 4.91D-07
 ErrMax= 4.91D-07  0.00D+00 EMaxC= 1.00D-01 BMatC= 1.24D-10 BMatP= 6.21D-10
 IDIUse=1 WtCom= 1.00D+00 WtEn= 0.00D+00
 Coeff-Com:  0.191D-05 0.232D-05-0.477D-04-0.121D-03-0.392D-03-0.939D-03
 Coeff-Com: -0.131D-02 0.139D-02 0.130D-01 0.103D+00 0.364D+00 0.522D+00
 Coeff:      0.191D-05 0.232D-05-0.477D-04-0.121D-03-0.392D-03-0.939D-03
 Coeff:     -0.131D-02 0.139D-02 0.130D-01 0.103D+00 0.364D+00 0.522D+00
 Gap=     0.185 Goal=   None    Shift=    0.000
 RMSDP=3.27D-08 MaxDP=1.44D-06 DE=-4.14D-10 OVMax= 2.10D-06

 Cycle  13  Pass 1  IDiag  1:
 E= -1212.06134208624     Delta-E=       -0.000000000084 Rises=F Damp=F
 DIIS: error= 7.86D-08 at cycle  13 NSaved=  13.
 NSaved=13 IEnMin=13 EnMin= -1212.06134208624     IErMin=13 ErrMin= 7.86D-08
 ErrMax= 7.86D-08  0.00D+00 EMaxC= 1.00D-01 BMatC= 3.08D-12 BMatP= 1.24D-10
 IDIUse=1 WtCom= 1.00D+00 WtEn= 0.00D+00
 Coeff-Com:  0.676D-06 0.101D-05-0.598D-05-0.141D-04-0.894D-04-0.320D-03
 Coeff-Com: -0.806D-03-0.256D-02-0.423D-02 0.167D-01 0.968D-01 0.193D+00
 Coeff-Com:  0.701D+00
 Coeff:      0.676D-06 0.101D-05-0.598D-05-0.141D-04-0.894D-04-0.320D-03
 Coeff:     -0.806D-03-0.256D-02-0.423D-02 0.167D-01 0.968D-01 0.193D+00
 Coeff:      0.701D+00
 Gap=     0.185 Goal=   None    Shift=    0.000
 RMSDP=8.85D-09 MaxDP=2.51D-07 DE=-8.41D-11 OVMax= 7.83D-07

 Error on total polarization charges =  0.01868
 SCF Done:  E(RB3LYP) =  -1212.06134209     A.U. after   13 cycles
            NFock= 13  Conv=0.88D-08     -V/T= 2.0079
 KE= 1.202510439531D+03 PE=-5.787487576316D+03 EE= 1.876435568408D+03
 Leave Link  502 at Thu Sep 24 17:38:04 2020, MaxMem=  2147483648 cpu:             271.0 elap:              67.8
 (Enter /prod/apps/gaussian/g16b1/l601.exe)
 Copying SCF densities to generalized density rwf, IOpCl= 0 IROHF=0.

 **********************************************************************

            Population analysis using the SCF Density.

 **********************************************************************

 Alpha  occ. eigenvalues --  -89.19598 -19.21969 -19.21726 -14.50463 -14.48915
 Alpha  occ. eigenvalues --  -14.48813 -14.47160 -14.44793 -10.33964 -10.29248
 Alpha  occ. eigenvalues --  -10.26857 -10.25652 -10.25498 -10.22137 -10.21968
 Alpha  occ. eigenvalues --  -10.21181 -10.21146 -10.21064  -8.21932  -6.18424
 Alpha  occ. eigenvalues --   -6.18353  -6.18283  -1.19540  -1.19011  -1.08176
 Alpha  occ. eigenvalues --   -1.02468  -1.01447  -0.99338  -0.88196  -0.88086
 Alpha  occ. eigenvalues --   -0.80050  -0.77365  -0.76579  -0.75163  -0.72037
 Alpha  occ. eigenvalues --   -0.71556  -0.69402  -0.63864  -0.63089  -0.61616
 Alpha  occ. eigenvalues --   -0.60727  -0.57823  -0.57457  -0.56054  -0.55627
 Alpha  occ. eigenvalues --   -0.54304  -0.52116  -0.51453  -0.50887  -0.49915
 Alpha  occ. eigenvalues --   -0.47442  -0.46531  -0.45702  -0.44566  -0.44334
 Alpha  occ. eigenvalues --   -0.43441  -0.42621  -0.42097  -0.41104  -0.40174
 Alpha  occ. eigenvalues --   -0.38773  -0.38564  -0.38105  -0.37672  -0.37272
 Alpha  occ. eigenvalues --   -0.36674  -0.36384  -0.31223  -0.27503  -0.27315
 Alpha virt. eigenvalues --   -0.08801  -0.06870  -0.02668  -0.02360  -0.00859
 Alpha virt. eigenvalues --    0.01698   0.03899   0.05041   0.05747   0.08096
 Alpha virt. eigenvalues --    0.08557   0.09713   0.10466   0.11080   0.11681
 Alpha virt. eigenvalues --    0.12525   0.13292   0.13905   0.14381   0.14651
 Alpha virt. eigenvalues --    0.14888   0.15560   0.15835   0.16894   0.17500
 Alpha virt. eigenvalues --    0.18134   0.18570   0.18828   0.20115   0.21528
 Alpha virt. eigenvalues --    0.26324   0.27906   0.28028   0.29196   0.31810
 Alpha virt. eigenvalues --    0.32313   0.33640   0.35473   0.37346   0.39512
 Alpha virt. eigenvalues --    0.43090   0.44783   0.45382   0.45986   0.47193
 Alpha virt. eigenvalues --    0.49412   0.50287   0.51051   0.51772   0.52900
 Alpha virt. eigenvalues --    0.53294   0.53690   0.54585   0.55283   0.55923
 Alpha virt. eigenvalues --    0.57033   0.57356   0.57604   0.58844   0.59390
 Alpha virt. eigenvalues --    0.59696   0.60047   0.60387   0.62016   0.63546
 Alpha virt. eigenvalues --    0.64498   0.65132   0.67350   0.68924   0.70480
 Alpha virt. eigenvalues --    0.72814   0.73068   0.74147   0.74329   0.75633
 Alpha virt. eigenvalues --    0.76127   0.77353   0.78211   0.78804   0.80139
 Alpha virt. eigenvalues --    0.81135   0.82343   0.82890   0.83179   0.83398
 Alpha virt. eigenvalues --    0.84078   0.85066   0.86107   0.86740   0.87571
 Alpha virt. eigenvalues --    0.88963   0.90067   0.91171   0.91458   0.92916
 Alpha virt. eigenvalues --    0.93572   0.93744   0.95197   0.96084   0.97049
 Alpha virt. eigenvalues --    0.97281   0.98788   1.00169   1.00823   1.02231
 Alpha virt. eigenvalues --    1.02910   1.04207   1.04345   1.06360   1.10302
 Alpha virt. eigenvalues --    1.11689   1.12160   1.12768   1.14470   1.15353
 Alpha virt. eigenvalues --    1.16512   1.17402   1.20227   1.24111   1.24956
 Alpha virt. eigenvalues --    1.27821   1.30650   1.32260   1.33310   1.34210
 Alpha virt. eigenvalues --    1.35918   1.39765   1.40617   1.41132   1.41694
 Alpha virt. eigenvalues --    1.43519   1.44610   1.46616   1.46940   1.48684
 Alpha virt. eigenvalues --    1.49548   1.54749   1.55488   1.60320   1.63889
 Alpha virt. eigenvalues --    1.67426   1.68749   1.71724   1.72931   1.73437
 Alpha virt. eigenvalues --    1.75019   1.75388   1.78046   1.78612   1.79362
 Alpha virt. eigenvalues --    1.79886   1.81469   1.83181   1.83703   1.86522
 Alpha virt. eigenvalues --    1.87431   1.88513   1.90751   1.92989   1.93377
 Alpha virt. eigenvalues --    1.94536   1.96842   1.98450   1.99346   2.00318
 Alpha virt. eigenvalues --    2.01668   2.02323   2.04908   2.05389   2.05907
 Alpha virt. eigenvalues --    2.08251   2.09347   2.12077   2.12781   2.13174
 Alpha virt. eigenvalues --    2.14628   2.16046   2.17664   2.20027   2.20713
 Alpha virt. eigenvalues --    2.21506   2.21581   2.25097   2.27207   2.28039
 Alpha virt. eigenvalues --    2.29088   2.30610   2.32110   2.33422   2.35276
 Alpha virt. eigenvalues --    2.40087   2.41494   2.49165   2.51010   2.52803
 Alpha virt. eigenvalues --    2.54651   2.56391   2.56926   2.60866   2.62573
 Alpha virt. eigenvalues --    2.63876   2.64650   2.68244   2.69731   2.70963
 Alpha virt. eigenvalues --    2.72378   2.72656   2.76773   2.78610   2.80785
 Alpha virt. eigenvalues --    2.86000   2.96207   3.02721   3.09475   3.20405
 Alpha virt. eigenvalues --    3.40087   3.56115   3.71336   3.88313   3.89469
 Alpha virt. eigenvalues --    3.96495   4.00382   4.03165   4.06872   4.09225
 Alpha virt. eigenvalues --    4.09458   4.12848   4.15820   4.26053   4.27240
 Alpha virt. eigenvalues --    4.30651   4.37750   4.46323   4.68810
          Condensed to atoms (all electrons):
               1          2          3          4          5          6
     1  O    8.149853   0.452611  -0.049528   0.000611  -0.000004  -0.000000
     2  S    0.452611  13.523745   0.175583  -0.016511  -0.001725   0.000098
     3  N   -0.049528   0.175583   7.320319   0.260310  -0.059403   0.004485
     4  C    0.000611  -0.016511   0.260310   4.512294   0.297854  -0.061098
     5  N   -0.000004  -0.001725  -0.059403   0.297854   6.687924   0.262450
     6  N   -0.000000   0.000098   0.004485  -0.061098   0.262450   6.654963
     7  C   -0.000036  -0.003248  -0.062554   0.507409  -0.050505  -0.088429
     8  N    0.000000   0.000163   0.003420  -0.009231  -0.083550   0.268720
     9  C   -0.000000  -0.000007  -0.000096   0.001887   0.006422  -0.052224
    10  C   -0.000000   0.000000   0.000005   0.001050  -0.000300   0.002945
    11  C   -0.000000  -0.000000   0.000000  -0.000006   0.000002  -0.000068
    12  C    0.000000  -0.000000  -0.000000  -0.000000  -0.000000   0.000014
    13  C   -0.000000   0.000000  -0.000000   0.000005  -0.000002   0.000164
    14  C    0.000000   0.000000   0.000000  -0.000604   0.000428  -0.000098
    15  N   -0.044742   0.102086  -0.043755   0.000564   0.000019  -0.000001
    16  C    0.001199  -0.012209   0.000720   0.000511  -0.000028   0.000002
    17  C   -0.002303  -0.012076   0.001964   0.000179  -0.000001   0.000000
    18  O   -0.033556   0.432069  -0.054450   0.007106  -0.000883   0.000035
    19  H    0.000729  -0.009088   0.291479  -0.014467   0.000963   0.000008
    20  H   -0.000000   0.000005  -0.001206  -0.024562   0.003075   0.002972
    21  H    0.000000  -0.000000   0.000000  -0.000078  -0.000011  -0.000039
    22  H   -0.000000   0.000000   0.000000   0.000000  -0.000000   0.000001
    23  H   -0.000000   0.000000  -0.000000   0.000000  -0.000000   0.000000
    24  H    0.000000   0.000000   0.000000  -0.000000   0.000000  -0.000006
    25  H   -0.000000   0.000000  -0.000000   0.000004  -0.000270   0.008275
    26  H    0.000015  -0.002888  -0.000043   0.000070   0.000001  -0.000000
    27  H   -0.000042   0.001597  -0.000088   0.000020   0.000000  -0.000000
    28  H   -0.000015  -0.003442   0.001351   0.000972  -0.000050  -0.000012
    29  H    0.006214   0.000585  -0.000547  -0.000001  -0.000000   0.000000
    30  H   -0.000128  -0.004492   0.003730  -0.000063   0.000002   0.000000
    31  H   -0.000028   0.001601   0.000006  -0.000007   0.000000  -0.000000
    32  H    0.001746  -0.006460   0.000895  -0.000013  -0.000001   0.000000
    33  H   -0.000047   0.000459   0.000298  -0.021952   0.303108  -0.024483
               7          8          9         10         11         12
     1  O   -0.000036   0.000000  -0.000000  -0.000000  -0.000000   0.000000
     2  S   -0.003248   0.000163  -0.000007   0.000000  -0.000000  -0.000000
     3  N   -0.062554   0.003420  -0.000096   0.000005   0.000000  -0.000000
     4  C    0.507409  -0.009231   0.001887   0.001050  -0.000006  -0.000000
     5  N   -0.050505  -0.083550   0.006422  -0.000300   0.000002  -0.000000
     6  N   -0.088429   0.268720  -0.052224   0.002945  -0.000068   0.000014
     7  C    4.931775   0.311687  -0.030708  -0.004261  -0.000024   0.000015
     8  N    0.311687   6.765253   0.206419  -0.049016   0.004334   0.000366
     9  C   -0.030708   0.206419   4.647019   0.531890  -0.012495  -0.036596
    10  C   -0.004261  -0.049016   0.531890   4.947482   0.530289  -0.041163
    11  C   -0.000024   0.004334  -0.012495   0.530289   4.854999   0.541700
    12  C    0.000015   0.000366  -0.036596  -0.041163   0.541700   4.856843
    13  C   -0.000079   0.004257  -0.011902  -0.041149  -0.023814   0.538392
    14  C    0.005970  -0.054960   0.521949  -0.063673  -0.040609  -0.040332
    15  N    0.000067  -0.000000   0.000000  -0.000000  -0.000000   0.000000
    16  C   -0.000091  -0.000013   0.000000   0.000000   0.000000  -0.000000
    17  C    0.000072   0.000000   0.000000   0.000000   0.000000  -0.000000
    18  O    0.000235  -0.000007   0.000000  -0.000000  -0.000000   0.000000
    19  H   -0.002095   0.000016   0.000003  -0.000000  -0.000000   0.000000
    20  H    0.366039  -0.030652  -0.001217   0.001944   0.000065   0.000000
    21  H    0.004603  -0.007997  -0.040023   0.357299  -0.031457   0.004133
    22  H   -0.000004  -0.000113   0.003456  -0.036775   0.364549  -0.038154
    23  H   -0.000000   0.000003   0.000482   0.004831  -0.040391   0.366433
    24  H    0.000001  -0.000108   0.003501   0.000715   0.004249  -0.038419
    25  H    0.000154  -0.010418  -0.040675   0.004746   0.000120   0.004281
    26  H   -0.000010   0.000000   0.000000   0.000000  -0.000000  -0.000000
    27  H    0.000010   0.000000   0.000000  -0.000000  -0.000000   0.000000
    28  H    0.001007   0.000002  -0.000002  -0.000000  -0.000000   0.000000
    29  H    0.000003  -0.000000   0.000000   0.000000  -0.000000  -0.000000
    30  H    0.000152   0.000001  -0.000000   0.000000   0.000000   0.000000
    31  H   -0.000002  -0.000000  -0.000000  -0.000000  -0.000000  -0.000000
    32  H   -0.000000   0.000000  -0.000000   0.000000   0.000000   0.000000
    33  H    0.004557   0.003781  -0.000050   0.000002  -0.000000  -0.000000
              13         14         15         16         17         18
     1  O   -0.000000   0.000000  -0.044742   0.001199  -0.002303  -0.033556
     2  S    0.000000   0.000000   0.102086  -0.012209  -0.012076   0.432069
     3  N   -0.000000   0.000000  -0.043755   0.000720   0.001964  -0.054450
     4  C    0.000005  -0.000604   0.000564   0.000511   0.000179   0.007106
     5  N   -0.000002   0.000428   0.000019  -0.000028  -0.000001  -0.000883
     6  N    0.000164  -0.000098  -0.000001   0.000002   0.000000   0.000035
     7  C   -0.000079   0.005970   0.000067  -0.000091   0.000072   0.000235
     8  N    0.004257  -0.054960  -0.000000  -0.000013   0.000000  -0.000007
     9  C   -0.011902   0.521949   0.000000   0.000000   0.000000   0.000000
    10  C   -0.041149  -0.063673  -0.000000   0.000000   0.000000  -0.000000
    11  C   -0.023814  -0.040609  -0.000000   0.000000   0.000000  -0.000000
    12  C    0.538392  -0.040332   0.000000  -0.000000  -0.000000   0.000000
    13  C    4.863331   0.526868  -0.000000   0.000000  -0.000000   0.000000
    14  C    0.526868   4.946435  -0.000000   0.000000   0.000000  -0.000000
    15  N   -0.000000  -0.000000   7.104374   0.207827   0.207783  -0.041539
    16  C    0.000000   0.000000   0.207827   5.067230  -0.039917   0.000076
    17  C   -0.000000   0.000000   0.207783  -0.039917   5.073245   0.000989
    18  O    0.000000  -0.000000  -0.041539   0.000076   0.000989   8.169161
    19  H   -0.000000   0.000000   0.000383   0.000059   0.000266   0.000859
    20  H   -0.000006   0.000014  -0.000016   0.000015   0.000025   0.000001
    21  H    0.000179   0.004540  -0.000000   0.000000   0.000000  -0.000000
    22  H    0.004215   0.000753  -0.000000  -0.000000  -0.000000   0.000000
    23  H   -0.040335   0.004686  -0.000000   0.000000  -0.000000  -0.000000
    24  H    0.364710  -0.036861   0.000000   0.000000   0.000000  -0.000000
    25  H   -0.033719   0.360236  -0.000000   0.000000  -0.000000   0.000000
    26  H   -0.000000  -0.000000  -0.027327   0.375936   0.003430   0.007232
    27  H   -0.000000  -0.000000  -0.025579   0.374433  -0.001785   0.000099
    28  H    0.000000  -0.000000  -0.031013   0.380286  -0.001944  -0.000324
    29  H   -0.000000  -0.000000  -0.028859   0.003469   0.374909   0.000037
    30  H    0.000000  -0.000000  -0.032317  -0.001923   0.380627  -0.000003
    31  H   -0.000000   0.000000  -0.025568  -0.002013   0.376686  -0.000037
    32  H    0.000000   0.000000   0.281064  -0.019306  -0.019912  -0.000166
    33  H   -0.000000  -0.000002   0.000017  -0.000003  -0.000000   0.003251
              19         20         21         22         23         24
     1  O    0.000729  -0.000000   0.000000  -0.000000  -0.000000   0.000000
     2  S   -0.009088   0.000005  -0.000000   0.000000   0.000000   0.000000
     3  N    0.291479  -0.001206   0.000000   0.000000  -0.000000   0.000000
     4  C   -0.014467  -0.024562  -0.000078   0.000000   0.000000  -0.000000
     5  N    0.000963   0.003075  -0.000011  -0.000000  -0.000000   0.000000
     6  N    0.000008   0.002972  -0.000039   0.000001   0.000000  -0.000006
     7  C   -0.002095   0.366039   0.004603  -0.000004  -0.000000   0.000001
     8  N    0.000016  -0.030652  -0.007997  -0.000113   0.000003  -0.000108
     9  C    0.000003  -0.001217  -0.040023   0.003456   0.000482   0.003501
    10  C   -0.000000   0.001944   0.357299  -0.036775   0.004831   0.000715
    11  C   -0.000000   0.000065  -0.031457   0.364549  -0.040391   0.004249
    12  C    0.000000   0.000000   0.004133  -0.038154   0.366433  -0.038419
    13  C   -0.000000  -0.000006   0.000179   0.004215  -0.040335   0.364710
    14  C    0.000000   0.000014   0.004540   0.000753   0.004686  -0.036861
    15  N    0.000383  -0.000016  -0.000000  -0.000000  -0.000000   0.000000
    16  C    0.000059   0.000015   0.000000  -0.000000   0.000000   0.000000
    17  C    0.000266   0.000025   0.000000  -0.000000  -0.000000   0.000000
    18  O    0.000859   0.000001  -0.000000   0.000000  -0.000000  -0.000000
    19  H    0.246267   0.000374  -0.000000  -0.000000  -0.000000   0.000000
    20  H    0.000374   0.405257   0.000966   0.000000  -0.000000   0.000000
    21  H   -0.000000   0.000966   0.521548  -0.004846  -0.000135   0.000013
    22  H   -0.000000   0.000000  -0.004846   0.536688  -0.004905  -0.000152
    23  H   -0.000000  -0.000000  -0.000135  -0.004905   0.542958  -0.004914
    24  H    0.000000   0.000000   0.000013  -0.000152  -0.004914   0.537199
    25  H   -0.000000  -0.000007  -0.000117   0.000012  -0.000131  -0.004871
    26  H   -0.000005  -0.000002  -0.000000  -0.000000   0.000000  -0.000000
    27  H    0.000001  -0.000001  -0.000000   0.000000  -0.000000   0.000000
    28  H    0.000002   0.000194  -0.000000   0.000000  -0.000000  -0.000000
    29  H    0.000178  -0.000000  -0.000000  -0.000000  -0.000000   0.000000
    30  H    0.000448   0.000196  -0.000000   0.000000   0.000000  -0.000000
    31  H   -0.000009  -0.000000   0.000000  -0.000000  -0.000000   0.000000
    32  H   -0.000002   0.000000   0.000000   0.000000   0.000000  -0.000000
    33  H   -0.000031  -0.000044  -0.000000   0.000000  -0.000000   0.000000
              25         26         27         28         29         30
     1  O   -0.000000   0.000015  -0.000042  -0.000015   0.006214  -0.000128
     2  S    0.000000  -0.002888   0.001597  -0.003442   0.000585  -0.004492
     3  N   -0.000000  -0.000043  -0.000088   0.001351  -0.000547   0.003730
     4  C    0.000004   0.000070   0.000020   0.000972  -0.000001  -0.000063
     5  N   -0.000270   0.000001   0.000000  -0.000050  -0.000000   0.000002
     6  N    0.008275  -0.000000  -0.000000  -0.000012   0.000000   0.000000
     7  C    0.000154  -0.000010   0.000010   0.001007   0.000003   0.000152
     8  N   -0.010418   0.000000   0.000000   0.000002  -0.000000   0.000001
     9  C   -0.040675   0.000000   0.000000  -0.000002   0.000000  -0.000000
    10  C    0.004746   0.000000  -0.000000  -0.000000   0.000000   0.000000
    11  C    0.000120  -0.000000  -0.000000  -0.000000  -0.000000   0.000000
    12  C    0.004281  -0.000000   0.000000   0.000000  -0.000000   0.000000
    13  C   -0.033719  -0.000000  -0.000000   0.000000  -0.000000   0.000000
    14  C    0.360236  -0.000000  -0.000000  -0.000000  -0.000000  -0.000000
    15  N   -0.000000  -0.027327  -0.025579  -0.031013  -0.028859  -0.032317
    16  C    0.000000   0.375936   0.374433   0.380286   0.003469  -0.001923
    17  C   -0.000000   0.003430  -0.001785  -0.001944   0.374909   0.380627
    18  O    0.000000   0.007232   0.000099  -0.000324   0.000037  -0.000003
    19  H   -0.000000  -0.000005   0.000001   0.000002   0.000178   0.000448
    20  H   -0.000007  -0.000002  -0.000001   0.000194  -0.000000   0.000196
    21  H   -0.000117  -0.000000  -0.000000  -0.000000  -0.000000  -0.000000
    22  H    0.000012  -0.000000   0.000000   0.000000  -0.000000   0.000000
    23  H   -0.000131   0.000000  -0.000000  -0.000000  -0.000000   0.000000
    24  H   -0.004871  -0.000000   0.000000  -0.000000   0.000000  -0.000000
    25  H    0.522758  -0.000000  -0.000000   0.000000  -0.000000   0.000000
    26  H   -0.000000   0.452524  -0.019739  -0.021726  -0.000148  -0.000008
    27  H   -0.000000  -0.019739   0.457677  -0.022239  -0.000066  -0.000457
    28  H    0.000000  -0.021726  -0.022239   0.458922   0.000008   0.003669
    29  H   -0.000000  -0.000148  -0.000066   0.000008   0.452665  -0.022144
    30  H    0.000000  -0.000008  -0.000457   0.003669  -0.022144   0.459201
    31  H    0.000000  -0.000032   0.002566  -0.000443  -0.019868  -0.021790
    32  H    0.000000  -0.001501  -0.003413   0.002747  -0.001717   0.002897
    33  H   -0.000001  -0.000001   0.000000  -0.000001   0.000000  -0.000000
              31         32         33
     1  O   -0.000028   0.001746  -0.000047
     2  S    0.001601  -0.006460   0.000459
     3  N    0.000006   0.000895   0.000298
     4  C   -0.000007  -0.000013  -0.021952
     5  N    0.000000  -0.000001   0.303108
     6  N   -0.000000   0.000000  -0.024483
     7  C   -0.000002  -0.000000   0.004557
     8  N   -0.000000   0.000000   0.003781
     9  C   -0.000000  -0.000000  -0.000050
    10  C   -0.000000   0.000000   0.000002
    11  C   -0.000000   0.000000  -0.000000
    12  C   -0.000000   0.000000  -0.000000
    13  C   -0.000000   0.000000  -0.000000
    14  C    0.000000   0.000000  -0.000002
    15  N   -0.025568   0.281064   0.000017
    16  C   -0.002013  -0.019306  -0.000003
    17  C    0.376686  -0.019912  -0.000000
    18  O   -0.000037  -0.000166   0.003251
    19  H   -0.000009  -0.000002  -0.000031
    20  H   -0.000000   0.000000  -0.000044
    21  H    0.000000   0.000000  -0.000000
    22  H   -0.000000   0.000000   0.000000
    23  H   -0.000000   0.000000  -0.000000
    24  H    0.000000  -0.000000   0.000000
    25  H    0.000000   0.000000  -0.000001
    26  H   -0.000032  -0.001501  -0.000001
    27  H    0.002566  -0.003413   0.000000
    28  H   -0.000443   0.002747  -0.000001
    29  H   -0.019868  -0.001717   0.000000
    30  H   -0.021790   0.002897  -0.000000
    31  H    0.451719  -0.002860   0.000000
    32  H   -0.002860   0.258904   0.000000
    33  H    0.000000   0.000000   0.246917
 Mulliken charges:
               1
     1  O   -0.482550
     2  S    1.381542
     3  N   -0.792898
     4  C    0.557746
     5  N   -0.365514
     6  N    0.021324
     7  C    0.108288
     8  N   -0.322361
     9  C    0.302966
    10  C   -0.146861
    11  C   -0.151441
    12  C   -0.117515
    13  C   -0.151116
    14  C   -0.134739
    15  N   -0.603469
    16  C   -0.336260
    17  C   -0.342236
    18  O   -0.490184
    19  H    0.483662
    20  H    0.276572
    21  H    0.191425
    22  H    0.175277
    23  H    0.171417
    24  H    0.174944
    25  H    0.189621
    26  H    0.234222
    27  H    0.237007
    28  H    0.232048
    29  H    0.235283
    30  H    0.232401
    31  H    0.240079
    32  H    0.507096
    33  H    0.484224
 Sum of Mulliken charges =   2.00000
 Mulliken charges with hydrogens summed into heavy atoms:
               1
     1  O   -0.482550
     2  S    1.381542
     3  N   -0.309236
     4  C    0.557746
     5  N    0.118710
     6  N    0.021324
     7  C    0.384861
     8  N   -0.322361
     9  C    0.302966
    10  C    0.044564
    11  C    0.023836
    12  C    0.053903
    13  C    0.023827
    14  C    0.054882
    15  N   -0.096373
    16  C    0.367017
    17  C    0.365527
    18  O   -0.490184
 Electronic spatial extent (au):  <R**2>=           6712.5533
 Charge=              2.0000 electrons
 Dipole moment (field-independent basis, Debye):
    X=             -8.5612    Y=              6.4000    Z=              0.5090  Tot=             10.7011
 Quadrupole moment (field-independent basis, Debye-Ang):
   XX=            -28.1380   YY=            -83.1222   ZZ=            -89.9502
   XY=            -20.7935   XZ=            -12.3872   YZ=              1.1445
 Traceless Quadrupole moment (field-independent basis, Debye-Ang):
   XX=             38.9321   YY=            -16.0521   ZZ=            -22.8801
   XY=            -20.7935   XZ=            -12.3872   YZ=              1.1445
 Octapole moment (field-independent basis, Debye-Ang**2):
  XXX=            -32.7684  YYY=             11.2428  ZZZ=              7.6768  XYY=            -64.5204
  XXY=            128.0809  XXZ=             73.9413  XZZ=            -38.9203  YZZ=             20.7996
  YYZ=             -1.6287  XYZ=            -40.0185
 Hexadecapole moment (field-independent basis, Debye-Ang**3):
 XXXX=          -5408.9780 YYYY=           -733.0859 ZZZZ=           -537.8145 XXXY=           -171.1430
 XXXZ=           -118.5736 YYYX=            -16.6658 YYYZ=              6.0423 ZZZX=             34.5657
 ZZZY=            -12.6655 XXYY=          -1177.9763 XXZZ=          -1136.3175 YYZZ=           -215.9055
 XXYZ=            -37.8345 YYXZ=             -9.6305 ZZXY=            -34.2955
 N-N= 1.496480226291D+03 E-N=-5.787487575870D+03  KE= 1.202510439531D+03
 No NMR shielding tensors so no spin-rotation constants.
 Leave Link  601 at Thu Sep 24 17:38:04 2020, MaxMem=  2147483648 cpu:               0.4 elap:               0.1
 (Enter /prod/apps/gaussian/g16b1/l701.exe)
 ... and contract with generalized density number  0.
 Compute integral first derivatives.
 D1PCM: PCM CHGder 1st derivatives, ID1Alg=3 FixD1E=F DoIter=F DoCFld=F I1PDM=0.
 GePol: Maximum number of non-zero 1st derivatives   =     180
 Leave Link  701 at Thu Sep 24 17:38:06 2020, MaxMem=  2147483648 cpu:               9.2 elap:               2.3
 (Enter /prod/apps/gaussian/g16b1/l702.exe)
 L702 exits ... SP integral derivatives will be done elsewhere.
 Leave Link  702 at Thu Sep 24 17:38:06 2020, MaxMem=  2147483648 cpu:               0.1 elap:               0.0
 (Enter /prod/apps/gaussian/g16b1/l703.exe)
 Integral derivatives from FoFJK, PRISM(SPDF).
 Compute integral first derivatives, UseDBF=F ICtDFT=           0.
 Calling FoFJK, ICntrl=      2127 FMM=F ISym2X=0 I1Cent= 0 IOpClX= 0 NMat=1 NMatS=1 NMatT=0.
 FoFJK:  IHMeth= 1 ICntrl=    2127 DoSepK=F KAlg= 0 I1Cent=           0 FoldK=F
 IRaf=         0 NMat=       1 IRICut=       1 DoRegI=T DoRafI=F ISym2E= 0 IDoP0=0 IntGTp=1.
 FoFCou: FMM=F IPFlag=           0 FMFlag=      100000 FMFlg1=         800
         NFxFlg=           0 DoJE=F BraDBF=F KetDBF=F FulRan=T
         wScrn=  0.000000 ICntrl=      2127 IOpCl=  0 I1Cent=           0 NGrid=           0
         NMat0=    1 NMatS0=      1 NMatT0=    0 NMatD0=    1 NMtDS0=    0 NMtDT0=    0
 Symmetry not used in FoFCou.
 Leave Link  703 at Thu Sep 24 17:38:21 2020, MaxMem=  2147483648 cpu:              56.9 elap:              14.3
 (Enter /prod/apps/gaussian/g16b1/l716.exe)
 Dipole        =-3.36823258D+00 2.51796943D+00 2.00270404D-01
 -------------------------------------------------------------------
 Center     Atomic                   Forces (Hartrees/Bohr)
 Number     Number              X              Y              Z
 -------------------------------------------------------------------
      1        8          -0.000289319    0.000250151   -0.000162748
      2       16           0.001212847   -0.000168681    0.001710986
      3        7           0.000094848    0.000208095   -0.000293723
      4        6           0.000076717    0.000749118   -0.000078433
      5        7          -0.000807145   -0.000713756    0.000000778
      6        7           0.000919285    0.001085058    0.000016633
      7        6           0.000596106   -0.001068105    0.000371186
      8        7          -0.000883176    0.000329855   -0.000211762
      9        6           0.000090074   -0.000143213    0.000285350
     10        6           0.000413326    0.000134987   -0.000208447
     11        6          -0.000268265   -0.000494012    0.000495080
     12        6          -0.000189029    0.000300678   -0.000142367
     13        6           0.000529756    0.000110936    0.000235717
     14        6          -0.000185300   -0.000117408   -0.000259240
     15        7          -0.000594040    0.000103742    0.000198208
     16        6           0.000529666   -0.000359129   -0.000051601
     17        6           0.000600319    0.000283839   -0.000555161
     18        8          -0.000240698    0.001535371   -0.000542105
     19        1           0.000147588   -0.000433942    0.000526477
     20        1          -0.000029830   -0.000555665    0.000040576
     21        1           0.000460791   -0.000382830    0.000902166
[...]
 Alpha virt. eigenvalues --    3.55824   3.60683   3.64185   3.74608   3.75572
 Alpha virt. eigenvalues --    4.06396   4.25704   4.68546
          Condensed to atoms (all electrons):
               1          2          3          4          5          6
     1  O    8.875387   0.043853  -0.048156   0.057370   0.004631   0.000455
     2  S    0.043853  13.821639   0.561997  -1.482911   0.170813  -0.064815
     3  N   -0.048156   0.561997   8.836830  -2.835589   0.273541  -0.296416
     4  C    0.057370  -1.482911  -2.835589  18.547457  -1.708474   0.958859
     5  N    0.004631   0.170813   0.273541  -1.708474   8.308228  -0.736808
     6  N    0.000455  -0.064815  -0.296416   0.958859  -0.736808   8.620921
     7  C    0.003556   0.396973   0.985213  -8.089275   1.264268  -1.061732
     8  N   -0.002932   0.076657   0.063088  -0.146087  -0.378099  -0.165013
     9  C    0.002159  -0.007690   0.108896   0.254205  -0.278713  -0.331315
    10  C   -0.000500   0.001558  -0.029242  -0.145653   0.103663   0.047319
    11  C   -0.000008  -0.000177  -0.002372   0.132402  -0.000184  -0.018569
    12  C   -0.000002  -0.000239  -0.002291  -0.015763   0.003888   0.042413
    13  C    0.000025  -0.000883  -0.001446   0.055641  -0.014987   0.011108
    14  C    0.000246  -0.006187  -0.015198  -0.080903  -0.021522   0.486404
    15  N   -0.151261  -0.307434  -0.135444  -0.211044   0.010930   0.029800
    16  C    0.007154   0.093594   0.050683   0.027145  -0.017084  -0.008090
    17  C    0.033413  -0.076487   0.048576   0.068877   0.009788  -0.007133
    18  O    0.018407  -0.025123  -0.096723   0.197522  -0.020909  -0.023914
    19  H    0.031210  -0.056552   0.280215  -0.166798   0.022054   0.020332
    20  H    0.000247   0.010587  -0.133559  -0.003367  -0.067864  -0.105218
    21  H    0.000059  -0.002536  -0.007763   0.029362  -0.009911  -0.019723
    22  H    0.000001   0.000052   0.000257   0.002102  -0.000977   0.000718
    23  H    0.000000  -0.000027  -0.000100   0.000056  -0.000108   0.001350
    24  H    0.000001  -0.000054  -0.000081   0.002052  -0.000154  -0.002064
    25  H    0.000049  -0.002046  -0.002074   0.016336  -0.007029   0.017916
    26  H   -0.000904   0.119135  -0.015503  -0.086158   0.007522  -0.007085
    27  H    0.000063  -0.010939   0.023925   0.068108  -0.005891  -0.000529
    28  H    0.004605  -0.066779   0.024969  -0.077629   0.003810   0.009167
    29  H    0.036699   0.118089  -0.009307   0.006027   0.000919  -0.001185
    30  H    0.009942  -0.026627  -0.013907   0.064637  -0.000563   0.004099
    31  H    0.001308  -0.038946   0.001921   0.002195   0.000082  -0.000600
    32  H    0.021557  -0.015740   0.036186  -0.023150   0.000288   0.000344
    33  H   -0.001591   0.012277   0.016152   0.056802   0.380642  -0.193143
               7          8          9         10         11         12
     1  O    0.003556  -0.002932   0.002159  -0.000500  -0.000008  -0.000002
     2  S    0.396973   0.076657  -0.007690   0.001558  -0.000177  -0.000239
     3  N    0.985213   0.063088   0.108896  -0.029242  -0.002372  -0.002291
     4  C   -8.089275  -0.146087   0.254205  -0.145653   0.132402  -0.015763
     5  N    1.264268  -0.378099  -0.278713   0.103663  -0.000184   0.003888
     6  N   -1.061732  -0.165013  -0.331315   0.047319  -0.018569   0.042413
     7  C   13.369272  -0.139429  -1.851706   0.582629  -0.363624   0.051727
     8  N   -0.139429   9.267492  -0.965872   0.449613  -0.385431   0.379189
     9  C   -1.851706  -0.965872  15.813266  -5.885844   2.939912  -3.707699
    10  C    0.582629   0.449613  -5.885844  12.568847  -3.314846   3.080232
    11  C   -0.363624  -0.385431   2.939912  -3.314846   9.721252  -2.933227
    12  C    0.051727   0.379189  -3.707699   3.080232  -2.933227   8.779068
    13  C   -0.027285  -0.316312   2.715753  -3.212221   2.887770  -2.881831
    14  C    0.058607   0.033451  -5.510039   2.208275  -3.223280   2.981516
    15  N    0.081432  -0.003872  -0.000362   0.009485   0.000272   0.000347
    16  C   -0.104584   0.028256   0.030843  -0.006453  -0.000357   0.000037
    17  C    0.027574  -0.020557  -0.015498  -0.000426  -0.000373  -0.000062
    18  O   -0.003785  -0.000596  -0.002209  -0.000208  -0.000043  -0.000017
    19  H    0.018033   0.013824   0.009417  -0.002119   0.000380  -0.000452
    20  H   -0.307200   0.124643   0.100607   0.059238   0.098388   0.001030
    21  H    0.083155  -0.230242   0.945628  -1.060712   0.150296  -0.198570
    22  H   -0.003428   0.003400  -0.129934   0.587529  -0.672733   0.289943
    23  H   -0.002106  -0.004916   0.126079  -0.178346   0.349337  -0.568187
    24  H   -0.003314  -0.006599  -0.124310   0.123493  -0.208960   0.290289
    25  H   -0.030891  -0.235892   0.754527  -0.117884   0.127485  -0.181541
    26  H    0.063506   0.005923   0.000153   0.000702   0.000252  -0.000074
    27  H   -0.043335   0.000732   0.003579  -0.001594  -0.000067  -0.000016
    28  H    0.036248   0.000185   0.013413  -0.004151   0.000900  -0.001065
    29  H    0.010333  -0.001095  -0.000716  -0.000147  -0.000011  -0.000016
    30  H   -0.029692  -0.006548  -0.001058  -0.002209  -0.001371   0.000097
    31  H    0.005026  -0.000513  -0.000791   0.000245  -0.000011  -0.000004
    32  H   -0.000506   0.000355  -0.000639   0.000244   0.000008   0.000013
    33  H   -0.140362   0.083569   0.026785  -0.005786   0.000704  -0.000672
              13         14         15         16         17         18
     1  O    0.000025   0.000246  -0.151261   0.007154   0.033413   0.018407
     2  S   -0.000883  -0.006187  -0.307434   0.093594  -0.076487  -0.025123
     3  N   -0.001446  -0.015198  -0.135444   0.050683   0.048576  -0.096723
     4  C    0.055641  -0.080903  -0.211044   0.027145   0.068877   0.197522
     5  N   -0.014987  -0.021522   0.010930  -0.017084   0.009788  -0.020909
     6  N    0.011108   0.486404   0.029800  -0.008090  -0.007133  -0.023914
     7  C   -0.027285   0.058607   0.081432  -0.104584   0.027574  -0.003785
     8  N   -0.316312   0.033451  -0.003872   0.028256  -0.020557  -0.000596
     9  C    2.715753  -5.510039  -0.000362   0.030843  -0.015498  -0.002209
    10  C   -3.212221   2.208275   0.009485  -0.006453  -0.000426  -0.000208
    11  C    2.887770  -3.223280   0.000272  -0.000357  -0.000373  -0.000043
    12  C   -2.881831   2.981516   0.000347   0.000037  -0.000062  -0.000017
    13  C    9.318109  -3.064175  -0.001129   0.000128   0.000433  -0.000048
    14  C   -3.064175  12.453908   0.000494  -0.005794   0.001682   0.000078
    15  N   -0.001129   0.000494   9.016973  -0.106698  -0.107504   0.050056
    16  C    0.000128  -0.005794  -0.106698   4.124293  -0.063923  -0.020413
    17  C    0.000433   0.001682  -0.107504  -0.063923   4.138328   0.022638
    18  O   -0.000048   0.000078   0.050056  -0.020413   0.022638   8.887494
    19  H    0.000041  -0.001601  -0.022520   0.002823   0.000503   0.004733
    20  H   -0.016799  -0.182220  -0.010417  -0.015961   0.010497   0.003861
    21  H    0.140181  -0.138149   0.001311   0.000415  -0.000263  -0.000137
    22  H   -0.237047   0.119400  -0.000043  -0.000020  -0.000007   0.000004
    23  H    0.389643  -0.128930   0.000017  -0.000006  -0.000004  -0.000001
    24  H   -0.603748   0.510085  -0.000029   0.000031   0.000006  -0.000010
    25  H    0.274481  -0.922896   0.001168  -0.000174  -0.000214  -0.000051
    26  H   -0.000051  -0.002143  -0.063291   0.279927  -0.011543  -0.011675
    27  H    0.000183  -0.000200  -0.180757   0.446186   0.037042  -0.008802
    28  H    0.000792   0.001576  -0.134910   0.257542   0.027716   0.027897
    29  H    0.000041   0.000036  -0.213758  -0.005956   0.338872  -0.004301
    30  H    0.000171   0.003151  -0.174768   0.020789   0.362993  -0.000355
    31  H    0.000000  -0.000011  -0.059382   0.035650   0.389031   0.002968
    32  H   -0.000086  -0.000016   0.321061  -0.020607  -0.000745   0.010501
    33  H    0.001931  -0.006851  -0.003304   0.001002  -0.000908   0.003965
              19         20         21         22         23         24
     1  O    0.031210   0.000247   0.000059   0.000001   0.000000   0.000001
     2  S   -0.056552   0.010587  -0.002536   0.000052  -0.000027  -0.000054
     3  N    0.280215  -0.133559  -0.007763   0.000257  -0.000100  -0.000081
     4  C   -0.166798  -0.003367   0.029362   0.002102   0.000056   0.002052
     5  N    0.022054  -0.067864  -0.009911  -0.000977  -0.000108  -0.000154
     6  N    0.020332  -0.105218  -0.019723   0.000718   0.001350  -0.002064
     7  C    0.018033  -0.307200   0.083155  -0.003428  -0.002106  -0.003314
     8  N    0.013824   0.124643  -0.230242   0.003400  -0.004916  -0.006599
     9  C    0.009417   0.100607   0.945628  -0.129934   0.126079  -0.124310
    10  C   -0.002119   0.059238  -1.060712   0.587529  -0.178346   0.123493
    11  C    0.000380   0.098388   0.150296  -0.672733   0.349337  -0.208960
    12  C   -0.000452   0.001030  -0.198570   0.289943  -0.568187   0.290289
    13  C    0.000041  -0.016799   0.140181  -0.237047   0.389643  -0.603748
    14  C   -0.001601  -0.182220  -0.138149   0.119400  -0.128930   0.510085
    15  N   -0.022520  -0.010417   0.001311  -0.000043   0.000017  -0.000029
    16  C    0.002823  -0.015961   0.000415  -0.000020  -0.000006   0.000031
    17  C    0.000503   0.010497  -0.000263  -0.000007  -0.000004   0.000006
    18  O    0.004733   0.003861  -0.000137   0.000004  -0.000001  -0.000010
    19  H    0.833906   0.020530   0.000546   0.000066  -0.000015   0.000001
    20  H    0.020530   1.988280  -0.047087   0.002285  -0.000486  -0.000118
    21  H    0.000546  -0.047087   2.118641  -0.082959  -0.014192   0.009846
    22  H    0.000066   0.002285  -0.082959   1.593340  -0.061698  -0.017279
    23  H   -0.000015  -0.000486  -0.014192  -0.061698   1.574413  -0.064613
    24  H    0.000001  -0.000118   0.009846  -0.017279  -0.064613   1.570692
    25  H   -0.000226  -0.003743  -0.018261   0.009629  -0.012275  -0.078646
    26  H    0.001422   0.010290  -0.000269   0.000006  -0.000005   0.000019
    27  H   -0.000508  -0.009327   0.000169   0.000000  -0.000002   0.000010
    28  H    0.004377   0.008262  -0.000605   0.000108   0.000035  -0.000085
    29  H    0.006228   0.004702  -0.000202   0.000003  -0.000001   0.000000
    30  H   -0.002196  -0.015395   0.001859  -0.000083   0.000013   0.000001
    31  H    0.001339   0.000403  -0.000004  -0.000001  -0.000000  -0.000000
    32  H   -0.003098   0.000105  -0.000041  -0.000001   0.000000  -0.000001
    33  H    0.002887  -0.001546  -0.000081   0.000021  -0.000028   0.000068
              25         26         27         28         29         30
     1  O    0.000049  -0.000904   0.000063   0.004605   0.036699   0.009942
     2  S   -0.002046   0.119135  -0.010939  -0.066779   0.118089  -0.026627
     3  N   -0.002074  -0.015503   0.023925   0.024969  -0.009307  -0.013907
     4  C    0.016336  -0.086158   0.068108  -0.077629   0.006027   0.064637
     5  N   -0.007029   0.007522  -0.005891   0.003810   0.000919  -0.000563
     6  N    0.017916  -0.007085  -0.000529   0.009167  -0.001185   0.004099
     7  C   -0.030891   0.063506  -0.043335   0.036248   0.010333  -0.029692
     8  N   -0.235892   0.005923   0.000732   0.000185  -0.001095  -0.006548
     9  C    0.754527   0.000153   0.003579   0.013413  -0.000716  -0.001058
    10  C   -0.117884   0.000702  -0.001594  -0.004151  -0.000147  -0.002209
    11  C    0.127485   0.000252  -0.000067   0.000900  -0.000011  -0.001371
    12  C   -0.181541  -0.000074  -0.000016  -0.001065  -0.000016   0.000097
    13  C    0.274481  -0.000051   0.000183   0.000792   0.000041   0.000171
    14  C   -0.922896  -0.002143  -0.000200   0.001576   0.000036   0.003151
    15  N    0.001168  -0.063291  -0.180757  -0.134910  -0.213758  -0.174768
    16  C   -0.000174   0.279927   0.446186   0.257542  -0.005956   0.020789
    17  C   -0.000214  -0.011543   0.037042   0.027716   0.338872   0.362993
    18  O   -0.000051  -0.011675  -0.008802   0.027897  -0.004301  -0.000355
    19  H   -0.000226   0.001422  -0.000508   0.004377   0.006228  -0.002196
    20  H   -0.003743   0.010290  -0.009327   0.008262   0.004702  -0.015395
    21  H   -0.018261  -0.000269   0.000169  -0.000605  -0.000202   0.001859
    22  H    0.009629   0.000006   0.000000   0.000108   0.000003  -0.000083
    23  H   -0.012275  -0.000005  -0.000002   0.000035  -0.000001   0.000013
    24  H   -0.078646   0.000019   0.000010  -0.000085   0.000000   0.000001
    25  H    1.950047  -0.000314  -0.000073   0.000679  -0.000009   0.000135
    26  H   -0.000314   1.307393  -0.314111  -0.156945   0.001757  -0.005682
    27  H   -0.000073  -0.314111   1.361080  -0.242976   0.007018   0.014693
    28  H    0.000679  -0.156945  -0.242976   1.368535  -0.000507  -0.016382
    29  H   -0.000009   0.001757   0.007018  -0.000507   1.270708  -0.193183
    30  H    0.000135  -0.005682   0.014693  -0.016382  -0.193183   1.304816
    31  H   -0.000024   0.008051  -0.007622   0.013663  -0.245723  -0.204013
    32  H   -0.000025  -0.024413  -0.023094   0.024142  -0.016648   0.036685
    33  H   -0.002411   0.000047   0.000388  -0.000419  -0.000158   0.000032
              31         32         33
     1  O    0.001308   0.021557  -0.001591
     2  S   -0.038946  -0.015740   0.012277
     3  N    0.001921   0.036186   0.016152
     4  C    0.002195  -0.023150   0.056802
     5  N    0.000082   0.000288   0.380642
     6  N   -0.000600   0.000344  -0.193143
     7  C    0.005026  -0.000506  -0.140362
     8  N   -0.000513   0.000355   0.083569
     9  C   -0.000791  -0.000639   0.026785
    10  C    0.000245   0.000244  -0.005786
    11  C   -0.000011   0.000008   0.000704
    12  C   -0.000004   0.000013  -0.000672
    13  C    0.000000  -0.000086   0.001931
    14  C   -0.000011  -0.000016  -0.006851
    15  N   -0.059382   0.321061  -0.003304
    16  C    0.035650  -0.020607   0.001002
    17  C    0.389031  -0.000745  -0.000908
    18  O    0.002968   0.010501   0.003965
    19  H    0.001339  -0.003098   0.002887
    20  H    0.000403   0.000105  -0.001546
    21  H   -0.000004  -0.000041  -0.000081
    22  H   -0.000001  -0.000001   0.000021
    23  H   -0.000000   0.000000  -0.000028
    24  H   -0.000000  -0.000001   0.000068
    25  H   -0.000024  -0.000025  -0.002411
    26  H    0.008051  -0.024413   0.000047
    27  H   -0.007622  -0.023094   0.000388
    28  H    0.013663   0.024142  -0.000419
    29  H   -0.245723  -0.016648  -0.000158
    30  H   -0.204013   0.036685   0.000032
    31  H    1.206293  -0.028995   0.000007
    32  H   -0.028995   0.503026   0.000160
    33  H    0.000007   0.000160   0.758891
 Mulliken charges:
               1
     1  O   -0.947044
     2  S    2.764967
     3  N   -0.667279
     4  C    0.525644
     5  N   -0.295790
     6  N   -0.207854
     7  C    1.164701
     8  N   -0.520371
     9  C    0.969172
    10  C    0.145270
    11  C    0.716286
    12  C    0.591938
    13  C    0.581614
    14  C    0.451204
    15  N   -0.635420
    16  C    0.969620
    17  C    0.787679
    18  O   -1.010803
    19  H   -0.018781
    20  H   -0.523651
    21  H   -0.649759
    22  H   -0.402654
    23  H   -0.404896
    24  H   -0.396529
    25  H   -0.535753
    26  H   -0.105941
    27  H   -0.113333
    28  H   -0.126169
    29  H   -0.108510
    30  H   -0.130079
    31  H   -0.081542
    32  H    0.203130
    33  H    0.010933
 Sum of Mulliken charges =   2.00000
 Mulliken charges with hydrogens summed into heavy atoms:
               1
     1  O   -0.947044
     2  S    2.764967
     3  N   -0.686060
     4  C    0.525644
     5  N   -0.284857
     6  N   -0.207854
     7  C    0.641050
     8  N   -0.520371
     9  C    0.969172
    10  C   -0.504488
    11  C    0.313632
    12  C    0.187042
    13  C    0.185085
    14  C   -0.084549
    15  N   -0.432290
    16  C    0.624177
    17  C    0.467549
    18  O   -1.010803
 Electronic spatial extent (au):  <R**2>=           6674.5849
 Charge=              2.0000 electrons
 Dipole moment (field-independent basis, Debye):
    X=             -5.4938    Y=              6.2528    Z=              0.4325  Tot=              8.3347
 Quadrupole moment (field-independent basis, Debye-Ang):
   XX=             -5.4082   YY=            -83.1465   ZZ=            -91.6161
   XY=            -19.7999   XZ=             -6.9555   YZ=             -1.0903
 Traceless Quadrupole moment (field-independent basis, Debye-Ang):
   XX=             54.6487   YY=            -23.0895   ZZ=            -31.5592
   XY=            -19.7999   XZ=             -6.9555   YZ=             -1.0903
 Octapole moment (field-independent basis, Debye-Ang**2):
  XXX=             70.4808  YYY=              5.0770  ZZZ=              8.8467  XYY=            -68.6904
  XXY=            145.5039  XXZ=             69.1481  XZZ=            -30.0718  YZZ=             17.7272
  YYZ=             -0.5893  XYZ=            -38.6064
 Hexadecapole moment (field-independent basis, Debye-Ang**3):
 XXXX=          -4603.2839 YYYY=           -733.5720 ZZZZ=           -524.8780 XXXY=           -136.1080
 XXXZ=            -55.8569 YYYX=           -103.0187 YYYZ=              8.4523 ZZZX=            -19.1302
 ZZZY=              0.4384 XXYY=          -1138.9684 XXZZ=          -1118.8458 YYZZ=           -215.7699
 XXYZ=            -63.8468 YYXZ=            -37.9767 ZZXY=            -53.9493
 N-N= 1.498699105077D+03 E-N=-5.792494712909D+03  KE= 1.204717761329D+03
 Leave Link  601 at Thu Sep 24 18:52:01 2020, MaxMem=   262144000 cpu:               0.6 elap:               0.2
 (Enter /prod/apps/gaussian/g16b1/l9999.exe)
 1\1\GINC-PIRINEUS10\SP\RMP2-FC\Aug-CC-pVDZ\C10H15N5O2S1(2+)\UBAFAR01\2
 4-Sep-2020\0\\#p mp2/aug-cc-pVDZ scf=(MaxCycle=2000,NoVarAcc,NoIncFock
 ) maxdisk=120GB geom=allcheck\\SM46_m3.b.3.pdb.xyz\\2,1\O,0,-4.2748018
 573,-0.5202614339,-0.9587443821\S,0,-3.1135920186,-0.4777092401,-0.096
 6042008\N,0,-1.7874414453,-0.2325812285,-1.0444915384\C,0,-0.473474842
 ,-0.4888414005,-0.665461093\N,0,-0.0180523749,-1.7117164379,-0.2851174
 349\N,0,1.269074028,-1.7217171624,-0.0425046046\C,0,0.635222885,0.3258
 896606,-0.6617766544\N,0,1.6623803514,-0.4825191947,-0.2880410143\C,0,
 3.0464456082,-0.1315226774,-0.1369605662\C,0,3.6021737598,0.803471569,
 -1.0088694873\C,0,4.9466381055,1.1361453221,-0.8564577642\C,0,5.712098
 4638,0.5330249797,0.1434023784\C,0,5.1346289881,-0.4056911427,1.001713
 281\C,0,3.7897856317,-0.7440058766,0.871284741\N,0,-3.3900071615,1.110
 5838359,0.8743407848\C,0,-2.4415244134,1.2741407311,2.0232219002\C,0,-
 3.4816370386,2.3120585967,-0.0178648455\O,0,-2.7917937688,-1.451401311
 1,0.9254120089\H,0,-1.947406649,0.3286687432,-1.8869304965\H,0,0.74669
 62113,1.3744382659,-0.8749881443\H,0,3.0089341532,1.2450592906,-1.8003
 706705\H,0,5.3948087119,1.8584701364,-1.52864605\H,0,6.7586207024,0.79
 38325979,0.2535025142\H,0,5.7268664966,-0.8703873324,1.7812940493\H,0,
 3.3213450472,-1.4571956408,1.5371664037\H,0,-2.4049486801,0.3376886713
 ,2.5734712774\H,0,-2.8444666291,2.0653515248,2.6534932763\H,0,-1.45943
 03923,1.5555766941,1.6521658878\H,0,-4.1973919646,2.1023430401,-0.8092
 297177\H,0,-2.4967981127,2.5398446189,-0.4201952277\H,0,-3.8376984021,
 3.1371816997,0.5970979199\H,0,-4.333216719,0.9413509955,1.2691294832\H
 ,0,-0.5480366747,-2.5835708945,-0.1904420135\\Version=ES64L-G16RevB.01
 \State=1-A\HF=-1206.2841332\MP2=-1209.0884874\RMSD=7.096e-09\PG=C01 [X
 (C10H15N5O2S1)]\\@


 WAR ES EIN GOTT DER DIESE ZEICHEN SCHRIEB?
          - LUDWIG BOLTZMANN, QUOTING GOETHE, ABOUT MAXWELL'S EQUATIONS.
 Job cpu time:       0 days  1 hours 59 minutes 12.6 seconds.
 Elapsed time:       0 days  0 hours 31 minutes 39.4 seconds.
 File lengths (MBytes):  RWF=  81982 Int=      0 D2E=      0 Chk=     25 Scr=      1
 Normal termination of Gaussian 16 at Thu Sep 24 18:52:02 2020.
