 Entering Gaussian System, Link 0=g16
 Initial command:
 /prod/apps/gaussian/g16b1/l1.exe "/tmp/ubafar01/1462026/Gau-53221.inp" -scrdir="/tmp/ubafar01/1462026/"
 Entering Link 1 = /prod/apps/gaussian/g16b1/l1.exe PID=     53223.
  
 Copyright (c) 1988-2017, Gaussian, Inc.  All Rights Reserved.
  
 This is part of the Gaussian(R) 16 program.  It is based on
 the Gaussian(R) 09 system (copyright 2009, Gaussian, Inc.),
 the Gaussian(R) 03 system (copyright 2003, Gaussian, Inc.),
 the Gaussian(R) 98 system (copyright 1998, Gaussian, Inc.),
 the Gaussian(R) 94 system (copyright 1995, Gaussian, Inc.),
 the Gaussian 92(TM) system (copyright 1992, Gaussian, Inc.),
 the Gaussian 90(TM) system (copyright 1990, Gaussian, Inc.),
 the Gaussian 88(TM) system (copyright 1988, Gaussian, Inc.),
 the Gaussian 86(TM) system (copyright 1986, Carnegie Mellon
 University), and the Gaussian 82(TM) system (copyright 1983,
 Carnegie Mellon University). Gaussian is a federally registered
 trademark of Gaussian, Inc.
  
 This software contains proprietary and confidential information,
 including trade secrets, belonging to Gaussian, Inc.
  
 This software is provided under written license and may be
 used, copied, transmitted, or stored only in accord with that
 written license.
  
 The following legend is applicable only to US Government
 contracts under FAR:
  
                    RESTRICTED RIGHTS LEGEND
  
 Use, reproduction and disclosure by the US Government is
 subject to restrictions as set forth in subparagraphs (a)
 and (c) of the Commercial Computer Software - Restricted
 Rights clause in FAR 52.227-19.
  
 Gaussian, Inc.
 340 Quinnipiac St., Bldg. 40, Wallingford CT 06492
  
  
 ---------------------------------------------------------------
 Warning -- This program may not be used in any manner that
 competes with the business of Gaussian, Inc. or will provide
 assistance to any competitor of Gaussian, Inc.  The licensee
 of this program is prohibited from giving any competitor of
 Gaussian, Inc. access to this program.  By using this program,
 the user acknowledges that Gaussian, Inc. is engaged in the
 business of creating and licensing software in the field of
 computational chemistry and represents and warrants to the
 licensee that it is not a competitor of Gaussian, Inc. and that
 it will not use this program in any manner prohibited above.
 ---------------------------------------------------------------
  

 Cite this work as:
 Gaussian 16, Revision B.01,
 M. J. Frisch, G. W. Trucks, H. B. Schlegel, G. E. Scuseria, 
 M. A. Robb, J. R. Cheeseman, G. Scalmani, V. Barone, 
 G. A. Petersson, H. Nakatsuji, X. Li, M. Caricato, A. V. Marenich, 
 J. Bloino, B. G. Janesko, R. Gomperts, B. Mennucci, H. P. Hratchian, 
 J. V. Ortiz, A. F. Izmaylov, J. L. Sonnenberg, D. Williams-Young, 
 F. Ding, F. Lipparini, F. Egidi, J. Goings, B. Peng, A. Petrone, 
 T. Henderson, D. Ranasinghe, V. G. Zakrzewski, J. Gao, N. Rega, 
 G. Zheng, W. Liang, M. Hada, M. Ehara, K. Toyota, R. Fukuda, 
 J. Hasegawa, M. Ishida, T. Nakajima, Y. Honda, O. Kitao, H. Nakai, 
 T. Vreven, K. Throssell, J. A. Montgomery, Jr., J. E. Peralta, 
 F. Ogliaro, M. J. Bearpark, J. J. Heyd, E. N. Brothers, K. N. Kudin, 
 V. N. Staroverov, T. A. Keith, R. Kobayashi, J. Normand, 
 K. Raghavachari, A. P. Rendell, J. C. Burant, S. S. Iyengar, 
 J. Tomasi, M. Cossi, J. M. Millam, M. Klene, C. Adamo, R. Cammi, 
 J. W. Ochterski, R. L. Martin, K. Morokuma, O. Farkas, 
 J. B. Foresman, and D. J. Fox, Gaussian, Inc., Wallingford CT, 2016.
 
 ******************************************
 Gaussian 16:  ES64L-G16RevB.01 20-Dec-2017
                28-Sep-2020 
 ******************************************
 %nproc=4
 Will use up to    4 processors via shared memory.
 %Chk=SM46_m3.b.5.pdb.xyz.mst.b.w.chk
 %mem=16GB
 ----------------------------------------------------------------------
 #p b3lyp/6-31G(d) opt freq NoSymm scf=(MaxCycle=2000,NoVarAcc,NoIncFoc
 k) scrf=(iefpcm,read,solvent=water)
 ----------------------------------------------------------------------
 1/18=20,19=15,26=3,38=1,40=2/1,3;
 2/9=110,12=2,15=1,17=6,18=5,40=1/2;
 3/5=1,6=6,7=1,11=2,25=1,30=1,70=2203,71=1,72=1,74=-5/1,2,3;
 4//1;
 5/5=100002,7=2000,38=1,53=1/2;
 6/7=2,8=2,9=2,10=2,28=1/1;
 7/30=1/1,2,3,16;
 1/18=20,19=15,26=3/3(2);
 2/9=110,15=1/2;
 99//99;
 2/9=110,15=1/2;
 3/5=1,6=6,7=1,11=2,25=1,30=1,70=2205,71=1,72=1,74=-5/1,2,3;
 4/5=5,16=3,69=1/1;
 5/5=100002,7=2000,38=1,53=1/2;
 7/30=1/1,2,3,16;
 1/18=20,19=15,26=3/3(-5);
 2/9=110,15=1/2;
 6/7=2,8=2,9=2,10=2,19=2,28=1/1;
 99/9=1/99;
 Leave Link    1 at Mon Sep 28 08:22:32 2020, MaxMem=  2147483648 cpu:               0.1 elap:               0.0
 (Enter /prod/apps/gaussian/g16b1/l101.exe)
 -------------------
 SM46_m3.b.5.pdb.xyz
 -------------------
 Symbolic Z-matrix:
 Charge =  2 Multiplicity = 1
 O                    -3.842    -0.791    -1.595 
 S                    -2.791    -0.463    -0.658 
 N                    -1.754     0.59     -1.381 
 C                    -0.421     0.751    -1.027 
 N                     0.196     1.959    -1.032 
 N                     1.466     1.886    -0.701 
 C                     0.549    -0.15     -0.65 
 N                     1.666     0.603    -0.456 
 C                     2.966     0.148    -0.053 
 C                     3.06     -0.93      0.826 
 C                     4.326    -1.365     1.211 
 C                     5.468    -0.724     0.729 
 C                     5.35      0.357    -0.148 
 C                     4.093     0.801    -0.551 
 N                    -3.682     0.558     0.631 
 C                    -4.852    -0.23      1.149 
 C                    -2.767     1.012     1.725 
 O                    -2.029    -1.424     0.112 
 H                    -2.172     1.237    -2.058 
 H                     0.523    -1.218    -0.532 
 H                     2.17     -1.408     1.217 
 H                     4.415    -2.199     1.897 
 H                     6.45     -1.066     1.035 
 H                     6.236     0.852    -0.529 
 H                     3.983     1.626    -1.243 
 H                    -5.482    -0.51      0.309 
 H                    -5.393     0.421     1.833 
 H                    -4.477    -1.107     1.673 
 H                    -2.017     1.683     1.314 
 H                    -2.309     0.138     2.183 
 H                    -3.378     1.546     2.45 
 H                    -4.039     1.385     0.12 
 H                    -0.206     2.873    -1.264 
 
 ITRead=  0  0  0  0  0  0  0  0  0  0  0  0  0  0  0  0  0  0  0  0
 ITRead=  0  0  0  0  0  0  0  0  0  0  0  0  0
 MicOpt= -1 -1 -1 -1 -1 -1 -1 -1 -1 -1 -1 -1 -1 -1 -1 -1 -1 -1 -1 -1
 MicOpt= -1 -1 -1 -1 -1 -1 -1 -1 -1 -1 -1 -1 -1
 NAtoms=     33 NQM=       33 NQMF=       0 NMMI=      0 NMMIF=      0
                NMic=       0 NMicF=      0.
                    Isotopes and Nuclear Properties:
 (Nuclear quadrupole moments (NQMom) in fm**2, nuclear magnetic moments (NMagM)
  in nuclear magnetons)

  Atom         1           2           3           4           5           6           7           8           9          10
 IAtWgt=          16          32          14          12          14          14          12          14          12          12
 AtmWgt=  15.9949146  31.9720718  14.0030740  12.0000000  14.0030740  14.0030740  12.0000000  14.0030740  12.0000000  12.0000000
 NucSpn=           0           0           2           0           2           2           0           2           0           0
 AtZEff=  -0.0000000  -0.0000000  -0.0000000  -0.0000000  -0.0000000  -0.0000000  -0.0000000  -0.0000000  -0.0000000  -0.0000000
 NQMom=    0.0000000   0.0000000   2.0440000   0.0000000   2.0440000   2.0440000   0.0000000   2.0440000   0.0000000   0.0000000
 NMagM=    0.0000000   0.0000000   0.4037610   0.0000000   0.4037610   0.4037610   0.0000000   0.4037610   0.0000000   0.0000000
 AtZNuc=   8.0000000  16.0000000   7.0000000   6.0000000   7.0000000   7.0000000   6.0000000   7.0000000   6.0000000   6.0000000

  Atom        11          12          13          14          15          16          17          18          19          20
 IAtWgt=          12          12          12          12          14          12          12          16           1           1
 AtmWgt=  12.0000000  12.0000000  12.0000000  12.0000000  14.0030740  12.0000000  12.0000000  15.9949146   1.0078250   1.0078250
 NucSpn=           0           0           0           0           2           0           0           0           1           1
 AtZEff=  -0.0000000  -0.0000000  -0.0000000  -0.0000000  -0.0000000  -0.0000000  -0.0000000  -0.0000000  -0.0000000  -0.0000000
 NQMom=    0.0000000   0.0000000   0.0000000   0.0000000   2.0440000   0.0000000   0.0000000   0.0000000   0.0000000   0.0000000
 NMagM=    0.0000000   0.0000000   0.0000000   0.0000000   0.4037610   0.0000000   0.0000000   0.0000000   2.7928460   2.7928460
 AtZNuc=   6.0000000   6.0000000   6.0000000   6.0000000   7.0000000   6.0000000   6.0000000   8.0000000   1.0000000   1.0000000

  Atom        21          22          23          24          25          26          27          28          29          30
 IAtWgt=           1           1           1           1           1           1           1           1           1           1
 AtmWgt=   1.0078250   1.0078250   1.0078250   1.0078250   1.0078250   1.0078250   1.0078250   1.0078250   1.0078250   1.0078250
 NucSpn=           1           1           1           1           1           1           1           1           1           1
 AtZEff=  -0.0000000  -0.0000000  -0.0000000  -0.0000000  -0.0000000  -0.0000000  -0.0000000  -0.0000000  -0.0000000  -0.0000000
 NQMom=    0.0000000   0.0000000   0.0000000   0.0000000   0.0000000   0.0000000   0.0000000   0.0000000   0.0000000   0.0000000
 NMagM=    2.7928460   2.7928460   2.7928460   2.7928460   2.7928460   2.7928460   2.7928460   2.7928460   2.7928460   2.7928460
 AtZNuc=   1.0000000   1.0000000   1.0000000   1.0000000   1.0000000   1.0000000   1.0000000   1.0000000   1.0000000   1.0000000

  Atom        31          32          33
 IAtWgt=           1           1           1
 AtmWgt=   1.0078250   1.0078250   1.0078250
 NucSpn=           1           1           1
 AtZEff=  -0.0000000  -0.0000000  -0.0000000
 NQMom=    0.0000000   0.0000000   0.0000000
 NMagM=    2.7928460   2.7928460   2.7928460
 AtZNuc=   1.0000000   1.0000000   1.0000000
 Leave Link  101 at Mon Sep 28 08:22:33 2020, MaxMem=  2147483648 cpu:               1.3 elap:               0.3
 (Enter /prod/apps/gaussian/g16b1/l103.exe)

 GradGradGradGradGradGradGradGradGradGradGradGradGradGradGradGradGradGrad
 Berny optimization.
 Initialization pass.
                           ----------------------------
                           !    Initial Parameters    !
                           ! (Angstroms and Degrees)  !
 --------------------------                            --------------------------
 ! Name  Definition              Value          Derivative Info.                !
 --------------------------------------------------------------------------------
 ! R1    R(1,2)                  1.4457         estimate D2E/DX2                !
 ! R2    R(2,3)                  1.6453         estimate D2E/DX2                !
 ! R3    R(2,15)                 1.8703         estimate D2E/DX2                !
 ! R4    R(2,18)                 1.4481         estimate D2E/DX2                !
 ! R5    R(3,4)                  1.3886         estimate D2E/DX2                !
 ! R6    R(3,19)                 1.0255         estimate D2E/DX2                !
 ! R7    R(4,5)                  1.3565         estimate D2E/DX2                !
 ! R8    R(4,7)                  1.3765         estimate D2E/DX2                !
 ! R9    R(5,6)                  1.3145         estimate D2E/DX2                !
 ! R10   R(5,33)                 1.0251         estimate D2E/DX2                !
 ! R11   R(6,8)                  1.3214         estimate D2E/DX2                !
 ! R12   R(7,8)                  1.361          estimate D2E/DX2                !
 ! R13   R(7,20)                 1.0748         estimate D2E/DX2                !
 ! R14   R(8,9)                  1.4351         estimate D2E/DX2                !
 ! R15   R(9,10)                 1.3941         estimate D2E/DX2                !
 ! R16   R(9,14)                 1.3945         estimate D2E/DX2                !
 ! R17   R(10,11)                1.3929         estimate D2E/DX2                !
 ! R18   R(10,21)                1.0833         estimate D2E/DX2                !
 ! R19   R(11,12)                1.3955         estimate D2E/DX2                !
 ! R20   R(11,22)                1.0835         estimate D2E/DX2                !
 ! R21   R(12,13)                1.397          estimate D2E/DX2                !
 ! R22   R(12,23)                1.0839         estimate D2E/DX2                !
 ! R23   R(13,14)                1.3927         estimate D2E/DX2                !
 ! R24   R(13,24)                1.0841         estimate D2E/DX2                !
 ! R25   R(14,25)                1.0824         estimate D2E/DX2                !
 ! R26   R(15,16)                1.5027         estimate D2E/DX2                !
 ! R27   R(15,17)                1.4967         estimate D2E/DX2                !
 ! R28   R(15,32)                1.0356         estimate D2E/DX2                !
 ! R29   R(16,26)                1.0867         estimate D2E/DX2                !
 ! R30   R(16,27)                1.0883         estimate D2E/DX2                !
 ! R31   R(16,28)                1.0883         estimate D2E/DX2                !
 ! R32   R(17,29)                1.087          estimate D2E/DX2                !
 ! R33   R(17,30)                1.0878         estimate D2E/DX2                !
 ! R34   R(17,31)                1.0882         estimate D2E/DX2                !
 ! A1    A(1,2,3)              108.578          estimate D2E/DX2                !
 ! A2    A(1,2,15)             102.9564         estimate D2E/DX2                !
 ! A3    A(1,2,18)             125.2108         estimate D2E/DX2                !
 ! A4    A(3,2,15)             104.6994         estimate D2E/DX2                !
 ! A5    A(3,2,18)             109.0704         estimate D2E/DX2                !
 ! A6    A(15,2,18)            104.2701         estimate D2E/DX2                !
 ! A7    A(2,3,4)              124.5584         estimate D2E/DX2                !
 ! A8    A(2,3,19)             115.9117         estimate D2E/DX2                !
 ! A9    A(4,3,19)             119.1069         estimate D2E/DX2                !
 ! A10   A(3,4,5)              122.6139         estimate D2E/DX2                !
 ! A11   A(3,4,7)              132.098          estimate D2E/DX2                !
 ! A12   A(5,4,7)              105.2713         estimate D2E/DX2                !
 ! A13   A(4,5,6)              112.898          estimate D2E/DX2                !
 ! A14   A(4,5,33)             128.0607         estimate D2E/DX2                !
 ! A15   A(6,5,33)             119.0389         estimate D2E/DX2                !
 ! A16   A(5,6,8)              104.291          estimate D2E/DX2                !
 ! A17   A(4,7,8)              104.7876         estimate D2E/DX2                !
 ! A18   A(4,7,20)             131.5611         estimate D2E/DX2                !
 ! A19   A(8,7,20)             123.6394         estimate D2E/DX2                !
 ! A20   A(6,8,7)              112.7394         estimate D2E/DX2                !
 ! A21   A(6,8,9)              119.8028         estimate D2E/DX2                !
 ! A22   A(7,8,9)              127.4508         estimate D2E/DX2                !
 ! A23   A(8,9,10)             118.9014         estimate D2E/DX2                !
 ! A24   A(8,9,14)             118.9054         estimate D2E/DX2                !
 ! A25   A(10,9,14)            122.193          estimate D2E/DX2                !
 ! A26   A(9,10,11)            118.492          estimate D2E/DX2                !
 ! A27   A(9,10,21)            120.8895         estimate D2E/DX2                !
 ! A28   A(11,10,21)           120.6082         estimate D2E/DX2                !
 ! A29   A(10,11,12)           120.323          estimate D2E/DX2                !
 ! A30   A(10,11,22)           119.3416         estimate D2E/DX2                !
 ! A31   A(12,11,22)           120.3319         estimate D2E/DX2                !
 ! A32   A(11,12,13)           120.2084         estimate D2E/DX2                !
 ! A33   A(11,12,23)           119.931          estimate D2E/DX2                !
 ! A34   A(13,12,23)           119.8606         estimate D2E/DX2                !
 ! A35   A(12,13,14)           120.3039         estimate D2E/DX2                !
 ! A36   A(12,13,24)           120.3268         estimate D2E/DX2                !
 ! A37   A(14,13,24)           119.3666         estimate D2E/DX2                !
 ! A38   A(9,14,13)            118.4778         estimate D2E/DX2                !
 ! A39   A(9,14,25)            120.2056         estimate D2E/DX2                !
 ! A40   A(13,14,25)           121.3132         estimate D2E/DX2                !
 ! A41   A(2,15,16)            108.798          estimate D2E/DX2                !
 ! A42   A(2,15,17)            112.2169         estimate D2E/DX2                !
 ! A43   A(2,15,32)            105.0759         estimate D2E/DX2                !
 ! A44   A(16,15,17)           112.5247         estimate D2E/DX2                !
 ! A45   A(16,15,32)           108.6896         estimate D2E/DX2                !
 ! A46   A(17,15,32)           109.2187         estimate D2E/DX2                !
 ! A47   A(15,16,26)           108.6652         estimate D2E/DX2                !
 ! A48   A(15,16,27)           106.8593         estimate D2E/DX2                !
 ! A49   A(15,16,28)           108.6793         estimate D2E/DX2                !
 ! A50   A(26,16,27)           110.5956         estimate D2E/DX2                !
 ! A51   A(26,16,28)           111.3657         estimate D2E/DX2                !
 ! A52   A(27,16,28)           110.5322         estimate D2E/DX2                !
 ! A53   A(15,17,29)           109.4307         estimate D2E/DX2                !
 ! A54   A(15,17,30)           108.7485         estimate D2E/DX2                !
 ! A55   A(15,17,31)           107.0125         estimate D2E/DX2                !
 ! A56   A(29,17,30)           111.3851         estimate D2E/DX2                !
 ! A57   A(29,17,31)           109.6572         estimate D2E/DX2                !
 ! A58   A(30,17,31)           110.4972         estimate D2E/DX2                !
 ! D1    D(1,2,3,4)           -155.2074         estimate D2E/DX2                !
 ! D2    D(1,2,3,19)            32.3515         estimate D2E/DX2                !
 ! D3    D(15,2,3,4)            95.3591         estimate D2E/DX2                !
 ! D4    D(15,2,3,19)          -77.082          estimate D2E/DX2                !
 ! D5    D(18,2,3,4)           -15.7609         estimate D2E/DX2                !
 ! D6    D(18,2,3,19)          171.7981         estimate D2E/DX2                !
 ! D7    D(1,2,15,16)           54.6463         estimate D2E/DX2                !
 ! D8    D(1,2,15,17)          179.8262         estimate D2E/DX2                !
 ! D9    D(1,2,15,32)          -61.6014         estimate D2E/DX2                !
 ! D10   D(3,2,15,16)          168.1205         estimate D2E/DX2                !
 ! D11   D(3,2,15,17)          -66.6996         estimate D2E/DX2                !
 ! D12   D(3,2,15,32)           51.8728         estimate D2E/DX2                !
 ! D13   D(18,2,15,16)         -77.3437         estimate D2E/DX2                !
 ! D14   D(18,2,15,17)          47.8362         estimate D2E/DX2                !
 ! D15   D(18,2,15,32)         166.4086         estimate D2E/DX2                !
 ! D16   D(2,3,4,5)           -142.801          estimate D2E/DX2                !
 ! D17   D(2,3,4,7)             38.9234         estimate D2E/DX2                !
 ! D18   D(19,3,4,5)            29.4159         estimate D2E/DX2                !
 ! D19   D(19,3,4,7)          -148.8597         estimate D2E/DX2                !
 ! D20   D(3,4,5,6)           -178.1974         estimate D2E/DX2                !
 ! D21   D(3,4,5,33)             1.2271         estimate D2E/DX2                !
 ! D22   D(7,4,5,6)              0.4763         estimate D2E/DX2                !
 ! D23   D(7,4,5,33)           179.9008         estimate D2E/DX2                !
 ! D24   D(3,4,7,8)            178.7435         estimate D2E/DX2                !
 ! D25   D(3,4,7,20)            -0.0019         estimate D2E/DX2                !
 ! D26   D(5,4,7,8)              0.2492         estimate D2E/DX2                !
 ! D27   D(5,4,7,20)          -178.4962         estimate D2E/DX2                !
 ! D28   D(4,5,6,8)             -1.0036         estimate D2E/DX2                !
 ! D29   D(33,5,6,8)           179.5147         estimate D2E/DX2                !
 ! D30   D(5,6,8,7)              1.1754         estimate D2E/DX2                !
 ! D31   D(5,6,8,9)           -179.7132         estimate D2E/DX2                !
 ! D32   D(4,7,8,6)             -0.9069         estimate D2E/DX2                !
 ! D33   D(4,7,8,9)           -179.9356         estimate D2E/DX2                !
 ! D34   D(20,7,8,6)           177.9655         estimate D2E/DX2                !
 ! D35   D(20,7,8,9)            -1.0632         estimate D2E/DX2                !
 ! D36   D(6,8,9,10)           147.0779         estimate D2E/DX2                !
 ! D37   D(6,8,9,14)           -32.7618         estimate D2E/DX2                !
 ! D38   D(7,8,9,10)           -33.9544         estimate D2E/DX2                !
 ! D39   D(7,8,9,14)           146.2059         estimate D2E/DX2                !
 ! D40   D(8,9,10,11)          179.9683         estimate D2E/DX2                !
 ! D41   D(8,9,10,21)           -1.1901         estimate D2E/DX2                !
 ! D42   D(14,9,10,11)          -0.1975         estimate D2E/DX2                !
 ! D43   D(14,9,10,21)         178.6442         estimate D2E/DX2                !
 ! D44   D(8,9,14,13)          179.6343         estimate D2E/DX2                !
 ! D45   D(8,9,14,25)           -1.03           estimate D2E/DX2                !
 ! D46   D(10,9,14,13)          -0.2            estimate D2E/DX2                !
 ! D47   D(10,9,14,25)         179.1357         estimate D2E/DX2                !
 ! D48   D(9,10,11,12)           0.4101         estimate D2E/DX2                !
 ! D49   D(9,10,11,22)         179.7386         estimate D2E/DX2                !
 ! D50   D(21,10,11,12)       -178.435          estimate D2E/DX2                !
 ! D51   D(21,10,11,22)          0.8936         estimate D2E/DX2                !
 ! D52   D(10,11,12,13)         -0.2279         estimate D2E/DX2                !
 ! D53   D(10,11,12,23)        179.8246         estimate D2E/DX2                !
 ! D54   D(22,11,12,13)       -179.5497         estimate D2E/DX2                !
 ! D55   D(22,11,12,23)          0.5027         estimate D2E/DX2                !
 ! D56   D(11,12,13,14)         -0.1802         estimate D2E/DX2                !
 ! D57   D(11,12,13,24)       -179.5756         estimate D2E/DX2                !
 ! D58   D(23,12,13,14)        179.7674         estimate D2E/DX2                !
 ! D59   D(23,12,13,24)          0.3721         estimate D2E/DX2                !
 ! D60   D(12,13,14,9)           0.3874         estimate D2E/DX2                !
 ! D61   D(12,13,14,25)       -178.9406         estimate D2E/DX2                !
 ! D62   D(24,13,14,9)         179.7886         estimate D2E/DX2                !
 ! D63   D(24,13,14,25)          0.4605         estimate D2E/DX2                !
 ! D64   D(2,15,16,26)         -56.0905         estimate D2E/DX2                !
 ! D65   D(2,15,16,27)        -175.4537         estimate D2E/DX2                !
 ! D66   D(2,15,16,28)          65.2506         estimate D2E/DX2                !
 ! D67   D(17,15,16,26)        178.9099         estimate D2E/DX2                !
 ! D68   D(17,15,16,27)         59.5466         estimate D2E/DX2                !
 ! D69   D(17,15,16,28)        -59.749          estimate D2E/DX2                !
 ! D70   D(32,15,16,26)         57.8129         estimate D2E/DX2                !
 ! D71   D(32,15,16,27)        -61.5504         estimate D2E/DX2                !
 ! D72   D(32,15,16,28)        179.1539         estimate D2E/DX2                !
 ! D73   D(2,15,17,29)          64.3372         estimate D2E/DX2                !
 ! D74   D(2,15,17,30)         -57.5371         estimate D2E/DX2                !
 ! D75   D(2,15,17,31)        -176.9143         estimate D2E/DX2                !
 ! D76   D(16,15,17,29)       -172.5556         estimate D2E/DX2                !
 ! D77   D(16,15,17,30)         65.5701         estimate D2E/DX2                !
 ! D78   D(16,15,17,31)        -53.8072         estimate D2E/DX2                !
 ! D79   D(32,15,17,29)        -51.7616         estimate D2E/DX2                !
 ! D80   D(32,15,17,30)       -173.636          estimate D2E/DX2                !
 ! D81   D(32,15,17,31)         66.9868         estimate D2E/DX2                !
 --------------------------------------------------------------------------------
 Trust Radius=3.00D-01 FncErr=1.00D-07 GrdErr=1.00D-06 EigMax=2.50D+02 EigMin=1.00D-04
 Number of steps in this run=    183 maximum allowed number of steps=    198.
 GradGradGradGradGradGradGradGradGradGradGradGradGradGradGradGradGradGrad

 Leave Link  103 at Mon Sep 28 08:22:33 2020, MaxMem=  2147483648 cpu:               0.1 elap:               0.0
 (Enter /prod/apps/gaussian/g16b1/l202.exe)
                          Input orientation:                          
 ---------------------------------------------------------------------
 Center     Atomic      Atomic             Coordinates (Angstroms)
 Number     Number       Type             X           Y           Z
 ---------------------------------------------------------------------
      1          8           0       -3.842000   -0.791000   -1.595000
      2         16           0       -2.791000   -0.463000   -0.658000
      3          7           0       -1.754000    0.590000   -1.381000
      4          6           0       -0.421000    0.751000   -1.027000
      5          7           0        0.196000    1.959000   -1.032000
      6          7           0        1.466000    1.886000   -0.701000
      7          6           0        0.549000   -0.150000   -0.650000
      8          7           0        1.666000    0.603000   -0.456000
      9          6           0        2.966000    0.148000   -0.053000
     10          6           0        3.060000   -0.930000    0.826000
     11          6           0        4.326000   -1.365000    1.211000
     12          6           0        5.468000   -0.724000    0.729000
     13          6           0        5.350000    0.357000   -0.148000
     14          6           0        4.093000    0.801000   -0.551000
     15          7           0       -3.682000    0.558000    0.631000
     16          6           0       -4.852000   -0.230000    1.149000
     17          6           0       -2.767000    1.012000    1.725000
     18          8           0       -2.029000   -1.424000    0.112000
     19          1           0       -2.172000    1.237000   -2.058000
     20          1           0        0.523000   -1.218000   -0.532000
     21          1           0        2.170000   -1.408000    1.217000
     22          1           0        4.415000   -2.199000    1.897000
     23          1           0        6.450000   -1.066000    1.035000
     24          1           0        6.236000    0.852000   -0.529000
     25          1           0        3.983000    1.626000   -1.243000
     26          1           0       -5.482000   -0.510000    0.309000
     27          1           0       -5.393000    0.421000    1.833000
     28          1           0       -4.477000   -1.107000    1.673000
     29          1           0       -2.017000    1.683000    1.314000
     30          1           0       -2.309000    0.138000    2.183000
     31          1           0       -3.378000    1.546000    2.450000
     32          1           0       -4.039000    1.385000    0.120000
     33          1           0       -0.206000    2.873000   -1.264000
 ---------------------------------------------------------------------
                    Distance matrix (angstroms):
                    1          2          3          4          5
     1  O    0.000000
     2  S    1.445736   0.000000
     3  N    2.512509   1.645268   0.000000
     4  C    3.795211   2.688281   1.388570   0.000000
     5  N    4.917816   3.863694   2.408000   1.356458   0.000000
     6  N    6.011691   4.862273   3.537007   2.226044   1.314454
     7  C    4.537046   3.354643   2.527008   1.376528   2.172191
     8  N    5.794706   4.587157   3.542908   2.168759   2.081204
     9  C    7.043319   5.820859   4.923144   3.575480   3.451241
    10  C    7.315611   6.054300   5.509614   4.286809   4.472246
    11  C    8.655596   7.413397   6.892524   5.658631   5.756468
    12  C    9.595914   8.378721   7.637799   6.319769   6.172001
    13  C    9.375744   8.198072   7.213972   5.850839   5.469148
    14  C    8.160185   6.999900   5.909385   4.539303   4.093768
    15  N    2.607772   1.870252   2.786818   3.663377   4.446038
    16  C    2.977307   2.750865   4.083002   5.033001   5.918681
    17  C    3.927955   2.802658   3.294160   3.625650   4.156588
    18  O    2.569340   1.448125   2.522077   2.934895   4.207618
    19  H    2.667593   2.287610   1.025506   2.089296   2.679810
    20  H    4.512818   3.401249   3.028926   2.239000   3.232686
    21  H    6.665747   5.387037   5.112669   4.050938   4.504594
    22  H    9.074942   7.840163   7.521992   6.374886   6.608174
    23  H   10.626278   9.414135   8.711200   7.400269   7.248147
    24  H   10.266542   9.123190   8.039568   6.676365   6.161173
    25  H    8.197342   7.112891   5.831424   4.495275   3.807464
    26  H    2.528592   2.859856   4.238406   5.384119   6.335134
    27  H    3.952939   3.709035   4.858053   5.745371   6.466111
    28  H    3.344085   2.948032   4.429611   5.214720   6.209212
    29  H    4.232444   3.015489   2.920076   2.982637   3.236860
    30  H    4.181676   2.943604   3.635165   3.774177   4.463999
    31  H    4.694560   3.747041   4.269411   4.633077   5.006832
    32  H    2.777591   2.361756   2.847148   3.848050   4.426263
    33  H    5.172519   4.263608   2.760812   2.145991   1.025097
                    6          7          8          9         10
     6  N    0.000000
     7  C    2.233559   0.000000
     8  N    1.321406   1.361005   0.000000
     9  C    2.385487   2.507409   1.435073   0.000000
    10  C    3.578047   3.015310   2.436565   1.394117   0.000000
    11  C    4.733323   4.382382   3.705066   2.395092   1.392913
    12  C    4.987284   5.140786   4.197661   2.762592   2.418741
    13  C    4.210594   4.853726   3.705028   2.395029   2.801633
    14  C    2.846200   3.670714   2.436916   1.394468   2.441225
    15  N    5.480850   4.477006   5.457536   6.695660   6.907006
    16  C    6.914990   5.693294   6.764188   7.918890   7.949470
    17  C    4.956576   4.241076   4.957371   6.064245   6.207535
    18  O    4.881813   2.974862   4.252573   5.239125   5.162534
    19  H    3.936711   3.363045   4.206971   5.621832   6.355090
    20  H    3.248481   1.074813   2.151341   2.839656   2.891968
    21  H    3.876181   2.774147   2.664032   2.160475   1.083266
    22  H    5.668636   5.062763   4.576550   3.377945   2.143228
    23  H    6.047169   6.204843   5.281600   3.846530   3.399158
    24  H    4.883814   5.775865   4.577361   3.378623   3.885682
    25  H    2.587789   3.911289   2.652242   2.152876   3.415527
    26  H    7.418600   6.117372   7.274469   8.481315   8.567932
    27  H    7.457430   6.465191   7.423081   8.573471   8.619307
    28  H    7.064926   5.618973   6.722588   7.742890   7.586508
    29  H    4.028985   3.715043   4.226558   5.390288   5.730780
    30  H    5.061974   4.034476   4.793868   5.729347   5.639879
    31  H    5.788673   5.282778   5.897120   6.961735   7.086310
    32  H    5.588387   4.898864   5.787083   7.115485   7.500231
    33  H    2.021564   3.175775   3.051254   4.353588   5.431175
                   11         12         13         14         15
    11  C    0.000000
    12  C    1.395482   0.000000
    13  C    2.420897   1.397002   0.000000
    14  C    2.801872   2.419638   1.392693   0.000000
    15  N    8.256052   9.239893   9.067760   7.868087   0.000000
    16  C    9.248122  10.340350  10.300853   9.163296   1.502720
    17  C    7.498331   8.474723   8.356006   7.230788   1.496722
    18  O    6.449597   7.554846   7.595341   6.547448   2.632507
    19  H    7.725333   8.365554   7.810441   6.458434   3.157826
    20  H    4.185985   5.127103   5.091955   4.101417   4.710496
    21  H    2.156437   3.403352   3.884694   3.421028   6.201166
    22  H    1.083546   2.156075   3.404319   3.885407   8.646688
    23  H    2.152151   1.083939   2.152770   3.399490  10.269275
    24  H    3.404525   2.157815   1.084058   2.143720   9.989933
    25  H    3.884050   3.408300   2.162886   1.082400   7.962708
    26  H    9.886430  10.960141  10.876248   9.702523   2.117618
    27  H    9.901295  10.976847  10.924308   9.788363   2.095494
    28  H    8.818890   9.997042  10.100954   9.057126   2.118965
    29  H    7.038079   7.884231   7.626822   6.448895   2.122343
    30  H    6.872192   7.958573   8.008858   6.992848   2.114293
    31  H    8.328305   9.293356   9.183752   8.085596   2.092205
    32  H    8.872768   9.757142   9.448912   8.180509   1.035615
    33  H    6.680217   7.007477   6.200391   4.825241   4.586156
                   16         17         18         19         20
    16  C    0.000000
    17  C    2.494307   0.000000
    18  O    3.235790   3.013388   0.000000
    19  H    4.429372   3.836110   3.436607   0.000000
    20  H    5.717738   4.570673   2.640052   3.952053   0.000000
    21  H    7.120449   5.521633   4.341991   6.047695   2.409919
    22  H    9.503355   7.869004   6.731418   8.416454   4.691489
    23  H   11.333450   9.473504   8.536600   9.445070   6.132530
    24  H   11.266328   9.282248   8.596585   8.554562   6.076453
    25  H    9.339359   7.399224   6.876239   6.220898   4.534915
    26  H    1.086692   3.419469   3.577347   4.428408   6.104799
    27  H    1.088273   2.693849   4.205040   5.116696   6.578647
    28  H    1.088269   2.723411   2.920602   4.972698   5.465743
    29  H    3.424035   1.087043   3.331426   3.404897   4.274941
    30  H    2.769734   1.087844   2.609077   4.383224   4.150926
    31  H    2.649425   1.088165   4.013346   4.676749   5.634698
    32  H    2.080393   2.081619   3.454077   2.872504   5.292689
    33  H    6.085762   4.353868   4.866304   2.678075   4.219425
                   21         22         23         24         25
    21  H    0.000000
    22  H    2.475501   0.000000
    23  H    4.297498   2.483537   0.000000
    24  H    4.968750   4.302339   2.484072   0.000000
    25  H    4.306243   4.967580   4.303747   2.486942   0.000000
    26  H    7.757833  10.164894  11.966989  11.826615   9.826364
    27  H    7.805361  10.152111  11.962634  11.874277   9.940985
    28  H    6.669419   8.961602  10.945687  11.111024   9.356492
    29  H    5.205253   7.535279   8.906454   8.497012   6.522384
    30  H    4.835774   7.124292   8.915582   8.993429   7.317164
    31  H    6.405210   8.663815  10.267149  10.088859   8.235835
    32  H    6.896081   9.352695  10.810354  10.309264   8.140536
    33  H    5.488870   7.554518   8.068671   6.791467   4.370717
                   26         27         28         29         30
    26  H    0.000000
    27  H    1.788088   0.000000
    28  H    1.796366   1.788698   0.000000
    29  H    4.222025   3.641343   3.736921   0.000000
    30  H    3.741619   3.116672   2.551539   1.796511   0.000000
    31  H    3.638383   2.388836   2.974885   1.778085   1.787880
    32  H    2.389350   2.386835   2.968790   2.367050   2.967133
    33  H    6.461826   6.519868   6.535121   3.367774   4.876950
                   31         32         33
    31  H    0.000000
    32  H    2.427291   0.000000
    33  H    5.061256   4.338374   0.000000
 Symmetry turned off by external request.
 Stoichiometry    C10H15N5O2S(2+)
 Framework group  C1[X(C10H15N5O2S)]
 Deg. of freedom    93
 Full point group                 C1      NOp   1
 Rotational constants (GHZ):           0.9986464           0.1678934           0.1605578
 Leave Link  202 at Mon Sep 28 08:22:33 2020, MaxMem=  2147483648 cpu:               0.0 elap:               0.0
 (Enter /prod/apps/gaussian/g16b1/l301.exe)
 Standard basis: 6-31G(d) (6D, 7F)
 Ernie: Thresh=  0.10000D-02 Tol=  0.10000D-05 Strict=F.
   304 basis functions,   588 primitive gaussians,   304 cartesian basis functions
    70 alpha electrons       70 beta electrons
       nuclear repulsion energy      1501.9305348797 Hartrees.
 IExCor=  402 DFT=T Ex+Corr=B3LYP ExCW=0 ScaHFX=  0.200000
 ScaDFX=  0.800000  0.720000  1.000000  0.810000 ScalE2=  1.000000  1.000000
 IRadAn=      5 IRanWt=     -1 IRanGd=            0 ICorTp=0 IEmpDi=  4
 NAtoms=   33 NActive=   33 NUniq=   33 SFac= 1.00D+00 NAtFMM=   60 NAOKFM=F Big=F
 Integral buffers will be    131072 words long.
 Raffenetti 2 integral format.
 Two-electron integral symmetry is turned off.
 Using the following non-standard input for PCM:
 MSTModel=DFT cav MSTcharged
 --- end of non-standard input.
 MST model for solvation energy: B3LYP parametrization.
 MST cavity parameters:
 ISph   IAn     Re0     Alpha   Atom Type   QCorr
 ------------------------------------------------
   1      8     1.40     1.25      O          F
   2     16     1.75     1.25      S          F
   3      7     1.50     1.25      NH         F
   4      6     1.50     1.25      C          F
   5      7     1.50     1.15      NH         T
   6      7     1.40     1.25      N          F
   7      6     1.50     1.25      CH         F
   8      7     1.40     1.25      N          F
   9      6     1.50     1.25      C          F
  10      6     1.50     1.25      CH         F
  11      6     1.50     1.25      CH         F
  12      6     1.50     1.25      CH         F
  13      6     1.50     1.25      CH         F
  14      6     1.50     1.25      CH         F
  15      7     1.50     1.15      NH         T
  16      6     1.50     1.25      CH3        F
  17      6     1.50     1.25      CH3        F
  18      8     1.40     1.25      O          F
  19      1     0.90     1.25      NH         F
  20      1     1.20     1.25      CH         F
  21      1     1.20     1.25      CH         F
  22      1     1.20     1.25      CH         F
  23      1     1.20     1.25      CH         F
  24      1     1.20     1.25      CH         F
  25      1     1.20     1.25      CH         F
  26      1     1.20     1.25      CH3        F
  27      1     1.20     1.25      CH3        F
  28      1     1.20     1.25      CH3        F
  29      1     1.20     1.25      CH3        F
  30      1     1.20     1.25      CH3        F
  31      1     1.20     1.25      CH3        F
  32      1     0.90     1.15      NH         T
  33      1     0.90     1.15      NH         T
 ------------------------------------------------------------------------------
 Polarizable Continuum Model (PCM)
 =================================
 Model                : PCM.
 Atomic radii         : MST.
 Polarization charges : Total charges.
 Charge compensation  : None.
 Solution method      : On-the-fly selection.
 Cavity type          : Scaled VdW (van der Waals Surface) (Alpha=1.250).
 Cavity algorithm     : GePol (No added spheres)
                        Default sphere list used, NSphG=   33.
                        Lebedev-Laikov grids with approx.  5.0 points / Ang**2.
                        Smoothing algorithm: York/Karplus (Gamma=1.0000).
                        Polarization charges: spherical gaussians, with
                                              point-specific exponents (IZeta= 3).
                        Self-potential: point-specific (ISelfS= 7).
                        Self-field    : sphere-specific E.n sum rule (ISelfD= 2).
 1st derivatives      : Analytical E(r).r(x)/FMM algorithm (CHGder, D1EAlg=3).
                        Cavity 1st derivative terms included.
 Solvent              : Water, Eps=  78.355300 Eps(inf)=   1.777849
 ------------------------------------------------------------------------------
 GePol: Number of generator spheres                  =      33
 GePol: Total number of spheres                      =      33
 GePol: Number of exposed spheres                    =      33 (100.00%)
 GePol: Number of points                             =    2389
 GePol: Average weight of points                     =       0.13
 GePol: Minimum weight of points                     =   0.95D-08
 GePol: Maximum weight of points                     =    0.22001
 GePol: Number of points with low weight             =     141
 GePol: Fraction of low-weight points (<1% of avg)   =       5.90%
 GePol: Cavity surface area                          =    310.063 Ang**2
 GePol: Cavity volume                                =    294.006 Ang**3
 PCM non-electrostatic energy =         0.0021857570 Hartrees.
 Nuclear repulsion after PCM non-electrostatic terms =     1501.9327206367 Hartrees.
 Leave Link  301 at Mon Sep 28 08:22:33 2020, MaxMem=  2147483648 cpu:               0.3 elap:               0.1
 (Enter /prod/apps/gaussian/g16b1/l302.exe)
 NPDir=0 NMtPBC=     1 NCelOv=     1 NCel=       1 NClECP=     1 NCelD=      1
         NCelK=      1 NCelE2=     1 NClLst=     1 CellRange=     0.0.
 One-electron integrals computed using PRISM.
 NBasis=   304 RedAO= T EigKep=  4.73D-04  NBF=   304
 NBsUse=   304 1.00D-06 EigRej= -1.00D+00 NBFU=   304
 Precomputing XC quadrature grid using
 IXCGrd= 4 IRadAn=           5 IRanWt=          -1 IRanGd=           0 AccXCQ= 0.00D+00.
 Generated NRdTot=       0 NPtTot=           0 NUsed=           0 NTot=          32
 NSgBfM=   302   302   302   302   302 MxSgAt=    33 MxSgA2=    33.
 Leave Link  302 at Mon Sep 28 08:22:33 2020, MaxMem=  2147483648 cpu:               1.5 elap:               0.4
 (Enter /prod/apps/gaussian/g16b1/l303.exe)
 DipDrv:  MaxL=1.
 Leave Link  303 at Mon Sep 28 08:22:33 2020, MaxMem=  2147483648 cpu:               0.1 elap:               0.1
 (Enter /prod/apps/gaussian/g16b1/l401.exe)
 ExpMin= 1.17D-01 ExpMax= 2.19D+04 ExpMxC= 3.30D+03 IAcc=3 IRadAn=         5 AccDes= 0.00D+00
 Harris functional with IExCor=  402 and IRadAn=       5 diagonalized for initial guess.
 HarFok:  IExCor=  402 AccDes= 0.00D+00 IRadAn=         5 IDoV= 1 UseB2=F ITyADJ=14
 ICtDFT=  3500011 ScaDFX=  1.000000  1.000000  1.000000  1.000000
 FoFCou: FMM=F IPFlag=           0 FMFlag=      100000 FMFlg1=           0
         NFxFlg=           0 DoJE=T BraDBF=F KetDBF=T FulRan=T
         wScrn=  0.000000 ICntrl=       500 IOpCl=  0 I1Cent=   200000004 NGrid=           0
         NMat0=    1 NMatS0=      1 NMatT0=    0 NMatD0=    1 NMtDS0=    0 NMtDT0=    0
 Symmetry not used in FoFCou.
 Harris En= -1211.95992752097    
 JPrj=0 DoOrth=F DoCkMO=F.
 Leave Link  401 at Mon Sep 28 08:22:35 2020, MaxMem=  2147483648 cpu:               7.8 elap:               2.0
 (Enter /prod/apps/gaussian/g16b1/l502.exe)
 Two-electron integral symmetry not used.
 Closed shell SCF:
 Using DIIS extrapolation, IDIIS=  1040.
 NGot=  2147483648 LenX=  2147294283 LenY=  2147201426
 Requested convergence on RMS density matrix=1.00D-08 within2000 cycles.
 Requested convergence on MAX density matrix=1.00D-06.
 Requested convergence on             energy=1.00D-06.
 No special actions if energy rises.

 Cycle   1  Pass 1  IDiag  1:
 FoFJK:  IHMeth= 1 ICntrl=       0 DoSepK=F KAlg= 0 I1Cent=           0 FoldK=F
 IRaf= 760000000 NMat=       1 IRICut=       1 DoRegI=T DoRafI=F ISym2E= 0 IDoP0=0 IntGTp=1.
 FoFCou: FMM=F IPFlag=           0 FMFlag=      100000 FMFlg1=           0
         NFxFlg=           0 DoJE=F BraDBF=F KetDBF=F FulRan=T
         wScrn=  0.000000 ICntrl=         0 IOpCl=  0 I1Cent=           0 NGrid=           0
         NMat0=    1 NMatS0=      1 NMatT0=    0 NMatD0=    1 NMtDS0=    0 NMtDT0=    0
 Symmetry not used in FoFCou.
 Inv3:  Mode=1 IEnd=    17121963.
 Iteration    1 A*A^-1 deviation from unit magnitude is 3.00D-15 for   1116.
 Iteration    1 A*A^-1 deviation from orthogonality  is 2.54D-15 for   2086   1962.
 Iteration    1 A^-1*A deviation from unit magnitude is 3.11D-15 for     76.
 Iteration    1 A^-1*A deviation from orthogonality  is 4.97D-15 for   2357   2318.
 E= -1211.53023371804    
 DIIS: error= 3.11D-02 at cycle   1 NSaved=   1.
 NSaved= 1 IEnMin= 1 EnMin= -1211.53023371804     IErMin= 1 ErrMin= 3.11D-02
 ErrMax= 3.11D-02  0.00D+00 EMaxC= 1.00D-01 BMatC= 6.09D-01 BMatP= 6.09D-01
 IDIUse=3 WtCom= 6.89D-01 WtEn= 3.11D-01
 Coeff-Com:  0.100D+01
 Coeff-En:   0.100D+01
 Coeff:      0.100D+01
 Gap=     0.359 Goal=   None    Shift=    0.000
 GapD=    0.359 DampG=1.000 DampE=0.500 DampFc=0.5000 IDamp=-1.
 Damping current iteration by 5.00D-01
 RMSDP=6.53D-03 MaxDP=6.66D-01              OVMax= 2.80D-01

 Cycle   2  Pass 1  IDiag  1:
 E= -1211.61541471377     Delta-E=       -0.085180995728 Rises=F Damp=T
 DIIS: error= 1.58D-02 at cycle   2 NSaved=   2.
 NSaved= 2 IEnMin= 2 EnMin= -1211.61541471377     IErMin= 2 ErrMin= 1.58D-02
 ErrMax= 1.58D-02  0.00D+00 EMaxC= 1.00D-01 BMatC= 1.26D-01 BMatP= 6.09D-01
 IDIUse=3 WtCom= 8.42D-01 WtEn= 1.58D-01
 Coeff-Com:  0.270D+00 0.730D+00
 Coeff-En:   0.425D+00 0.575D+00
 Coeff:      0.294D+00 0.706D+00
 Gap=     0.174 Goal=   None    Shift=    0.000
 RMSDP=1.85D-03 MaxDP=1.45D-01 DE=-8.52D-02 OVMax= 2.40D-01

 Cycle   3  Pass 1  IDiag  1:
 E= -1212.01982780515     Delta-E=       -0.404413091383 Rises=F Damp=F
 DIIS: error= 9.60D-03 at cycle   3 NSaved=   3.
 NSaved= 3 IEnMin= 3 EnMin= -1212.01982780515     IErMin= 3 ErrMin= 9.60D-03
 ErrMax= 9.60D-03  0.00D+00 EMaxC= 1.00D-01 BMatC= 4.80D-02 BMatP= 1.26D-01
 IDIUse=3 WtCom= 9.04D-01 WtEn= 9.60D-02
 Coeff-Com:  0.917D-01 0.386D+00 0.522D+00
 Coeff-En:   0.000D+00 0.000D+00 0.100D+01
 Coeff:      0.829D-01 0.349D+00 0.568D+00
 Gap=     0.196 Goal=   None    Shift=    0.000
 RMSDP=8.82D-04 MaxDP=3.03D-02 DE=-4.04D-01 OVMax= 4.87D-02

 Cycle   4  Pass 1  IDiag  1:
 E= -1212.05478677894     Delta-E=       -0.034958973789 Rises=F Damp=F
 DIIS: error= 3.52D-03 at cycle   4 NSaved=   4.
 NSaved= 4 IEnMin= 4 EnMin= -1212.05478677894     IErMin= 4 ErrMin= 3.52D-03
 ErrMax= 3.52D-03  0.00D+00 EMaxC= 1.00D-01 BMatC= 8.05D-03 BMatP= 4.80D-02
 IDIUse=3 WtCom= 9.65D-01 WtEn= 3.52D-02
 Coeff-Com:  0.374D-02 0.783D-01 0.307D+00 0.611D+00
 Coeff-En:   0.000D+00 0.000D+00 0.135D+00 0.865D+00
 Coeff:      0.361D-02 0.755D-01 0.301D+00 0.620D+00
 Gap=     0.184 Goal=   None    Shift=    0.000
 RMSDP=3.10D-04 MaxDP=1.23D-02 DE=-3.50D-02 OVMax= 1.87D-02

 Cycle   5  Pass 1  IDiag  1:
 E= -1212.06107712636     Delta-E=       -0.006290347421 Rises=F Damp=F
 DIIS: error= 7.84D-04 at cycle   5 NSaved=   5.
 NSaved= 5 IEnMin= 5 EnMin= -1212.06107712636     IErMin= 5 ErrMin= 7.84D-04
 ErrMax= 7.84D-04  0.00D+00 EMaxC= 1.00D-01 BMatC= 7.67D-04 BMatP= 8.05D-03
 IDIUse=3 WtCom= 9.92D-01 WtEn= 7.84D-03
 Coeff-Com: -0.476D-02 0.193D-01 0.129D+00 0.347D+00 0.509D+00
 Coeff-En:   0.000D+00 0.000D+00 0.000D+00 0.570D-02 0.994D+00
 Coeff:     -0.473D-02 0.191D-01 0.128D+00 0.345D+00 0.513D+00
 Gap=     0.186 Goal=   None    Shift=    0.000
 RMSDP=1.02D-04 MaxDP=4.87D-03 DE=-6.29D-03 OVMax= 9.82D-03

 Cycle   6  Pass 1  IDiag  1:
 E= -1212.06172806140     Delta-E=       -0.000650935038 Rises=F Damp=F
 DIIS: error= 3.75D-04 at cycle   6 NSaved=   6.
 NSaved= 6 IEnMin= 6 EnMin= -1212.06172806140     IErMin= 6 ErrMin= 3.75D-04
 ErrMax= 3.75D-04  0.00D+00 EMaxC= 1.00D-01 BMatC= 6.46D-05 BMatP= 7.67D-04
 IDIUse=3 WtCom= 9.96D-01 WtEn= 3.75D-03
 Coeff-Com: -0.313D-02 0.449D-02 0.414D-01 0.130D+00 0.284D+00 0.543D+00
 Coeff-En:   0.000D+00 0.000D+00 0.000D+00 0.000D+00 0.128D-01 0.987D+00
 Coeff:     -0.312D-02 0.447D-02 0.412D-01 0.129D+00 0.283D+00 0.545D+00
 Gap=     0.185 Goal=   None    Shift=    0.000
 RMSDP=3.00D-05 MaxDP=1.76D-03 DE=-6.51D-04 OVMax= 3.25D-03

 Cycle   7  Pass 1  IDiag  1:
 E= -1212.06178356873     Delta-E=       -0.000055507326 Rises=F Damp=F
 DIIS: error= 1.40D-04 at cycle   7 NSaved=   7.
 NSaved= 7 IEnMin= 7 EnMin= -1212.06178356873     IErMin= 7 ErrMin= 1.40D-04
 ErrMax= 1.40D-04  0.00D+00 EMaxC= 1.00D-01 BMatC= 8.40D-06 BMatP= 6.46D-05
 IDIUse=3 WtCom= 9.99D-01 WtEn= 1.40D-03
 Coeff-Com: -0.158D-02 0.867D-03 0.126D-01 0.454D-01 0.124D+00 0.329D+00
 Coeff-Com:  0.490D+00
 Coeff-En:   0.000D+00 0.000D+00 0.000D+00 0.000D+00 0.000D+00 0.465D-01
 Coeff-En:   0.954D+00
 Coeff:     -0.157D-02 0.866D-03 0.126D-01 0.453D-01 0.123D+00 0.329D+00
 Coeff:      0.490D+00
 Gap=     0.185 Goal=   None    Shift=    0.000
 RMSDP=8.72D-06 MaxDP=5.58D-04 DE=-5.55D-05 OVMax= 6.36D-04

 Cycle   8  Pass 1  IDiag  1:
 E= -1212.06179038143     Delta-E=       -0.000006812707 Rises=F Damp=F
 DIIS: error= 2.03D-05 at cycle   8 NSaved=   8.
 NSaved= 8 IEnMin= 8 EnMin= -1212.06179038143     IErMin= 8 ErrMin= 2.03D-05
 ErrMax= 2.03D-05  0.00D+00 EMaxC= 1.00D-01 BMatC= 3.65D-07 BMatP= 8.40D-06
 IDIUse=1 WtCom= 1.00D+00 WtEn= 0.00D+00
 Coeff-Com: -0.400D-03-0.210D-04 0.989D-03 0.587D-02 0.242D-01 0.913D-01
 Coeff-Com:  0.221D+00 0.657D+00
 Coeff:     -0.400D-03-0.210D-04 0.989D-03 0.587D-02 0.242D-01 0.913D-01
 Coeff:      0.221D+00 0.657D+00
 Gap=     0.185 Goal=   None    Shift=    0.000
 RMSDP=2.11D-06 MaxDP=1.11D-04 DE=-6.81D-06 OVMax= 1.16D-04

 Cycle   9  Pass 1  IDiag  1:
 E= -1212.06179065035     Delta-E=       -0.000000268919 Rises=F Damp=F
 DIIS: error= 7.56D-06 at cycle   9 NSaved=   9.
 NSaved= 9 IEnMin= 9 EnMin= -1212.06179065035     IErMin= 9 ErrMin= 7.56D-06
 ErrMax= 7.56D-06  0.00D+00 EMaxC= 1.00D-01 BMatC= 5.13D-08 BMatP= 3.65D-07
 IDIUse=1 WtCom= 1.00D+00 WtEn= 0.00D+00
 Coeff-Com: -0.562D-04-0.676D-04-0.740D-03-0.145D-02 0.244D-03 0.147D-01
 Coeff-Com:  0.651D-01 0.339D+00 0.583D+00
 Coeff:     -0.562D-04-0.676D-04-0.740D-03-0.145D-02 0.244D-03 0.147D-01
 Coeff:      0.651D-01 0.339D+00 0.583D+00
 Gap=     0.185 Goal=   None    Shift=    0.000
 RMSDP=7.92D-07 MaxDP=2.86D-05 DE=-2.69D-07 OVMax= 5.11D-05

 Cycle  10  Pass 1  IDiag  1:
 E= -1212.06179068848     Delta-E=       -0.000000038132 Rises=F Damp=F
 DIIS: error= 4.80D-06 at cycle  10 NSaved=  10.
 NSaved=10 IEnMin=10 EnMin= -1212.06179068848     IErMin=10 ErrMin= 4.80D-06
 ErrMax= 4.80D-06  0.00D+00 EMaxC= 1.00D-01 BMatC= 7.00D-09 BMatP= 5.13D-08
 IDIUse=1 WtCom= 1.00D+00 WtEn= 0.00D+00
 Coeff-Com: -0.822D-05-0.364D-04-0.507D-03-0.124D-02-0.164D-02 0.191D-02
 Coeff-Com:  0.214D-01 0.151D+00 0.344D+00 0.486D+00
 Coeff:     -0.822D-05-0.364D-04-0.507D-03-0.124D-02-0.164D-02 0.191D-02
 Coeff:      0.214D-01 0.151D+00 0.344D+00 0.486D+00
 Gap=     0.185 Goal=   None    Shift=    0.000
 RMSDP=2.91D-07 MaxDP=1.57D-05 DE=-3.81D-08 OVMax= 1.77D-05

 Cycle  11  Pass 1  IDiag  1:
 E= -1212.06179069395     Delta-E=       -0.000000005468 Rises=F Damp=F
 DIIS: error= 1.30D-06 at cycle  11 NSaved=  11.
 NSaved=11 IEnMin=11 EnMin= -1212.06179069395     IErMin=11 ErrMin= 1.30D-06
 ErrMax= 1.30D-06  0.00D+00 EMaxC= 1.00D-01 BMatC= 6.11D-10 BMatP= 7.00D-09
 IDIUse=1 WtCom= 1.00D+00 WtEn= 0.00D+00
 Coeff-Com:  0.188D-05-0.636D-05-0.176D-03-0.460D-03-0.949D-03-0.930D-03
 Coeff-Com:  0.266D-02 0.358D-01 0.101D+00 0.255D+00 0.608D+00
 Coeff:      0.188D-05-0.636D-05-0.176D-03-0.460D-03-0.949D-03-0.930D-03
 Coeff:      0.266D-02 0.358D-01 0.101D+00 0.255D+00 0.608D+00
 Gap=     0.185 Goal=   None    Shift=    0.000
 RMSDP=8.97D-08 MaxDP=5.04D-06 DE=-5.47D-09 OVMax= 6.50D-06

 Cycle  12  Pass 1  IDiag  1:
 E= -1212.06179069439     Delta-E=       -0.000000000437 Rises=F Damp=F
 DIIS: error= 3.95D-07 at cycle  12 NSaved=  12.
 NSaved=12 IEnMin=12 EnMin= -1212.06179069439     IErMin=12 ErrMin= 3.95D-07
 ErrMax= 3.95D-07  0.00D+00 EMaxC= 1.00D-01 BMatC= 1.10D-10 BMatP= 6.11D-10
 IDIUse=1 WtCom= 1.00D+00 WtEn= 0.00D+00
 Coeff-Com:  0.239D-05 0.145D-05-0.443D-04-0.122D-03-0.382D-03-0.868D-03
 Coeff-Com: -0.134D-02 0.155D-02 0.137D-01 0.832D-01 0.360D+00 0.544D+00
 Coeff:      0.239D-05 0.145D-05-0.443D-04-0.122D-03-0.382D-03-0.868D-03
 Coeff:     -0.134D-02 0.155D-02 0.137D-01 0.832D-01 0.360D+00 0.544D+00
 Gap=     0.185 Goal=   None    Shift=    0.000
 RMSDP=3.05D-08 MaxDP=1.56D-06 DE=-4.37D-10 OVMax= 1.89D-06

 Cycle  13  Pass 1  IDiag  1:
 E= -1212.06179069446     Delta-E=       -0.000000000076 Rises=F Damp=F
 DIIS: error= 5.71D-08 at cycle  13 NSaved=  13.
 NSaved=13 IEnMin=13 EnMin= -1212.06179069446     IErMin=13 ErrMin= 5.71D-08
 ErrMax= 5.71D-08  0.00D+00 EMaxC= 1.00D-01 BMatC= 2.42D-12 BMatP= 1.10D-10
 IDIUse=1 WtCom= 1.00D+00 WtEn= 0.00D+00
 Coeff-Com:  0.736D-06 0.685D-06-0.430D-05-0.112D-04-0.777D-04-0.278D-03
 Coeff-Com: -0.786D-03-0.252D-02-0.392D-02 0.977D-02 0.864D-01 0.181D+00
 Coeff-Com:  0.731D+00
 Coeff:      0.736D-06 0.685D-06-0.430D-05-0.112D-04-0.777D-04-0.278D-03
 Coeff:     -0.786D-03-0.252D-02-0.392D-02 0.977D-02 0.864D-01 0.181D+00
 Coeff:      0.731D+00
 Gap=     0.185 Goal=   None    Shift=    0.000
 RMSDP=8.13D-09 MaxDP=2.90D-07 DE=-7.59D-11 OVMax= 9.38D-07

 Error on total polarization charges =  0.01850
 SCF Done:  E(RB3LYP) =  -1212.06179069     A.U. after   13 cycles
            NFock= 13  Conv=0.81D-08     -V/T= 2.0079
 KE= 1.202611513880D+03 PE=-5.798817450822D+03 EE= 1.882211425611D+03
 Leave Link  502 at Mon Sep 28 08:23:34 2020, MaxMem=  2147483648 cpu:             234.5 elap:              58.7
 (Enter /prod/apps/gaussian/g16b1/l601.exe)
 Copying SCF densities to generalized density rwf, IOpCl= 0 IROHF=0.

 **********************************************************************

            Population analysis using the SCF Density.

 **********************************************************************

 Alpha  occ. eigenvalues --  -89.19909 -19.22113 -19.21884 -14.50389 -14.49004
 Alpha  occ. eigenvalues --  -14.48696 -14.46856 -14.45007 -10.34169 -10.28879
 Alpha  occ. eigenvalues --  -10.26789 -10.25687 -10.25617 -10.22056 -10.21872
 Alpha  occ. eigenvalues --  -10.21104 -10.21084 -10.20982  -8.22227  -6.18716
 Alpha  occ. eigenvalues --   -6.18660  -6.18578  -1.19650  -1.19086  -1.08402
 Alpha  occ. eigenvalues --   -1.02777  -1.01838  -0.99348  -0.88223  -0.88149
 Alpha  occ. eigenvalues --   -0.80119  -0.77460  -0.76801  -0.75654  -0.71959
 Alpha  occ. eigenvalues --   -0.71475  -0.68056  -0.65423  -0.63334  -0.62682
 Alpha  occ. eigenvalues --   -0.61159  -0.57219  -0.56720  -0.56217  -0.56022
 Alpha  occ. eigenvalues --   -0.54569  -0.51781  -0.51135  -0.50768  -0.50296
 Alpha  occ. eigenvalues --   -0.47459  -0.46878  -0.45683  -0.44688  -0.44595
 Alpha  occ. eigenvalues --   -0.43460  -0.42935  -0.42468  -0.41095  -0.40169
 Alpha  occ. eigenvalues --   -0.39409  -0.38832  -0.38107  -0.37804  -0.37628
 Alpha  occ. eigenvalues --   -0.36860  -0.36388  -0.30364  -0.27496  -0.27187
 Alpha virt. eigenvalues --   -0.08640  -0.06489  -0.02448  -0.01826  -0.00140
 Alpha virt. eigenvalues --    0.01554   0.03869   0.05027   0.05756   0.07921
 Alpha virt. eigenvalues --    0.08537   0.08887   0.10240   0.11544   0.12396
 Alpha virt. eigenvalues --    0.12560   0.13465   0.13839   0.14031   0.14512
 Alpha virt. eigenvalues --    0.14814   0.15259   0.15620   0.17080   0.17734
 Alpha virt. eigenvalues --    0.18130   0.18670   0.18986   0.20227   0.22138
 Alpha virt. eigenvalues --    0.26277   0.27998   0.28447   0.29846   0.32089
 Alpha virt. eigenvalues --    0.32674   0.33753   0.35426   0.37366   0.39706
 Alpha virt. eigenvalues --    0.42661   0.44549   0.45726   0.46502   0.47447
 Alpha virt. eigenvalues --    0.49039   0.49530   0.50930   0.51803   0.52369
 Alpha virt. eigenvalues --    0.53037   0.54602   0.55083   0.55298   0.55786
 Alpha virt. eigenvalues --    0.57011   0.57543   0.57822   0.58985   0.59604
 Alpha virt. eigenvalues --    0.60058   0.60460   0.61777   0.62195   0.63807
 Alpha virt. eigenvalues --    0.64521   0.66221   0.68974   0.69965   0.71365
 Alpha virt. eigenvalues --    0.72071   0.72764   0.73866   0.75106   0.75424
 Alpha virt. eigenvalues --    0.76266   0.77523   0.78342   0.79390   0.80063
 Alpha virt. eigenvalues --    0.81249   0.82156   0.82657   0.83309   0.83559
 Alpha virt. eigenvalues --    0.84248   0.85007   0.85978   0.87341   0.87611
 Alpha virt. eigenvalues --    0.89129   0.89937   0.91570   0.91661   0.92885
 Alpha virt. eigenvalues --    0.93853   0.94246   0.95500   0.97183   0.97606
 Alpha virt. eigenvalues --    0.97731   0.98331   1.00111   1.01368   1.01998
 Alpha virt. eigenvalues --    1.04238   1.05713   1.06872   1.09428   1.09709
 Alpha virt. eigenvalues --    1.11610   1.13580   1.14235   1.14890   1.15411
 Alpha virt. eigenvalues --    1.16200   1.17333   1.18730   1.21599   1.24388
 Alpha virt. eigenvalues --    1.25773   1.28689   1.30453   1.34041   1.35575
 Alpha virt. eigenvalues --    1.36631   1.39457   1.40738   1.41782   1.44006
 Alpha virt. eigenvalues --    1.44588   1.45620   1.46978   1.48632   1.49777
 Alpha virt. eigenvalues --    1.51068   1.54191   1.57161   1.60393   1.62937
 Alpha virt. eigenvalues --    1.65693   1.69238   1.71506   1.72597   1.73616
 Alpha virt. eigenvalues --    1.74984   1.75136   1.77949   1.78281   1.78857
 Alpha virt. eigenvalues --    1.80075   1.80908   1.83304   1.83592   1.86765
 Alpha virt. eigenvalues --    1.87399   1.88807   1.90159   1.93244   1.93768
 Alpha virt. eigenvalues --    1.94964   1.97729   1.98061   1.99511   1.99914
 Alpha virt. eigenvalues --    2.03191   2.03984   2.05133   2.05999   2.07089
 Alpha virt. eigenvalues --    2.07600   2.09741   2.11441   2.12358   2.13432
 Alpha virt. eigenvalues --    2.15015   2.16614   2.17812   2.19224   2.21239
 Alpha virt. eigenvalues --    2.22875   2.24649   2.26214   2.27710   2.28332
 Alpha virt. eigenvalues --    2.29709   2.30145   2.31682   2.31707   2.37134
 Alpha virt. eigenvalues --    2.39818   2.42655   2.49038   2.50574   2.51619
 Alpha virt. eigenvalues --    2.54043   2.55568   2.56992   2.61130   2.62797
 Alpha virt. eigenvalues --    2.63979   2.64756   2.68099   2.70159   2.71465
 Alpha virt. eigenvalues --    2.72846   2.74248   2.76430   2.78626   2.82086
 Alpha virt. eigenvalues --    2.87030   2.97884   3.02401   3.10686   3.21616
 Alpha virt. eigenvalues --    3.40754   3.56396   3.78690   3.87753   3.88353
 Alpha virt. eigenvalues --    3.93453   3.99450   4.03986   4.07045   4.09529
 Alpha virt. eigenvalues --    4.11218   4.13404   4.17221   4.22585   4.28946
 Alpha virt. eigenvalues --    4.30690   4.37733   4.44704   4.69130
          Condensed to atoms (all electrons):
               1          2          3          4          5          6
     1  O    8.134410   0.462833  -0.051572   0.000646  -0.000015   0.000000
     2  S    0.462833  13.503451   0.185526  -0.010878  -0.001577   0.000194
     3  N   -0.051572   0.185526   7.323063   0.254015  -0.055812   0.004447
     4  C    0.000646  -0.010878   0.254015   4.504081   0.273372  -0.057691
     5  N   -0.000015  -0.001577  -0.055812   0.273372   6.729786   0.251455
     6  N    0.000000   0.000194   0.004447  -0.057691   0.251455   6.664716
     7  C   -0.000034  -0.004548  -0.065432   0.522475  -0.047957  -0.089469
     8  N   -0.000000  -0.000139   0.003705  -0.012644  -0.081199   0.272743
     9  C   -0.000000  -0.000001  -0.000091   0.002129   0.006809  -0.052924
    10  C   -0.000000  -0.000005   0.000004   0.001210  -0.000324   0.003282
    11  C   -0.000000  -0.000000   0.000000  -0.000008   0.000003  -0.000070
    12  C    0.000000   0.000000  -0.000000  -0.000000  -0.000000   0.000014
    13  C   -0.000000  -0.000000  -0.000000   0.000006  -0.000004   0.000204
    14  C   -0.000000   0.000000   0.000000  -0.000630   0.000456  -0.001060
    15  N   -0.046890   0.100108  -0.043708   0.000537   0.000001  -0.000001
    16  C   -0.000936  -0.012148   0.001316  -0.000009  -0.000000   0.000000
    17  C    0.001194  -0.011057  -0.000356   0.001092  -0.000364  -0.000011
    18  O   -0.033774   0.421438  -0.053693   0.003340   0.000130  -0.000002
    19  H    0.000366  -0.007832   0.287698  -0.011294  -0.002127   0.000005
    20  H   -0.000009   0.000760  -0.001350  -0.024617   0.003273   0.002915
    21  H    0.000000   0.000004  -0.000000  -0.000025  -0.000010  -0.000062
    22  H   -0.000000  -0.000000   0.000000   0.000000  -0.000000   0.000001
    23  H   -0.000000   0.000000  -0.000000  -0.000000  -0.000000   0.000000
    24  H   -0.000000  -0.000000   0.000000  -0.000000   0.000000  -0.000006
    25  H   -0.000000  -0.000000  -0.000000   0.000007  -0.000283   0.009637
    26  H    0.007409  -0.002493   0.000024  -0.000001   0.000000  -0.000000
    27  H    0.000082   0.001803  -0.000057  -0.000001   0.000000  -0.000000
    28  H   -0.000715  -0.001216   0.000018   0.000007   0.000000  -0.000000
    29  H   -0.000010  -0.002413   0.002505   0.001081   0.000798   0.000031
    30  H    0.000006  -0.003612  -0.000089   0.000149   0.000004  -0.000001
    31  H   -0.000040   0.001533  -0.000092   0.000020   0.000005  -0.000000
    32  H    0.000325  -0.004405   0.001152   0.000055   0.000002   0.000000
    33  H   -0.000000  -0.000010  -0.000806  -0.022897   0.308666  -0.025704
               7          8          9         10         11         12
     1  O   -0.000034  -0.000000  -0.000000  -0.000000  -0.000000   0.000000
     2  S   -0.004548  -0.000139  -0.000001  -0.000005  -0.000000   0.000000
     3  N   -0.065432   0.003705  -0.000091   0.000004   0.000000  -0.000000
     4  C    0.522475  -0.012644   0.002129   0.001210  -0.000008  -0.000000
     5  N   -0.047957  -0.081199   0.006809  -0.000324   0.000003  -0.000000
     6  N   -0.089469   0.272743  -0.052924   0.003282  -0.000070   0.000014
     7  C    4.921637   0.316523  -0.033622  -0.004262   0.000009   0.000015
     8  N    0.316523   6.762113   0.206872  -0.048669   0.004385   0.000372
     9  C   -0.033622   0.206872   4.641219   0.529968  -0.011788  -0.037054
    10  C   -0.004262  -0.048669   0.529968   4.955472   0.530574  -0.041004
    11  C    0.000009   0.004385  -0.011788   0.530574   4.852995   0.542384
    12  C    0.000015   0.000372  -0.037054  -0.041004   0.542384   4.856278
    13  C   -0.000076   0.004301  -0.011224  -0.041467  -0.023542   0.538280
    14  C    0.006293  -0.054157   0.520329  -0.065920  -0.040849  -0.039961
    15  N    0.000178  -0.000000  -0.000000   0.000000   0.000000  -0.000000
    16  C   -0.000003   0.000000   0.000000  -0.000000  -0.000000   0.000000
    17  C    0.000217  -0.000001   0.000000  -0.000000   0.000000   0.000000
    18  O    0.001564   0.000028   0.000008  -0.000009  -0.000000   0.000000
    19  H    0.001732  -0.000012   0.000000   0.000000   0.000000  -0.000000
    20  H    0.362678  -0.029564  -0.001711   0.002105   0.000090   0.000000
    21  H    0.005095  -0.008387  -0.040239   0.356642  -0.031394   0.004156
    22  H   -0.000003  -0.000114   0.003463  -0.036968   0.364798  -0.038360
    23  H   -0.000000   0.000004   0.000479   0.004912  -0.040581   0.366728
    24  H    0.000001  -0.000108   0.003509   0.000720   0.004294  -0.038589
    25  H    0.000133  -0.011242  -0.040195   0.004867   0.000117   0.004287
    26  H    0.000000   0.000000   0.000000  -0.000000   0.000000  -0.000000
    27  H    0.000000  -0.000000  -0.000000   0.000000   0.000000  -0.000000
    28  H   -0.000000   0.000000   0.000000  -0.000000   0.000000  -0.000000
    29  H   -0.000099  -0.000066   0.000001   0.000000  -0.000000  -0.000000
    30  H    0.000064  -0.000002   0.000000  -0.000000  -0.000000   0.000000
    31  H    0.000005  -0.000000  -0.000000   0.000000  -0.000000  -0.000000
    32  H   -0.000006  -0.000000   0.000000  -0.000000   0.000000  -0.000000
    33  H    0.004220   0.004032  -0.000053   0.000002  -0.000000  -0.000000
              13         14         15         16         17         18
     1  O   -0.000000  -0.000000  -0.046890  -0.000936   0.001194  -0.033774
     2  S   -0.000000   0.000000   0.100108  -0.012148  -0.011057   0.421438
     3  N   -0.000000   0.000000  -0.043708   0.001316  -0.000356  -0.053693
     4  C    0.000006  -0.000630   0.000537  -0.000009   0.001092   0.003340
     5  N   -0.000004   0.000456   0.000001  -0.000000  -0.000364   0.000130
     6  N    0.000204  -0.001060  -0.000001   0.000000  -0.000011  -0.000002
     7  C   -0.000076   0.006293   0.000178  -0.000003   0.000217   0.001564
     8  N    0.004301  -0.054157  -0.000000   0.000000  -0.000001   0.000028
     9  C   -0.011224   0.520329  -0.000000   0.000000   0.000000   0.000008
    10  C   -0.041467  -0.065920   0.000000  -0.000000  -0.000000  -0.000009
    11  C   -0.023542  -0.040849   0.000000  -0.000000   0.000000  -0.000000
    12  C    0.538280  -0.039961  -0.000000   0.000000   0.000000   0.000000
    13  C    4.863824   0.526104   0.000000  -0.000000  -0.000000  -0.000000
    14  C    0.526104   4.953851   0.000000  -0.000000   0.000000   0.000000
    15  N    0.000000   0.000000   7.107856   0.210754   0.206576  -0.044852
    16  C   -0.000000  -0.000000   0.210754   5.074021  -0.041046  -0.001463
    17  C   -0.000000   0.000000   0.206576  -0.041046   5.073523   0.001230
    18  O   -0.000000   0.000000  -0.044852  -0.001463   0.001230   8.187723
    19  H    0.000000  -0.000000   0.000614  -0.000011   0.000091   0.000780
    20  H   -0.000006  -0.000010   0.000021   0.000000  -0.000012   0.004723
    21  H    0.000194   0.004598   0.000000  -0.000000   0.000000   0.000011
    22  H    0.004269   0.000756   0.000000   0.000000  -0.000000  -0.000000
    23  H   -0.040704   0.004739  -0.000000   0.000000   0.000000   0.000000
    24  H    0.365027  -0.037075  -0.000000  -0.000000   0.000000  -0.000000
    25  H   -0.034080   0.359696   0.000000  -0.000000   0.000000   0.000000
    26  H    0.000000   0.000000  -0.027450   0.375966   0.003559  -0.000214
    27  H    0.000000   0.000000  -0.026355   0.376953  -0.002585  -0.000056
    28  H    0.000000  -0.000000  -0.033347   0.378705  -0.001889   0.003871
    29  H   -0.000000  -0.000000  -0.027404   0.003549   0.376763  -0.000808
    30  H   -0.000000   0.000000  -0.032583  -0.002270   0.379248   0.006362
    31  H    0.000000   0.000000  -0.025655  -0.002871   0.375438   0.000090
    32  H    0.000000  -0.000000   0.278737  -0.018619  -0.019268   0.000781
    33  H   -0.000000  -0.000001  -0.000005   0.000000   0.000010   0.000002
              19         20         21         22         23         24
     1  O    0.000366  -0.000009   0.000000  -0.000000  -0.000000  -0.000000
     2  S   -0.007832   0.000760   0.000004  -0.000000   0.000000  -0.000000
     3  N    0.287698  -0.001350  -0.000000   0.000000  -0.000000   0.000000
     4  C   -0.011294  -0.024617  -0.000025   0.000000  -0.000000  -0.000000
     5  N   -0.002127   0.003273  -0.000010  -0.000000  -0.000000   0.000000
     6  N    0.000005   0.002915  -0.000062   0.000001   0.000000  -0.000006
     7  C    0.001732   0.362678   0.005095  -0.000003  -0.000000   0.000001
     8  N   -0.000012  -0.029564  -0.008387  -0.000114   0.000004  -0.000108
     9  C    0.000000  -0.001711  -0.040239   0.003463   0.000479   0.003509
    10  C    0.000000   0.002105   0.356642  -0.036968   0.004912   0.000720
    11  C    0.000000   0.000090  -0.031394   0.364798  -0.040581   0.004294
    12  C   -0.000000   0.000000   0.004156  -0.038360   0.366728  -0.038589
    13  C    0.000000  -0.000006   0.000194   0.004269  -0.040704   0.365027
    14  C   -0.000000  -0.000010   0.004598   0.000756   0.004739  -0.037075
    15  N    0.000614   0.000021   0.000000   0.000000  -0.000000  -0.000000
    16  C   -0.000011   0.000000  -0.000000   0.000000   0.000000  -0.000000
    17  C    0.000091  -0.000012   0.000000  -0.000000   0.000000   0.000000
    18  O    0.000780   0.004723   0.000011  -0.000000   0.000000  -0.000000
    19  H    0.245161  -0.000033  -0.000000  -0.000000   0.000000  -0.000000
    20  H   -0.000033   0.405429   0.001125  -0.000000  -0.000000   0.000000
    21  H   -0.000000   0.001125   0.522264  -0.004907  -0.000137   0.000013
    22  H   -0.000000  -0.000000  -0.004907   0.537350  -0.004984  -0.000154
    23  H    0.000000  -0.000000  -0.000137  -0.004984   0.543780  -0.004966
    24  H   -0.000000   0.000000   0.000013  -0.000154  -0.004966   0.537695
    25  H   -0.000000  -0.000007  -0.000120   0.000013  -0.000131  -0.004883
    26  H    0.000003   0.000000   0.000000   0.000000   0.000000   0.000000
    27  H    0.000000   0.000000   0.000000  -0.000000   0.000000  -0.000000
    28  H   -0.000001  -0.000000   0.000000   0.000000   0.000000   0.000000
    29  H   -0.000007   0.000014  -0.000000   0.000000  -0.000000  -0.000000
    30  H   -0.000003  -0.000006   0.000002  -0.000000  -0.000000   0.000000
    31  H    0.000000   0.000000   0.000000   0.000000   0.000000  -0.000000
    32  H    0.000031  -0.000001   0.000000   0.000000   0.000000  -0.000000
    33  H    0.000915  -0.000044  -0.000000   0.000000  -0.000000   0.000000
              25         26         27         28         29         30
     1  O   -0.000000   0.007409   0.000082  -0.000715  -0.000010   0.000006
     2  S   -0.000000  -0.002493   0.001803  -0.001216  -0.002413  -0.003612
     3  N   -0.000000   0.000024  -0.000057   0.000018   0.002505  -0.000089
     4  C    0.000007  -0.000001  -0.000001   0.000007   0.001081   0.000149
     5  N   -0.000283   0.000000   0.000000   0.000000   0.000798   0.000004
     6  N    0.009637  -0.000000  -0.000000  -0.000000   0.000031  -0.000001
     7  C    0.000133   0.000000   0.000000  -0.000000  -0.000099   0.000064
     8  N   -0.011242   0.000000  -0.000000   0.000000  -0.000066  -0.000002
     9  C   -0.040195   0.000000  -0.000000   0.000000   0.000001   0.000000
    10  C    0.004867  -0.000000   0.000000  -0.000000   0.000000  -0.000000
    11  C    0.000117   0.000000   0.000000   0.000000  -0.000000  -0.000000
    12  C    0.004287  -0.000000  -0.000000  -0.000000  -0.000000   0.000000
    13  C   -0.034080   0.000000   0.000000   0.000000  -0.000000  -0.000000
    14  C    0.359696   0.000000   0.000000  -0.000000  -0.000000   0.000000
    15  N    0.000000  -0.027450  -0.026355  -0.033347  -0.027404  -0.032583
    16  C   -0.000000   0.375966   0.376953   0.378705   0.003549  -0.002270
    17  C    0.000000   0.003559  -0.002585  -0.001889   0.376763   0.379248
    18  O    0.000000  -0.000214  -0.000056   0.003871  -0.000808   0.006362
    19  H   -0.000000   0.000003   0.000000  -0.000001  -0.000007  -0.000003
    20  H   -0.000007   0.000000   0.000000  -0.000000   0.000014  -0.000006
    21  H   -0.000120   0.000000   0.000000   0.000000  -0.000000   0.000002
    22  H    0.000013   0.000000  -0.000000   0.000000   0.000000  -0.000000
    23  H   -0.000131   0.000000   0.000000   0.000000  -0.000000  -0.000000
    24  H   -0.004883   0.000000  -0.000000   0.000000  -0.000000   0.000000
    25  H    0.522370   0.000000   0.000000   0.000000   0.000000   0.000000
    26  H    0.000000   0.448914  -0.018853  -0.022242  -0.000159  -0.000036
    27  H    0.000000  -0.018853   0.451638  -0.022301   0.000013  -0.000449
    28  H    0.000000  -0.022242  -0.022301   0.458801  -0.000002   0.003597
    29  H    0.000000  -0.000159   0.000013  -0.000002   0.459954  -0.022490
    30  H    0.000000  -0.000036  -0.000449   0.003597  -0.022490   0.453247
    31  H    0.000000   0.000020   0.003538  -0.000580  -0.020564  -0.020653
    32  H    0.000000  -0.001952  -0.003069   0.002962  -0.002135   0.002867
    33  H   -0.000002  -0.000000  -0.000000  -0.000000   0.000095  -0.000001
              31         32         33
     1  O   -0.000040   0.000325  -0.000000
     2  S    0.001533  -0.004405  -0.000010
     3  N   -0.000092   0.001152  -0.000806
     4  C    0.000020   0.000055  -0.022897
     5  N    0.000005   0.000002   0.308666
     6  N   -0.000000   0.000000  -0.025704
     7  C    0.000005  -0.000006   0.004220
     8  N   -0.000000  -0.000000   0.004032
     9  C   -0.000000   0.000000  -0.000053
    10  C    0.000000  -0.000000   0.000002
    11  C   -0.000000   0.000000  -0.000000
    12  C   -0.000000  -0.000000  -0.000000
    13  C    0.000000   0.000000  -0.000000
    14  C    0.000000  -0.000000  -0.000001
    15  N   -0.025655   0.278737  -0.000005
    16  C   -0.002871  -0.018619   0.000000
    17  C    0.375438  -0.019268   0.000010
    18  O    0.000090   0.000781   0.000002
    19  H    0.000000   0.000031   0.000915
    20  H    0.000000  -0.000001  -0.000044
    21  H    0.000000   0.000000  -0.000000
    22  H    0.000000   0.000000   0.000000
    23  H    0.000000   0.000000  -0.000000
    24  H   -0.000000  -0.000000   0.000000
    25  H    0.000000   0.000000  -0.000002
    26  H    0.000020  -0.001952  -0.000000
    27  H    0.003538  -0.003069  -0.000000
    28  H   -0.000580   0.002962  -0.000000
    29  H   -0.020564  -0.002135   0.000095
    30  H   -0.020653   0.002867  -0.000001
    31  H    0.452770  -0.002169  -0.000001
    32  H   -0.002169   0.256792   0.000000
    33  H   -0.000001   0.000000   0.248437
 Mulliken charges:
               1
     1  O   -0.473274
     2  S    1.384683
     3  N   -0.790414
     4  C    0.576473
     5  N   -0.385088
     6  N    0.017357
     7  C    0.102674
     8  N   -0.328772
     9  C    0.314114
    10  C   -0.151131
    11  C   -0.151416
    12  C   -0.117545
    13  C   -0.151105
    14  C   -0.137159
    15  N   -0.597134
    16  C   -0.341887
    17  C   -0.342354
    18  O   -0.497208
    19  H    0.483924
    20  H    0.274237
    21  H    0.191180
    22  H    0.174841
    23  H    0.170862
    24  H    0.174522
    25  H    0.189815
    26  H    0.237503
    27  H    0.239699
    28  H    0.234332
    29  H    0.231353
    30  H    0.236649
    31  H    0.239204
    32  H    0.507920
    33  H    0.483145
 Sum of Mulliken charges =   2.00000
 Mulliken charges with hydrogens summed into heavy atoms:
               1
     1  O   -0.473274
     2  S    1.384683
     3  N   -0.306491
     4  C    0.576473
     5  N    0.098057
     6  N    0.017357
     7  C    0.376911
     8  N   -0.328772
     9  C    0.314114
    10  C    0.040049
    11  C    0.023425
    12  C    0.053317
    13  C    0.023417
    14  C    0.052656
    15  N   -0.089213
    16  C    0.369647
    17  C    0.364852
    18  O   -0.497208
 Electronic spatial extent (au):  <R**2>=           6643.5320
 Charge=              2.0000 electrons
 Dipole moment (field-independent basis, Debye):
    X=            -12.2262    Y=             10.4716    Z=             -0.5627  Tot=             16.1075
 Quadrupole moment (field-independent basis, Debye-Ang):
   XX=             -7.7197   YY=            -83.8053   ZZ=            -91.2080
   XY=            -26.0548   XZ=            -11.6453   YZ=            -13.7036
 Traceless Quadrupole moment (field-independent basis, Debye-Ang):
   XX=             53.1913   YY=            -22.8943   ZZ=            -30.2970
   XY=            -26.0548   XZ=            -11.6453   YZ=            -13.7036
 Octapole moment (field-independent basis, Debye-Ang**2):
  XXX=           -152.2545  YYY=             17.0813  ZZZ=             30.6967  XYY=            -33.6522
  XXY=             45.5667  XXZ=             92.1690  XZZ=            -43.1003  YZZ=             10.8642
  YYZ=             -7.2482  XYZ=            -11.8760
 Hexadecapole moment (field-independent basis, Debye-Ang**3):
 XXXX=          -4718.7614 YYYY=           -594.0779 ZZZZ=           -666.5870 XXXY=           -259.9503
 XXXZ=           -353.4386 YYYX=            -70.8777 YYYZ=             15.8462 ZZZX=           -107.4501
 ZZZY=             56.6090 XXYY=          -1189.1614 XXZZ=          -1194.6065 YYZZ=           -180.0781
 XXYZ=            -83.6152 YYXZ=             -5.9449 ZZXY=            -62.7829
 N-N= 1.501932720637D+03 E-N=-5.798817447147D+03  KE= 1.202611513880D+03
 No NMR shielding tensors so no spin-rotation constants.
 Leave Link  601 at Mon Sep 28 08:23:34 2020, MaxMem=  2147483648 cpu:               0.4 elap:               0.1
 (Enter /prod/apps/gaussian/g16b1/l701.exe)
 ... and contract with generalized density number  0.
 Compute integral first derivatives.
 D1PCM: PCM CHGder 1st derivatives, ID1Alg=3 FixD1E=F DoIter=F DoCFld=F I1PDM=0.
 GePol: Maximum number of non-zero 1st derivatives   =     172
 Leave Link  701 at Mon Sep 28 08:23:36 2020, MaxMem=  2147483648 cpu:               8.4 elap:               2.1
 (Enter /prod/apps/gaussian/g16b1/l702.exe)
 L702 exits ... SP integral derivatives will be done elsewhere.
 Leave Link  702 at Mon Sep 28 08:23:36 2020, MaxMem=  2147483648 cpu:               0.1 elap:               0.0
 (Enter /prod/apps/gaussian/g16b1/l703.exe)
 Integral derivatives from FoFJK, PRISM(SPDF).
 Compute integral first derivatives, UseDBF=F ICtDFT=           0.
 Calling FoFJK, ICntrl=      2127 FMM=F ISym2X=0 I1Cent= 0 IOpClX= 0 NMat=1 NMatS=1 NMatT=0.
 FoFJK:  IHMeth= 1 ICntrl=    2127 DoSepK=F KAlg= 0 I1Cent=           0 FoldK=F
 IRaf=         0 NMat=       1 IRICut=       1 DoRegI=T DoRafI=F ISym2E= 0 IDoP0=0 IntGTp=1.
 FoFCou: FMM=F IPFlag=           0 FMFlag=      100000 FMFlg1=         800
         NFxFlg=           0 DoJE=F BraDBF=F KetDBF=F FulRan=T
         wScrn=  0.000000 ICntrl=      2127 IOpCl=  0 I1Cent=           0 NGrid=           0
         NMat0=    1 NMatS0=      1 NMatT0=    0 NMatD0=    1 NMtDS0=    0 NMtDT0=    0
 Symmetry not used in FoFCou.
 Leave Link  703 at Mon Sep 28 08:23:49 2020, MaxMem=  2147483648 cpu:              50.0 elap:              12.5
 (Enter /prod/apps/gaussian/g16b1/l716.exe)
 Dipole        =-4.81017479D+00 4.11984002D+00-2.21372762D-01
 -------------------------------------------------------------------
 Center     Atomic                   Forces (Hartrees/Bohr)
 Number     Number              X              Y              Z
 -------------------------------------------------------------------
      1        8          -0.000063757   -0.000015515   -0.000117032
      2       16           0.000148044   -0.000462310    0.000275615
      3        7          -0.000265190    0.000564471   -0.000481576
      4        6          -0.000473229   -0.000225156    0.000044009
      5        7           0.000534377    0.001141198   -0.000100154
      6        7          -0.000426108   -0.000695817    0.000083081
      7        6           0.000806232   -0.000713005    0.000347459
      8        7          -0.000490050    0.000743708   -0.000354577
      9        6           0.000289622   -0.000218084    0.000256225
     10        6          -0.000475158    0.000030905   -0.000125327
     11        6           0.000010878   -0.000283408    0.000258196
     12        6           0.000449739    0.000354528   -0.000360205
     13        6           0.000007369    0.000134651   -0.000025431
     14        6          -0.000048582    0.000156710   -0.000255622
     15        7           0.000314689    0.000336078    0.000410481
     16        6          -0.000044430   -0.000334036   -0.000073818
     17        6           0.000266423   -0.000609281   -0.000282683
     18        8          -0.000230050    0.000332935   -0.000248741
     19        1           0.000205596   -0.000301661    0.000369445
     20        1          -0.000060474    0.000346495   -0.000102598
[...]
          Condensed to atoms (all electrons):
               1          2          3          4          5          6
     1  O    8.877113   0.093154  -0.054482   0.029201  -0.009945  -0.000015
     2  S    0.093154  13.609693   0.240001  -0.976066   0.100347  -0.066692
     3  N   -0.054482   0.240001   9.401440  -3.557818   0.421401  -0.325436
     4  C    0.029201  -0.976066  -3.557818  18.923434  -2.258697   1.238414
     5  N   -0.009945   0.100347   0.421401  -2.258697   8.370803  -0.623940
     6  N   -0.000015  -0.066692  -0.325436   1.238414  -0.623940   8.637031
     7  C    0.012725   0.239058   1.265802  -7.256656   1.430139  -1.377945
     8  N    0.003110   0.067593   0.291983  -0.789894  -0.225263  -0.227094
     9  C    0.003355  -0.028382   0.146351   0.086172  -0.255917  -0.334402
    10  C   -0.000393   0.013599   0.085818  -0.616157   0.145365   0.094200
    11  C   -0.000045   0.004827   0.014871   0.018477   0.020602  -0.055901
    12  C    0.000015  -0.000462   0.005604  -0.082245   0.003043   0.046700
    13  C   -0.000005  -0.002682  -0.028959   0.246137  -0.023878   0.026603
    14  C   -0.000184  -0.005256  -0.036149  -0.061405   0.010763   0.489128
    15  N   -0.140510  -0.340956  -0.175447  -0.081555   0.019965   0.027511
    16  C    0.032112   0.049036  -0.027058   0.031392  -0.006293  -0.000938
    17  C    0.003591   0.087099   0.107413  -0.153475   0.030779  -0.023844
    18  O    0.046427  -0.084560  -0.084841   0.359416  -0.016014   0.009954
    19  H    0.029263  -0.059522   0.175776   0.181135  -0.101933   0.006932
    20  H   -0.007964   0.072882   0.020870  -0.338432  -0.087128  -0.102497
    21  H    0.001013  -0.012819  -0.014593   0.108133  -0.010830   0.001968
    22  H   -0.000020   0.000583   0.000175   0.001614  -0.000833  -0.002545
    23  H    0.000001  -0.000054   0.000115  -0.000589  -0.000062   0.002598
    24  H   -0.000001  -0.000026  -0.000480   0.003116   0.000263  -0.002815
    25  H    0.000041  -0.000706   0.007126  -0.027219   0.017291  -0.001873
    26  H   -0.004022   0.013223   0.023554   0.001824  -0.000447  -0.000274
    27  H   -0.003236   0.060058  -0.016600  -0.004628  -0.000948  -0.000038
    28  H    0.014567  -0.052777   0.022750  -0.005517   0.000982  -0.000174
    29  H    0.001283  -0.024936   0.082784  -0.121094   0.046864  -0.008745
    30  H   -0.000621   0.060784  -0.031035  -0.021991   0.000003   0.001159
    31  H    0.001102  -0.006212   0.018150   0.053457  -0.007371  -0.003489
    32  H    0.034499   0.039179  -0.049154   0.003472  -0.002434   0.002023
    33  H   -0.000336  -0.006101  -0.001983   0.073657   0.421634  -0.206306
               7          8          9         10         11         12
     1  O    0.012725   0.003110   0.003355  -0.000393  -0.000045   0.000015
     2  S    0.239058   0.067593  -0.028382   0.013599   0.004827  -0.000462
     3  N    1.265802   0.291983   0.146351   0.085818   0.014871   0.005604
     4  C   -7.256656  -0.789894   0.086172  -0.616157   0.018477  -0.082245
     5  N    1.430139  -0.225263  -0.255917   0.145365   0.020602   0.003043
     6  N   -1.377945  -0.227094  -0.334402   0.094200  -0.055901   0.046700
     7  C   12.372000   0.181672  -1.745183   0.705965  -0.216734   0.021871
     8  N    0.181672   9.636376  -1.096079   0.415129  -0.277273   0.322002
     9  C   -1.745183  -1.096079  15.987153  -6.118909   2.904133  -3.741982
    10  C    0.705965   0.415129  -6.118909  13.132389  -3.697447   3.098864
    11  C   -0.216734  -0.277273   2.904133  -3.697447  10.291993  -2.992962
    12  C    0.021871   0.322002  -3.741982   3.098864  -2.992962   8.888416
    13  C   -0.090966  -0.230646   2.809677  -3.214047   2.962065  -2.947905
    14  C   -0.194991  -0.105038  -5.424715   2.235437  -3.338363   3.147646
    15  N    0.041501  -0.017289  -0.016773  -0.001483  -0.002098   0.000014
    16  C   -0.017525   0.001353   0.001052  -0.002246  -0.000754  -0.000086
    17  C    0.045948   0.018742   0.015091   0.002385   0.002200  -0.000337
    18  O   -0.171219   0.005140   0.011557  -0.017263  -0.001124  -0.000357
    19  H   -0.090745  -0.031480  -0.004023  -0.005218  -0.000004  -0.000061
    20  H   -0.139234   0.131037   0.064745   0.036295   0.087598   0.011314
    21  H    0.003619  -0.214111   0.853929  -1.002772   0.107108  -0.182054
    22  H    0.003688  -0.002983  -0.106959   0.609687  -0.687110   0.271208
    23  H   -0.003724  -0.005885   0.112321  -0.142732   0.337586  -0.548845
    24  H   -0.002012  -0.008293  -0.124596   0.129228  -0.216182   0.296441
    25  H   -0.044612  -0.278908   0.928445  -0.150296   0.131985  -0.197349
    26  H   -0.000791   0.000503  -0.000018   0.000036  -0.000001  -0.000007
    27  H   -0.000190  -0.000307  -0.000167  -0.000199  -0.000076  -0.000006
    28  H    0.001580   0.000687   0.000885   0.000038   0.000174  -0.000006
    29  H    0.053813  -0.004926   0.010525  -0.001821   0.001848  -0.000616
    30  H    0.013757   0.002801  -0.002796   0.002336  -0.000011   0.000084
    31  H   -0.024425   0.002217   0.002183   0.000116   0.000290   0.000008
    32  H   -0.003795  -0.002380  -0.001972  -0.000230  -0.000144  -0.000002
    33  H   -0.118068   0.049577   0.013634  -0.001566  -0.000946  -0.000245
              13         14         15         16         17         18
     1  O   -0.000005  -0.000184  -0.140510   0.032112   0.003591   0.046427
     2  S   -0.002682  -0.005256  -0.340956   0.049036   0.087099  -0.084560
     3  N   -0.028959  -0.036149  -0.175447  -0.027058   0.107413  -0.084841
     4  C    0.246137  -0.061405  -0.081555   0.031392  -0.153475   0.359416
     5  N   -0.023878   0.010763   0.019965  -0.006293   0.030779  -0.016014
     6  N    0.026603   0.489128   0.027511  -0.000938  -0.023844   0.009954
     7  C   -0.090966  -0.194991   0.041501  -0.017525   0.045948  -0.171219
     8  N   -0.230646  -0.105038  -0.017289   0.001353   0.018742   0.005140
     9  C    2.809677  -5.424715  -0.016773   0.001052   0.015091   0.011557
    10  C   -3.214047   2.235437  -0.001483  -0.002246   0.002385  -0.017263
    11  C    2.962065  -3.338363  -0.002098  -0.000754   0.002200  -0.001124
    12  C   -2.947905   3.147646   0.000014  -0.000086  -0.000337  -0.000357
    13  C    9.655578  -3.653156   0.000193   0.000119   0.000241   0.000633
    14  C   -3.653156  13.246767   0.005322   0.000571  -0.004328   0.004476
    15  N    0.000193   0.005322   8.900236  -0.016001  -0.072663  -0.026116
    16  C    0.000119   0.000571  -0.016001   4.164917  -0.050081  -0.017343
    17  C    0.000241  -0.004328  -0.072663  -0.050081   4.049398   0.014020
    18  O    0.000633   0.004476  -0.026116  -0.017343   0.014020   8.932436
    19  H    0.000229   0.005200  -0.027504   0.007944  -0.012950   0.009610
    20  H   -0.034903  -0.116523  -0.007997  -0.002554   0.013618  -0.014668
    21  H    0.138460  -0.122925   0.001049   0.000222  -0.000680   0.001556
    22  H   -0.229653   0.104340  -0.000054  -0.000002   0.000123   0.000066
    23  H    0.360152  -0.126382   0.000004  -0.000001  -0.000016  -0.000004
    24  H   -0.635245   0.536001  -0.000006   0.000003   0.000016   0.000021
    25  H    0.313050  -1.002781   0.000037  -0.000054   0.000075  -0.000162
    26  H    0.000005  -0.000026  -0.083067   0.383062  -0.008546   0.009158
    27  H    0.000012   0.000051  -0.172626   0.413165   0.031009  -0.010614
    28  H    0.000005  -0.000118  -0.053398   0.285887   0.023413   0.029974
    29  H    0.000262  -0.005238  -0.122146  -0.029522   0.317448   0.038591
    30  H   -0.000153   0.000136  -0.128334   0.028005   0.311902  -0.018404
    31  H   -0.000041  -0.000256  -0.147321   0.016421   0.401891   0.000513
    32  H    0.000056   0.000278   0.310905  -0.009843   0.005155  -0.000802
    33  H    0.002751  -0.005364   0.003816   0.000627  -0.003446   0.000513
              19         20         21         22         23         24
     1  O    0.029263  -0.007964   0.001013  -0.000020   0.000001  -0.000001
     2  S   -0.059522   0.072882  -0.012819   0.000583  -0.000054  -0.000026
     3  N    0.175776   0.020870  -0.014593   0.000175   0.000115  -0.000480
     4  C    0.181135  -0.338432   0.108133   0.001614  -0.000589   0.003116
     5  N   -0.101933  -0.087128  -0.010830  -0.000833  -0.000062   0.000263
     6  N    0.006932  -0.102497   0.001968  -0.002545   0.002598  -0.002815
     7  C   -0.090745  -0.139234   0.003619   0.003688  -0.003724  -0.002012
     8  N   -0.031480   0.131037  -0.214111  -0.002983  -0.005885  -0.008293
     9  C   -0.004023   0.064745   0.853929  -0.106959   0.112321  -0.124596
    10  C   -0.005218   0.036295  -1.002772   0.609687  -0.142732   0.129228
    11  C   -0.000004   0.087598   0.107108  -0.687110   0.337586  -0.216182
    12  C   -0.000061   0.011314  -0.182054   0.271208  -0.548845   0.296441
    13  C    0.000229  -0.034903   0.138460  -0.229653   0.360152  -0.635245
    14  C    0.005200  -0.116523  -0.122925   0.104340  -0.126382   0.536001
    15  N   -0.027504  -0.007997   0.001049  -0.000054   0.000004  -0.000006
    16  C    0.007944  -0.002554   0.000222  -0.000002  -0.000001   0.000003
    17  C   -0.012950   0.013618  -0.000680   0.000123  -0.000016   0.000016
    18  O    0.009610  -0.014668   0.001556   0.000066  -0.000004   0.000021
    19  H    0.966238  -0.004394   0.000422   0.000021   0.000006  -0.000008
    20  H   -0.004394   1.979269  -0.069356   0.003280  -0.000053  -0.000112
    21  H    0.000422  -0.069356   2.163163  -0.085859  -0.014949   0.010245
    22  H    0.000021   0.003280  -0.085859   1.597957  -0.060128  -0.017898
    23  H    0.000006  -0.000053  -0.014949  -0.060128   1.571086  -0.064369
    24  H   -0.000008  -0.000112   0.010245  -0.017898  -0.064369   1.572268
    25  H    0.000100  -0.003794  -0.017756   0.009613  -0.011786  -0.077549
    26  H   -0.002035  -0.000224  -0.000047   0.000004  -0.000000   0.000000
    27  H    0.001599   0.000866  -0.000143  -0.000002  -0.000000   0.000000
    28  H   -0.001240  -0.001146   0.000279   0.000004  -0.000000   0.000001
    29  H   -0.005968   0.006131   0.000591   0.000056  -0.000007   0.000030
    30  H    0.004367   0.000939  -0.001793   0.000065   0.000004  -0.000011
    31  H   -0.000174  -0.000418  -0.000748   0.000029  -0.000001  -0.000000
    32  H    0.019461  -0.001851   0.000261  -0.000008  -0.000001  -0.000000
    33  H   -0.001670  -0.000963   0.000724  -0.000060  -0.000013   0.000033
              25         26         27         28         29         30
     1  O    0.000041  -0.004022  -0.003236   0.014567   0.001283  -0.000621
     2  S   -0.000706   0.013223   0.060058  -0.052777  -0.024936   0.060784
     3  N    0.007126   0.023554  -0.016600   0.022750   0.082784  -0.031035
     4  C   -0.027219   0.001824  -0.004628  -0.005517  -0.121094  -0.021991
     5  N    0.017291  -0.000447  -0.000948   0.000982   0.046864   0.000003
     6  N   -0.001873  -0.000274  -0.000038  -0.000174  -0.008745   0.001159
     7  C   -0.044612  -0.000791  -0.000190   0.001580   0.053813   0.013757
     8  N   -0.278908   0.000503  -0.000307   0.000687  -0.004926   0.002801
     9  C    0.928445  -0.000018  -0.000167   0.000885   0.010525  -0.002796
    10  C   -0.150296   0.000036  -0.000199   0.000038  -0.001821   0.002336
    11  C    0.131985  -0.000001  -0.000076   0.000174   0.001848  -0.000011
    12  C   -0.197349  -0.000007  -0.000006  -0.000006  -0.000616   0.000084
    13  C    0.313050   0.000005   0.000012   0.000005   0.000262  -0.000153
    14  C   -1.002781  -0.000026   0.000051  -0.000118  -0.005238   0.000136
    15  N    0.000037  -0.083067  -0.172626  -0.053398  -0.122146  -0.128334
    16  C   -0.000054   0.383062   0.413165   0.285887  -0.029522   0.028005
    17  C    0.000075  -0.008546   0.031009   0.023413   0.317448   0.311902
    18  O   -0.000162   0.009158  -0.010614   0.029974   0.038591  -0.018404
    19  H    0.000100  -0.002035   0.001599  -0.001240  -0.005968   0.004367
    20  H   -0.003794  -0.000224   0.000866  -0.001146   0.006131   0.000939
    21  H   -0.017756  -0.000047  -0.000143   0.000279   0.000591  -0.001793
    22  H    0.009613   0.000004  -0.000002   0.000004   0.000056   0.000065
    23  H   -0.011786  -0.000000  -0.000000  -0.000000  -0.000007   0.000004
    24  H   -0.077549   0.000000   0.000000   0.000001   0.000030  -0.000011
    25  H    1.933786  -0.000010  -0.000003   0.000001   0.000167  -0.000008
    26  H   -0.000010   1.143770  -0.254211  -0.151799  -0.004383  -0.000157
    27  H   -0.000003  -0.254211   1.222244  -0.182329   0.002606   0.009253
    28  H    0.000001  -0.151799  -0.182329   1.092958   0.009299  -0.013501
    29  H    0.000167  -0.004383   0.002606   0.009299   1.523675  -0.223551
    30  H   -0.000008  -0.000157   0.009253  -0.013501  -0.223551   1.201825
    31  H    0.000023   0.014005  -0.000491  -0.007272  -0.321154  -0.178301
    32  H   -0.000031  -0.010440  -0.008444   0.015153  -0.024339   0.026126
    33  H   -0.001717  -0.000060   0.000102   0.000033   0.003443   0.000346
              31         32         33
     1  O    0.001102   0.034499  -0.000336
     2  S   -0.006212   0.039179  -0.006101
     3  N    0.018150  -0.049154  -0.001983
     4  C    0.053457   0.003472   0.073657
     5  N   -0.007371  -0.002434   0.421634
     6  N   -0.003489   0.002023  -0.206306
     7  C   -0.024425  -0.003795  -0.118068
     8  N    0.002217  -0.002380   0.049577
     9  C    0.002183  -0.001972   0.013634
    10  C    0.000116  -0.000230  -0.001566
    11  C    0.000290  -0.000144  -0.000946
    12  C    0.000008  -0.000002  -0.000245
    13  C   -0.000041   0.000056   0.002751
    14  C   -0.000256   0.000278  -0.005364
    15  N   -0.147321   0.310905   0.003816
    16  C    0.016421  -0.009843   0.000627
    17  C    0.401891   0.005155  -0.003446
    18  O    0.000513  -0.000802   0.000513
    19  H   -0.000174   0.019461  -0.001670
    20  H   -0.000418  -0.001851  -0.000963
    21  H   -0.000748   0.000261   0.000724
    22  H    0.000029  -0.000008  -0.000060
    23  H   -0.000001  -0.000001  -0.000013
    24  H   -0.000000  -0.000000   0.000033
    25  H    0.000023  -0.000031  -0.001717
    26  H    0.014005  -0.010440  -0.000060
    27  H   -0.000491  -0.008444   0.000102
    28  H   -0.007272   0.015153   0.000033
    29  H   -0.321154  -0.024339   0.003443
    30  H   -0.178301   0.026126   0.000346
    31  H    1.318224  -0.018431  -0.001555
    32  H   -0.018431   0.519594  -0.000256
    33  H   -0.001555  -0.000256   0.776754
 Mulliken charges:
               1
     1  O   -0.960796
     2  S    2.917093
     3  N   -0.927945
     4  C    0.994388
     5  N   -0.408308
     6  N   -0.219258
     7  C    1.105681
     8  N   -0.612072
     9  C    1.051663
    10  C    0.265894
    11  C    0.601416
    12  C    0.582296
    13  C    0.576013
    14  C    0.417082
    15  N   -0.677206
    16  C    0.764411
    17  C    0.848810
    18  O   -1.010569
    19  H   -0.059373
    20  H   -0.494633
    21  H   -0.641304
    22  H   -0.408398
    23  H   -0.404271
    24  H   -0.398063
    25  H   -0.525122
    26  H   -0.068579
    27  H   -0.085703
    28  H   -0.029391
    29  H   -0.200969
    30  H   -0.043224
    31  H   -0.110967
    32  H    0.158394
    33  H    0.003009
 Sum of Mulliken charges =   2.00000
 Mulliken charges with hydrogens summed into heavy atoms:
               1
     1  O   -0.960796
     2  S    2.917093
     3  N   -0.987318
     4  C    0.994388
     5  N   -0.405299
     6  N   -0.219258
     7  C    0.611048
     8  N   -0.612072
     9  C    1.051663
    10  C   -0.375410
    11  C    0.193018
    12  C    0.178025
    13  C    0.177951
    14  C   -0.108040
    15  N   -0.518812
    16  C    0.580739
    17  C    0.493650
    18  O   -1.010569
 Electronic spatial extent (au):  <R**2>=           6618.1722
 Charge=              2.0000 electrons
 Dipole moment (field-independent basis, Debye):
    X=             -8.3368    Y=              3.5185    Z=              5.9932  Tot=             10.8536
 Quadrupole moment (field-independent basis, Debye-Ang):
   XX=             13.4258   YY=            -77.7132   ZZ=           -101.7135
   XY=             -4.0747   XZ=            -24.8643   YZ=              0.1183
 Traceless Quadrupole moment (field-independent basis, Debye-Ang):
   XX=             68.7595   YY=            -22.3796   ZZ=            -46.3799
   XY=             -4.0747   XZ=            -24.8643   YZ=              0.1183
 Octapole moment (field-independent basis, Debye-Ang**2):
  XXX=            -50.6530  YYY=             34.4142  ZZZ=             24.3478  XYY=            -18.6068
  XXY=            -66.8228  XXZ=             91.7622  XZZ=            -66.6872  YZZ=             -0.0334
  YYZ=             13.4687  XYZ=             13.7483
 Hexadecapole moment (field-independent basis, Debye-Ang**3):
 XXXX=          -3909.3046 YYYY=           -687.6125 ZZZZ=           -503.8482 XXXY=             58.0712
 XXXZ=           -386.3591 YYYX=            -68.4462 YYYZ=             26.8678 ZZZX=            -86.3149
 ZZZY=             -5.5684 XXYY=          -1037.3223 XXZZ=          -1282.3237 YYZZ=           -230.7298
 XXYZ=            -33.5673 YYXZ=            -23.4052 ZZXY=             35.2144
 N-N= 1.501904886737D+03 E-N=-5.799233432741D+03  KE= 1.204758176030D+03
 Leave Link  601 at Mon Sep 28 09:15:58 2020, MaxMem=   262144000 cpu:               1.6 elap:               0.7
 (Enter /prod/apps/gaussian/g16b1/l9999.exe)
 1\1\GINC-PIRINEUS15\SP\RMP2-FC\Aug-CC-pVDZ\C10H15N5O2S1(2+)\UBAFAR01\2
 8-Sep-2020\0\\#p mp2/aug-cc-pVDZ scf=(MaxCycle=2000,NoVarAcc,NoIncFock
 ) maxdisk=120GB geom=allcheck\\SM46_m3.b.5.pdb.xyz\\2,1\O,0,-3.8426257
 618,-0.7912645184,-1.5952045859\S,0,-2.791517734,-0.4633180044,-0.6581
 863092\N,0,-1.7543445684,0.5900468036,-1.381183113\C,0,-0.4213405847,0
 .7503980117,-1.0266364661\N,0,0.1960349961,1.9590620013,-1.0321561794\
 N,0,1.4654862314,1.8853703123,-0.7011164257\C,0,0.5495335657,-0.150581
 5288,-0.6496998154\N,0,1.6658203497,0.6031954198,-0.4564065213\C,0,2.9
 66216636,0.1478009383,-0.0527904122\C,0,3.0598077868,-0.930540062,0.82
 57831632\C,0,4.3263522494,-1.3653169533,1.2110771081\C,0,5.4685048743,
 -0.723483234,0.7287916894\C,0,5.3498567722,0.3575951538,-0.147832946\C
 ,0,4.0928440053,0.8011313991,-0.551148288\N,0,-3.681701746,0.558596306
 9,0.6312616633\C,0,-4.8519144406,-0.2297682475,1.1490905714\C,0,-2.766
 796703,1.0117527303,1.7245605534\O,0,-2.0296226488,-1.4239279394,0.111
 6783561\H,0,-2.1718969133,1.2368830192,-2.0576227385\H,0,0.523458468,-
 1.2181957794,-0.5324085066\H,0,2.1697636811,-1.4087259373,1.2163850523
 \H,0,4.4156725256,-2.1996316289,1.896900413\H,0,6.450438173,-1.0655033
 366,1.0353634461\H,0,6.2356391701,0.8526527435,-0.5283464246\H,0,3.983
 0826303,1.6264071312,-1.2424890875\H,0,-5.4818022396,-0.5099003145,0.3
 093980993\H,0,-5.3929655918,0.4212054358,1.8329696116\H,0,-4.477436182
 6,-1.1064823517,1.6732964664\H,0,-2.0167885787,1.6827018522,1.31421502
 29\H,0,-2.3093196594,0.1383337512,2.182561414\H,0,-3.3773927331,1.5466
 651144,2.4497694273\H,0,-4.038469205,1.3853955531,0.1195937717\H,0,-0.
 2065768242,2.8724461585,-1.2634680105\\Version=ES64L-G16RevB.01\State=
 1-A\HF=-1206.2823806\MP2=-1209.0873103\RMSD=2.883e-09\PG=C01 [X(C10H15
 N5O2S1)]\\@


 IT PROBABLY IS NOT POSSIBLE FOR A SCIENTIST TO INTERROGATE NATURE 
 FROM A WHOLLY DISINTERESTED VIEWPOINT.
 EVEN IF HE HAS NO PARTICULAR AXE TO GRIND, HE IS LIKELY TO HAVE 
 A DISTINCTIVE WAY OF VIEWING NATURE.

                                                   -- JOHN LOSEE
 Job cpu time:       0 days  2 hours 17 minutes 31.9 seconds.
 Elapsed time:       0 days  0 hours 38 minutes 21.1 seconds.
 File lengths (MBytes):  RWF=  81703 Int=      0 D2E=      0 Chk=     25 Scr=      1
 Normal termination of Gaussian 16 at Mon Sep 28 09:16:02 2020.
