 Entering Gaussian System, Link 0=g16
 Initial command:
 /prod/apps/gaussian/g16b1/l1.exe "/tmp/ubafar01/1458821/Gau-204247.inp" -scrdir="/tmp/ubafar01/1458821/"
 Entering Link 1 = /prod/apps/gaussian/g16b1/l1.exe PID=    204250.
  
 Copyright (c) 1988-2017, Gaussian, Inc.  All Rights Reserved.
  
 This is part of the Gaussian(R) 16 program.  It is based on
 the Gaussian(R) 09 system (copyright 2009, Gaussian, Inc.),
 the Gaussian(R) 03 system (copyright 2003, Gaussian, Inc.),
 the Gaussian(R) 98 system (copyright 1998, Gaussian, Inc.),
 the Gaussian(R) 94 system (copyright 1995, Gaussian, Inc.),
 the Gaussian 92(TM) system (copyright 1992, Gaussian, Inc.),
 the Gaussian 90(TM) system (copyright 1990, Gaussian, Inc.),
 the Gaussian 88(TM) system (copyright 1988, Gaussian, Inc.),
 the Gaussian 86(TM) system (copyright 1986, Carnegie Mellon
 University), and the Gaussian 82(TM) system (copyright 1983,
 Carnegie Mellon University). Gaussian is a federally registered
 trademark of Gaussian, Inc.
  
 This software contains proprietary and confidential information,
 including trade secrets, belonging to Gaussian, Inc.
  
 This software is provided under written license and may be
 used, copied, transmitted, or stored only in accord with that
 written license.
  
 The following legend is applicable only to US Government
 contracts under FAR:
  
                    RESTRICTED RIGHTS LEGEND
  
 Use, reproduction and disclosure by the US Government is
 subject to restrictions as set forth in subparagraphs (a)
 and (c) of the Commercial Computer Software - Restricted
 Rights clause in FAR 52.227-19.
  
 Gaussian, Inc.
 340 Quinnipiac St., Bldg. 40, Wallingford CT 06492
  
  
 ---------------------------------------------------------------
 Warning -- This program may not be used in any manner that
 competes with the business of Gaussian, Inc. or will provide
 assistance to any competitor of Gaussian, Inc.  The licensee
 of this program is prohibited from giving any competitor of
 Gaussian, Inc. access to this program.  By using this program,
 the user acknowledges that Gaussian, Inc. is engaged in the
 business of creating and licensing software in the field of
 computational chemistry and represents and warrants to the
 licensee that it is not a competitor of Gaussian, Inc. and that
 it will not use this program in any manner prohibited above.
 ---------------------------------------------------------------
  

 Cite this work as:
 Gaussian 16, Revision B.01,
 M. J. Frisch, G. W. Trucks, H. B. Schlegel, G. E. Scuseria, 
 M. A. Robb, J. R. Cheeseman, G. Scalmani, V. Barone, 
 G. A. Petersson, H. Nakatsuji, X. Li, M. Caricato, A. V. Marenich, 
 J. Bloino, B. G. Janesko, R. Gomperts, B. Mennucci, H. P. Hratchian, 
 J. V. Ortiz, A. F. Izmaylov, J. L. Sonnenberg, D. Williams-Young, 
 F. Ding, F. Lipparini, F. Egidi, J. Goings, B. Peng, A. Petrone, 
 T. Henderson, D. Ranasinghe, V. G. Zakrzewski, J. Gao, N. Rega, 
 G. Zheng, W. Liang, M. Hada, M. Ehara, K. Toyota, R. Fukuda, 
 J. Hasegawa, M. Ishida, T. Nakajima, Y. Honda, O. Kitao, H. Nakai, 
 T. Vreven, K. Throssell, J. A. Montgomery, Jr., J. E. Peralta, 
 F. Ogliaro, M. J. Bearpark, J. J. Heyd, E. N. Brothers, K. N. Kudin, 
 V. N. Staroverov, T. A. Keith, R. Kobayashi, J. Normand, 
 K. Raghavachari, A. P. Rendell, J. C. Burant, S. S. Iyengar, 
 J. Tomasi, M. Cossi, J. M. Millam, M. Klene, C. Adamo, R. Cammi, 
 J. W. Ochterski, R. L. Martin, K. Morokuma, O. Farkas, 
 J. B. Foresman, and D. J. Fox, Gaussian, Inc., Wallingford CT, 2016.
 
 ******************************************
 Gaussian 16:  ES64L-G16RevB.01 20-Dec-2017
                14-Sep-2020 
 ******************************************
 %nproc=4
 Will use up to    4 processors via shared memory.
 %Chk=SM46_m0.n.6.pdb.xyz.mst.n.w.chk
 %mem=16GB
 ----------------------------------------------------------------------
 #p b3lyp/6-31G(d) opt freq NoSymm scf=(MaxCycle=2000,NoVarAcc,NoIncFoc
 k) scrf=(iefpcm,read,solvent=water) MaxDisk=20GB
 ----------------------------------------------------------------------
 1/18=20,19=15,26=3,38=1,40=2/1,3;
 2/9=110,12=2,15=1,17=6,18=5,40=1/2;
 3/5=1,6=6,7=1,11=2,25=1,30=1,70=2203,71=1,72=1,74=-5/1,2,3;
 4//1;
 5/5=100002,7=2000,38=1,53=1/2;
 6/7=2,8=2,9=2,10=2,28=1/1;
 7/30=1/1,2,3,16;
 1/18=20,19=15,26=3/3(2);
 2/9=110,15=1/2;
 99//99;
 2/9=110,15=1/2;
 3/5=1,6=6,7=1,11=2,25=1,30=1,70=2205,71=1,72=1,74=-5/1,2,3;
 4/5=5,16=3,69=1/1;
 5/5=100002,7=2000,38=1,53=1/2;
 7/30=1/1,2,3,16;
 1/18=20,19=15,26=3/3(-5);
 2/9=110,15=1/2;
 6/7=2,8=2,9=2,10=2,19=2,28=1/1;
 99/9=1/99;
 Leave Link    1 at Mon Sep 14 02:05:24 2020, MaxMem=  2147483648 cpu:               0.2 elap:               0.0
 (Enter /prod/apps/gaussian/g16b1/l101.exe)
 -------------------
 SM46_m0.n.6.pdb.xyz
 -------------------
 Symbolic Z-matrix:
 Charge =  0 Multiplicity = 1
 O                     2.002     0.331     1.627 
 S                     2.857    -0.21      0.572 
 N                     1.833    -0.848    -0.65 
 C                     0.452    -0.941    -0.415 
 N                    -0.162    -2.131    -0.168 
 N                    -1.447    -1.925    -0.039 
 C                    -0.5       0.056    -0.434 
 N                    -1.663    -0.596    -0.183 
 C                    -2.977    -0.056    -0.075 
 C                    -3.146     1.283     0.282 
 C                    -4.434     1.805     0.376 
 C                    -5.544     0.993     0.131 
 C                    -5.36     -0.347    -0.216 
 C                    -4.077    -0.878    -0.328 
 N                     3.664     1.081    -0.114 
 C                     4.611     0.725    -1.182 
 C                     2.818     2.239    -0.44 
 O                     3.867    -1.231     0.862 
 H                     2.236    -1.717    -1.002 
 H                    -0.441     1.115    -0.612 
 H                    -2.284     1.905     0.493 
 H                    -4.568     2.845     0.651 
 H                    -6.545     1.402     0.21 
 H                    -6.216    -0.983    -0.412 
 H                    -3.921    -1.911    -0.609 
 H                     5.238    -0.1      -0.853 
 H                     5.239     1.599    -1.361 
 H                     4.1       0.458    -2.115 
 H                     2.175     2.468     0.406 
 H                     2.209     2.066    -1.337 
 H                     3.483     3.085    -0.622 
 
 ITRead=  0  0  0  0  0  0  0  0  0  0  0  0  0  0  0  0  0  0  0  0
 ITRead=  0  0  0  0  0  0  0  0  0  0  0
 MicOpt= -1 -1 -1 -1 -1 -1 -1 -1 -1 -1 -1 -1 -1 -1 -1 -1 -1 -1 -1 -1
 MicOpt= -1 -1 -1 -1 -1 -1 -1 -1 -1 -1 -1
 NAtoms=     31 NQM=       31 NQMF=       0 NMMI=      0 NMMIF=      0
                NMic=       0 NMicF=      0.
                    Isotopes and Nuclear Properties:
 (Nuclear quadrupole moments (NQMom) in fm**2, nuclear magnetic moments (NMagM)
  in nuclear magnetons)

  Atom         1           2           3           4           5           6           7           8           9          10
 IAtWgt=          16          32          14          12          14          14          12          14          12          12
 AtmWgt=  15.9949146  31.9720718  14.0030740  12.0000000  14.0030740  14.0030740  12.0000000  14.0030740  12.0000000  12.0000000
 NucSpn=           0           0           2           0           2           2           0           2           0           0
 AtZEff=  -0.0000000  -0.0000000  -0.0000000  -0.0000000  -0.0000000  -0.0000000  -0.0000000  -0.0000000  -0.0000000  -0.0000000
 NQMom=    0.0000000   0.0000000   2.0440000   0.0000000   2.0440000   2.0440000   0.0000000   2.0440000   0.0000000   0.0000000
 NMagM=    0.0000000   0.0000000   0.4037610   0.0000000   0.4037610   0.4037610   0.0000000   0.4037610   0.0000000   0.0000000
 AtZNuc=   8.0000000  16.0000000   7.0000000   6.0000000   7.0000000   7.0000000   6.0000000   7.0000000   6.0000000   6.0000000

  Atom        11          12          13          14          15          16          17          18          19          20
 IAtWgt=          12          12          12          12          14          12          12          16           1           1
 AtmWgt=  12.0000000  12.0000000  12.0000000  12.0000000  14.0030740  12.0000000  12.0000000  15.9949146   1.0078250   1.0078250
 NucSpn=           0           0           0           0           2           0           0           0           1           1
 AtZEff=  -0.0000000  -0.0000000  -0.0000000  -0.0000000  -0.0000000  -0.0000000  -0.0000000  -0.0000000  -0.0000000  -0.0000000
 NQMom=    0.0000000   0.0000000   0.0000000   0.0000000   2.0440000   0.0000000   0.0000000   0.0000000   0.0000000   0.0000000
 NMagM=    0.0000000   0.0000000   0.0000000   0.0000000   0.4037610   0.0000000   0.0000000   0.0000000   2.7928460   2.7928460
 AtZNuc=   6.0000000   6.0000000   6.0000000   6.0000000   7.0000000   6.0000000   6.0000000   8.0000000   1.0000000   1.0000000

  Atom        21          22          23          24          25          26          27          28          29          30
 IAtWgt=           1           1           1           1           1           1           1           1           1           1
 AtmWgt=   1.0078250   1.0078250   1.0078250   1.0078250   1.0078250   1.0078250   1.0078250   1.0078250   1.0078250   1.0078250
 NucSpn=           1           1           1           1           1           1           1           1           1           1
 AtZEff=  -0.0000000  -0.0000000  -0.0000000  -0.0000000  -0.0000000  -0.0000000  -0.0000000  -0.0000000  -0.0000000  -0.0000000
 NQMom=    0.0000000   0.0000000   0.0000000   0.0000000   0.0000000   0.0000000   0.0000000   0.0000000   0.0000000   0.0000000
 NMagM=    2.7928460   2.7928460   2.7928460   2.7928460   2.7928460   2.7928460   2.7928460   2.7928460   2.7928460   2.7928460
 AtZNuc=   1.0000000   1.0000000   1.0000000   1.0000000   1.0000000   1.0000000   1.0000000   1.0000000   1.0000000   1.0000000

  Atom        31
 IAtWgt=           1
 AtmWgt=   1.0078250
 NucSpn=           1
 AtZEff=  -0.0000000
 NQMom=    0.0000000
 NMagM=    2.7928460
 AtZNuc=   1.0000000
 Leave Link  101 at Mon Sep 14 02:05:24 2020, MaxMem=  2147483648 cpu:               1.2 elap:               0.3
 (Enter /prod/apps/gaussian/g16b1/l103.exe)

 GradGradGradGradGradGradGradGradGradGradGradGradGradGradGradGradGradGrad
 Berny optimization.
 Initialization pass.
                           ----------------------------
                           !    Initial Parameters    !
                           ! (Angstroms and Degrees)  !
 --------------------------                            --------------------------
 ! Name  Definition              Value          Derivative Info.                !
 --------------------------------------------------------------------------------
 ! R1    R(1,2)                  1.4618         estimate D2E/DX2                !
 ! R2    R(2,3)                  1.7172         estimate D2E/DX2                !
 ! R3    R(2,15)                 1.6699         estimate D2E/DX2                !
 ! R4    R(2,18)                 1.4651         estimate D2E/DX2                !
 ! R5    R(3,4)                  1.4039         estimate D2E/DX2                !
 ! R6    R(3,19)                 1.0205         estimate D2E/DX2                !
 ! R7    R(4,5)                  1.3617         estimate D2E/DX2                !
 ! R8    R(4,7)                  1.3786         estimate D2E/DX2                !
 ! R9    R(5,6)                  1.3078         estimate D2E/DX2                !
 ! R10   R(6,8)                  1.3541         estimate D2E/DX2                !
 ! R11   R(7,8)                  1.3567         estimate D2E/DX2                !
 ! R12   R(7,20)                 1.0755         estimate D2E/DX2                !
 ! R13   R(8,9)                  1.4247         estimate D2E/DX2                !
 ! R14   R(9,10)                 1.396          estimate D2E/DX2                !
 ! R15   R(9,14)                 1.3963         estimate D2E/DX2                !
 ! R16   R(10,11)                1.3929         estimate D2E/DX2                !
 ! R17   R(10,21)                1.0837         estimate D2E/DX2                !
 ! R18   R(11,12)                1.3969         estimate D2E/DX2                !
 ! R19   R(11,22)                1.0841         estimate D2E/DX2                !
 ! R20   R(12,13)                1.3964         estimate D2E/DX2                !
 ! R21   R(12,23)                1.0842         estimate D2E/DX2                !
 ! R22   R(13,14)                1.3931         estimate D2E/DX2                !
 ! R23   R(13,24)                1.0843         estimate D2E/DX2                !
 ! R24   R(14,25)                1.0818         estimate D2E/DX2                !
 ! R25   R(15,16)                1.4711         estimate D2E/DX2                !
 ! R26   R(15,17)                1.4707         estimate D2E/DX2                !
 ! R27   R(16,26)                1.0872         estimate D2E/DX2                !
 ! R28   R(16,27)                1.091          estimate D2E/DX2                !
 ! R29   R(16,28)                1.0968         estimate D2E/DX2                !
 ! R30   R(17,29)                1.087          estimate D2E/DX2                !
 ! R31   R(17,30)                1.0979         estimate D2E/DX2                !
 ! R32   R(17,31)                1.0914         estimate D2E/DX2                !
 ! A1    A(1,2,3)              107.5963         estimate D2E/DX2                !
 ! A2    A(1,2,15)             107.0396         estimate D2E/DX2                !
 ! A3    A(1,2,18)             121.216          estimate D2E/DX2                !
 ! A4    A(3,2,15)             106.4436         estimate D2E/DX2                !
 ! A5    A(3,2,18)             107.0385         estimate D2E/DX2                !
 ! A6    A(15,2,18)            106.6736         estimate D2E/DX2                !
 ! A7    A(2,3,4)              119.4762         estimate D2E/DX2                !
 ! A8    A(2,3,19)             109.0464         estimate D2E/DX2                !
 ! A9    A(4,3,19)             112.9403         estimate D2E/DX2                !
 ! A10   A(3,4,5)              122.1278         estimate D2E/DX2                !
 ! A11   A(3,4,7)              128.9792         estimate D2E/DX2                !
 ! A12   A(5,4,7)              108.8523         estimate D2E/DX2                !
 ! A13   A(4,5,6)              108.8625         estimate D2E/DX2                !
 ! A14   A(5,6,8)              107.5081         estimate D2E/DX2                !
 ! A15   A(4,7,8)              103.9957         estimate D2E/DX2                !
 ! A16   A(4,7,20)             132.5701         estimate D2E/DX2                !
 ! A17   A(8,7,20)             123.4259         estimate D2E/DX2                !
 ! A18   A(6,8,7)              110.7686         estimate D2E/DX2                !
 ! A19   A(6,8,9)              120.7333         estimate D2E/DX2                !
 ! A20   A(7,8,9)              128.4969         estimate D2E/DX2                !
 ! A21   A(8,9,10)             119.6411         estimate D2E/DX2                !
 ! A22   A(8,9,14)             119.3209         estimate D2E/DX2                !
 ! A23   A(10,9,14)            121.038          estimate D2E/DX2                !
 ! A24   A(9,10,11)            119.2506         estimate D2E/DX2                !
 ! A25   A(9,10,21)            120.2648         estimate D2E/DX2                !
 ! A26   A(11,10,21)           120.4817         estimate D2E/DX2                !
 ! A27   A(10,11,12)           120.3357         estimate D2E/DX2                !
 ! A28   A(10,11,22)           119.4021         estimate D2E/DX2                !
 ! A29   A(12,11,22)           120.2593         estimate D2E/DX2                !
 ! A30   A(11,12,13)           119.7805         estimate D2E/DX2                !
 ! A31   A(11,12,23)           120.1027         estimate D2E/DX2                !
 ! A32   A(13,12,23)           120.1168         estimate D2E/DX2                !
 ! A33   A(12,13,14)           120.4727         estimate D2E/DX2                !
 ! A34   A(12,13,24)           120.2503         estimate D2E/DX2                !
 ! A35   A(14,13,24)           119.2736         estimate D2E/DX2                !
 ! A36   A(9,14,13)            119.1166         estimate D2E/DX2                !
 ! A37   A(9,14,25)            119.708          estimate D2E/DX2                !
 ! A38   A(13,14,25)           121.1752         estimate D2E/DX2                !
 ! A39   A(2,15,16)            114.9763         estimate D2E/DX2                !
 ! A40   A(2,15,17)            114.9481         estimate D2E/DX2                !
 ! A41   A(16,15,17)           113.5729         estimate D2E/DX2                !
 ! A42   A(15,16,26)           109.584          estimate D2E/DX2                !
 ! A43   A(15,16,27)           107.205          estimate D2E/DX2                !
 ! A44   A(15,16,28)           112.1212         estimate D2E/DX2                !
 ! A45   A(26,16,27)           109.0008         estimate D2E/DX2                !
 ! A46   A(26,16,28)           109.9618         estimate D2E/DX2                !
 ! A47   A(27,16,28)           108.883          estimate D2E/DX2                !
 ! A48   A(15,17,29)           109.4892         estimate D2E/DX2                !
 ! A49   A(15,17,30)           112.0928         estimate D2E/DX2                !
 ! A50   A(15,17,31)           107.2665         estimate D2E/DX2                !
 ! A51   A(29,17,30)           109.934          estimate D2E/DX2                !
 ! A52   A(29,17,31)           109.0819         estimate D2E/DX2                !
 ! A53   A(30,17,31)           108.8982         estimate D2E/DX2                !
 ! D1    D(1,2,3,4)             -8.6427         estimate D2E/DX2                !
 ! D2    D(1,2,3,19)          -140.6164         estimate D2E/DX2                !
 ! D3    D(15,2,3,4)          -123.1072         estimate D2E/DX2                !
 ! D4    D(15,2,3,19)          104.9191         estimate D2E/DX2                !
 ! D5    D(18,2,3,4)           123.1057         estimate D2E/DX2                !
 ! D6    D(18,2,3,19)           -8.868          estimate D2E/DX2                !
 ! D7    D(1,2,15,16)          178.3351         estimate D2E/DX2                !
 ! D8    D(1,2,15,17)          -46.975          estimate D2E/DX2                !
 ! D9    D(3,2,15,16)          -66.8222         estimate D2E/DX2                !
 ! D10   D(3,2,15,17)           67.8677         estimate D2E/DX2                !
 ! D11   D(18,2,15,16)          47.2142         estimate D2E/DX2                !
 ! D12   D(18,2,15,17)        -178.0958         estimate D2E/DX2                !
 ! D13   D(2,3,4,5)           -105.9676         estimate D2E/DX2                !
 ! D14   D(2,3,4,7)             76.618          estimate D2E/DX2                !
 ! D15   D(19,3,4,5)            24.2938         estimate D2E/DX2                !
 ! D16   D(19,3,4,7)          -153.1206         estimate D2E/DX2                !
 ! D17   D(3,4,5,6)           -177.5783         estimate D2E/DX2                !
 ! D18   D(7,4,5,6)              0.298          estimate D2E/DX2                !
 ! D19   D(3,4,7,8)            178.1024         estimate D2E/DX2                !
 ! D20   D(3,4,7,20)            -0.8455         estimate D2E/DX2                !
 ! D21   D(5,4,7,8)              0.416          estimate D2E/DX2                !
 ! D22   D(5,4,7,20)          -178.5319         estimate D2E/DX2                !
 ! D23   D(4,5,6,8)             -0.895          estimate D2E/DX2                !
 ! D24   D(5,6,8,7)              1.1977         estimate D2E/DX2                !
 ! D25   D(5,6,8,9)           -179.1592         estimate D2E/DX2                !
 ! D26   D(4,7,8,6)             -0.9776         estimate D2E/DX2                !
 ! D27   D(4,7,8,9)            179.4144         estimate D2E/DX2                !
 ! D28   D(20,7,8,6)           178.0941         estimate D2E/DX2                !
 ! D29   D(20,7,8,9)            -1.5139         estimate D2E/DX2                !
 ! D30   D(6,8,9,10)           155.6694         estimate D2E/DX2                !
 ! D31   D(6,8,9,14)           -24.2889         estimate D2E/DX2                !
 ! D32   D(7,8,9,10)           -24.757          estimate D2E/DX2                !
 ! D33   D(7,8,9,14)           155.2847         estimate D2E/DX2                !
 ! D34   D(8,9,10,11)          179.5502         estimate D2E/DX2                !
 ! D35   D(8,9,10,21)           -1.0638         estimate D2E/DX2                !
 ! D36   D(14,9,10,11)          -0.4921         estimate D2E/DX2                !
 ! D37   D(14,9,10,21)         178.8939         estimate D2E/DX2                !
 ! D38   D(8,9,14,13)          179.7483         estimate D2E/DX2                !
 ! D39   D(8,9,14,25)           -0.4132         estimate D2E/DX2                !
 ! D40   D(10,9,14,13)          -0.2095         estimate D2E/DX2                !
 ! D41   D(10,9,14,25)         179.629          estimate D2E/DX2                !
 ! D42   D(9,10,11,12)           0.7476         estimate D2E/DX2                !
 ! D43   D(9,10,11,22)        -179.8724         estimate D2E/DX2                !
 ! D44   D(21,10,11,12)       -178.637          estimate D2E/DX2                !
 ! D45   D(21,10,11,22)          0.743          estimate D2E/DX2                !
 ! D46   D(10,11,12,13)         -0.3038         estimate D2E/DX2                !
 ! D47   D(10,11,12,23)        179.6992         estimate D2E/DX2                !
 ! D48   D(22,11,12,13)       -179.6784         estimate D2E/DX2                !
 ! D49   D(22,11,12,23)          0.3245         estimate D2E/DX2                !
 ! D50   D(11,12,13,14)         -0.4106         estimate D2E/DX2                !
 ! D51   D(11,12,13,24)       -179.7348         estimate D2E/DX2                !
 ! D52   D(23,12,13,14)        179.5865         estimate D2E/DX2                !
 ! D53   D(23,12,13,24)          0.2623         estimate D2E/DX2                !
 ! D54   D(12,13,14,9)           0.6621         estimate D2E/DX2                !
 ! D55   D(12,13,14,25)       -179.1739         estimate D2E/DX2                !
 ! D56   D(24,13,14,9)         179.9929         estimate D2E/DX2                !
 ! D57   D(24,13,14,25)          0.1569         estimate D2E/DX2                !
 ! D58   D(2,15,16,26)         -47.789          estimate D2E/DX2                !
 ! D59   D(2,15,16,27)        -165.9483         estimate D2E/DX2                !
 ! D60   D(2,15,16,28)          74.6068         estimate D2E/DX2                !
 ! D61   D(17,15,16,26)        176.9012         estimate D2E/DX2                !
 ! D62   D(17,15,16,27)         58.742          estimate D2E/DX2                !
 ! D63   D(17,15,16,28)        -60.7029         estimate D2E/DX2                !
 ! D64   D(2,15,17,29)          46.9534         estimate D2E/DX2                !
 ! D65   D(2,15,17,30)         -75.3208         estimate D2E/DX2                !
 ! D66   D(2,15,17,31)         165.1928         estimate D2E/DX2                !
 ! D67   D(16,15,17,29)       -177.7238         estimate D2E/DX2                !
 ! D68   D(16,15,17,30)         60.002          estimate D2E/DX2                !
 ! D69   D(16,15,17,31)        -59.4844         estimate D2E/DX2                !
 --------------------------------------------------------------------------------
 Trust Radius=3.00D-01 FncErr=1.00D-07 GrdErr=1.00D-06 EigMax=2.50D+02 EigMin=1.00D-04
 Number of steps in this run=    164 maximum allowed number of steps=    186.
 GradGradGradGradGradGradGradGradGradGradGradGradGradGradGradGradGradGrad

 Leave Link  103 at Mon Sep 14 02:05:25 2020, MaxMem=  2147483648 cpu:               0.1 elap:               0.0
 (Enter /prod/apps/gaussian/g16b1/l202.exe)
                          Input orientation:                          
 ---------------------------------------------------------------------
 Center     Atomic      Atomic             Coordinates (Angstroms)
 Number     Number       Type             X           Y           Z
 ---------------------------------------------------------------------
      1          8           0        2.002000    0.331000    1.627000
      2         16           0        2.857000   -0.210000    0.572000
      3          7           0        1.833000   -0.848000   -0.650000
      4          6           0        0.452000   -0.941000   -0.415000
      5          7           0       -0.162000   -2.131000   -0.168000
      6          7           0       -1.447000   -1.925000   -0.039000
      7          6           0       -0.500000    0.056000   -0.434000
      8          7           0       -1.663000   -0.596000   -0.183000
      9          6           0       -2.977000   -0.056000   -0.075000
     10          6           0       -3.146000    1.283000    0.282000
     11          6           0       -4.434000    1.805000    0.376000
     12          6           0       -5.544000    0.993000    0.131000
     13          6           0       -5.360000   -0.347000   -0.216000
     14          6           0       -4.077000   -0.878000   -0.328000
     15          7           0        3.664000    1.081000   -0.114000
     16          6           0        4.611000    0.725000   -1.182000
     17          6           0        2.818000    2.239000   -0.440000
     18          8           0        3.867000   -1.231000    0.862000
     19          1           0        2.236000   -1.717000   -1.002000
     20          1           0       -0.441000    1.115000   -0.612000
     21          1           0       -2.284000    1.905000    0.493000
     22          1           0       -4.568000    2.845000    0.651000
     23          1           0       -6.545000    1.402000    0.210000
     24          1           0       -6.216000   -0.983000   -0.412000
     25          1           0       -3.921000   -1.911000   -0.609000
     26          1           0        5.238000   -0.100000   -0.853000
     27          1           0        5.239000    1.599000   -1.361000
     28          1           0        4.100000    0.458000   -2.115000
     29          1           0        2.175000    2.468000    0.406000
     30          1           0        2.209000    2.066000   -1.337000
     31          1           0        3.483000    3.085000   -0.622000
 ---------------------------------------------------------------------
                    Distance matrix (angstroms):
                    1          2          3          4          5
     1  O    0.000000
     2  S    1.461756   0.000000
     3  N    2.569695   1.717237   0.000000
     4  C    2.861861   2.700473   1.403936   0.000000
     5  N    3.737160   3.654067   2.420421   1.361655   0.000000
     6  N    4.445300   4.673218   3.505945   2.171597   1.307785
     7  C    3.253206   3.514576   2.511327   1.378649   2.228894
     8  N    4.191379   4.598850   3.536044   2.155475   2.146963
     9  C    5.276079   5.871787   4.908563   3.557649   3.498357
    10  C    5.405297   6.192670   5.495473   4.286909   4.556550
    11  C    6.720102   7.566857   6.882323   5.660317   5.834211
    12  C    7.721294   8.498146   7.643257   6.323803   6.230145
    13  C    7.619408   8.255834   7.223476   5.845663   5.495832
    14  C    6.499073   7.024000   5.918841   4.530274   4.113737
    15  N    2.521076   1.669888   2.713097   3.807365   4.995812
    16  C    3.853907   2.650897   3.236454   4.545451   5.653889
    17  C    2.928960   2.650145   3.247136   3.963708   5.296346
    18  O    2.550156   1.465142   2.563199   3.657466   4.254849
    19  H    3.340764   2.265870   1.020526   2.032093   2.572422
    20  H    3.405294   3.746236   3.004312   2.250199   3.288083
    21  H    4.704596   5.559618   5.082829   4.050911   4.607505
    22  H    7.101948   8.029314   7.503576   6.377347   6.696579
    23  H    8.729613   9.546056   8.717395   7.405288   7.305317
    24  H    8.568526   9.158882   8.053649   6.668133   6.166714
    25  H    6.716263   7.087274   5.851510   4.483488   3.791169
    26  H    4.099739   2.777028   3.492097   4.879029   5.809835
    27  H    4.584118   3.561305   4.253724   5.501080   6.671353
    28  H    4.291887   3.035003   2.998525   4.260881   5.353352
    29  H    2.467294   2.768459   3.496849   3.906923   5.190554
    30  H    3.440693   3.040454   3.017406   3.602663   4.960142
    31  H    3.851737   3.560132   4.265181   5.043658   6.379561
                    6          7          8          9         10
     6  N    0.000000
     7  C    2.230963   0.000000
     8  N    1.354117   1.356714   0.000000
     9  C    2.415648   2.505385   1.424732   0.000000
    10  C    3.644298   3.003248   2.438474   1.396041   0.000000
    11  C    4.796592   4.380806   3.708871   2.406153   1.392934
    12  C    5.032796   5.161311   4.205434   2.780706   2.420187
    13  C    4.222912   4.881550   3.705523   2.404839   2.794047
    14  C    2.845458   3.698448   2.434737   1.396314   2.430799
    15  N    5.929923   4.300223   5.585161   6.737742   6.824494
    16  C    6.710314   5.208588   6.488923   7.707993   7.913641
    17  C    5.974104   3.971731   5.308732   6.243579   6.083134
    18  O    5.434338   4.733569   5.663581   7.007063   7.472534
    19  H    3.812496   3.309358   4.138792   5.549200   6.294011
    20  H    3.252993   1.075475   2.145890   2.844452   2.853854
    21  H    3.956323   2.731444   2.664136   2.156013   1.083720
    22  H    5.741920   5.050185   4.579854   3.387353   2.144316
    23  H    6.092662   6.226434   5.289648   3.864921   3.401844
    24  H    4.875434   5.809704   4.575152   3.385856   3.878310
    25  H    2.538852   3.950058   2.647502   2.148794   3.405311
    26  H    6.977281   5.755392   6.951167   8.251875   8.572769
    27  H    7.672604   6.014674   7.337800   8.479120   8.550294
    28  H    6.384174   4.913997   6.168931   7.383070   7.676637
    29  H    5.710986   3.698509   4.946237   5.757173   5.452765
    30  H    5.565898   3.492018   4.838424   5.743703   5.648918
    31  H    7.053006   5.007442   6.342223   7.203936   6.928785
                   11         12         13         14         15
    11  C    0.000000
    12  C    1.396950   0.000000
    13  C    2.416411   1.396376   0.000000
    14  C    2.796704   2.421448   1.393052   0.000000
    15  N    8.145052   9.211679   9.136857   7.987901   0.000000
    16  C    9.241525  10.243038  10.074879   8.875825   1.471111
    17  C    7.310658   8.473583   8.580050   7.567645   1.470699
    18  O    8.852124   9.697807   9.331724   8.040388   2.517763
    19  H    7.667612   8.316020   7.758474   6.404074   3.264434
    20  H    4.170886   5.158250   5.146923   4.156104   4.135237
    21  H    2.155502   3.404466   3.877623   3.410862   6.035406
    22  H    1.084058   2.157054   3.401149   3.880754   8.453564
    23  H    2.155525   1.084215   2.155157   3.402774  10.219183
    24  H    3.401384   2.156620   1.084273   2.143222  10.097688
    25  H    3.878408   3.408071   2.161311   1.081844   8.168801
    26  H    9.934136  10.881839  10.619999   9.362165   2.101989
    27  H    9.829880  10.902586  10.836823   9.694868   2.074598
    28  H    8.991588   9.916525   9.682243   8.475942   2.140613
    29  H    6.642240   7.863473   8.067672   7.128953   2.100307
    30  H    6.865270   7.963376   8.023028   7.014201   2.140789
    31  H    8.081664   9.296784   9.494320   8.540808   2.075293
                   16         17         18         19         20
    16  C    0.000000
    17  C    2.461221   0.000000
    18  O    2.925305   3.851818   0.000000
    19  H    3.411215   4.037884   2.524055   0.000000
    20  H    5.098990   3.451672   5.122036   3.916459   0.000000
    21  H    7.192986   5.197350   6.914149   5.981999   2.289492
    22  H    9.597308   7.490695   9.370567   8.356953   4.649752
    23  H   11.262874   9.422783  10.759532   9.396971   6.165782
    24  H   10.987907   9.591414  10.166192   8.504302   6.147538
    25  H    8.948287   7.916134   7.954821   6.172579   4.611625
    26  H    1.087196   3.390854   2.469823   3.413048   5.812516
    27  H    1.091009   2.668161   3.851365   4.488067   5.749579
    28  H    1.096768   2.760636   3.430676   3.073091   4.828182
    29  H    3.390264   1.087017   4.093092   4.415927   3.116150
    30  H    2.755342   1.097916   4.295902   3.797900   2.907323
    31  H    2.674992   1.091359   4.580128   4.975803   4.390760
                   21         22         23         24         25
    21  H    0.000000
    22  H    2.474918   0.000000
    23  H    4.299909   2.487018   0.000000
    24  H    4.961874   4.301100   2.486634   0.000000
    25  H    4.296048   4.962433   4.304893   2.483348   0.000000
    26  H    7.900141  10.348559  11.925815  11.496447   9.339515
    27  H    7.754127  10.088504  11.889891  11.780677   9.838252
    28  H    7.046342   9.406527  10.936763  10.554456   8.498037
    29  H    4.495244   6.757973   8.787103   9.109742   7.574106
    30  H    4.854057   7.105400   8.914405   9.007366   7.343256
    31  H    5.991153   8.154553  10.202230  10.519664   8.931932
                   26         27         28         29         30
    26  H    0.000000
    27  H    1.773321   0.000000
    28  H    1.788589   1.779808   0.000000
    29  H    4.190665   3.642190   3.755152   0.000000
    30  H    3.755084   3.065871   2.601313   1.789080   0.000000
    31  H    3.643846   2.416165   3.083969   1.774355   1.781197
                   31
    31  H    0.000000
 Symmetry turned off by external request.
 Stoichiometry    C10H13N5O2S
 Framework group  C1[X(C10H13N5O2S)]
 Deg. of freedom    87
 Full point group                 C1      NOp   1
 Rotational constants (GHZ):           1.0329808           0.1723180           0.1579784
 Leave Link  202 at Mon Sep 14 02:05:25 2020, MaxMem=  2147483648 cpu:               0.0 elap:               0.0
 (Enter /prod/apps/gaussian/g16b1/l301.exe)
 Standard basis: 6-31G(d) (6D, 7F)
 Ernie: Thresh=  0.10000D-02 Tol=  0.10000D-05 Strict=F.
   300 basis functions,   580 primitive gaussians,   300 cartesian basis functions
    70 alpha electrons       70 beta electrons
       nuclear repulsion energy      1462.4975738340 Hartrees.
 IExCor=  402 DFT=T Ex+Corr=B3LYP ExCW=0 ScaHFX=  0.200000
 ScaDFX=  0.800000  0.720000  1.000000  0.810000 ScalE2=  1.000000  1.000000
 IRadAn=      5 IRanWt=     -1 IRanGd=            0 ICorTp=0 IEmpDi=  4
 NAtoms=   31 NActive=   31 NUniq=   31 SFac= 1.00D+00 NAtFMM=   60 NAOKFM=F Big=F
 Integral buffers will be    131072 words long.
 Raffenetti 2 integral format.
 Two-electron integral symmetry is turned off.
 Using the following non-standard input for PCM:
 MSTModel=DFT cav
 --- end of non-standard input.
 MST model for solvation energy: B3LYP parametrization.
 MST cavity parameters:
 ISph   IAn     Re0     Alpha   Atom Type   QCorr
 ------------------------------------------------
   1      8     1.40     1.25      O          F
   2     16     1.75     1.25      S          F
   3      7     1.50     1.25      NH         F
   4      6     1.50     1.25      C          F
   5      7     1.40     1.25      N          F
   6      7     1.40     1.25      N          F
   7      6     1.50     1.25      CH         F
   8      7     1.40     1.25      N          F
   9      6     1.50     1.25      C          F
  10      6     1.50     1.25      CH         F
  11      6     1.50     1.25      CH         F
  12      6     1.50     1.25      CH         F
  13      6     1.50     1.25      CH         F
  14      6     1.50     1.25      CH         F
  15      7     1.40     1.25      N          F
  16      6     1.50     1.25      CH3        F
  17      6     1.50     1.25      CH3        F
  18      8     1.40     1.25      O          F
  19      1     0.90     1.25      NH         F
  20      1     1.20     1.25      CH         F
  21      1     1.20     1.25      CH         F
  22      1     1.20     1.25      CH         F
  23      1     1.20     1.25      CH         F
  24      1     1.20     1.25      CH         F
  25      1     1.20     1.25      CH         F
  26      1     1.20     1.25      CH3        F
  27      1     1.20     1.25      CH3        F
  28      1     1.20     1.25      CH3        F
  29      1     1.20     1.25      CH3        F
  30      1     1.20     1.25      CH3        F
  31      1     1.20     1.25      CH3        F
 ------------------------------------------------------------------------------
 Polarizable Continuum Model (PCM)
 =================================
 Model                : PCM.
 Atomic radii         : MST.
 Polarization charges : Total charges.
 Charge compensation  : None.
 Solution method      : On-the-fly selection.
 Cavity type          : Scaled VdW (van der Waals Surface) (Alpha=1.250).
 Cavity algorithm     : GePol (No added spheres)
                        Default sphere list used, NSphG=   31.
                        Lebedev-Laikov grids with approx.  5.0 points / Ang**2.
                        Smoothing algorithm: York/Karplus (Gamma=1.0000).
                        Polarization charges: spherical gaussians, with
                                              point-specific exponents (IZeta= 3).
                        Self-potential: point-specific (ISelfS= 7).
                        Self-field    : sphere-specific E.n sum rule (ISelfD= 2).
 1st derivatives      : Analytical E(r).r(x)/FMM algorithm (CHGder, D1EAlg=3).
                        Cavity 1st derivative terms included.
 Solvent              : Water, Eps=  78.355300 Eps(inf)=   1.777849
 ------------------------------------------------------------------------------
 GePol: Number of generator spheres                  =      31
 GePol: Total number of spheres                      =      31
 GePol: Number of exposed spheres                    =      31 (100.00%)
 GePol: Number of points                             =    2357
 GePol: Average weight of points                     =       0.13
 GePol: Minimum weight of points                     =   0.41D-09
 GePol: Maximum weight of points                     =    0.22001
 GePol: Number of points with low weight             =     119
 GePol: Fraction of low-weight points (<1% of avg)   =       5.05%
 GePol: Cavity surface area                          =    308.742 Ang**2
 GePol: Cavity volume                                =    291.773 Ang**3
 PCM non-electrostatic energy =         0.0034230986 Hartrees.
 Nuclear repulsion after PCM non-electrostatic terms =     1462.5009969326 Hartrees.
 Leave Link  301 at Mon Sep 14 02:05:25 2020, MaxMem=  2147483648 cpu:               0.3 elap:               0.1
 (Enter /prod/apps/gaussian/g16b1/l302.exe)
 NPDir=0 NMtPBC=     1 NCelOv=     1 NCel=       1 NClECP=     1 NCelD=      1
         NCelK=      1 NCelE2=     1 NClLst=     1 CellRange=     0.0.
 One-electron integrals computed using PRISM.
 NBasis=   300 RedAO= T EigKep=  4.66D-04  NBF=   300
 NBsUse=   300 1.00D-06 EigRej= -1.00D+00 NBFU=   300
 Precomputing XC quadrature grid using
 IXCGrd= 4 IRadAn=           5 IRanWt=          -1 IRanGd=           0 AccXCQ= 0.00D+00.
 Generated NRdTot=       0 NPtTot=           0 NUsed=           0 NTot=          32
 NSgBfM=   298   298   298   298   298 MxSgAt=    31 MxSgA2=    31.
 Leave Link  302 at Mon Sep 14 02:05:25 2020, MaxMem=  2147483648 cpu:               1.4 elap:               0.4
 (Enter /prod/apps/gaussian/g16b1/l303.exe)
 DipDrv:  MaxL=1.
 Leave Link  303 at Mon Sep 14 02:05:25 2020, MaxMem=  2147483648 cpu:               0.1 elap:               0.1
 (Enter /prod/apps/gaussian/g16b1/l401.exe)
 ExpMin= 1.17D-01 ExpMax= 2.19D+04 ExpMxC= 3.30D+03 IAcc=3 IRadAn=         5 AccDes= 0.00D+00
 Harris functional with IExCor=  402 and IRadAn=       5 diagonalized for initial guess.
 HarFok:  IExCor=  402 AccDes= 0.00D+00 IRadAn=         5 IDoV= 1 UseB2=F ITyADJ=14
 ICtDFT=  3500011 ScaDFX=  1.000000  1.000000  1.000000  1.000000
 FoFCou: FMM=F IPFlag=           0 FMFlag=      100000 FMFlg1=           0
         NFxFlg=           0 DoJE=T BraDBF=F KetDBF=T FulRan=T
         wScrn=  0.000000 ICntrl=       500 IOpCl=  0 I1Cent=   200000004 NGrid=           0
         NMat0=    1 NMatS0=      1 NMatT0=    0 NMatD0=    1 NMtDS0=    0 NMtDT0=    0
 Symmetry not used in FoFCou.
 Harris En= -1211.15979050312    
 JPrj=0 DoOrth=F DoCkMO=F.
 Leave Link  401 at Mon Sep 14 02:05:27 2020, MaxMem=  2147483648 cpu:               7.8 elap:               2.0
 (Enter /prod/apps/gaussian/g16b1/l502.exe)
 Keep R1 ints in memory in canonical form, NReq=1032920423.
 FoFCou: FMM=F IPFlag=           0 FMFlag=           0 FMFlg1=           0
         NFxFlg=           0 DoJE=F BraDBF=F KetDBF=F FulRan=T
         wScrn=  0.000000 ICntrl=       600 IOpCl=  0 I1Cent=           0 NGrid=           0
         NMat0=    1 NMatS0=  45150 NMatT0=    0 NMatD0=    1 NMtDS0=    0 NMtDT0=    0
 Symmetry not used in FoFCou.
 Two-electron integral symmetry not used.
 Closed shell SCF:
 Using DIIS extrapolation, IDIIS=  1040.
 NGot=  2147483648 LenX=  1128015396 LenY=  1127924955
 Requested convergence on RMS density matrix=1.00D-08 within2000 cycles.
 Requested convergence on MAX density matrix=1.00D-06.
 Requested convergence on             energy=1.00D-06.
 No special actions if energy rises.

 Cycle   1  Pass 1  IDiag  1:
 Inv3:  Mode=1 IEnd=    16666347.
 Iteration    1 A*A^-1 deviation from unit magnitude is 3.33D-15 for    195.
 Iteration    1 A*A^-1 deviation from orthogonality  is 1.89D-15 for   2186    573.
 Iteration    1 A^-1*A deviation from unit magnitude is 3.33D-15 for    195.
 Iteration    1 A^-1*A deviation from orthogonality  is 2.40D-15 for   1682    403.
 E= -1210.65349571585    
 DIIS: error= 2.60D-02 at cycle   1 NSaved=   1.
 NSaved= 1 IEnMin= 1 EnMin= -1210.65349571585     IErMin= 1 ErrMin= 2.60D-02
 ErrMax= 2.60D-02  0.00D+00 EMaxC= 1.00D-01 BMatC= 6.20D-01 BMatP= 6.20D-01
 IDIUse=3 WtCom= 7.40D-01 WtEn= 2.60D-01
 Coeff-Com:  0.100D+01
 Coeff-En:   0.100D+01
 Coeff:      0.100D+01
 Gap=     0.285 Goal=   None    Shift=    0.000
 GapD=    0.285 DampG=1.000 DampE=0.500 DampFc=0.5000 IDamp=-1.
 Damping current iteration by 5.00D-01
 RMSDP=6.13D-03 MaxDP=5.92D-01              OVMax= 2.13D-01

 Cycle   2  Pass 1  IDiag  1:
 E= -1210.80016623363     Delta-E=       -0.146670517786 Rises=F Damp=T
 DIIS: error= 1.07D-02 at cycle   2 NSaved=   2.
 NSaved= 2 IEnMin= 2 EnMin= -1210.80016623363     IErMin= 2 ErrMin= 1.07D-02
 ErrMax= 1.07D-02  0.00D+00 EMaxC= 1.00D-01 BMatC= 8.73D-02 BMatP= 6.20D-01
 IDIUse=3 WtCom= 8.93D-01 WtEn= 1.07D-01
 Coeff-Com:  0.216D+00 0.784D+00
 Coeff-En:   0.346D+00 0.654D+00
 Coeff:      0.229D+00 0.771D+00
 Gap=     0.218 Goal=   None    Shift=    0.000
 RMSDP=1.67D-03 MaxDP=1.32D-01 DE=-1.47D-01 OVMax= 1.72D-01

 Cycle   3  Pass 1  IDiag  1:
 E= -1211.15281197704     Delta-E=       -0.352645743413 Rises=F Damp=F
 DIIS: error= 7.96D-03 at cycle   3 NSaved=   3.
 NSaved= 3 IEnMin= 3 EnMin= -1211.15281197704     IErMin= 3 ErrMin= 7.96D-03
 ErrMax= 7.96D-03  0.00D+00 EMaxC= 1.00D-01 BMatC= 4.02D-02 BMatP= 8.73D-02
 IDIUse=3 WtCom= 9.20D-01 WtEn= 7.96D-02
 Coeff-Com:  0.595D-01 0.406D+00 0.535D+00
 Coeff-En:   0.000D+00 0.000D+00 0.100D+01
 Coeff:      0.548D-01 0.374D+00 0.572D+00
 Gap=     0.198 Goal=   None    Shift=    0.000
 RMSDP=8.62D-04 MaxDP=3.01D-02 DE=-3.53D-01 OVMax= 4.02D-02

 Cycle   4  Pass 1  IDiag  1:
 E= -1211.18211169186     Delta-E=       -0.029299714812 Rises=F Damp=F
 DIIS: error= 3.26D-03 at cycle   4 NSaved=   4.
 NSaved= 4 IEnMin= 4 EnMin= -1211.18211169186     IErMin= 4 ErrMin= 3.26D-03
 ErrMax= 3.26D-03  0.00D+00 EMaxC= 1.00D-01 BMatC= 6.78D-03 BMatP= 4.02D-02
 IDIUse=3 WtCom= 9.67D-01 WtEn= 3.26D-02
 Coeff-Com:  0.187D-02 0.896D-01 0.311D+00 0.597D+00
 Coeff-En:   0.000D+00 0.000D+00 0.132D+00 0.868D+00
 Coeff:      0.181D-02 0.867D-01 0.306D+00 0.606D+00
 Gap=     0.196 Goal=   None    Shift=    0.000
 RMSDP=2.95D-04 MaxDP=1.37D-02 DE=-2.93D-02 OVMax= 1.47D-02

 Cycle   5  Pass 1  IDiag  1:
 E= -1211.18748934840     Delta-E=       -0.005377656546 Rises=F Damp=F
 DIIS: error= 8.14D-04 at cycle   5 NSaved=   5.
 NSaved= 5 IEnMin= 5 EnMin= -1211.18748934840     IErMin= 5 ErrMin= 8.14D-04
 ErrMax= 8.14D-04  0.00D+00 EMaxC= 1.00D-01 BMatC= 4.83D-04 BMatP= 6.78D-03
 IDIUse=3 WtCom= 9.92D-01 WtEn= 8.14D-03
 Coeff-Com: -0.331D-02 0.183D-01 0.114D+00 0.310D+00 0.562D+00
 Coeff-En:   0.000D+00 0.000D+00 0.000D+00 0.000D+00 0.100D+01
 Coeff:     -0.329D-02 0.181D-01 0.113D+00 0.307D+00 0.565D+00
 Gap=     0.197 Goal=   None    Shift=    0.000
 RMSDP=8.40D-05 MaxDP=4.56D-03 DE=-5.38D-03 OVMax= 5.26D-03

 Cycle   6  Pass 1  IDiag  1:
 E= -1211.18788600725     Delta-E=       -0.000396658847 Rises=F Damp=F
 DIIS: error= 1.60D-04 at cycle   6 NSaved=   6.
 NSaved= 6 IEnMin= 6 EnMin= -1211.18788600725     IErMin= 6 ErrMin= 1.60D-04
 ErrMax= 1.60D-04  0.00D+00 EMaxC= 1.00D-01 BMatC= 2.96D-05 BMatP= 4.83D-04
 IDIUse=3 WtCom= 9.98D-01 WtEn= 1.60D-03
 Coeff-Com: -0.189D-02 0.323D-02 0.348D-01 0.111D+00 0.281D+00 0.571D+00
 Coeff-En:   0.000D+00 0.000D+00 0.000D+00 0.000D+00 0.000D+00 0.100D+01
 Coeff:     -0.189D-02 0.323D-02 0.348D-01 0.111D+00 0.281D+00 0.572D+00
 Gap=     0.197 Goal=   None    Shift=    0.000
 RMSDP=1.96D-05 MaxDP=1.06D-03 DE=-3.97D-04 OVMax= 1.73D-03

 Cycle   7  Pass 1  IDiag  1:
 E= -1211.18790921085     Delta-E=       -0.000023203603 Rises=F Damp=F
 DIIS: error= 8.10D-05 at cycle   7 NSaved=   7.
 NSaved= 7 IEnMin= 7 EnMin= -1211.18790921085     IErMin= 7 ErrMin= 8.10D-05
 ErrMax= 8.10D-05  0.00D+00 EMaxC= 1.00D-01 BMatC= 3.03D-06 BMatP= 2.96D-05
 IDIUse=1 WtCom= 1.00D+00 WtEn= 0.00D+00
 Coeff-Com: -0.821D-03 0.490D-03 0.105D-01 0.373D-01 0.112D+00 0.316D+00
 Coeff-Com:  0.525D+00
 Coeff:     -0.821D-03 0.490D-03 0.105D-01 0.373D-01 0.112D+00 0.316D+00
 Coeff:      0.525D+00
 Gap=     0.197 Goal=   None    Shift=    0.000
 RMSDP=6.70D-06 MaxDP=3.04D-04 DE=-2.32D-05 OVMax= 6.52D-04

 Cycle   8  Pass 1  IDiag  1:
 E= -1211.18791175897     Delta-E=       -0.000002548122 Rises=F Damp=F
 DIIS: error= 1.82D-05 at cycle   8 NSaved=   8.
 NSaved= 8 IEnMin= 8 EnMin= -1211.18791175897     IErMin= 8 ErrMin= 1.82D-05
 ErrMax= 1.82D-05  0.00D+00 EMaxC= 1.00D-01 BMatC= 3.08D-07 BMatP= 3.03D-06
 IDIUse=1 WtCom= 1.00D+00 WtEn= 0.00D+00
 Coeff-Com: -0.253D-03-0.118D-03 0.179D-02 0.797D-02 0.309D-01 0.111D+00
 Coeff-Com:  0.287D+00 0.562D+00
 Coeff:     -0.253D-03-0.118D-03 0.179D-02 0.797D-02 0.309D-01 0.111D+00
 Coeff:      0.287D+00 0.562D+00
 Gap=     0.197 Goal=   None    Shift=    0.000
 RMSDP=2.16D-06 MaxDP=1.19D-04 DE=-2.55D-06 OVMax= 2.17D-04

 Cycle   9  Pass 1  IDiag  1:
 E= -1211.18791199665     Delta-E=       -0.000000237676 Rises=F Damp=F
 DIIS: error= 7.24D-06 at cycle   9 NSaved=   9.
 NSaved= 9 IEnMin= 9 EnMin= -1211.18791199665     IErMin= 9 ErrMin= 7.24D-06
 ErrMax= 7.24D-06  0.00D+00 EMaxC= 1.00D-01 BMatC= 4.02D-08 BMatP= 3.08D-07
 IDIUse=1 WtCom= 1.00D+00 WtEn= 0.00D+00
 Coeff-Com: -0.253D-04-0.105D-03-0.447D-03-0.840D-03 0.138D-02 0.166D-01
 Coeff-Com:  0.856D-01 0.314D+00 0.584D+00
 Coeff:     -0.253D-04-0.105D-03-0.447D-03-0.840D-03 0.138D-02 0.166D-01
 Coeff:      0.856D-01 0.314D+00 0.584D+00
 Gap=     0.197 Goal=   None    Shift=    0.000
 RMSDP=7.02D-07 MaxDP=4.06D-05 DE=-2.38D-07 OVMax= 5.65D-05

 Cycle  10  Pass 1  IDiag  1:
 E= -1211.18791202968     Delta-E=       -0.000000033027 Rises=F Damp=F
 DIIS: error= 1.93D-06 at cycle  10 NSaved=  10.
 NSaved=10 IEnMin=10 EnMin= -1211.18791202968     IErMin=10 ErrMin= 1.93D-06
 ErrMax= 1.93D-06  0.00D+00 EMaxC= 1.00D-01 BMatC= 2.89D-09 BMatP= 4.02D-08
 IDIUse=1 WtCom= 1.00D+00 WtEn= 0.00D+00
 Coeff-Com: -0.850D-06-0.518D-04-0.346D-03-0.910D-03-0.111D-02 0.194D-02
 Coeff-Com:  0.289D-01 0.134D+00 0.312D+00 0.526D+00
 Coeff:     -0.850D-06-0.518D-04-0.346D-03-0.910D-03-0.111D-02 0.194D-02
 Coeff:      0.289D-01 0.134D+00 0.312D+00 0.526D+00
 Gap=     0.197 Goal=   None    Shift=    0.000
 RMSDP=2.11D-07 MaxDP=9.86D-06 DE=-3.30D-08 OVMax= 1.47D-05

 Cycle  11  Pass 1  IDiag  1:
 E= -1211.18791203218     Delta-E=       -0.000000002507 Rises=F Damp=F
 DIIS: error= 5.77D-07 at cycle  11 NSaved=  11.
 NSaved=11 IEnMin=11 EnMin= -1211.18791203218     IErMin=11 ErrMin= 5.77D-07
 ErrMax= 5.77D-07  0.00D+00 EMaxC= 1.00D-01 BMatC= 2.13D-10 BMatP= 2.89D-09
 IDIUse=1 WtCom= 1.00D+00 WtEn= 0.00D+00
 Coeff-Com:  0.287D-05-0.637D-05-0.107D-03-0.324D-03-0.730D-03-0.135D-02
 Coeff-Com:  0.290D-02 0.219D-01 0.665D-01 0.240D+00 0.671D+00
 Coeff:      0.287D-05-0.637D-05-0.107D-03-0.324D-03-0.730D-03-0.135D-02
 Coeff:      0.290D-02 0.219D-01 0.665D-01 0.240D+00 0.671D+00
 Gap=     0.197 Goal=   None    Shift=    0.000
 RMSDP=6.09D-08 MaxDP=2.98D-06 DE=-2.51D-09 OVMax= 5.85D-06

 Cycle  12  Pass 1  IDiag  1:
 E= -1211.18791203237     Delta-E=       -0.000000000185 Rises=F Damp=F
 DIIS: error= 2.75D-07 at cycle  12 NSaved=  12.
 NSaved=12 IEnMin=12 EnMin= -1211.18791203237     IErMin=12 ErrMin= 2.75D-07
 ErrMax= 2.75D-07  0.00D+00 EMaxC= 1.00D-01 BMatC= 4.88D-11 BMatP= 2.13D-10
 IDIUse=1 WtCom= 1.00D+00 WtEn= 0.00D+00
 Coeff-Com:  0.195D-05-0.410D-06-0.419D-04-0.135D-03-0.397D-03-0.113D-02
 Coeff-Com: -0.734D-03 0.217D-02 0.143D-01 0.106D+00 0.418D+00 0.462D+00
 Coeff:      0.195D-05-0.410D-06-0.419D-04-0.135D-03-0.397D-03-0.113D-02
 Coeff:     -0.734D-03 0.217D-02 0.143D-01 0.106D+00 0.418D+00 0.462D+00
 Gap=     0.197 Goal=   None    Shift=    0.000
 RMSDP=2.40D-08 MaxDP=1.33D-06 DE=-1.85D-10 OVMax= 1.88D-06

 Cycle  13  Pass 1  IDiag  1:
 E= -1211.18791203239     Delta-E=       -0.000000000025 Rises=F Damp=F
 DIIS: error= 7.39D-08 at cycle  13 NSaved=  13.
 NSaved=13 IEnMin=13 EnMin= -1211.18791203239     IErMin=13 ErrMin= 7.39D-08
 ErrMax= 7.39D-08  0.00D+00 EMaxC= 1.00D-01 BMatC= 2.30D-12 BMatP= 4.88D-11
 IDIUse=1 WtCom= 1.00D+00 WtEn= 0.00D+00
 Coeff-Com:  0.499D-06 0.773D-06-0.388D-05-0.140D-04-0.780D-04-0.329D-03
 Coeff-Com: -0.753D-03-0.234D-02-0.423D-02 0.130D-01 0.946D-01 0.205D+00
 Coeff-Com:  0.695D+00
 Coeff:      0.499D-06 0.773D-06-0.388D-05-0.140D-04-0.780D-04-0.329D-03
 Coeff:     -0.753D-03-0.234D-02-0.423D-02 0.130D-01 0.946D-01 0.205D+00
 Coeff:      0.695D+00
 Gap=     0.197 Goal=   None    Shift=    0.000
 RMSDP=6.93D-09 MaxDP=4.60D-07 DE=-2.46D-11 OVMax= 6.11D-07

 Error on total polarization charges =  0.02141
 SCF Done:  E(RB3LYP) =  -1211.18791203     A.U. after   13 cycles
            NFock= 13  Conv=0.69D-08     -V/T= 2.0076
 KE= 1.202091979421D+03 PE=-5.761703688163D+03 EE= 1.885922799777D+03
 Leave Link  502 at Mon Sep 14 02:06:29 2020, MaxMem=  2147483648 cpu:             194.5 elap:              61.6
 (Enter /prod/apps/gaussian/g16b1/l601.exe)
 Copying SCF densities to generalized density rwf, IOpCl= 0 IROHF=0.

 **********************************************************************

            Population analysis using the SCF Density.

 **********************************************************************

 Alpha  occ. eigenvalues --  -89.14148 -19.16357 -19.16241 -14.44602 -14.40356
 Alpha  occ. eigenvalues --  -14.38180 -14.38162 -14.37034 -10.26325 -10.25076
 Alpha  occ. eigenvalues --  -10.24233 -10.21998 -10.21979 -10.20629 -10.20369
 Alpha  occ. eigenvalues --  -10.20170 -10.20103 -10.19873  -8.16433  -6.12902
 Alpha  occ. eigenvalues --   -6.12865  -6.12817  -1.13745  -1.11280  -1.02324
 Alpha  occ. eigenvalues --   -0.95750  -0.94638  -0.92531  -0.86073  -0.80919
 Alpha  occ. eigenvalues --   -0.76390  -0.75893  -0.72638  -0.71482  -0.66604
 Alpha  occ. eigenvalues --   -0.65290  -0.61557  -0.60285  -0.59544  -0.56553
 Alpha  occ. eigenvalues --   -0.54438  -0.52103  -0.51685  -0.49824  -0.49083
 Alpha  occ. eigenvalues --   -0.48599  -0.47634  -0.46576  -0.45371  -0.44821
 Alpha  occ. eigenvalues --   -0.44191  -0.43329  -0.41942  -0.40729  -0.38862
 Alpha  occ. eigenvalues --   -0.38837  -0.37327  -0.37227  -0.36077  -0.35764
 Alpha  occ. eigenvalues --   -0.34500  -0.33900  -0.33546  -0.32151  -0.31515
 Alpha  occ. eigenvalues --   -0.29338  -0.26786  -0.26426  -0.26093  -0.24070
 Alpha virt. eigenvalues --   -0.04414  -0.01447   0.01095   0.02171   0.06424
 Alpha virt. eigenvalues --    0.07946   0.08306   0.08879   0.09335   0.10787
 Alpha virt. eigenvalues --    0.11725   0.13808   0.14224   0.14721   0.15230
 Alpha virt. eigenvalues --    0.15907   0.16549   0.16813   0.18248   0.18437
 Alpha virt. eigenvalues --    0.18819   0.19458   0.20020   0.20748   0.21157
 Alpha virt. eigenvalues --    0.22438   0.23553   0.26398   0.29402   0.30555
 Alpha virt. eigenvalues --    0.30923   0.32584   0.33672   0.33917   0.35866
 Alpha virt. eigenvalues --    0.39825   0.42349   0.43637   0.44533   0.48335
 Alpha virt. eigenvalues --    0.49490   0.49650   0.49959   0.50838   0.52546
 Alpha virt. eigenvalues --    0.53903   0.54714   0.55618   0.57083   0.57672
 Alpha virt. eigenvalues --    0.58162   0.58245   0.58298   0.58918   0.59846
 Alpha virt. eigenvalues --    0.60497   0.60795   0.61052   0.62798   0.63817
 Alpha virt. eigenvalues --    0.64686   0.65901   0.67059   0.68434   0.69866
 Alpha virt. eigenvalues --    0.69963   0.72031   0.73035   0.74460   0.75961
 Alpha virt. eigenvalues --    0.76860   0.78232   0.79172   0.80065   0.80766
 Alpha virt. eigenvalues --    0.81428   0.82911   0.83564   0.84001   0.84153
 Alpha virt. eigenvalues --    0.84722   0.85395   0.86817   0.88652   0.89337
 Alpha virt. eigenvalues --    0.89714   0.90622   0.91681   0.92381   0.93337
 Alpha virt. eigenvalues --    0.94127   0.94671   0.96319   0.97226   0.98470
 Alpha virt. eigenvalues --    0.98811   1.00634   1.01776   1.02938   1.03384
 Alpha virt. eigenvalues --    1.05386   1.05774   1.06888   1.10443   1.11163
 Alpha virt. eigenvalues --    1.12804   1.13388   1.15245   1.16096   1.16901
 Alpha virt. eigenvalues --    1.17652   1.18647   1.20242   1.23393   1.24601
 Alpha virt. eigenvalues --    1.26034   1.28455   1.30446   1.35286   1.36411
 Alpha virt. eigenvalues --    1.37673   1.39849   1.41329   1.41644   1.43543
 Alpha virt. eigenvalues --    1.44924   1.45404   1.46156   1.47859   1.49778
 Alpha virt. eigenvalues --    1.52424   1.53125   1.55309   1.58155   1.59253
 Alpha virt. eigenvalues --    1.62678   1.67275   1.69083   1.70179   1.76344
 Alpha virt. eigenvalues --    1.78058   1.78812   1.79551   1.79882   1.81178
 Alpha virt. eigenvalues --    1.81531   1.84267   1.86387   1.87437   1.87940
 Alpha virt. eigenvalues --    1.89132   1.90682   1.92130   1.94330   1.95586
 Alpha virt. eigenvalues --    1.96641   1.96864   1.97409   1.99652   2.04575
 Alpha virt. eigenvalues --    2.05007   2.06905   2.08097   2.09875   2.10085
 Alpha virt. eigenvalues --    2.10945   2.11913   2.12840   2.14691   2.15401
 Alpha virt. eigenvalues --    2.16226   2.18947   2.20083   2.21755   2.24237
 Alpha virt. eigenvalues --    2.24741   2.26900   2.28292   2.29565   2.29967
 Alpha virt. eigenvalues --    2.31992   2.33123   2.35517   2.36337   2.41889
 Alpha virt. eigenvalues --    2.42671   2.47593   2.48541   2.50465   2.53952
 Alpha virt. eigenvalues --    2.56804   2.58062   2.58908   2.59025   2.63725
 Alpha virt. eigenvalues --    2.64299   2.67095   2.69357   2.71462   2.72104
 Alpha virt. eigenvalues --    2.73966   2.74489   2.76701   2.77900   2.83717
 Alpha virt. eigenvalues --    2.85320   2.88121   2.99578   3.06154   3.13218
 Alpha virt. eigenvalues --    3.25541   3.42275   3.60955   3.75064   3.92103
 Alpha virt. eigenvalues --    3.99306   4.00042   4.04048   4.07531   4.10342
 Alpha virt. eigenvalues --    4.11203   4.12869   4.16825   4.21397   4.29389
 Alpha virt. eigenvalues --    4.30808   4.31760   4.38993   4.47027   4.71017
          Condensed to atoms (all electrons):
               1          2          3          4          5          6
     1  O    8.263487   0.443866  -0.056419   0.007685  -0.000716   0.000010
     2  S    0.443866  13.505982   0.125244  -0.016444  -0.000876   0.000256
     3  N   -0.056419   0.125244   7.384750   0.278980  -0.069099   0.006480
     4  C    0.007685  -0.016444   0.278980   4.601282   0.382000  -0.086461
     5  N   -0.000716  -0.000876  -0.069099   0.382000   6.914274   0.299132
     6  N    0.000010   0.000256   0.006480  -0.086461   0.299132   6.772261
     7  C    0.002668  -0.001062  -0.059063   0.515767  -0.074563  -0.095623
     8  N   -0.000172  -0.000258   0.002598  -0.032288  -0.098120   0.235687
     9  C    0.000005  -0.000017  -0.000107   0.004672   0.007093  -0.044231
    10  C   -0.000003   0.000000   0.000003   0.000919  -0.000344   0.002971
    11  C   -0.000000  -0.000000   0.000000  -0.000009   0.000002  -0.000067
    12  C    0.000000   0.000000  -0.000000   0.000000  -0.000000   0.000017
    13  C   -0.000000  -0.000000  -0.000000   0.000006  -0.000004   0.000292
    14  C    0.000000   0.000000   0.000000  -0.000463   0.000378  -0.000387
    15  N   -0.053855   0.194861  -0.059240  -0.001422  -0.000035   0.000001
    16  C    0.001524  -0.014185  -0.000899   0.000174   0.000000  -0.000000
    17  C   -0.005852  -0.015410  -0.000552  -0.000379   0.000001  -0.000000
    18  O   -0.039211   0.459138  -0.052771  -0.000789   0.000112  -0.000000
    19  H    0.000982  -0.007776   0.297010  -0.026937   0.003161  -0.000024
    20  H    0.000169   0.000325  -0.000273  -0.026299   0.004241   0.003442
    21  H   -0.000001   0.000003  -0.000001   0.000031  -0.000006  -0.000086
    22  H   -0.000000   0.000000   0.000000   0.000000  -0.000000   0.000001
    23  H    0.000000  -0.000000  -0.000000  -0.000000   0.000000   0.000000
    24  H   -0.000000  -0.000000   0.000000  -0.000000   0.000000  -0.000008
    25  H    0.000000  -0.000000  -0.000000   0.000025  -0.000308   0.016070
    26  H    0.000038  -0.000243  -0.000509  -0.000011  -0.000000   0.000000
    27  H   -0.000049   0.002668  -0.000094  -0.000003  -0.000000   0.000000
    28  H   -0.000048  -0.009880   0.007537   0.000182   0.000002  -0.000000
    29  H    0.010019  -0.001383  -0.000563   0.000001   0.000001   0.000000
    30  H   -0.000189  -0.009785   0.007045   0.000202   0.000013  -0.000001
    31  H    0.000123   0.002767  -0.000092  -0.000012  -0.000000   0.000000
               7          8          9         10         11         12
     1  O    0.002668  -0.000172   0.000005  -0.000003  -0.000000   0.000000
     2  S   -0.001062  -0.000258  -0.000017   0.000000  -0.000000   0.000000
     3  N   -0.059063   0.002598  -0.000107   0.000003   0.000000  -0.000000
     4  C    0.515767  -0.032288   0.004672   0.000919  -0.000009   0.000000
     5  N   -0.074563  -0.098120   0.007093  -0.000344   0.000002  -0.000000
     6  N   -0.095623   0.235687  -0.044231   0.002971  -0.000067   0.000017
     7  C    4.985990   0.335758  -0.033025  -0.006899   0.000014   0.000019
     8  N    0.335758   6.866852   0.201980  -0.050431   0.004698   0.000325
     9  C   -0.033025   0.201980   4.625118   0.528080  -0.009812  -0.038366
    10  C   -0.006899  -0.050431   0.528080   4.993634   0.526973  -0.040821
    11  C    0.000014   0.004698  -0.009812   0.526973   4.865968   0.542655
    12  C    0.000019   0.000325  -0.038366  -0.040821   0.542655   4.873042
    13  C   -0.000088   0.004547  -0.010630  -0.042148  -0.024834   0.539328
    14  C    0.007331  -0.059577   0.512899  -0.071449  -0.041544  -0.039189
    15  N    0.000326  -0.000001  -0.000000   0.000000   0.000000  -0.000000
    16  C   -0.000010   0.000000   0.000000  -0.000000  -0.000000   0.000000
    17  C    0.000112   0.000006   0.000000  -0.000000  -0.000000   0.000000
    18  O   -0.000016   0.000000  -0.000000   0.000000  -0.000000  -0.000000
    19  H    0.003668   0.000051  -0.000002   0.000000  -0.000000  -0.000000
    20  H    0.361615  -0.034523  -0.001626   0.002012   0.000162  -0.000001
    21  H    0.005842  -0.009221  -0.039435   0.354169  -0.035115   0.004309
    22  H   -0.000004  -0.000108   0.003428  -0.037675   0.363725  -0.039639
    23  H   -0.000000   0.000003   0.000482   0.004878  -0.041362   0.365938
    24  H    0.000001  -0.000104   0.003558   0.000705   0.004463  -0.040149
    25  H    0.000220  -0.013543  -0.039707   0.005523   0.000089   0.004538
    26  H   -0.000000  -0.000000  -0.000000   0.000000   0.000000  -0.000000
    27  H    0.000000  -0.000000  -0.000000   0.000000   0.000000   0.000000
    28  H   -0.000017   0.000000   0.000000  -0.000000  -0.000000   0.000000
    29  H    0.000058  -0.000000   0.000000  -0.000001  -0.000000   0.000000
    30  H   -0.000128   0.000010   0.000000   0.000000  -0.000000  -0.000000
    31  H    0.000013  -0.000000  -0.000000  -0.000000   0.000000  -0.000000
              13         14         15         16         17         18
     1  O   -0.000000   0.000000  -0.053855   0.001524  -0.005852  -0.039211
     2  S   -0.000000   0.000000   0.194861  -0.014185  -0.015410   0.459138
     3  N   -0.000000   0.000000  -0.059240  -0.000899  -0.000552  -0.052771
     4  C    0.000006  -0.000463  -0.001422   0.000174  -0.000379  -0.000789
     5  N   -0.000004   0.000378  -0.000035   0.000000   0.000001   0.000112
     6  N    0.000292  -0.000387   0.000001  -0.000000  -0.000000  -0.000000
     7  C   -0.000088   0.007331   0.000326  -0.000010   0.000112  -0.000016
     8  N    0.004547  -0.059577  -0.000001   0.000000   0.000006   0.000000
     9  C   -0.010630   0.512899  -0.000000   0.000000   0.000000  -0.000000
    10  C   -0.042148  -0.071449   0.000000  -0.000000  -0.000000   0.000000
    11  C   -0.024834  -0.041544   0.000000  -0.000000  -0.000000  -0.000000
    12  C    0.539328  -0.039189  -0.000000   0.000000   0.000000  -0.000000
    13  C    4.880067   0.518798   0.000000   0.000000  -0.000000   0.000000
    14  C    0.518798   4.999712  -0.000000  -0.000000   0.000000   0.000000
    15  N    0.000000  -0.000000   7.167236   0.270240   0.270036  -0.057145
    16  C    0.000000  -0.000000   0.270240   5.007152  -0.051046  -0.006275
    17  C   -0.000000   0.000000   0.270036  -0.051046   5.009677   0.001537
    18  O    0.000000   0.000000  -0.057145  -0.006275   0.001537   8.251576
    19  H    0.000000  -0.000000   0.000928  -0.000151   0.000110   0.003199
    20  H   -0.000005  -0.000085  -0.000157  -0.000000   0.000723  -0.000000
    21  H    0.000209   0.005301   0.000000   0.000000  -0.000000   0.000000
    22  H    0.004422   0.000726  -0.000000   0.000000  -0.000000  -0.000000
    23  H   -0.041503   0.004675  -0.000000  -0.000000   0.000000   0.000000
    24  H    0.364117  -0.037975   0.000000   0.000000  -0.000000   0.000000
    25  H   -0.038197   0.356814  -0.000000  -0.000000   0.000000   0.000000
    26  H    0.000000  -0.000000  -0.033330   0.375794   0.004506   0.009581
    27  H    0.000000   0.000000  -0.033651   0.377643  -0.003694   0.000136
    28  H   -0.000000   0.000000  -0.046480   0.372980  -0.001764  -0.000105
    29  H   -0.000000   0.000000  -0.032923   0.004565   0.375972   0.000032
    30  H    0.000000  -0.000000  -0.046223  -0.001730   0.372611  -0.000048
    31  H    0.000000  -0.000000  -0.033201  -0.003871   0.377457  -0.000049
              19         20         21         22         23         24
     1  O    0.000982   0.000169  -0.000001  -0.000000   0.000000  -0.000000
     2  S   -0.007776   0.000325   0.000003   0.000000  -0.000000  -0.000000
     3  N    0.297010  -0.000273  -0.000001   0.000000  -0.000000   0.000000
     4  C   -0.026937  -0.026299   0.000031   0.000000  -0.000000  -0.000000
     5  N    0.003161   0.004241  -0.000006  -0.000000   0.000000   0.000000
     6  N   -0.000024   0.003442  -0.000086   0.000001   0.000000  -0.000008
     7  C    0.003668   0.361615   0.005842  -0.000004  -0.000000   0.000001
     8  N    0.000051  -0.034523  -0.009221  -0.000108   0.000003  -0.000104
     9  C   -0.000002  -0.001626  -0.039435   0.003428   0.000482   0.003558
    10  C    0.000000   0.002012   0.354169  -0.037675   0.004878   0.000705
    11  C   -0.000000   0.000162  -0.035115   0.363725  -0.041362   0.004463
    12  C   -0.000000  -0.000001   0.004309  -0.039639   0.365938  -0.040149
    13  C    0.000000  -0.000005   0.000209   0.004422  -0.041503   0.364117
    14  C   -0.000000  -0.000085   0.005301   0.000726   0.004675  -0.037975
    15  N    0.000928  -0.000157   0.000000  -0.000000  -0.000000   0.000000
    16  C   -0.000151  -0.000000   0.000000   0.000000  -0.000000   0.000000
    17  C    0.000110   0.000723  -0.000000  -0.000000   0.000000  -0.000000
    18  O    0.003199  -0.000000   0.000000  -0.000000   0.000000   0.000000
    19  H    0.310174  -0.000099  -0.000000   0.000000  -0.000000  -0.000000
    20  H   -0.000099   0.460751   0.001537  -0.000001  -0.000000   0.000000
    21  H   -0.000000   0.001537   0.542333  -0.005121  -0.000144   0.000013
    22  H    0.000000  -0.000001  -0.005121   0.551061  -0.005056  -0.000164
    23  H   -0.000000  -0.000000  -0.000144  -0.005056   0.557548  -0.005096
    24  H   -0.000000   0.000000   0.000013  -0.000164  -0.005096   0.552264
    25  H   -0.000000  -0.000010  -0.000130   0.000013  -0.000135  -0.005179
    26  H    0.000038  -0.000000  -0.000000   0.000000  -0.000000   0.000000
    27  H    0.000002  -0.000000   0.000000  -0.000000  -0.000000  -0.000000
    28  H   -0.000047   0.000006  -0.000000   0.000000   0.000000   0.000000
    29  H   -0.000004   0.000239   0.000006  -0.000000  -0.000000   0.000000
    30  H   -0.000016   0.001239  -0.000002   0.000000   0.000000  -0.000000
    31  H    0.000002  -0.000021   0.000000   0.000000   0.000000  -0.000000
              25         26         27         28         29         30
     1  O    0.000000   0.000038  -0.000049  -0.000048   0.010019  -0.000189
     2  S   -0.000000  -0.000243   0.002668  -0.009880  -0.001383  -0.009785
     3  N   -0.000000  -0.000509  -0.000094   0.007537  -0.000563   0.007045
     4  C    0.000025  -0.000011  -0.000003   0.000182   0.000001   0.000202
     5  N   -0.000308  -0.000000  -0.000000   0.000002   0.000001   0.000013
     6  N    0.016070   0.000000   0.000000  -0.000000   0.000000  -0.000001
     7  C    0.000220  -0.000000   0.000000  -0.000017   0.000058  -0.000128
     8  N   -0.013543  -0.000000  -0.000000   0.000000  -0.000000   0.000010
     9  C   -0.039707  -0.000000  -0.000000   0.000000   0.000000   0.000000
    10  C    0.005523   0.000000   0.000000  -0.000000  -0.000001   0.000000
    11  C    0.000089   0.000000   0.000000  -0.000000  -0.000000  -0.000000
    12  C    0.004538  -0.000000   0.000000   0.000000   0.000000  -0.000000
    13  C   -0.038197   0.000000   0.000000  -0.000000  -0.000000   0.000000
    14  C    0.356814  -0.000000   0.000000   0.000000   0.000000  -0.000000
    15  N   -0.000000  -0.033330  -0.033651  -0.046480  -0.032923  -0.046223
    16  C   -0.000000   0.375794   0.377643   0.372980   0.004565  -0.001730
    17  C    0.000000   0.004506  -0.003694  -0.001764   0.375972   0.372611
    18  O    0.000000   0.009581   0.000136  -0.000105   0.000032  -0.000048
    19  H   -0.000000   0.000038   0.000002  -0.000047  -0.000004  -0.000016
    20  H   -0.000010  -0.000000  -0.000000   0.000006   0.000239   0.001239
    21  H   -0.000130  -0.000000   0.000000  -0.000000   0.000006  -0.000002
    22  H    0.000013   0.000000  -0.000000   0.000000  -0.000000   0.000000
    23  H   -0.000135  -0.000000  -0.000000   0.000000  -0.000000   0.000000
    24  H   -0.005179   0.000000  -0.000000   0.000000   0.000000  -0.000000
    25  H    0.539949  -0.000000   0.000000   0.000000  -0.000000   0.000000
    26  H   -0.000000   0.499282  -0.021206  -0.029946  -0.000201  -0.000160
    27  H    0.000000  -0.021206   0.519250  -0.034951   0.000011  -0.001463
    28  H    0.000000  -0.029946  -0.034951   0.562923  -0.000167   0.008438
    29  H   -0.000000  -0.000201   0.000011  -0.000167   0.499193  -0.030349
    30  H    0.000000  -0.000160  -0.001463   0.008438  -0.030349   0.560850
    31  H    0.000000   0.000005   0.004933  -0.001336  -0.021089  -0.034454
              31
     1  O    0.000123
     2  S    0.002767
     3  N   -0.000092
     4  C   -0.000012
     5  N   -0.000000
     6  N    0.000000
     7  C    0.000013
     8  N   -0.000000
     9  C   -0.000000
    10  C   -0.000000
    11  C    0.000000
    12  C   -0.000000
    13  C    0.000000
    14  C   -0.000000
    15  N   -0.033201
    16  C   -0.003871
    17  C    0.377457
    18  O   -0.000049
    19  H    0.000002
    20  H   -0.000021
    21  H    0.000000
    22  H    0.000000
    23  H    0.000000
    24  H   -0.000000
    25  H    0.000000
    26  H    0.000005
    27  H    0.004933
    28  H   -0.001336
    29  H   -0.021089
    30  H   -0.034454
    31  H    0.517627
 Mulliken charges:
               1
     1  O   -0.574061
     2  S    1.342209
     3  N   -0.809961
     4  C    0.399591
     5  N   -0.366340
     6  N   -0.109731
     7  C    0.051096
     8  N   -0.354170
     9  C    0.329643
    10  C   -0.170095
    11  C   -0.156006
    12  C   -0.132007
    13  C   -0.154377
    14  C   -0.155964
    15  N   -0.505963
    16  C   -0.331905
    17  C   -0.334051
    18  O   -0.568901
    19  H    0.415733
    20  H    0.226640
    21  H    0.175508
    22  H    0.164394
    23  H    0.159771
    24  H    0.163553
    25  H    0.173967
    26  H    0.196365
    27  H    0.190468
    28  H    0.172674
    29  H    0.196583
    30  H    0.174141
    31  H    0.191198
 Sum of Mulliken charges =  -0.00000
 Mulliken charges with hydrogens summed into heavy atoms:
               1
     1  O   -0.574061
     2  S    1.342209
     3  N   -0.394228
     4  C    0.399591
     5  N   -0.366340
     6  N   -0.109731
     7  C    0.277735
     8  N   -0.354170
     9  C    0.329643
    10  C    0.005412
    11  C    0.008387
    12  C    0.027765
    13  C    0.009176
    14  C    0.018003
    15  N   -0.505963
    16  C    0.227602
    17  C    0.227870
    18  O   -0.568901
 Electronic spatial extent (au):  <R**2>=           6642.6742
 Charge=             -0.0000 electrons
 Dipole moment (field-independent basis, Debye):
    X=             -2.5393    Y=              6.9064    Z=             -6.0200  Tot=              9.5072
 Quadrupole moment (field-independent basis, Debye-Ang):
   XX=            -90.9816   YY=           -109.8588   ZZ=           -116.5665
   XY=              2.4167   XZ=            -16.9139   YZ=              2.5867
 Traceless Quadrupole moment (field-independent basis, Debye-Ang):
   XX=             14.8207   YY=             -4.0566   ZZ=            -10.7642
   XY=              2.4167   XZ=            -16.9139   YZ=              2.5867
 Octapole moment (field-independent basis, Debye-Ang**2):
  XXX=            -77.8266  YYY=             48.6069  ZZZ=             -5.1793  XYY=             12.3693
  XXY=             50.5185  XXZ=            -63.8918  XZZ=             18.7585  YZZ=             -3.0603
  YYZ=             -7.1768  XYZ=             -8.6259
 Hexadecapole moment (field-independent basis, Debye-Ang**3):
 XXXX=          -6383.3705 YYYY=          -1101.2103 ZZZZ=           -397.8046 XXXY=             99.7380
 XXXZ=           -221.9036 YYYX=            -13.4252 YYYZ=             15.0129 ZZZX=            -10.7526
 ZZZY=             -2.2686 XXYY=          -1280.6155 XXZZ=          -1344.8253 YYZZ=           -243.5811
 XXYZ=             44.8437 YYXZ=            -40.5913 ZZXY=              8.0384
 N-N= 1.462500996933D+03 E-N=-5.761703682157D+03  KE= 1.202091979421D+03
 No NMR shielding tensors so no spin-rotation constants.
 Leave Link  601 at Mon Sep 14 02:06:29 2020, MaxMem=  2147483648 cpu:               0.4 elap:               0.1
 (Enter /prod/apps/gaussian/g16b1/l701.exe)
 ... and contract with generalized density number  0.
 Compute integral first derivatives.
 D1PCM: PCM CHGder 1st derivatives, ID1Alg=3 FixD1E=F DoIter=F DoCFld=F I1PDM=0.
 GePol: Maximum number of non-zero 1st derivatives   =     175
 Leave Link  701 at Mon Sep 14 02:06:31 2020, MaxMem=  2147483648 cpu:               8.4 elap:               2.1
 (Enter /prod/apps/gaussian/g16b1/l702.exe)
 L702 exits ... SP integral derivatives will be done elsewhere.
 Leave Link  702 at Mon Sep 14 02:06:31 2020, MaxMem=  2147483648 cpu:               0.1 elap:               0.0
 (Enter /prod/apps/gaussian/g16b1/l703.exe)
 Integral derivatives from FoFJK, PRISM(SPDF).
 Compute integral first derivatives, UseDBF=F ICtDFT=           0.
 Calling FoFJK, ICntrl=      2127 FMM=F ISym2X=0 I1Cent= 0 IOpClX= 0 NMat=1 NMatS=1 NMatT=0.
 FoFJK:  IHMeth= 1 ICntrl=    2127 DoSepK=F KAlg= 0 I1Cent=           0 FoldK=F
 IRaf=         0 NMat=       1 IRICut=       1 DoRegI=T DoRafI=F ISym2E= 0 IDoP0=0 IntGTp=1.
 FoFCou: FMM=F IPFlag=           0 FMFlag=      100000 FMFlg1=         800
         NFxFlg=           0 DoJE=F BraDBF=F KetDBF=F FulRan=T
         wScrn=  0.000000 ICntrl=      2127 IOpCl=  0 I1Cent=           0 NGrid=           0
         NMat0=    1 NMatS0=      1 NMatT0=    0 NMatD0=    1 NMtDS0=    0 NMtDT0=    0
 Symmetry not used in FoFCou.
 Leave Link  703 at Mon Sep 14 02:06:44 2020, MaxMem=  2147483648 cpu:              51.9 elap:              13.0
 (Enter /prod/apps/gaussian/g16b1/l716.exe)
 Dipole        =-9.99024995D-01 2.71720657D+00-2.36843109D+00
 -------------------------------------------------------------------
 Center     Atomic                   Forces (Hartrees/Bohr)
 Number     Number              X              Y              Z
 -------------------------------------------------------------------
      1        8          -0.000529102   -0.000082724    0.000946260
      2       16           0.000666807    0.000061368   -0.002003881
      3        7           0.000797941    0.000529031    0.001228723
      4        6          -0.000002992    0.000180197   -0.000335796
      5        7           0.000051939   -0.000381337    0.000090534
      6        7           0.000170279    0.000831071   -0.000197523
      7        6          -0.000218880   -0.001136710    0.000398721
      8        7           0.000005040    0.000168733   -0.000119219
      9        6           0.000275153   -0.000229882    0.000054907
     10        6           0.001258335    0.000493800   -0.000062814
     11        6          -0.001353260   -0.000233268   -0.000022489
     12        6           0.000291302    0.000364717    0.000081876
     13        6          -0.000226464    0.000267709   -0.000039164
     14        6          -0.000291676   -0.000739294   -0.000163514
     15        7          -0.000631920   -0.000958968    0.000105501
     16        6           0.000091020    0.000563628   -0.000117977
     17        6           0.000056439    0.000307042   -0.001076167
     18        8          -0.000288073    0.000287612    0.000049232
     19        1          -0.000171264    0.000029074   -0.000016539
     20        1           0.000164510    0.000206164   -0.000142391
     21        1          -0.000147218    0.000009647    0.000171497
     22        1           0.000055027    0.000140692    0.000057904
     23        1          -0.000156602    0.000082006    0.000008933
     24        1          -0.000136204    0.000073840    0.000068165
     25        1           0.000253329   -0.000309535   -0.000126546
     26        1           0.000246247   -0.000623585    0.000322331
     27        1           0.000179658    0.000004790   -0.000047141
     28        1          -0.000091648   -0.000213539   -0.000137793
     29        1          -0.000495824    0.000312184    0.000706416
     30        1           0.000177946   -0.000055961    0.000297219
     31        1           0.000000154    0.000051498    0.000020732
 -------------------------------------------------------------------
 Cartesian Forces:  Max     0.002003881 RMS     0.000471643
 Leave Link  716 at Mon Sep 14 02:06:44 2020, MaxMem=  2147483648 cpu:               0.1 elap:               0.0
 (Enter /prod/apps/gaussian/g16b1/l103.exe)

 GradGradGradGradGradGradGradGradGradGradGradGradGradGradGradGradGradGrad
 Berny optimization.
 FormGI is forming the generalized inverse of G from B-inverse, IUseBI=4.
 GSVD:  received Info=                   1 from GESDD.
 Internal  Forces:  Max     0.001187290 RMS     0.000295990
 Search for a local minimum.
 Step number   1 out of a maximum of  164
 All quantities printed in internal units (Hartrees-Bohrs-Radians)
 RMS Force = .29599D-03 SwitMx=.10000D-02 MixMth= 2
 Mixed Optimization -- En-DIIS/RFO-DIIS
 Second derivative matrix not updated -- first step.
 ITU=  0
     Eigenvalues ---    0.00751   0.00757   0.01068   0.01365   0.01640
     Eigenvalues ---    0.01694   0.01841   0.01907   0.02047   0.02133
     Eigenvalues ---    0.02137   0.02143   0.02147   0.02149   0.02151
     Eigenvalues ---    0.02158   0.02160   0.02166   0.02167   0.02296
     Eigenvalues ---    0.02328   0.02642   0.07207   0.07222   0.07755
     Eigenvalues ---    0.07755   0.10056   0.10756   0.13237   0.13651
     Eigenvalues ---    0.15996   0.15999   0.15999   0.15999   0.16000
     Eigenvalues ---    0.16000   0.16000   0.16000   0.16000   0.16000
     Eigenvalues ---    0.16000   0.16000   0.19151   0.19420   0.19543
     Eigenvalues ---    0.21999   0.22000   0.23007   0.23493   0.23789
     Eigenvalues ---    0.24979   0.24998   0.25000   0.25000   0.25000
     Eigenvalues ---    0.33893   0.33914   0.34042   0.34656   0.34696
     Eigenvalues ---    0.35139   0.35160   0.35483   0.35490   0.35508
     Eigenvalues ---    0.35549   0.35608   0.35657   0.35772   0.36547
     Eigenvalues ---    0.39773   0.41756   0.42076   0.42262   0.44254
     Eigenvalues ---    0.44974   0.45693   0.46180   0.46254   0.46431
     Eigenvalues ---    0.46802   0.47660   0.52650   0.53283   0.62534
     Eigenvalues ---    0.89484   0.90876
 RFO step:  Lambda=-8.30246660D-05 EMin= 7.51111777D-03
 Linear search not attempted -- first point.
 Iteration  1 RMS(Cart)=  0.02668518 RMS(Int)=  0.00017888
 Iteration  2 RMS(Cart)=  0.00031901 RMS(Int)=  0.00000214
 Iteration  3 RMS(Cart)=  0.00000004 RMS(Int)=  0.00000214
 ITry= 1 IFail=0 DXMaxC= 1.17D-01 DCOld= 1.00D+10 DXMaxT= 3.00D-01 DXLimC= 3.00D+00 Rises=F
 Variable       Old X    -DE/DX   Delta X   Delta X   Delta X     New X
                                 (Linear)    (Quad)   (Total)
    R1        2.76232   0.00095   0.00000   0.00105   0.00105   2.76337
    R2        3.24511  -0.00119   0.00000  -0.00350  -0.00350   3.24161
    R3        3.15563  -0.00071   0.00000  -0.00178  -0.00178   3.15386
    R4        2.76872  -0.00039   0.00000  -0.00043  -0.00043   2.76828
    R5        2.65305  -0.00002   0.00000  -0.00004  -0.00004   2.65301
    R6        1.92852  -0.00009   0.00000  -0.00019  -0.00019   1.92832
    R7        2.57316   0.00003   0.00000   0.00013   0.00012   2.57328
    R8        2.60527  -0.00026   0.00000  -0.00053  -0.00053   2.60474
    R9        2.47136   0.00008   0.00000   0.00016   0.00016   2.47152
   R10        2.55891  -0.00046   0.00000  -0.00089  -0.00089   2.55802
   R11        2.56382  -0.00032   0.00000  -0.00068  -0.00068   2.56314
   R12        2.03235   0.00024   0.00000   0.00065   0.00065   2.03300
   R13        2.69235   0.00013   0.00000   0.00031   0.00031   2.69266
   R14        2.63814   0.00067   0.00000   0.00153   0.00153   2.63967
   R15        2.63865   0.00078   0.00000   0.00178   0.00178   2.64043
   R16        2.63226   0.00099   0.00000   0.00210   0.00211   2.63437
   R17        2.04793  -0.00008   0.00000  -0.00022  -0.00022   2.04772
   R18        2.63985  -0.00039   0.00000  -0.00094  -0.00094   2.63891
   R19        2.04857   0.00014   0.00000   0.00040   0.00040   2.04897
   R20        2.63877   0.00022   0.00000   0.00039   0.00039   2.63916
[...]
 Alpha virt. eigenvalues --    2.23227   2.24367   2.24608   2.25108   2.25849
 Alpha virt. eigenvalues --    2.27924   2.29251   2.29311   2.30010   2.30301
 Alpha virt. eigenvalues --    2.30503   2.32290   2.32641   2.33376   2.34535
 Alpha virt. eigenvalues --    2.35235   2.35708   2.36279   2.37039   2.37901
 Alpha virt. eigenvalues --    2.39706   2.40971   2.41437   2.42250   2.43424
 Alpha virt. eigenvalues --    2.44473   2.46007   2.46758   2.48346   2.50087
 Alpha virt. eigenvalues --    2.51292   2.52408   2.52856   2.54952   2.56695
 Alpha virt. eigenvalues --    2.58132   2.59008   2.60881   2.62051   2.63059
 Alpha virt. eigenvalues --    2.63689   2.65697   2.68342   2.69564   2.72757
 Alpha virt. eigenvalues --    2.74695   2.75108   2.76057   2.77285   2.79275
 Alpha virt. eigenvalues --    2.81013   2.82376   2.83245   2.84991   2.85543
 Alpha virt. eigenvalues --    2.86942   2.88454   2.89317   2.90493   2.91859
 Alpha virt. eigenvalues --    2.91926   2.94633   2.96225   2.97076   2.98243
 Alpha virt. eigenvalues --    2.99596   3.01125   3.02944   3.03742   3.05367
 Alpha virt. eigenvalues --    3.07797   3.09634   3.12338   3.12939   3.13820
 Alpha virt. eigenvalues --    3.14514   3.15069   3.17123   3.19332   3.21412
 Alpha virt. eigenvalues --    3.23510   3.24617   3.29776   3.32788   3.33337
 Alpha virt. eigenvalues --    3.36853   3.37302   3.40198   3.43121   3.49498
 Alpha virt. eigenvalues --    3.55127   3.57934   3.63729   3.67084   3.73261
 Alpha virt. eigenvalues --    3.73971   3.75672   3.76648   3.80070   3.81662
 Alpha virt. eigenvalues --    3.82743   3.84538   3.85430   3.89988   3.93868
 Alpha virt. eigenvalues --    3.94568   4.05880   4.26204   4.38841   4.88469
          Condensed to atoms (all electrons):
               1          2          3          4          5          6
     1  O    9.079440  -0.084843  -0.007055   0.038413   0.007551  -0.000847
     2  S   -0.084843  14.015332   0.002085  -0.696802   0.052824   0.001866
     3  N   -0.007055   0.002085   8.503648  -1.022946  -0.016186  -0.151116
     4  C    0.038413  -0.696802  -1.022946  10.734178  -1.095745   0.717688
     5  N    0.007551   0.052824  -0.016186  -1.095745   8.838729  -0.725712
     6  N   -0.000847   0.001866  -0.151116   0.717688  -0.725712   8.929592
     7  C   -0.025740   0.111775  -0.005743  -3.350118   0.843189  -1.120957
     8  N    0.011531   0.061525   0.115592  -0.133698  -0.282929  -0.271991
     9  C    0.001078   0.029998   0.122013   0.351048  -0.023832  -0.209222
    10  C   -0.004122   0.010300   0.026079  -0.265077   0.088579  -0.043854
    11  C    0.000400   0.001528   0.011988   0.012666   0.020472  -0.035155
    12  C   -0.000319   0.000324   0.001259  -0.013746  -0.004030   0.030714
    13  C    0.000181  -0.001341  -0.011103   0.046177  -0.012093  -0.026383
    14  C    0.001965   0.007410  -0.013734  -0.008896  -0.030083   0.464344
    15  N    0.027052  -0.249905   0.018456   0.198795  -0.028361   0.006034
    16  C    0.015847  -0.115100   0.028899  -0.050642  -0.011856  -0.003015
    17  C    0.020546  -0.140373   0.008503   0.094550   0.014085  -0.001702
    18  O    0.004413  -0.072467  -0.012030  -0.001527   0.008343   0.001579
    19  H    0.000109  -0.053790   0.342821   0.069349  -0.065302   0.013066
    20  H    0.005317  -0.006894   0.027708  -0.081974  -0.043611  -0.086142
    21  H    0.001222  -0.005906  -0.011010   0.029537  -0.007830  -0.028872
    22  H    0.000098   0.000414   0.000404   0.001576  -0.000562  -0.000181
    23  H   -0.000006   0.000016   0.000046  -0.000406   0.000328   0.002323
    24  H    0.000016   0.000010  -0.000031   0.001173   0.001043  -0.001829
    25  H   -0.000155   0.000764   0.003501  -0.026244   0.017546  -0.006766
    26  H   -0.004642   0.158027  -0.010359  -0.024945   0.000943  -0.000479
    27  H   -0.001061  -0.080447   0.018115  -0.000671  -0.001099  -0.000221
    28  H    0.001894   0.013652  -0.022448   0.013372   0.001123   0.001096
    29  H   -0.000423   0.087849  -0.011580  -0.000052   0.001397   0.000452
    30  H    0.002572  -0.084761  -0.040944   0.052623  -0.006226   0.000937
    31  H    0.002888  -0.020771   0.017616  -0.017659   0.001225  -0.000222
               7          8          9         10         11         12
     1  O   -0.025740   0.011531   0.001078  -0.004122   0.000400  -0.000319
     2  S    0.111775   0.061525   0.029998   0.010300   0.001528   0.000324
     3  N   -0.005743   0.115592   0.122013   0.026079   0.011988   0.001259
     4  C   -3.350118  -0.133698   0.351048  -0.265077   0.012666  -0.013746
     5  N    0.843189  -0.282929  -0.023832   0.088579   0.020472  -0.004030
     6  N   -1.120957  -0.271991  -0.209222  -0.043854  -0.035155   0.030714
     7  C   11.392285  -0.228344  -2.360838   0.561857  -0.337908   0.018719
     8  N   -0.228344   9.434980  -0.878923   0.463572  -0.308349   0.308767
     9  C   -2.360838  -0.878923  14.610171  -5.577899   2.898872  -3.396232
    10  C    0.561857   0.463572  -5.577899  12.868237  -4.082260   3.043350
    11  C   -0.337908  -0.308349   2.898872  -4.082260  10.753682  -3.003450
    12  C    0.018719   0.308767  -3.396232   3.043350  -3.003450   8.844517
    13  C    0.069366  -0.179417   2.597375  -3.198391   2.944198  -2.872248
    14  C   -0.116124  -0.100074  -4.665649   2.224209  -3.136683   2.834718
    15  N   -0.075841  -0.001418   0.007333   0.000736   0.000975   0.000168
    16  C    0.022826   0.008047   0.008059   0.000612   0.000297   0.000044
    17  C   -0.070509  -0.007861  -0.034046   0.000694   0.002482  -0.000070
    18  O   -0.004234  -0.000830  -0.002131   0.000253  -0.000008   0.000001
    19  H   -0.046472  -0.023607  -0.005029  -0.006896  -0.000117  -0.000073
    20  H   -0.516377   0.183924   0.145440  -0.015104   0.096173  -0.006877
    21  H    0.109085  -0.207342   0.824376  -0.963713   0.108254  -0.180592
    22  H    0.001005   0.003040  -0.129585   0.662997  -0.775894   0.300868
    23  H   -0.003759  -0.003389   0.097378  -0.145482   0.342502  -0.615094
    24  H   -0.004668  -0.007338  -0.108190   0.122593  -0.211044   0.293340
    25  H   -0.022301  -0.230161   0.758019  -0.117455   0.118711  -0.178731
    26  H    0.008715   0.000549   0.000418   0.000048  -0.000006   0.000000
    27  H    0.000225   0.000413   0.000485  -0.000115  -0.000011  -0.000003
    28  H   -0.010437   0.000083  -0.000911   0.000737   0.000141   0.000040
    29  H    0.045861  -0.007061  -0.000470  -0.003752  -0.001688   0.000257
    30  H    0.039162  -0.008773   0.001252  -0.002270  -0.002181  -0.000373
    31  H   -0.022396   0.002330  -0.002965   0.001558   0.000658   0.000020
              13         14         15         16         17         18
     1  O    0.000181   0.001965   0.027052   0.015847   0.020546   0.004413
     2  S   -0.001341   0.007410  -0.249905  -0.115100  -0.140373  -0.072467
     3  N   -0.011103  -0.013734   0.018456   0.028899   0.008503  -0.012030
     4  C    0.046177  -0.008896   0.198795  -0.050642   0.094550  -0.001527
     5  N   -0.012093  -0.030083  -0.028361  -0.011856   0.014085   0.008343
     6  N   -0.026383   0.464344   0.006034  -0.003015  -0.001702   0.001579
     7  C    0.069366  -0.116124  -0.075841   0.022826  -0.070509  -0.004234
     8  N   -0.179417  -0.100074  -0.001418   0.008047  -0.007861  -0.000830
     9  C    2.597375  -4.665649   0.007333   0.008059  -0.034046  -0.002131
    10  C   -3.198391   2.224209   0.000736   0.000612   0.000694   0.000253
    11  C    2.944198  -3.136683   0.000975   0.000297   0.002482  -0.000008
    12  C   -2.872248   2.834718   0.000168   0.000044  -0.000070   0.000001
    13  C    9.735257  -3.527787  -0.000075  -0.000018  -0.000357  -0.000025
    14  C   -3.527787  12.175645  -0.002435  -0.000597   0.001408  -0.000318
    15  N   -0.000075  -0.002435   8.036440   0.255061   0.181482   0.004635
    16  C   -0.000018  -0.000597   0.255061   4.316125  -0.199898   0.005429
    17  C   -0.000357   0.001408   0.181482  -0.199898   4.327550   0.036528
    18  O   -0.000025  -0.000318   0.004635   0.005429   0.036528   9.121801
    19  H    0.000247   0.005146  -0.020522  -0.012835   0.008519   0.013426
    20  H   -0.007337  -0.147191  -0.017477  -0.004989   0.032433   0.000432
    21  H    0.124116  -0.117128   0.002782   0.000481  -0.001408   0.000331
    22  H   -0.231562   0.115004  -0.000111  -0.000008   0.000254  -0.000010
    23  H    0.386148  -0.108143   0.000006   0.000002  -0.000018  -0.000000
    24  H   -0.708304   0.579996   0.000004   0.000005  -0.000019  -0.000001
    25  H    0.341751  -0.944932  -0.000047   0.000038  -0.000269  -0.000051
    26  H    0.000004  -0.000035  -0.137215   0.406429  -0.051866  -0.021020
    27  H    0.000006   0.000018  -0.098969   0.404108   0.048370   0.006412
    28  H   -0.000094  -0.000155   0.145949   0.195584   0.011247  -0.001022
    29  H   -0.000291   0.001102  -0.122288  -0.053067   0.360277  -0.000129
    30  H    0.000492   0.000723   0.166298   0.023140   0.158602   0.006197
    31  H   -0.000057   0.000020  -0.146588   0.043884   0.409986  -0.001737
              19         20         21         22         23         24
     1  O    0.000109   0.005317   0.001222   0.000098  -0.000006   0.000016
     2  S   -0.053790  -0.006894  -0.005906   0.000414   0.000016   0.000010
     3  N    0.342821   0.027708  -0.011010   0.000404   0.000046  -0.000031
     4  C    0.069349  -0.081974   0.029537   0.001576  -0.000406   0.001173
     5  N   -0.065302  -0.043611  -0.007830  -0.000562   0.000328   0.001043
     6  N    0.013066  -0.086142  -0.028872  -0.000181   0.002323  -0.001829
     7  C   -0.046472  -0.516377   0.109085   0.001005  -0.003759  -0.004668
     8  N   -0.023607   0.183924  -0.207342   0.003040  -0.003389  -0.007338
     9  C   -0.005029   0.145440   0.824376  -0.129585   0.097378  -0.108190
    10  C   -0.006896  -0.015104  -0.963713   0.662997  -0.145482   0.122593
    11  C   -0.000117   0.096173   0.108254  -0.775894   0.342502  -0.211044
    12  C   -0.000073  -0.006877  -0.180592   0.300868  -0.615094   0.293340
    13  C    0.000247  -0.007337   0.124116  -0.231562   0.386148  -0.708304
    14  C    0.005146  -0.147191  -0.117128   0.115004  -0.108143   0.579996
    15  N   -0.020522  -0.017477   0.002782  -0.000111   0.000006   0.000004
    16  C   -0.012835  -0.004989   0.000481  -0.000008   0.000002   0.000005
    17  C    0.008519   0.032433  -0.001408   0.000254  -0.000018  -0.000019
    18  O    0.013426   0.000432   0.000331  -0.000010  -0.000000  -0.000001
    19  H    0.817846  -0.000801  -0.000157   0.000021  -0.000003  -0.000010
    20  H   -0.000801   2.063842  -0.091333   0.003652   0.000409  -0.000066
    21  H   -0.000157  -0.091333   2.162894  -0.087291  -0.014812   0.010488
    22  H    0.000021   0.003652  -0.087291   1.643870  -0.055523  -0.018435
    23  H   -0.000003   0.000409  -0.014812  -0.055523   1.632442  -0.060134
    24  H   -0.000010  -0.000066   0.010488  -0.018435  -0.060134   1.625641
    25  H   -0.000137  -0.001183  -0.016447   0.009437  -0.010776  -0.082369
    26  H    0.002971  -0.000289   0.000082  -0.000002  -0.000000   0.000001
    27  H   -0.002769   0.000680  -0.000089   0.000003  -0.000000   0.000000
    28  H   -0.001033  -0.002107   0.000042  -0.000001   0.000001  -0.000001
    29  H    0.001387   0.006695  -0.001589   0.000008   0.000010  -0.000014
    30  H    0.001513  -0.021266   0.004058  -0.000125  -0.000006   0.000007
    31  H    0.002331   0.001312  -0.000405   0.000047  -0.000002  -0.000001
              25         26         27         28         29         30
     1  O   -0.000155  -0.004642  -0.001061   0.001894  -0.000423   0.002572
     2  S    0.000764   0.158027  -0.080447   0.013652   0.087849  -0.084761
     3  N    0.003501  -0.010359   0.018115  -0.022448  -0.011580  -0.040944
     4  C   -0.026244  -0.024945  -0.000671   0.013372  -0.000052   0.052623
     5  N    0.017546   0.000943  -0.001099   0.001123   0.001397  -0.006226
     6  N   -0.006766  -0.000479  -0.000221   0.001096   0.000452   0.000937
     7  C   -0.022301   0.008715   0.000225  -0.010437   0.045861   0.039162
     8  N   -0.230161   0.000549   0.000413   0.000083  -0.007061  -0.008773
     9  C    0.758019   0.000418   0.000485  -0.000911  -0.000470   0.001252
    10  C   -0.117455   0.000048  -0.000115   0.000737  -0.003752  -0.002270
    11  C    0.118711  -0.000006  -0.000011   0.000141  -0.001688  -0.002181
    12  C   -0.178731   0.000000  -0.000003   0.000040   0.000257  -0.000373
    13  C    0.341751   0.000004   0.000006  -0.000094  -0.000291   0.000492
    14  C   -0.944932  -0.000035   0.000018  -0.000155   0.001102   0.000723
    15  N   -0.000047  -0.137215  -0.098969   0.145949  -0.122288   0.166298
    16  C    0.000038   0.406429   0.404108   0.195584  -0.053067   0.023140
    17  C   -0.000269  -0.051866   0.048370   0.011247   0.360277   0.158602
    18  O   -0.000051  -0.021020   0.006412  -0.001022  -0.000129   0.006197
    19  H   -0.000137   0.002971  -0.002769  -0.001033   0.001387   0.001513
    20  H   -0.001183  -0.000289   0.000680  -0.002107   0.006695  -0.021266
    21  H   -0.016447   0.000082  -0.000089   0.000042  -0.001589   0.004058
    22  H    0.009437  -0.000002   0.000003  -0.000001   0.000008  -0.000125
    23  H   -0.010776  -0.000000  -0.000000   0.000001   0.000010  -0.000006
    24  H   -0.082369   0.000001   0.000000  -0.000001  -0.000014   0.000007
    25  H    1.913638  -0.000003   0.000002  -0.000009  -0.000078   0.000043
    26  H   -0.000003   1.216352  -0.284148  -0.149776  -0.003450  -0.006135
    27  H    0.000002  -0.284148   1.299852  -0.162107   0.003958  -0.007105
    28  H   -0.000009  -0.149776  -0.162107   0.985493  -0.004223   0.001970
    29  H   -0.000078  -0.003450   0.003958  -0.004223   1.349706  -0.166009
    30  H    0.000043  -0.006135  -0.007105   0.001970  -0.166009   1.107572
    31  H   -0.000021   0.008959   0.005803  -0.008502  -0.359315  -0.210180
              31
     1  O    0.002888
     2  S   -0.020771
     3  N    0.017616
     4  C   -0.017659
     5  N    0.001225
     6  N   -0.000222
     7  C   -0.022396
     8  N    0.002330
     9  C   -0.002965
    10  C    0.001558
    11  C    0.000658
    12  C    0.000020
    13  C   -0.000057
    14  C    0.000020
    15  N   -0.146588
    16  C    0.043884
    17  C    0.409986
    18  O   -0.001737
    19  H    0.002331
    20  H    0.001312
    21  H   -0.000405
    22  H    0.000047
    23  H   -0.000002
    24  H   -0.000001
    25  H   -0.000021
    26  H    0.008959
    27  H    0.005803
    28  H   -0.008502
    29  H   -0.359315
    30  H   -0.210180
    31  H    1.490409
 Mulliken charges:
               1
     1  O   -1.093321
     2  S    3.057701
     3  N   -0.912447
     4  C    0.430002
     5  N   -0.541919
     6  N   -0.455023
     7  C    1.098697
     8  N   -0.712848
     9  C    0.942604
    10  C    0.349979
    11  C    0.580753
    12  C    0.594732
    13  C    0.531566
    14  C    0.508255
    15  N   -1.150953
    16  C    0.717109
    17  C    0.790879
    18  O   -1.092241
    19  H   -0.039199
    20  H   -0.516996
    21  H   -0.641823
    22  H   -0.443406
    23  H   -0.444057
    24  H   -0.431863
    25  H   -0.525313
    26  H   -0.109126
    27  H   -0.149633
    28  H   -0.009597
    29  H   -0.123483
    30  H   -0.010808
    31  H   -0.198223
 Sum of Mulliken charges =  -0.00000
 Mulliken charges with hydrogens summed into heavy atoms:
               1
     1  O   -1.093321
     2  S    3.057701
     3  N   -0.951647
     4  C    0.430002
     5  N   -0.541919
     6  N   -0.455023
     7  C    0.581701
     8  N   -0.712848
     9  C    0.942604
    10  C   -0.291844
    11  C    0.137346
    12  C    0.150675
    13  C    0.099703
    14  C   -0.017057
    15  N   -1.150953
    16  C    0.448753
    17  C    0.458366
    18  O   -1.092241
 Electronic spatial extent (au):  <R**2>=           6644.7947
 Charge=             -0.0000 electrons
 Dipole moment (field-independent basis, Debye):
    X=             -1.9883    Y=              5.0352    Z=             -5.0105  Tot=              7.3764
 Quadrupole moment (field-independent basis, Debye-Ang):
   XX=            -96.4186   YY=           -113.1295   ZZ=           -121.1464
   XY=              2.8911   XZ=            -15.0635   YZ=              2.7829
 Traceless Quadrupole moment (field-independent basis, Debye-Ang):
   XX=             13.8129   YY=             -2.8980   ZZ=            -10.9149
   XY=              2.8911   XZ=            -15.0635   YZ=              2.7829
 Octapole moment (field-independent basis, Debye-Ang**2):
  XXX=            -49.5753  YYY=             38.1897  ZZZ=             -1.4824  XYY=             13.9213
  XXY=             37.0267  XXZ=            -60.5877  XZZ=             22.2129  YZZ=             -3.2525
  YYZ=             -4.5063  XYZ=            -12.2793
 Hexadecapole moment (field-independent basis, Debye-Ang**3):
 XXXX=          -6678.7036 YYYY=          -1124.0575 ZZZZ=           -451.1083 XXXY=            106.3148
 XXXZ=           -175.2903 YYYX=             -6.6433 YYYZ=             19.3643 ZZZX=             -4.0437
 ZZZY=             -3.2922 XXYY=          -1338.4769 XXZZ=          -1410.3380 YYZZ=           -257.3644
 XXYZ=             65.6146 YYXZ=            -40.5850 ZZXY=             14.5971
 N-N= 1.462609757541D+03 E-N=-5.759927398545D+03  KE= 1.204119124087D+03
 Leave Link  601 at Mon Sep 14 03:18:41 2020, MaxMem=   262144000 cpu:               0.8 elap:               0.3
 (Enter /prod/apps/gaussian/g16b1/l9999.exe)
 1\1\GINC-PIRINEUS16\SP\RMP2-FC\Aug-CC-pVDZ\C10H13N5O2S1\UBAFAR01\14-Se
 p-2020\0\\#p mp2/aug-cc-pVDZ scf=(MaxCycle=2000,NoVarAcc,NoIncFock) ma
 xdisk=180GB geom=allcheck\\SM46_m0.n.6.pdb.xyz\\0,1\O,0,1.9764331971,0
 .4655193555,1.6170064932\S,0,2.8457513971,-0.1361829463,0.6065565383\N
 ,0,1.8418666336,-0.8573948033,-0.5772267891\C,0,0.4566671288,-0.946034
 7943,-0.3743101961\N,0,-0.1675571554,-2.1437897779,-0.2038246195\N,0,-
 1.4555014948,-1.9362923561,-0.095038947\C,0,-0.4901535913,0.0555643797
 ,-0.3631115817\N,0,-1.6617520621,-0.6023092399,-0.1740970938\C,0,-2.97
 53606248,-0.0610999876,-0.0654582505\C,0,-3.1491389443,1.236450551,0.4
 210098955\C,0,-4.4380969355,1.759864852,0.5145253197\C,0,-5.5413627289
 ,0.9902330641,0.1404455591\C,0,-5.3525372142,-0.3093547037,-0.33520854
 11\C,0,-4.0694689335,-0.8415191521,-0.4480530577\N,0,3.6508177119,1.10
 91280008,-0.1558641062\C,0,4.6207306342,0.6873766851,-1.1795078506\C,0
 ,2.8019489288,2.2371422287,-0.5715362652\O,0,3.8573936893,-1.129699808
 4,0.9737015747\H,0,2.2558721942,-1.737472358,-0.8853778107\H,0,-0.4225
 449311,1.1221423915,-0.4851961225\H,0,-2.2933620283,1.8225349945,0.734
 5581255\H,0,-4.5765333122,2.7672569728,0.8909049469\H,0,-6.5422605109,
 1.4002402915,0.2194865328\H,0,-6.2051557459,-0.9108238089,-0.630466489
 7\H,0,-3.906488986,-1.841764496,-0.8283515673\H,0,5.2428263682,-0.1117
 668207,-0.7814797398\H,0,5.2498712806,1.5497038694,-1.4052370997\H,0,4
 .129052336,0.353361165,-2.1016053029\H,0,2.1583011558,2.5309282027,0.2
 55633892\H,0,2.1931554532,1.9926244584,-1.4511534373\H,0,3.4655870904,
 3.0674335904,-0.8187240091\\Version=ES64L-G16RevB.01\State=1-A\HF=-120
 5.6984111\MP2=-1208.5080409\RMSD=4.631e-09\PG=C01 [X(C10H13N5O2S1)]\\@


    UPON JULIA'S CLOTHES

 WHENAS IN SILKS MY JULIA GOES,
 THEN, THEN, METHINKS, HOW SWEETLY FLOWS
 THAT LIQUEFACTION OF HER CLOTHES.

 NEXT, WHEN I CAST MINE EYES, AND SEE
 THAT BRAVE VIBRATION, EACH WAY FREE,
 O, HOW THAT GLITTERING TAKETH ME!
     -- ROBERT HERRICK, 1648
 Job cpu time:       0 days  2 hours 39 minutes 43.8 seconds.
 Elapsed time:       0 days  0 hours 46 minutes 13.9 seconds.
 File lengths (MBytes):  RWF=  73939 Int=      0 D2E=      0 Chk=     23 Scr=      1
 Normal termination of Gaussian 16 at Mon Sep 14 03:18:44 2020.
