 Entering Gaussian System, Link 0=g16
 Initial command:
 /prod/apps/gaussian/g16b1/l1.exe "/tmp/ubafar01/1462020/Gau-121269.inp" -scrdir="/tmp/ubafar01/1462020/"
 Entering Link 1 = /prod/apps/gaussian/g16b1/l1.exe PID=    121272.
  
 Copyright (c) 1988-2017, Gaussian, Inc.  All Rights Reserved.
  
 This is part of the Gaussian(R) 16 program.  It is based on
 the Gaussian(R) 09 system (copyright 2009, Gaussian, Inc.),
 the Gaussian(R) 03 system (copyright 2003, Gaussian, Inc.),
 the Gaussian(R) 98 system (copyright 1998, Gaussian, Inc.),
 the Gaussian(R) 94 system (copyright 1995, Gaussian, Inc.),
 the Gaussian 92(TM) system (copyright 1992, Gaussian, Inc.),
 the Gaussian 90(TM) system (copyright 1990, Gaussian, Inc.),
 the Gaussian 88(TM) system (copyright 1988, Gaussian, Inc.),
 the Gaussian 86(TM) system (copyright 1986, Carnegie Mellon
 University), and the Gaussian 82(TM) system (copyright 1983,
 Carnegie Mellon University). Gaussian is a federally registered
 trademark of Gaussian, Inc.
  
 This software contains proprietary and confidential information,
 including trade secrets, belonging to Gaussian, Inc.
  
 This software is provided under written license and may be
 used, copied, transmitted, or stored only in accord with that
 written license.
  
 The following legend is applicable only to US Government
 contracts under FAR:
  
                    RESTRICTED RIGHTS LEGEND
  
 Use, reproduction and disclosure by the US Government is
 subject to restrictions as set forth in subparagraphs (a)
 and (c) of the Commercial Computer Software - Restricted
 Rights clause in FAR 52.227-19.
  
 Gaussian, Inc.
 340 Quinnipiac St., Bldg. 40, Wallingford CT 06492
  
  
 ---------------------------------------------------------------
 Warning -- This program may not be used in any manner that
 competes with the business of Gaussian, Inc. or will provide
 assistance to any competitor of Gaussian, Inc.  The licensee
 of this program is prohibited from giving any competitor of
 Gaussian, Inc. access to this program.  By using this program,
 the user acknowledges that Gaussian, Inc. is engaged in the
 business of creating and licensing software in the field of
 computational chemistry and represents and warrants to the
 licensee that it is not a competitor of Gaussian, Inc. and that
 it will not use this program in any manner prohibited above.
 ---------------------------------------------------------------
  

 Cite this work as:
 Gaussian 16, Revision B.01,
 M. J. Frisch, G. W. Trucks, H. B. Schlegel, G. E. Scuseria, 
 M. A. Robb, J. R. Cheeseman, G. Scalmani, V. Barone, 
 G. A. Petersson, H. Nakatsuji, X. Li, M. Caricato, A. V. Marenich, 
 J. Bloino, B. G. Janesko, R. Gomperts, B. Mennucci, H. P. Hratchian, 
 J. V. Ortiz, A. F. Izmaylov, J. L. Sonnenberg, D. Williams-Young, 
 F. Ding, F. Lipparini, F. Egidi, J. Goings, B. Peng, A. Petrone, 
 T. Henderson, D. Ranasinghe, V. G. Zakrzewski, J. Gao, N. Rega, 
 G. Zheng, W. Liang, M. Hada, M. Ehara, K. Toyota, R. Fukuda, 
 J. Hasegawa, M. Ishida, T. Nakajima, Y. Honda, O. Kitao, H. Nakai, 
 T. Vreven, K. Throssell, J. A. Montgomery, Jr., J. E. Peralta, 
 F. Ogliaro, M. J. Bearpark, J. J. Heyd, E. N. Brothers, K. N. Kudin, 
 V. N. Staroverov, T. A. Keith, R. Kobayashi, J. Normand, 
 K. Raghavachari, A. P. Rendell, J. C. Burant, S. S. Iyengar, 
 J. Tomasi, M. Cossi, J. M. Millam, M. Klene, C. Adamo, R. Cammi, 
 J. W. Ochterski, R. L. Martin, K. Morokuma, O. Farkas, 
 J. B. Foresman, and D. J. Fox, Gaussian, Inc., Wallingford CT, 2016.
 
 ******************************************
 Gaussian 16:  ES64L-G16RevB.01 20-Dec-2017
                28-Sep-2020 
 ******************************************
 %nproc=4
 Will use up to    4 processors via shared memory.
 %Chk=SM46_m2.b.3.pdb.xyz.mst.b.w.chk
 %mem=16GB
 ----------------------------------------------------------------------
 #p b3lyp/6-31G(d) opt freq NoSymm scf=(MaxCycle=2000,NoVarAcc,NoIncFoc
 k) scrf=(iefpcm,read,solvent=water)
 ----------------------------------------------------------------------
 1/18=20,19=15,26=3,38=1,40=2/1,3;
 2/9=110,12=2,15=1,17=6,18=5,40=1/2;
 3/5=1,6=6,7=1,11=2,25=1,30=1,70=2203,71=1,72=1,74=-5/1,2,3;
 4//1;
 5/5=100002,7=2000,38=1,53=1/2;
 6/7=2,8=2,9=2,10=2,28=1/1;
 7/30=1/1,2,3,16;
 1/18=20,19=15,26=3/3(2);
 2/9=110,15=1/2;
 99//99;
 2/9=110,15=1/2;
 3/5=1,6=6,7=1,11=2,25=1,30=1,70=2205,71=1,72=1,74=-5/1,2,3;
 4/5=5,16=3,69=1/1;
 5/5=100002,7=2000,38=1,53=1/2;
 7/30=1/1,2,3,16;
 1/18=20,19=15,26=3/3(-5);
 2/9=110,15=1/2;
 6/7=2,8=2,9=2,10=2,19=2,28=1/1;
 99/9=1/99;
 Leave Link    1 at Mon Sep 28 08:22:29 2020, MaxMem=  2147483648 cpu:               0.2 elap:               0.0
 (Enter /prod/apps/gaussian/g16b1/l101.exe)
 -------------------
 SM46_m2.b.3.pdb.xyz
 -------------------
 Symbolic Z-matrix:
 Charge =  1 Multiplicity = 1
 O                    -4.221    -0.323    -1.161 
 S                    -3.126    -0.328    -0.198 
 N                    -1.723    -0.184    -1.198 
 C                    -0.45     -0.418    -0.722 
 N                    -0.081    -1.53     -0.029 
 N                     1.205    -1.557     0.263 
 C                     0.721     0.298    -0.879 
 N                     1.682    -0.448    -0.268 
 C                     3.076    -0.137    -0.137 
 C                     3.677     0.685    -1.089 
 C                     5.03      0.99     -0.949 
 C                     5.762     0.472     0.12 
 C                     5.141    -0.354     1.06 
 C                     3.788    -0.661     0.942 
 N                    -3.322     0.983     0.788 
 C                    -2.42      1.114     1.944 
 C                    -3.727     2.25      0.158 
 O                    -2.837    -1.482     0.65 
 H                    -1.787     0.603    -1.848 
 H                     0.912     1.249    -1.343 
 H                     3.11      1.067    -1.929 
 H                     5.509     1.627    -1.684 
 H                     6.815     0.711     0.222 
 H                     5.706    -0.753     1.894 
 H                     3.288    -1.286     1.671 
 H                    -2.204     0.128     2.349 
 H                    -2.946     1.701     2.7 
 H                    -1.489     1.624     1.679 
 H                    -4.452     2.05     -0.628 
 H                    -2.868     2.795    -0.251 
 H                    -4.199     2.859     0.931 
 H                    -0.674    -2.3       0.287 
 
 ITRead=  0  0  0  0  0  0  0  0  0  0  0  0  0  0  0  0  0  0  0  0
 ITRead=  0  0  0  0  0  0  0  0  0  0  0  0
 MicOpt= -1 -1 -1 -1 -1 -1 -1 -1 -1 -1 -1 -1 -1 -1 -1 -1 -1 -1 -1 -1
 MicOpt= -1 -1 -1 -1 -1 -1 -1 -1 -1 -1 -1 -1
 NAtoms=     32 NQM=       32 NQMF=       0 NMMI=      0 NMMIF=      0
                NMic=       0 NMicF=      0.
                    Isotopes and Nuclear Properties:
 (Nuclear quadrupole moments (NQMom) in fm**2, nuclear magnetic moments (NMagM)
  in nuclear magnetons)

  Atom         1           2           3           4           5           6           7           8           9          10
 IAtWgt=          16          32          14          12          14          14          12          14          12          12
 AtmWgt=  15.9949146  31.9720718  14.0030740  12.0000000  14.0030740  14.0030740  12.0000000  14.0030740  12.0000000  12.0000000
 NucSpn=           0           0           2           0           2           2           0           2           0           0
 AtZEff=  -0.0000000  -0.0000000  -0.0000000  -0.0000000  -0.0000000  -0.0000000  -0.0000000  -0.0000000  -0.0000000  -0.0000000
 NQMom=    0.0000000   0.0000000   2.0440000   0.0000000   2.0440000   2.0440000   0.0000000   2.0440000   0.0000000   0.0000000
 NMagM=    0.0000000   0.0000000   0.4037610   0.0000000   0.4037610   0.4037610   0.0000000   0.4037610   0.0000000   0.0000000
 AtZNuc=   8.0000000  16.0000000   7.0000000   6.0000000   7.0000000   7.0000000   6.0000000   7.0000000   6.0000000   6.0000000

  Atom        11          12          13          14          15          16          17          18          19          20
 IAtWgt=          12          12          12          12          14          12          12          16           1           1
 AtmWgt=  12.0000000  12.0000000  12.0000000  12.0000000  14.0030740  12.0000000  12.0000000  15.9949146   1.0078250   1.0078250
 NucSpn=           0           0           0           0           2           0           0           0           1           1
 AtZEff=  -0.0000000  -0.0000000  -0.0000000  -0.0000000  -0.0000000  -0.0000000  -0.0000000  -0.0000000  -0.0000000  -0.0000000
 NQMom=    0.0000000   0.0000000   0.0000000   0.0000000   2.0440000   0.0000000   0.0000000   0.0000000   0.0000000   0.0000000
 NMagM=    0.0000000   0.0000000   0.0000000   0.0000000   0.4037610   0.0000000   0.0000000   0.0000000   2.7928460   2.7928460
 AtZNuc=   6.0000000   6.0000000   6.0000000   6.0000000   7.0000000   6.0000000   6.0000000   8.0000000   1.0000000   1.0000000

  Atom        21          22          23          24          25          26          27          28          29          30
 IAtWgt=           1           1           1           1           1           1           1           1           1           1
 AtmWgt=   1.0078250   1.0078250   1.0078250   1.0078250   1.0078250   1.0078250   1.0078250   1.0078250   1.0078250   1.0078250
 NucSpn=           1           1           1           1           1           1           1           1           1           1
 AtZEff=  -0.0000000  -0.0000000  -0.0000000  -0.0000000  -0.0000000  -0.0000000  -0.0000000  -0.0000000  -0.0000000  -0.0000000
 NQMom=    0.0000000   0.0000000   0.0000000   0.0000000   0.0000000   0.0000000   0.0000000   0.0000000   0.0000000   0.0000000
 NMagM=    2.7928460   2.7928460   2.7928460   2.7928460   2.7928460   2.7928460   2.7928460   2.7928460   2.7928460   2.7928460
 AtZNuc=   1.0000000   1.0000000   1.0000000   1.0000000   1.0000000   1.0000000   1.0000000   1.0000000   1.0000000   1.0000000

  Atom        31          32
 IAtWgt=           1           1
 AtmWgt=   1.0078250   1.0078250
 NucSpn=           1           1
 AtZEff=  -0.0000000  -0.0000000
 NQMom=    0.0000000   0.0000000
 NMagM=    2.7928460   2.7928460
 AtZNuc=   1.0000000   1.0000000
 Leave Link  101 at Mon Sep 28 08:22:29 2020, MaxMem=  2147483648 cpu:               1.3 elap:               0.3
 (Enter /prod/apps/gaussian/g16b1/l103.exe)

 GradGradGradGradGradGradGradGradGradGradGradGradGradGradGradGradGradGrad
 Berny optimization.
 Initialization pass.
                           ----------------------------
                           !    Initial Parameters    !
                           ! (Angstroms and Degrees)  !
 --------------------------                            --------------------------
 ! Name  Definition              Value          Derivative Info.                !
 --------------------------------------------------------------------------------
 ! R1    R(1,2)                  1.4582         estimate D2E/DX2                !
 ! R2    R(2,3)                  1.7289         estimate D2E/DX2                !
 ! R3    R(2,15)                 1.6521         estimate D2E/DX2                !
 ! R4    R(2,18)                 1.4609         estimate D2E/DX2                !
 ! R5    R(3,4)                  1.3791         estimate D2E/DX2                !
 ! R6    R(3,19)                 1.0227         estimate D2E/DX2                !
 ! R7    R(4,5)                  1.3612         estimate D2E/DX2                !
 ! R8    R(4,7)                  1.3815         estimate D2E/DX2                !
 ! R9    R(5,6)                  1.319          estimate D2E/DX2                !
 ! R10   R(5,32)                 1.022          estimate D2E/DX2                !
 ! R11   R(6,8)                  1.3189         estimate D2E/DX2                !
 ! R12   R(7,8)                  1.3614         estimate D2E/DX2                !
 ! R13   R(7,20)                 1.0753         estimate D2E/DX2                !
 ! R14   R(8,9)                  1.4343         estimate D2E/DX2                !
 ! R15   R(9,10)                 1.394          estimate D2E/DX2                !
 ! R16   R(9,14)                 1.3949         estimate D2E/DX2                !
 ! R17   R(10,11)                1.394          estimate D2E/DX2                !
 ! R18   R(10,21)                1.0831         estimate D2E/DX2                !
 ! R19   R(11,12)                1.3953         estimate D2E/DX2                !
 ! R20   R(11,22)                1.0842         estimate D2E/DX2                !
 ! R21   R(12,13)                1.397          estimate D2E/DX2                !
 ! R22   R(12,23)                1.0846         estimate D2E/DX2                !
 ! R23   R(13,14)                1.3924         estimate D2E/DX2                !
 ! R24   R(13,24)                1.0835         estimate D2E/DX2                !
 ! R25   R(14,25)                1.0826         estimate D2E/DX2                !
 ! R26   R(15,16)                1.4721         estimate D2E/DX2                !
 ! R27   R(15,17)                1.4718         estimate D2E/DX2                !
 ! R28   R(16,26)                1.0876         estimate D2E/DX2                !
 ! R29   R(16,27)                1.0921         estimate D2E/DX2                !
 ! R30   R(16,28)                1.0941         estimate D2E/DX2                !
 ! R31   R(17,29)                1.0879         estimate D2E/DX2                !
 ! R32   R(17,30)                1.0964         estimate D2E/DX2                !
 ! R33   R(17,31)                1.0914         estimate D2E/DX2                !
 ! A1    A(1,2,3)              103.1267         estimate D2E/DX2                !
 ! A2    A(1,2,15)             107.5977         estimate D2E/DX2                !
 ! A3    A(1,2,18)             122.3152         estimate D2E/DX2                !
 ! A4    A(3,2,15)             112.048          estimate D2E/DX2                !
 ! A5    A(3,2,18)             103.9452         estimate D2E/DX2                !
 ! A6    A(15,2,18)            107.6901         estimate D2E/DX2                !
 ! A7    A(2,3,4)              122.3643         estimate D2E/DX2                !
 ! A8    A(2,3,19)             112.3904         estimate D2E/DX2                !
 ! A9    A(4,3,19)             114.0605         estimate D2E/DX2                !
 ! A10   A(3,4,5)              124.3715         estimate D2E/DX2                !
 ! A11   A(3,4,7)              130.9396         estimate D2E/DX2                !
 ! A12   A(5,4,7)              104.5643         estimate D2E/DX2                !
 ! A13   A(4,5,6)              113.1861         estimate D2E/DX2                !
 ! A14   A(4,5,32)             127.9973         estimate D2E/DX2                !
 ! A15   A(6,5,32)             118.8069         estimate D2E/DX2                !
 ! A16   A(5,6,8)              104.2576         estimate D2E/DX2                !
 ! A17   A(4,7,8)              105.2681         estimate D2E/DX2                !
 ! A18   A(4,7,20)             131.1468         estimate D2E/DX2                !
 ! A19   A(8,7,20)             123.5683         estimate D2E/DX2                !
 ! A20   A(6,8,7)              112.7166         estimate D2E/DX2                !
 ! A21   A(6,8,9)              119.8073         estimate D2E/DX2                !
 ! A22   A(7,8,9)              127.4635         estimate D2E/DX2                !
 ! A23   A(8,9,10)             118.9811         estimate D2E/DX2                !
 ! A24   A(8,9,14)             119.0318         estimate D2E/DX2                !
 ! A25   A(10,9,14)            121.9864         estimate D2E/DX2                !
 ! A26   A(9,10,11)            118.6129         estimate D2E/DX2                !
 ! A27   A(9,10,21)            120.7935         estimate D2E/DX2                !
 ! A28   A(11,10,21)           120.5868         estimate D2E/DX2                !
 ! A29   A(10,11,12)           120.3247         estimate D2E/DX2                !
 ! A30   A(10,11,22)           119.2934         estimate D2E/DX2                !
 ! A31   A(12,11,22)           120.3799         estimate D2E/DX2                !
 ! A32   A(11,12,13)           120.1206         estimate D2E/DX2                !
 ! A33   A(11,12,23)           119.972          estimate D2E/DX2                !
 ! A34   A(13,12,23)           119.9074         estimate D2E/DX2                !
 ! A35   A(12,13,14)           120.3511         estimate D2E/DX2                !
 ! A36   A(12,13,24)           120.2564         estimate D2E/DX2                !
 ! A37   A(14,13,24)           119.3891         estimate D2E/DX2                !
 ! A38   A(9,14,13)            118.6014         estimate D2E/DX2                !
 ! A39   A(9,14,25)            120.1322         estimate D2E/DX2                !
 ! A40   A(13,14,25)           121.2648         estimate D2E/DX2                !
 ! A41   A(2,15,16)            117.8134         estimate D2E/DX2                !
 ! A42   A(2,15,17)            117.4066         estimate D2E/DX2                !
 ! A43   A(16,15,17)           115.349          estimate D2E/DX2                !
 ! A44   A(15,16,26)           109.4772         estimate D2E/DX2                !
 ! A45   A(15,16,27)           107.2356         estimate D2E/DX2                !
 ! A46   A(15,16,28)           111.88           estimate D2E/DX2                !
 ! A47   A(26,16,27)           108.9746         estimate D2E/DX2                !
 ! A48   A(26,16,28)           110.1076         estimate D2E/DX2                !
 ! A49   A(27,16,28)           109.0834         estimate D2E/DX2                !
 ! A50   A(15,17,29)           109.5359         estimate D2E/DX2                !
 ! A51   A(15,17,30)           111.838          estimate D2E/DX2                !
 ! A52   A(15,17,31)           107.2284         estimate D2E/DX2                !
 ! A53   A(29,17,30)           110.1202         estimate D2E/DX2                !
 ! A54   A(29,17,31)           109.0322         estimate D2E/DX2                !
 ! A55   A(30,17,31)           109.0051         estimate D2E/DX2                !
 ! D1    D(1,2,3,4)           -166.5722         estimate D2E/DX2                !
 ! D2    D(1,2,3,19)            51.8803         estimate D2E/DX2                !
 ! D3    D(15,2,3,4)            77.9993         estimate D2E/DX2                !
 ! D4    D(15,2,3,19)          -63.5482         estimate D2E/DX2                !
 ! D5    D(18,2,3,4)           -38.0004         estimate D2E/DX2                !
 ! D6    D(18,2,3,19)         -179.5479         estimate D2E/DX2                !
 ! D7    D(1,2,15,16)          173.2973         estimate D2E/DX2                !
 ! D8    D(1,2,15,17)          -41.7402         estimate D2E/DX2                !
 ! D9    D(3,2,15,16)          -74.0274         estimate D2E/DX2                !
 ! D10   D(3,2,15,17)           70.9352         estimate D2E/DX2                !
 ! D11   D(18,2,15,16)          39.6814         estimate D2E/DX2                !
 ! D12   D(18,2,15,17)        -175.356          estimate D2E/DX2                !
 ! D13   D(2,3,4,5)             50.3646         estimate D2E/DX2                !
 ! D14   D(2,3,4,7)           -134.3439         estimate D2E/DX2                !
 ! D15   D(19,3,4,5)          -168.6629         estimate D2E/DX2                !
 ! D16   D(19,3,4,7)             6.6285         estimate D2E/DX2                !
 ! D17   D(3,4,5,6)            176.8542         estimate D2E/DX2                !
 ! D18   D(3,4,5,32)            -4.3071         estimate D2E/DX2                !
 ! D19   D(7,4,5,6)              0.5275         estimate D2E/DX2                !
 ! D20   D(7,4,5,32)           179.3662         estimate D2E/DX2                !
 ! D21   D(3,4,7,8)           -175.971          estimate D2E/DX2                !
 ! D22   D(3,4,7,20)             5.5158         estimate D2E/DX2                !
 ! D23   D(5,4,7,8)              0.0148         estimate D2E/DX2                !
 ! D24   D(5,4,7,20)          -178.4984         estimate D2E/DX2                !
 ! D25   D(4,5,6,8)             -0.8465         estimate D2E/DX2                !
 ! D26   D(32,5,6,8)          -179.8022         estimate D2E/DX2                !
 ! D27   D(5,6,8,7)              0.852          estimate D2E/DX2                !
 ! D28   D(5,6,8,9)            179.6512         estimate D2E/DX2                !
 ! D29   D(4,7,8,6)             -0.5516         estimate D2E/DX2                !
 ! D30   D(4,7,8,9)           -179.2389         estimate D2E/DX2                !
 ! D31   D(20,7,8,6)           178.1048         estimate D2E/DX2                !
 ! D32   D(20,7,8,9)            -0.5825         estimate D2E/DX2                !
 ! D33   D(6,8,9,10)           154.6397         estimate D2E/DX2                !
 ! D34   D(6,8,9,14)           -25.6449         estimate D2E/DX2                !
 ! D35   D(7,8,9,10)           -26.7559         estimate D2E/DX2                !
 ! D36   D(7,8,9,14)           152.9596         estimate D2E/DX2                !
 ! D37   D(8,9,10,11)          179.5516         estimate D2E/DX2                !
 ! D38   D(8,9,10,21)           -1.3935         estimate D2E/DX2                !
 ! D39   D(14,9,10,11)          -0.1551         estimate D2E/DX2                !
 ! D40   D(14,9,10,21)         178.8998         estimate D2E/DX2                !
 ! D41   D(8,9,14,13)          179.9613         estimate D2E/DX2                !
 ! D42   D(8,9,14,25)           -0.4985         estimate D2E/DX2                !
 ! D43   D(10,9,14,13)          -0.3322         estimate D2E/DX2                !
 ! D44   D(10,9,14,25)         179.2081         estimate D2E/DX2                !
 ! D45   D(9,10,11,12)           0.4079         estimate D2E/DX2                !
 ! D46   D(9,10,11,22)         179.8995         estimate D2E/DX2                !
 ! D47   D(21,10,11,12)       -178.649          estimate D2E/DX2                !
 ! D48   D(21,10,11,22)          0.8426         estimate D2E/DX2                !
 ! D49   D(10,11,12,13)         -0.1732         estimate D2E/DX2                !
 ! D50   D(10,11,12,23)        179.8459         estimate D2E/DX2                !
 ! D51   D(22,11,12,13)       -179.6592         estimate D2E/DX2                !
 ! D52   D(22,11,12,23)          0.3599         estimate D2E/DX2                !
 ! D53   D(11,12,13,14)         -0.3264         estimate D2E/DX2                !
 ! D54   D(11,12,13,24)       -179.6608         estimate D2E/DX2                !
 ! D55   D(23,12,13,14)        179.6545         estimate D2E/DX2                !
 ! D56   D(23,12,13,24)          0.3201         estimate D2E/DX2                !
 ! D57   D(12,13,14,9)           0.5703         estimate D2E/DX2                !
 ! D58   D(12,13,14,25)       -178.9645         estimate D2E/DX2                !
 ! D59   D(24,13,14,9)         179.9104         estimate D2E/DX2                !
 ! D60   D(24,13,14,25)          0.3756         estimate D2E/DX2                !
 ! D61   D(2,15,16,26)         -35.8001         estimate D2E/DX2                !
 ! D62   D(2,15,16,27)        -153.8877         estimate D2E/DX2                !
 ! D63   D(2,15,16,28)          86.543          estimate D2E/DX2                !
 ! D64   D(17,15,16,26)        178.5311         estimate D2E/DX2                !
 ! D65   D(17,15,16,27)         60.4435         estimate D2E/DX2                !
 ! D66   D(17,15,16,28)        -59.1257         estimate D2E/DX2                !
 ! D67   D(2,15,17,29)          38.8072         estimate D2E/DX2                !
 ! D68   D(2,15,17,30)         -83.5648         estimate D2E/DX2                !
 ! D69   D(2,15,17,31)         156.991          estimate D2E/DX2                !
 ! D70   D(16,15,17,29)       -175.3792         estimate D2E/DX2                !
 ! D71   D(16,15,17,30)         62.2489         estimate D2E/DX2                !
 ! D72   D(16,15,17,31)        -57.1953         estimate D2E/DX2                !
 --------------------------------------------------------------------------------
 Trust Radius=3.00D-01 FncErr=1.00D-07 GrdErr=1.00D-06 EigMax=2.50D+02 EigMin=1.00D-04
 Number of steps in this run=    170 maximum allowed number of steps=    192.
 GradGradGradGradGradGradGradGradGradGradGradGradGradGradGradGradGradGrad

 Leave Link  103 at Mon Sep 28 08:22:29 2020, MaxMem=  2147483648 cpu:               0.0 elap:               0.0
 (Enter /prod/apps/gaussian/g16b1/l202.exe)
                          Input orientation:                          
 ---------------------------------------------------------------------
 Center     Atomic      Atomic             Coordinates (Angstroms)
 Number     Number       Type             X           Y           Z
 ---------------------------------------------------------------------
      1          8           0       -4.221000   -0.323000   -1.161000
      2         16           0       -3.126000   -0.328000   -0.198000
      3          7           0       -1.723000   -0.184000   -1.198000
      4          6           0       -0.450000   -0.418000   -0.722000
      5          7           0       -0.081000   -1.530000   -0.029000
      6          7           0        1.205000   -1.557000    0.263000
      7          6           0        0.721000    0.298000   -0.879000
      8          7           0        1.682000   -0.448000   -0.268000
      9          6           0        3.076000   -0.137000   -0.137000
     10          6           0        3.677000    0.685000   -1.089000
     11          6           0        5.030000    0.990000   -0.949000
     12          6           0        5.762000    0.472000    0.120000
     13          6           0        5.141000   -0.354000    1.060000
     14          6           0        3.788000   -0.661000    0.942000
     15          7           0       -3.322000    0.983000    0.788000
     16          6           0       -2.420000    1.114000    1.944000
     17          6           0       -3.727000    2.250000    0.158000
     18          8           0       -2.837000   -1.482000    0.650000
     19          1           0       -1.787000    0.603000   -1.848000
     20          1           0        0.912000    1.249000   -1.343000
     21          1           0        3.110000    1.067000   -1.929000
     22          1           0        5.509000    1.627000   -1.684000
     23          1           0        6.815000    0.711000    0.222000
     24          1           0        5.706000   -0.753000    1.894000
     25          1           0        3.288000   -1.286000    1.671000
     26          1           0       -2.204000    0.128000    2.349000
     27          1           0       -2.946000    1.701000    2.700000
     28          1           0       -1.489000    1.624000    1.679000
     29          1           0       -4.452000    2.050000   -0.628000
     30          1           0       -2.868000    2.795000   -0.251000
     31          1           0       -4.199000    2.859000    0.931000
     32          1           0       -0.674000   -2.300000    0.287000
 ---------------------------------------------------------------------
                    Distance matrix (angstroms):
                    1          2          3          4          5
     1  O    0.000000
     2  S    1.458225   0.000000
     3  N    2.502138   1.728914   0.000000
     4  C    3.797655   2.728306   1.379080   0.000000
     5  N    4.458461   3.278016   2.423725   1.361233   0.000000
     6  N    5.743867   4.525541   3.548638   2.237537   1.319011
     7  C    4.988840   3.956646   2.511418   1.381501   2.169629
     8  N    5.971472   4.810007   3.539579   2.180009   2.082310
     9  C    7.370847   6.205240   4.915113   3.585228   3.452356
    10  C    7.962390   6.935478   5.470561   4.287590   4.489141
    11  C    9.346118   8.295870   6.858811   5.662543   5.772272
    12  C   10.096201   8.929595   7.628413   6.331667   6.178257
    13  C    9.621894   8.362208   7.227860   5.868467   5.462434
    14  C    8.287396   7.015261   5.931126   4.559451   4.082544
    15  N    2.512457   1.652069   2.804084   3.534301   4.181715
    16  C    3.866471   2.676932   3.470270   3.651778   4.044056
    17  C    2.933279   2.670959   3.432071   4.316405   5.255158
    18  O    2.557041   1.460938   2.518115   2.951652   2.838817
    19  H    2.693288   2.319953   1.022724   2.024324   3.281598
    20  H    5.371405   4.483681   3.002955   2.240441   3.230400
    21  H    7.501032   6.620429   5.045518   4.041741   4.531765
    22  H    9.937250   8.977385   7.471127   6.373159   6.629764
    23  H   11.170279  10.003969   8.701429   7.412557   7.255336
    24  H   10.395348   9.086326   8.066862   6.697165   6.147441
    25  H    8.082863   6.749098   5.878408   4.522446   3.781494
    26  H    4.073302   2.746858   3.593037   3.578502   3.593185
    27  H    4.541973   3.542266   4.499262   4.736060   5.108329
    28  H    4.395479   3.164364   3.405987   3.318748   3.853238
    29  H    2.443068   2.756458   3.572548   4.702751   5.681623
    30  H    3.518612   3.134087   3.329005   4.048695   5.149978
    31  H    3.808159   3.547244   4.463526   5.246536   6.094493
    32  H    4.311200   3.183758   2.789818   2.147133   1.021961
                    6          7          8          9         10
     6  N    0.000000
     7  C    2.231467   0.000000
     8  N    1.318852   1.361381   0.000000
     9  C    2.382654   2.507153   1.434266   0.000000
    10  C    3.600729   2.988613   2.436751   1.393983   0.000000
    11  C    4.752555   4.364773   3.706846   2.397413   1.393999
    12  C    4.990345   5.141980   4.200398   2.766139   2.419561
    13  C    4.192197   4.870444   3.706360   2.396690   2.800182
    14  C    2.817046   3.693536   2.438177   1.394905   2.439057
    15  N    5.217370   4.426507   5.310641   6.560825   7.252443
    16  C    4.806311   4.301287   4.915200   6.008459   6.823235
    17  C    6.231284   4.966928   6.059535   7.215650   7.669645
    18  O    4.061177   4.262113   4.725806   6.114897   7.081822
    19  H    4.251351   2.705929   3.954107   5.208060   5.517074
    20  H    3.246340   1.075257   2.151356   2.838719   2.833344
    21  H    3.913983   2.720511   2.663331   2.159175   1.083057
    22  H    5.696761   5.033807   4.577839   3.379999   2.144205
    23  H    6.051248   6.206417   5.284985   3.850728   3.400947
    24  H    4.854439   5.800375   4.578192   3.379544   3.883680
    25  H    2.528793   3.949816   2.653526   2.152675   3.413761
    26  H    4.337269   4.359416   4.720324   5.841988   6.834929
    27  H    5.812429   5.312677   5.903017   6.905889   7.697591
    28  H    4.402437   3.631217   4.259018   5.219023   5.935579
    29  H    6.768011   5.467397   6.632915   7.854606   8.255688
    30  H    5.982761   4.417048   5.587472   6.628782   6.927580
    31  H    7.010741   5.834485   6.852737   7.939916   8.416534
    32  H    2.020709   3.170991   3.047731   4.349810   5.452963
                   11         12         13         14         15
    11  C    0.000000
    12  C    1.395317   0.000000
    13  C    2.419657   1.396967   0.000000
    14  C    2.800758   2.419927   1.392402   0.000000
    15  N    8.530716   9.122850   8.572276   7.299216   0.000000
    16  C    7.992955   8.407393   7.752754   6.534056   1.472108
    17  C    8.916171   9.654214   9.286326   8.097148   1.471806
    18  O    8.399838   8.834128   8.067773   6.682060   2.516047
    19  H    6.886905   7.802409   7.574265   6.361008   3.073942
    20  H    4.144905   5.125095   5.121373   4.140133   4.747491
    21  H    2.157019   3.403752   3.883082   3.418817   6.982820
    22  H    1.084175   2.156954   3.404309   3.884927   9.193045
    23  H    2.152976   1.084589   2.153775   3.400517  10.156432
    24  H    3.402598   2.156580   1.083504   2.143243   9.259682
    25  H    3.883187   3.408349   2.162303   1.082620   7.044157
    26  H    7.996912   8.279126   7.472809   6.205339   2.101825
    27  H    8.799846   9.164939   8.503658   7.349583   2.076691
    28  H    7.057315   7.505637   6.946405   5.797510   2.136504
    29  H    9.546463  10.362209  10.032657   8.815442   2.102485
    30  H    8.131644   8.944880   8.705114   7.594045   2.137517
    31  H    9.602187  10.275067   9.878037   8.728270   2.075802
    32  H    6.699807   7.009563   6.180507   4.798415   4.247469
                   16         17         18         19         20
    16  C    0.000000
    17  C    2.487678   0.000000
    18  O    2.930451   3.868073   0.000000
    19  H    3.878282   3.240408   3.419025   0.000000
    20  H    4.682394   4.977482   5.048308   2.820805   0.000000
    21  H    6.751536   7.245663   6.965303   4.919600   2.282044
    22  H    8.734678   9.438474   9.207017   7.369334   4.625103
    23  H    9.402814  10.653937   9.907247   8.848218   6.130585
    24  H    8.337869  10.050532   8.663823   8.484477   6.121161
    25  H    6.198048   8.000168   6.212607   6.458119   4.599543
    26  H    1.087601   3.409237   2.424745   4.244328   4.959532
    27  H    1.092145   2.715350   3.787594   4.820082   5.606632
    28  H    1.094114   2.777402   3.538811   3.683880   3.877874
    29  H    3.408857   1.087852   4.088586   3.268705   5.470404
    30  H    2.800802   1.096443   4.370983   2.919561   4.227408
    31  H    2.689988   1.091418   4.558321   4.316262   5.821125
    32  H    4.177267   5.480871   2.340825   3.771525   4.215175
                   21         22         23         24         25
    21  H    0.000000
    22  H    2.475647   0.000000
    23  H    4.298902   2.485463   0.000000
    24  H    4.966583   4.301778   2.483699   0.000000
    25  H    4.304450   4.967337   4.304340   2.486070   0.000000
    26  H    6.886334   8.831900   9.284739   7.971906   5.711492
    27  H    7.648839   9.524282  10.119175   9.029333   6.988832
    28  H    5.871858   7.764134   8.480144   7.580526   5.593558
    29  H    7.735809  10.025746  11.378080  10.835232   8.736240
    30  H    6.445010   8.578569   9.916011   9.523802   7.631840
    31  H    8.050611  10.129231  11.243877  10.586923   8.589749
    32  H    5.528653   7.585226   8.071894   6.758702   4.317534
                   26         27         28         29         30
    26  H    0.000000
    27  H    1.774287   0.000000
    28  H    1.788335   1.780792   0.000000
    29  H    4.196441   3.669526   3.779298   0.000000
    30  H    3.783356   3.148225   2.645332   1.790589   0.000000
    31  H    3.667303   2.457709   3.070640   1.774534   1.781230
    32  H    3.533826   5.195436   4.242601   5.833782   5.573339
                   31         32
    31  H    0.000000
    32  H    6.281373   0.000000
 Symmetry turned off by external request.
 Stoichiometry    C10H14N5O2S(1+)
 Framework group  C1[X(C10H14N5O2S)]
 Deg. of freedom    90
 Full point group                 C1      NOp   1
 Rotational constants (GHZ):           1.0663303           0.1630817           0.1598883
 Leave Link  202 at Mon Sep 28 08:22:29 2020, MaxMem=  2147483648 cpu:               0.0 elap:               0.0
 (Enter /prod/apps/gaussian/g16b1/l301.exe)
 Standard basis: 6-31G(d) (6D, 7F)
 Ernie: Thresh=  0.10000D-02 Tol=  0.10000D-05 Strict=F.
   302 basis functions,   584 primitive gaussians,   302 cartesian basis functions
    70 alpha electrons       70 beta electrons
       nuclear repulsion energy      1485.4828625282 Hartrees.
 IExCor=  402 DFT=T Ex+Corr=B3LYP ExCW=0 ScaHFX=  0.200000
 ScaDFX=  0.800000  0.720000  1.000000  0.810000 ScalE2=  1.000000  1.000000
 IRadAn=      5 IRanWt=     -1 IRanGd=            0 ICorTp=0 IEmpDi=  4
 NAtoms=   32 NActive=   32 NUniq=   32 SFac= 1.00D+00 NAtFMM=   60 NAOKFM=F Big=F
 Integral buffers will be    131072 words long.
 Raffenetti 2 integral format.
 Two-electron integral symmetry is turned off.
 Using the following non-standard input for PCM:
 MSTModel=DFT cav MSTcharged
 --- end of non-standard input.
 MST model for solvation energy: B3LYP parametrization.
 MST cavity parameters:
 ISph   IAn     Re0     Alpha   Atom Type   QCorr
 ------------------------------------------------
   1      8     1.40     1.25      O          F
   2     16     1.75     1.25      S          F
   3      7     1.50     1.25      NH         F
   4      6     1.50     1.25      C          F
   5      7     1.50     1.15      NH         T
   6      7     1.40     1.25      N          F
   7      6     1.50     1.25      CH         F
   8      7     1.40     1.25      N          F
   9      6     1.50     1.25      C          F
  10      6     1.50     1.25      CH         F
  11      6     1.50     1.25      CH         F
  12      6     1.50     1.25      CH         F
  13      6     1.50     1.25      CH         F
  14      6     1.50     1.25      CH         F
  15      7     1.40     1.25      N          F
  16      6     1.50     1.25      CH3        F
  17      6     1.50     1.25      CH3        F
  18      8     1.40     1.25      O          F
  19      1     0.90     1.25      NH         F
  20      1     1.20     1.25      CH         F
  21      1     1.20     1.25      CH         F
  22      1     1.20     1.25      CH         F
  23      1     1.20     1.25      CH         F
  24      1     1.20     1.25      CH         F
  25      1     1.20     1.25      CH         F
  26      1     1.20     1.25      CH3        F
  27      1     1.20     1.25      CH3        F
  28      1     1.20     1.25      CH3        F
  29      1     1.20     1.25      CH3        F
  30      1     1.20     1.25      CH3        F
  31      1     1.20     1.25      CH3        F
  32      1     0.90     1.15      NH         T
 ------------------------------------------------------------------------------
 Polarizable Continuum Model (PCM)
 =================================
 Model                : PCM.
 Atomic radii         : MST.
 Polarization charges : Total charges.
 Charge compensation  : None.
 Solution method      : On-the-fly selection.
 Cavity type          : Scaled VdW (van der Waals Surface) (Alpha=1.250).
 Cavity algorithm     : GePol (No added spheres)
                        Default sphere list used, NSphG=   32.
                        Lebedev-Laikov grids with approx.  5.0 points / Ang**2.
                        Smoothing algorithm: York/Karplus (Gamma=1.0000).
                        Polarization charges: spherical gaussians, with
                                              point-specific exponents (IZeta= 3).
                        Self-potential: point-specific (ISelfS= 7).
                        Self-field    : sphere-specific E.n sum rule (ISelfD= 2).
 1st derivatives      : Analytical E(r).r(x)/FMM algorithm (CHGder, D1EAlg=3).
                        Cavity 1st derivative terms included.
 Solvent              : Water, Eps=  78.355300 Eps(inf)=   1.777849
 ------------------------------------------------------------------------------
 GePol: Number of generator spheres                  =      32
 GePol: Total number of spheres                      =      32
 GePol: Number of exposed spheres                    =      32 (100.00%)
 GePol: Number of points                             =    2399
 GePol: Average weight of points                     =       0.13
 GePol: Minimum weight of points                     =   0.28D-11
 GePol: Maximum weight of points                     =    0.22001
 GePol: Number of points with low weight             =     157
 GePol: Fraction of low-weight points (<1% of avg)   =       6.54%
 GePol: Cavity surface area                          =    312.388 Ang**2
 GePol: Cavity volume                                =    292.707 Ang**3
 PCM non-electrostatic energy =         0.0024124182 Hartrees.
 Nuclear repulsion after PCM non-electrostatic terms =     1485.4852749464 Hartrees.
 Leave Link  301 at Mon Sep 28 08:22:29 2020, MaxMem=  2147483648 cpu:               0.4 elap:               0.1
 (Enter /prod/apps/gaussian/g16b1/l302.exe)
 NPDir=0 NMtPBC=     1 NCelOv=     1 NCel=       1 NClECP=     1 NCelD=      1
         NCelK=      1 NCelE2=     1 NClLst=     1 CellRange=     0.0.
 One-electron integrals computed using PRISM.
 NBasis=   302 RedAO= T EigKep=  4.71D-04  NBF=   302
 NBsUse=   302 1.00D-06 EigRej= -1.00D+00 NBFU=   302
 Precomputing XC quadrature grid using
 IXCGrd= 4 IRadAn=           5 IRanWt=          -1 IRanGd=           0 AccXCQ= 0.00D+00.
 Generated NRdTot=       0 NPtTot=           0 NUsed=           0 NTot=          32
 NSgBfM=   299   299   299   299   299 MxSgAt=    32 MxSgA2=    32.
 Leave Link  302 at Mon Sep 28 08:22:29 2020, MaxMem=  2147483648 cpu:               1.6 elap:               0.4
 (Enter /prod/apps/gaussian/g16b1/l303.exe)
 DipDrv:  MaxL=1.
 Leave Link  303 at Mon Sep 28 08:22:30 2020, MaxMem=  2147483648 cpu:               0.2 elap:               0.1
 (Enter /prod/apps/gaussian/g16b1/l401.exe)
 ExpMin= 1.17D-01 ExpMax= 2.19D+04 ExpMxC= 3.30D+03 IAcc=3 IRadAn=         5 AccDes= 0.00D+00
 Harris functional with IExCor=  402 and IRadAn=       5 diagonalized for initial guess.
 HarFok:  IExCor=  402 AccDes= 0.00D+00 IRadAn=         5 IDoV= 1 UseB2=F ITyADJ=14
 ICtDFT=  3500011 ScaDFX=  1.000000  1.000000  1.000000  1.000000
 FoFCou: FMM=F IPFlag=           0 FMFlag=      100000 FMFlg1=           0
         NFxFlg=           0 DoJE=T BraDBF=F KetDBF=T FulRan=T
         wScrn=  0.000000 ICntrl=       500 IOpCl=  0 I1Cent=   200000004 NGrid=           0
         NMat0=    1 NMatS0=      1 NMatT0=    0 NMatD0=    1 NMtDS0=    0 NMtDT0=    0
 Symmetry not used in FoFCou.
 Harris En= -1211.56617036025    
 JPrj=0 DoOrth=F DoCkMO=F.
 Leave Link  401 at Mon Sep 28 08:22:32 2020, MaxMem=  2147483648 cpu:               8.2 elap:               2.1
 (Enter /prod/apps/gaussian/g16b1/l502.exe)
 Two-electron integral symmetry not used.
 Closed shell SCF:
 Using DIIS extrapolation, IDIIS=  1040.
 NGot=  2147483648 LenX=  2147296760 LenY=  2147205115
 Requested convergence on RMS density matrix=1.00D-08 within2000 cycles.
 Requested convergence on MAX density matrix=1.00D-06.
 Requested convergence on             energy=1.00D-06.
 No special actions if energy rises.

 Cycle   1  Pass 1  IDiag  1:
 FoFJK:  IHMeth= 1 ICntrl=       0 DoSepK=F KAlg= 0 I1Cent=           0 FoldK=F
 IRaf= 770000000 NMat=       1 IRICut=       1 DoRegI=T DoRafI=F ISym2E= 0 IDoP0=0 IntGTp=1.
 FoFCou: FMM=F IPFlag=           0 FMFlag=      100000 FMFlg1=           0
         NFxFlg=           0 DoJE=F BraDBF=F KetDBF=F FulRan=T
         wScrn=  0.000000 ICntrl=         0 IOpCl=  0 I1Cent=           0 NGrid=           0
         NMat0=    1 NMatS0=      1 NMatT0=    0 NMatD0=    1 NMtDS0=    0 NMtDT0=    0
 Symmetry not used in FoFCou.
 Inv3:  Mode=1 IEnd=    17265603.
 Iteration    1 A*A^-1 deviation from unit magnitude is 2.89D-15 for   1842.
 Iteration    1 A*A^-1 deviation from orthogonality  is 2.67D-15 for   1898    230.
 Iteration    1 A^-1*A deviation from unit magnitude is 3.11D-15 for   1842.
 Iteration    1 A^-1*A deviation from orthogonality  is 7.64D-14 for   2224   2176.
 E= -1211.10611518113    
 DIIS: error= 2.68D-02 at cycle   1 NSaved=   1.
 NSaved= 1 IEnMin= 1 EnMin= -1211.10611518113     IErMin= 1 ErrMin= 2.68D-02
 ErrMax= 2.68D-02  0.00D+00 EMaxC= 1.00D-01 BMatC= 6.13D-01 BMatP= 6.13D-01
 IDIUse=3 WtCom= 7.32D-01 WtEn= 2.68D-01
 Coeff-Com:  0.100D+01
 Coeff-En:   0.100D+01
 Coeff:      0.100D+01
 Gap=     0.276 Goal=   None    Shift=    0.000
 GapD=    0.276 DampG=1.000 DampE=0.500 DampFc=0.5000 IDamp=-1.
 Damping current iteration by 5.00D-01
 RMSDP=6.26D-03 MaxDP=5.97D-01              OVMax= 2.68D-01

 Cycle   2  Pass 1  IDiag  1:
 E= -1211.24026856200     Delta-E=       -0.134153380875 Rises=F Damp=T
 DIIS: error= 1.21D-02 at cycle   2 NSaved=   2.
 NSaved= 2 IEnMin= 2 EnMin= -1211.24026856200     IErMin= 2 ErrMin= 1.21D-02
 ErrMax= 1.21D-02  0.00D+00 EMaxC= 1.00D-01 BMatC= 8.94D-02 BMatP= 6.13D-01
 IDIUse=3 WtCom= 8.79D-01 WtEn= 1.21D-01
 Coeff-Com:  0.224D+00 0.776D+00
 Coeff-En:   0.364D+00 0.636D+00
 Coeff:      0.241D+00 0.759D+00
 Gap=     0.186 Goal=   None    Shift=    0.000
 RMSDP=1.68D-03 MaxDP=1.34D-01 DE=-1.34D-01 OVMax= 1.65D-01

 Cycle   3  Pass 1  IDiag  1:
 E= -1211.60547672227     Delta-E=       -0.365208160267 Rises=F Damp=F
 DIIS: error= 8.10D-03 at cycle   3 NSaved=   3.
 NSaved= 3 IEnMin= 3 EnMin= -1211.60547672227     IErMin= 3 ErrMin= 8.10D-03
 ErrMax= 8.10D-03  0.00D+00 EMaxC= 1.00D-01 BMatC= 3.45D-02 BMatP= 8.94D-02
 IDIUse=3 WtCom= 9.19D-01 WtEn= 8.10D-02
 Coeff-Com:  0.647D-01 0.386D+00 0.549D+00
 Coeff-En:   0.000D+00 0.000D+00 0.100D+01
 Coeff:      0.595D-01 0.355D+00 0.585D+00
 Gap=     0.185 Goal=   None    Shift=    0.000
 RMSDP=8.01D-04 MaxDP=2.57D-02 DE=-3.65D-01 OVMax= 3.89D-02

 Cycle   4  Pass 1  IDiag  1:
 E= -1211.62948387480     Delta-E=       -0.024007152537 Rises=F Damp=F
 DIIS: error= 3.93D-03 at cycle   4 NSaved=   4.
 NSaved= 4 IEnMin= 4 EnMin= -1211.62948387480     IErMin= 4 ErrMin= 3.93D-03
 ErrMax= 3.93D-03  0.00D+00 EMaxC= 1.00D-01 BMatC= 7.06D-03 BMatP= 3.45D-02
 IDIUse=3 WtCom= 9.61D-01 WtEn= 3.93D-02
 Coeff-Com:  0.118D-02 0.852D-01 0.328D+00 0.586D+00
 Coeff-En:   0.000D+00 0.000D+00 0.165D+00 0.835D+00
 Coeff:      0.113D-02 0.818D-01 0.321D+00 0.596D+00
 Gap=     0.176 Goal=   None    Shift=    0.000
 RMSDP=2.89D-04 MaxDP=1.12D-02 DE=-2.40D-02 OVMax= 1.70D-02

 Cycle   5  Pass 1  IDiag  1:
 E= -1211.63505287649     Delta-E=       -0.005569001682 Rises=F Damp=F
 DIIS: error= 6.75D-04 at cycle   5 NSaved=   5.
 NSaved= 5 IEnMin= 5 EnMin= -1211.63505287649     IErMin= 5 ErrMin= 6.75D-04
 ErrMax= 6.75D-04  0.00D+00 EMaxC= 1.00D-01 BMatC= 5.13D-04 BMatP= 7.06D-03
 IDIUse=3 WtCom= 9.93D-01 WtEn= 6.75D-03
 Coeff-Com: -0.431D-02 0.181D-01 0.125D+00 0.312D+00 0.550D+00
 Coeff-En:   0.000D+00 0.000D+00 0.000D+00 0.000D+00 0.100D+01
 Coeff:     -0.428D-02 0.180D-01 0.124D+00 0.310D+00 0.553D+00
 Gap=     0.179 Goal=   None    Shift=    0.000
 RMSDP=8.00D-05 MaxDP=3.44D-03 DE=-5.57D-03 OVMax= 5.93D-03

 Cycle   6  Pass 1  IDiag  1:
 E= -1211.63546987459     Delta-E=       -0.000416998107 Rises=F Damp=F
 DIIS: error= 1.89D-04 at cycle   6 NSaved=   6.
 NSaved= 6 IEnMin= 6 EnMin= -1211.63546987459     IErMin= 6 ErrMin= 1.89D-04
 ErrMax= 1.89D-04  0.00D+00 EMaxC= 1.00D-01 BMatC= 3.35D-05 BMatP= 5.13D-04
 IDIUse=3 WtCom= 9.98D-01 WtEn= 1.89D-03
 Coeff-Com: -0.234D-02 0.375D-02 0.383D-01 0.111D+00 0.280D+00 0.569D+00
 Coeff-En:   0.000D+00 0.000D+00 0.000D+00 0.000D+00 0.000D+00 0.100D+01
 Coeff:     -0.234D-02 0.375D-02 0.383D-01 0.111D+00 0.280D+00 0.570D+00
 Gap=     0.178 Goal=   None    Shift=    0.000
 RMSDP=2.11D-05 MaxDP=9.94D-04 DE=-4.17D-04 OVMax= 1.39D-03

 Cycle   7  Pass 1  IDiag  1:
 E= -1211.63549742088     Delta-E=       -0.000027546289 Rises=F Damp=F
 DIIS: error= 7.44D-05 at cycle   7 NSaved=   7.
 NSaved= 7 IEnMin= 7 EnMin= -1211.63549742088     IErMin= 7 ErrMin= 7.44D-05
 ErrMax= 7.44D-05  0.00D+00 EMaxC= 1.00D-01 BMatC= 3.45D-06 BMatP= 3.35D-05
 IDIUse=1 WtCom= 1.00D+00 WtEn= 0.00D+00
 Coeff-Com: -0.109D-02 0.629D-03 0.119D-01 0.388D-01 0.117D+00 0.317D+00
 Coeff-Com:  0.515D+00
 Coeff:     -0.109D-02 0.629D-03 0.119D-01 0.388D-01 0.117D+00 0.317D+00
 Coeff:      0.515D+00
 Gap=     0.178 Goal=   None    Shift=    0.000
 RMSDP=7.02D-06 MaxDP=3.52D-04 DE=-2.75D-05 OVMax= 4.69D-04

 Cycle   8  Pass 1  IDiag  1:
 E= -1211.63550028501     Delta-E=       -0.000002864124 Rises=F Damp=F
 DIIS: error= 2.36D-05 at cycle   8 NSaved=   8.
 NSaved= 8 IEnMin= 8 EnMin= -1211.63550028501     IErMin= 8 ErrMin= 2.36D-05
 ErrMax= 2.36D-05  0.00D+00 EMaxC= 1.00D-01 BMatC= 3.90D-07 BMatP= 3.45D-06
 IDIUse=1 WtCom= 1.00D+00 WtEn= 0.00D+00
 Coeff-Com: -0.321D-03-0.498D-04 0.167D-02 0.712D-02 0.300D-01 0.108D+00
 Coeff-Com:  0.290D+00 0.564D+00
 Coeff:     -0.321D-03-0.498D-04 0.167D-02 0.712D-02 0.300D-01 0.108D+00
 Coeff:      0.290D+00 0.564D+00
 Gap=     0.178 Goal=   None    Shift=    0.000
 RMSDP=2.21D-06 MaxDP=1.08D-04 DE=-2.86D-06 OVMax= 1.46D-04

 Cycle   9  Pass 1  IDiag  1:
 E= -1211.63550059397     Delta-E=       -0.000000308959 Rises=F Damp=F
 DIIS: error= 6.95D-06 at cycle   9 NSaved=   9.
 NSaved= 9 IEnMin= 9 EnMin= -1211.63550059397     IErMin= 9 ErrMin= 6.95D-06
 ErrMax= 6.95D-06  0.00D+00 EMaxC= 1.00D-01 BMatC= 3.89D-08 BMatP= 3.90D-07
 IDIUse=1 WtCom= 1.00D+00 WtEn= 0.00D+00
 Coeff-Com: -0.317D-04-0.925D-04-0.658D-03-0.129D-02 0.576D-03 0.144D-01
 Coeff-Com:  0.811D-01 0.296D+00 0.610D+00
 Coeff:     -0.317D-04-0.925D-04-0.658D-03-0.129D-02 0.576D-03 0.144D-01
 Coeff:      0.811D-01 0.296D+00 0.610D+00
 Gap=     0.178 Goal=   None    Shift=    0.000
 RMSDP=6.11D-07 MaxDP=3.57D-05 DE=-3.09D-07 OVMax= 3.56D-05

 Cycle  10  Pass 1  IDiag  1:
 E= -1211.63550062431     Delta-E=       -0.000000030348 Rises=F Damp=F
 DIIS: error= 1.74D-06 at cycle  10 NSaved=  10.
 NSaved=10 IEnMin=10 EnMin= -1211.63550062431     IErMin=10 ErrMin= 1.74D-06
 ErrMax= 1.74D-06  0.00D+00 EMaxC= 1.00D-01 BMatC= 2.47D-09 BMatP= 3.89D-08
 IDIUse=1 WtCom= 1.00D+00 WtEn= 0.00D+00
 Coeff-Com: -0.928D-06-0.410D-04-0.421D-03-0.103D-02-0.142D-02 0.108D-02
 Coeff-Com:  0.235D-01 0.119D+00 0.301D+00 0.559D+00
 Coeff:     -0.928D-06-0.410D-04-0.421D-03-0.103D-02-0.142D-02 0.108D-02
 Coeff:      0.235D-01 0.119D+00 0.301D+00 0.559D+00
 Gap=     0.178 Goal=   None    Shift=    0.000
 RMSDP=1.89D-07 MaxDP=8.32D-06 DE=-3.03D-08 OVMax= 1.59D-05

 Cycle  11  Pass 1  IDiag  1:
 E= -1211.63550062632     Delta-E=       -0.000000002009 Rises=F Damp=F
 DIIS: error= 4.78D-07 at cycle  11 NSaved=  11.
 NSaved=11 IEnMin=11 EnMin= -1211.63550062632     IErMin=11 ErrMin= 4.78D-07
 ErrMax= 4.78D-07  0.00D+00 EMaxC= 1.00D-01 BMatC= 2.12D-10 BMatP= 2.47D-09
 IDIUse=1 WtCom= 1.00D+00 WtEn= 0.00D+00
 Coeff-Com:  0.313D-05-0.316D-05-0.111D-03-0.299D-03-0.725D-03-0.131D-02
 Coeff-Com:  0.441D-03 0.175D-01 0.544D-01 0.250D+00 0.680D+00
 Coeff:      0.313D-05-0.316D-05-0.111D-03-0.299D-03-0.725D-03-0.131D-02
 Coeff:      0.441D-03 0.175D-01 0.544D-01 0.250D+00 0.680D+00
 Gap=     0.178 Goal=   None    Shift=    0.000
 RMSDP=5.93D-08 MaxDP=2.26D-06 DE=-2.01D-09 OVMax= 6.04D-06

 Cycle  12  Pass 1  IDiag  1:
 E= -1211.63550062651     Delta-E=       -0.000000000187 Rises=F Damp=F
 DIIS: error= 2.23D-07 at cycle  12 NSaved=  12.
 NSaved=12 IEnMin=12 EnMin= -1211.63550062651     IErMin=12 ErrMin= 2.23D-07
 ErrMax= 2.23D-07  0.00D+00 EMaxC= 1.00D-01 BMatC= 3.61D-11 BMatP= 2.12D-10
 IDIUse=1 WtCom= 1.00D+00 WtEn= 0.00D+00
 Coeff-Com:  0.213D-05 0.436D-06-0.416D-04-0.117D-03-0.367D-03-0.957D-03
 Coeff-Com: -0.162D-02 0.185D-02 0.106D-01 0.110D+00 0.401D+00 0.479D+00
 Coeff:      0.213D-05 0.436D-06-0.416D-04-0.117D-03-0.367D-03-0.957D-03
 Coeff:     -0.162D-02 0.185D-02 0.106D-01 0.110D+00 0.401D+00 0.479D+00
 Gap=     0.178 Goal=   None    Shift=    0.000
 RMSDP=2.11D-08 MaxDP=9.08D-07 DE=-1.87D-10 OVMax= 1.54D-06

 Cycle  13  Pass 1  IDiag  1:
 E= -1211.63550062654     Delta-E=       -0.000000000033 Rises=F Damp=F
 DIIS: error= 4.76D-08 at cycle  13 NSaved=  13.
 NSaved=13 IEnMin=13 EnMin= -1211.63550062654     IErMin=13 ErrMin= 4.76D-08
 ErrMax= 4.76D-08  0.00D+00 EMaxC= 1.00D-01 BMatC= 2.45D-12 BMatP= 3.61D-11
 IDIUse=1 WtCom= 1.00D+00 WtEn= 0.00D+00
 Coeff-Com:  0.515D-06 0.705D-06-0.316D-05-0.952D-05-0.665D-04-0.273D-03
 Coeff-Com: -0.867D-03-0.193D-02-0.421D-02 0.138D-01 0.924D-01 0.232D+00
 Coeff-Com:  0.669D+00
 Coeff:      0.515D-06 0.705D-06-0.316D-05-0.952D-05-0.665D-04-0.273D-03
 Coeff:     -0.867D-03-0.193D-02-0.421D-02 0.138D-01 0.924D-01 0.232D+00
 Coeff:      0.669D+00
 Gap=     0.178 Goal=   None    Shift=    0.000
 RMSDP=7.09D-09 MaxDP=3.24D-07 DE=-3.32D-11 OVMax= 7.17D-07

 Error on total polarization charges =  0.01992
 SCF Done:  E(RB3LYP) =  -1211.63550063     A.U. after   13 cycles
            NFock= 13  Conv=0.71D-08     -V/T= 2.0077
 KE= 1.202340913097D+03 PE=-5.786065209449D+03 EE= 1.886603520779D+03
 Leave Link  502 at Mon Sep 28 08:23:37 2020, MaxMem=  2147483648 cpu:             260.7 elap:              65.2
 (Enter /prod/apps/gaussian/g16b1/l601.exe)
 Copying SCF densities to generalized density rwf, IOpCl= 0 IROHF=0.

 **********************************************************************

            Population analysis using the SCF Density.

 **********************************************************************

 Alpha  occ. eigenvalues --  -89.15869 -19.17587 -19.17344 -14.49533 -14.47144
 Alpha  occ. eigenvalues --  -14.45603 -14.40752 -14.39548 -10.32403 -10.27476
 Alpha  occ. eigenvalues --  -10.26506 -10.22705 -10.22686 -10.21810 -10.21579
 Alpha  occ. eigenvalues --  -10.20940 -10.20892 -10.20773  -8.18049  -6.14575
 Alpha  occ. eigenvalues --   -6.14465  -6.14424  -1.17953  -1.15193  -1.03791
 Alpha  occ. eigenvalues --   -1.00637  -0.96672  -0.95521  -0.87859  -0.85982
 Alpha  occ. eigenvalues --   -0.79540  -0.77048  -0.73464  -0.73289  -0.71175
 Alpha  occ. eigenvalues --   -0.70011  -0.65375  -0.62796  -0.61275  -0.58815
 Alpha  occ. eigenvalues --   -0.56093  -0.55777  -0.55358  -0.54258  -0.52321
 Alpha  occ. eigenvalues --   -0.50620  -0.49932  -0.49688  -0.47259  -0.46956
 Alpha  occ. eigenvalues --   -0.45831  -0.45445  -0.44331  -0.42848  -0.41667
 Alpha  occ. eigenvalues --   -0.41269  -0.39748  -0.38967  -0.38165  -0.37906
 Alpha  occ. eigenvalues --   -0.37694  -0.36597  -0.35946  -0.35013  -0.34399
 Alpha  occ. eigenvalues --   -0.33261  -0.29973  -0.27299  -0.27045  -0.25722
 Alpha virt. eigenvalues --   -0.07920  -0.02692  -0.01925   0.00131   0.04475
 Alpha virt. eigenvalues --    0.06117   0.07611   0.08100   0.08342   0.09196
 Alpha virt. eigenvalues --    0.10626   0.11087   0.12586   0.13768   0.14131
 Alpha virt. eigenvalues --    0.14415   0.14982   0.15815   0.16382   0.16875
 Alpha virt. eigenvalues --    0.17440   0.17993   0.18623   0.18833   0.19301
 Alpha virt. eigenvalues --    0.19680   0.20650   0.21612   0.23300   0.28240
 Alpha virt. eigenvalues --    0.28660   0.29825   0.30302   0.32206   0.32724
 Alpha virt. eigenvalues --    0.33582   0.37559   0.38353   0.41217   0.45281
 Alpha virt. eigenvalues --    0.46833   0.47428   0.48433   0.48805   0.49492
 Alpha virt. eigenvalues --    0.51225   0.52098   0.53374   0.53949   0.54396
 Alpha virt. eigenvalues --    0.55341   0.55948   0.56739   0.57555   0.57857
 Alpha virt. eigenvalues --    0.59445   0.59723   0.60118   0.60191   0.60527
 Alpha virt. eigenvalues --    0.61210   0.62851   0.63770   0.64093   0.65717
 Alpha virt. eigenvalues --    0.67040   0.69965   0.71546   0.72599   0.74541
 Alpha virt. eigenvalues --    0.74820   0.75331   0.75808   0.77309   0.78447
 Alpha virt. eigenvalues --    0.79346   0.79783   0.81277   0.82417   0.82813
 Alpha virt. eigenvalues --    0.83214   0.83502   0.85306   0.85686   0.86151
 Alpha virt. eigenvalues --    0.87282   0.88525   0.88992   0.90068   0.90502
 Alpha virt. eigenvalues --    0.92125   0.93145   0.94202   0.94488   0.95034
 Alpha virt. eigenvalues --    0.97092   0.97219   0.98139   0.98926   1.01231
 Alpha virt. eigenvalues --    1.02994   1.03750   1.04467   1.05246   1.07290
 Alpha virt. eigenvalues --    1.09536   1.11940   1.12868   1.13587   1.14021
 Alpha virt. eigenvalues --    1.15240   1.16228   1.16980   1.20796   1.21829
 Alpha virt. eigenvalues --    1.23742   1.24486   1.26348   1.27823   1.30837
 Alpha virt. eigenvalues --    1.32276   1.33795   1.36393   1.38945   1.40913
 Alpha virt. eigenvalues --    1.41525   1.42717   1.42871   1.43908   1.44703
 Alpha virt. eigenvalues --    1.46315   1.47190   1.48770   1.50428   1.54533
 Alpha virt. eigenvalues --    1.56927   1.60656   1.64535   1.66543   1.70329
 Alpha virt. eigenvalues --    1.71144   1.74478   1.76262   1.77448   1.78232
 Alpha virt. eigenvalues --    1.78738   1.79083   1.81807   1.82594   1.83883
 Alpha virt. eigenvalues --    1.86269   1.86861   1.87110   1.89435   1.93419
 Alpha virt. eigenvalues --    1.94536   1.95042   1.95357   1.96516   1.97371
 Alpha virt. eigenvalues --    1.99604   2.00814   2.04482   2.04815   2.06120
 Alpha virt. eigenvalues --    2.07354   2.08323   2.08922   2.09955   2.11599
 Alpha virt. eigenvalues --    2.12496   2.13076   2.13513   2.16899   2.18757
 Alpha virt. eigenvalues --    2.19979   2.21600   2.22949   2.24218   2.24298
 Alpha virt. eigenvalues --    2.27380   2.28343   2.30077   2.30508   2.33294
 Alpha virt. eigenvalues --    2.35334   2.37058   2.41191   2.44878   2.47399
 Alpha virt. eigenvalues --    2.49638   2.51376   2.54106   2.57003   2.57597
 Alpha virt. eigenvalues --    2.58625   2.61364   2.63079   2.64971   2.68345
 Alpha virt. eigenvalues --    2.69903   2.70798   2.73243   2.74494   2.74727
 Alpha virt. eigenvalues --    2.79760   2.81865   2.83335   2.87582   2.98183
 Alpha virt. eigenvalues --    3.03251   3.11696   3.23926   3.41195   3.56995
 Alpha virt. eigenvalues --    3.70464   3.91900   3.95490   3.97359   4.03657
 Alpha virt. eigenvalues --    4.05296   4.07436   4.09690   4.12119   4.14706
 Alpha virt. eigenvalues --    4.17580   4.27792   4.30647   4.30897   4.37756
 Alpha virt. eigenvalues --    4.46557   4.69589
          Condensed to atoms (all electrons):
               1          2          3          4          5          6
     1  O    8.224642   0.461919  -0.052633   0.001550  -0.000010  -0.000000
     2  S    0.461919  13.549837   0.115265  -0.014156  -0.004115   0.000247
     3  N   -0.052633   0.115265   7.370823   0.296533  -0.061672   0.004407
     4  C    0.001550  -0.014156   0.296533   4.487315   0.288617  -0.059382
     5  N   -0.000010  -0.004115  -0.061672   0.288617   6.749606   0.245758
     6  N   -0.000000   0.000247   0.004407  -0.059382   0.245758   6.689887
     7  C   -0.000037  -0.003055  -0.065620   0.505250  -0.050182  -0.094093
     8  N    0.000000   0.000132   0.003379  -0.009632  -0.084111   0.276444
     9  C   -0.000000  -0.000004  -0.000099   0.002013   0.006699  -0.053757
    10  C   -0.000000   0.000000   0.000006   0.001376  -0.000346   0.003643
    11  C   -0.000000   0.000000   0.000000  -0.000011   0.000003  -0.000070
    12  C    0.000000  -0.000000  -0.000000   0.000000  -0.000000   0.000014
    13  C   -0.000000  -0.000000  -0.000000   0.000006  -0.000006   0.000275
    14  C    0.000000  -0.000000   0.000000  -0.000622   0.000450  -0.001800
    15  N   -0.055338   0.197158  -0.057821  -0.000409   0.000029  -0.000009
    16  C    0.001443  -0.019529   0.000568   0.000652  -0.000007   0.000013
    17  C   -0.006212  -0.019004   0.000516   0.000210  -0.000003  -0.000000
    18  O   -0.038535   0.422079  -0.056073   0.002433  -0.002250   0.000253
    19  H    0.001058  -0.006257   0.297478  -0.022410   0.002387  -0.000015
    20  H   -0.000000  -0.000024  -0.001537  -0.023813   0.003329   0.003187
    21  H    0.000000  -0.000000  -0.000000   0.000113  -0.000011  -0.000087
    22  H    0.000000   0.000000   0.000000   0.000000  -0.000000   0.000001
    23  H   -0.000000   0.000000  -0.000000  -0.000000  -0.000000   0.000000
    24  H    0.000000   0.000000   0.000000  -0.000000   0.000000  -0.000006
    25  H   -0.000000  -0.000000  -0.000000   0.000017  -0.000314   0.012032
    26  H    0.000046  -0.001773  -0.000413   0.000104   0.000252  -0.000012
    27  H   -0.000042   0.002170  -0.000140   0.000010   0.000007  -0.000001
    28  H   -0.000044  -0.008016   0.001844   0.001399  -0.000152   0.000008
    29  H    0.009981  -0.001140  -0.000396  -0.000016  -0.000000   0.000000
    30  H   -0.000074  -0.008064   0.002892   0.000184   0.000002   0.000000
    31  H    0.000099   0.002633  -0.000119  -0.000007   0.000000  -0.000000
    32  H   -0.000019  -0.000219  -0.000331  -0.023307   0.302261  -0.024677
               7          8          9         10         11         12
     1  O   -0.000037   0.000000  -0.000000  -0.000000  -0.000000   0.000000
     2  S   -0.003055   0.000132  -0.000004   0.000000   0.000000  -0.000000
     3  N   -0.065620   0.003379  -0.000099   0.000006   0.000000  -0.000000
     4  C    0.505250  -0.009632   0.002013   0.001376  -0.000011   0.000000
     5  N   -0.050182  -0.084111   0.006699  -0.000346   0.000003  -0.000000
     6  N   -0.094093   0.276444  -0.053757   0.003643  -0.000070   0.000014
     7  C    4.991568   0.316150  -0.034382  -0.004740   0.000011   0.000016
     8  N    0.316150   6.760743   0.206228  -0.048360   0.004437   0.000356
     9  C   -0.034382   0.206228   4.633067   0.529145  -0.010610  -0.037364
    10  C   -0.004740  -0.048360   0.529145   4.966850   0.528890  -0.040801
    11  C    0.000011   0.004437  -0.010610   0.528890   4.855924   0.542759
    12  C    0.000016   0.000356  -0.037364  -0.040801   0.542759   4.858505
    13  C   -0.000075   0.004384  -0.011205  -0.041406  -0.023892   0.538325
    14  C    0.006621  -0.053577   0.518305  -0.069018  -0.040664  -0.039807
    15  N    0.000122   0.000002  -0.000000  -0.000000  -0.000000   0.000000
    16  C    0.000101  -0.000027   0.000000   0.000000   0.000000  -0.000000
    17  C    0.000010  -0.000000   0.000000   0.000000   0.000000  -0.000000
    18  O    0.000495  -0.000018   0.000000  -0.000000   0.000000   0.000000
    19  H   -0.002467  -0.000013   0.000001   0.000000  -0.000000  -0.000000
    20  H    0.365515  -0.031377  -0.002681   0.002453   0.000152  -0.000001
    21  H    0.005547  -0.008734  -0.040089   0.355663  -0.031893   0.004147
    22  H   -0.000002  -0.000111   0.003416  -0.036999   0.364632  -0.038481
    23  H   -0.000000   0.000004   0.000472   0.004901  -0.040713   0.366611
    24  H    0.000001  -0.000106   0.003489   0.000714   0.004346  -0.038852
    25  H    0.000110  -0.012274  -0.039117   0.005012   0.000110   0.004284
    26  H   -0.000015  -0.000002   0.000000  -0.000000  -0.000000   0.000000
    27  H    0.000008   0.000000   0.000000  -0.000000  -0.000000  -0.000000
    28  H    0.000416  -0.000004  -0.000001  -0.000000   0.000000   0.000000
    29  H    0.000002  -0.000000   0.000000   0.000000  -0.000000  -0.000000
    30  H   -0.000032  -0.000000  -0.000000   0.000000   0.000000   0.000000
    31  H    0.000000  -0.000000  -0.000000  -0.000000  -0.000000  -0.000000
    32  H    0.005097   0.003671  -0.000054   0.000002  -0.000000  -0.000000
              13         14         15         16         17         18
     1  O   -0.000000   0.000000  -0.055338   0.001443  -0.006212  -0.038535
     2  S   -0.000000  -0.000000   0.197158  -0.019529  -0.019004   0.422079
     3  N   -0.000000   0.000000  -0.057821   0.000568   0.000516  -0.056073
     4  C    0.000006  -0.000622  -0.000409   0.000652   0.000210   0.002433
     5  N   -0.000006   0.000450   0.000029  -0.000007  -0.000003  -0.002250
     6  N    0.000275  -0.001800  -0.000009   0.000013  -0.000000   0.000253
     7  C   -0.000075   0.006621   0.000122   0.000101   0.000010   0.000495
     8  N    0.004384  -0.053577   0.000002  -0.000027  -0.000000  -0.000018
     9  C   -0.011205   0.518305  -0.000000   0.000000   0.000000   0.000000
    10  C   -0.041406  -0.069018  -0.000000   0.000000   0.000000  -0.000000
    11  C   -0.023892  -0.040664  -0.000000   0.000000   0.000000   0.000000
    12  C    0.538325  -0.039807   0.000000  -0.000000  -0.000000   0.000000
    13  C    4.866494   0.524593  -0.000000  -0.000000  -0.000000   0.000000
    14  C    0.524593   4.967683  -0.000000   0.000000   0.000000   0.000000
    15  N   -0.000000  -0.000000   7.157929   0.263054   0.264290  -0.051067
    16  C   -0.000000   0.000000   0.263054   5.000020  -0.045692  -0.006077
    17  C   -0.000000   0.000000   0.264290  -0.045692   4.997780   0.001451
    18  O    0.000000   0.000000  -0.051067  -0.006077   0.001451   8.272620
    19  H    0.000000   0.000000  -0.000548   0.000132   0.000474   0.001326
    20  H   -0.000004  -0.000064  -0.000014   0.000008   0.000001   0.000002
    21  H    0.000213   0.004666  -0.000000   0.000000   0.000000  -0.000000
    22  H    0.004293   0.000750   0.000000  -0.000000  -0.000000  -0.000000
    23  H   -0.040824   0.004730  -0.000000   0.000000  -0.000000  -0.000000
    24  H    0.365127  -0.037327   0.000000  -0.000000   0.000000  -0.000000
    25  H   -0.034910   0.358415  -0.000000   0.000000   0.000000   0.000000
    26  H   -0.000000  -0.000000  -0.031345   0.375325   0.004108   0.010493
    27  H   -0.000000  -0.000000  -0.034971   0.378684  -0.003385   0.000102
    28  H    0.000000  -0.000000  -0.043345   0.379081  -0.000549   0.000014
    29  H   -0.000000  -0.000000  -0.031949   0.004079   0.375778   0.000051
    30  H    0.000000   0.000000  -0.044438  -0.000719   0.378378  -0.000041
    31  H   -0.000000   0.000000  -0.033927  -0.003334   0.379268  -0.000044
    32  H   -0.000000   0.000001   0.000067  -0.000014  -0.000002   0.013237
              19         20         21         22         23         24
     1  O    0.001058  -0.000000   0.000000   0.000000  -0.000000   0.000000
     2  S   -0.006257  -0.000024  -0.000000   0.000000   0.000000   0.000000
     3  N    0.297478  -0.001537  -0.000000   0.000000  -0.000000   0.000000
     4  C   -0.022410  -0.023813   0.000113   0.000000  -0.000000  -0.000000
     5  N    0.002387   0.003329  -0.000011  -0.000000  -0.000000   0.000000
     6  N   -0.000015   0.003187  -0.000087   0.000001   0.000000  -0.000006
     7  C   -0.002467   0.365515   0.005547  -0.000002  -0.000000   0.000001
     8  N   -0.000013  -0.031377  -0.008734  -0.000111   0.000004  -0.000106
     9  C    0.000001  -0.002681  -0.040089   0.003416   0.000472   0.003489
    10  C    0.000000   0.002453   0.355663  -0.036999   0.004901   0.000714
    11  C   -0.000000   0.000152  -0.031893   0.364632  -0.040713   0.004346
    12  C   -0.000000  -0.000001   0.004147  -0.038481   0.366611  -0.038852
    13  C    0.000000  -0.000004   0.000213   0.004293  -0.040824   0.365127
    14  C    0.000000  -0.000064   0.004666   0.000750   0.004730  -0.037327
    15  N   -0.000548  -0.000014  -0.000000   0.000000  -0.000000   0.000000
    16  C    0.000132   0.000008   0.000000  -0.000000   0.000000  -0.000000
    17  C    0.000474   0.000001   0.000000  -0.000000  -0.000000   0.000000
    18  O    0.001326   0.000002  -0.000000  -0.000000  -0.000000  -0.000000
    19  H    0.281832   0.000985   0.000000   0.000000   0.000000   0.000000
    20  H    0.000985   0.419599   0.001348  -0.000001  -0.000000   0.000000
    21  H    0.000000   0.001348   0.525722  -0.004916  -0.000137   0.000013
    22  H    0.000000  -0.000001  -0.004916   0.539343  -0.004980  -0.000155
    23  H    0.000000  -0.000000  -0.000137  -0.004980   0.546042  -0.004998
    24  H    0.000000   0.000000   0.000013  -0.000155  -0.004998   0.539947
    25  H    0.000000  -0.000008  -0.000121   0.000013  -0.000131  -0.004906
    26  H   -0.000016  -0.000002  -0.000000  -0.000000   0.000000  -0.000000
    27  H   -0.000003  -0.000000  -0.000000   0.000000  -0.000000   0.000000
    28  H    0.000077   0.000065  -0.000000   0.000000   0.000000  -0.000000
    29  H   -0.000002  -0.000000  -0.000000  -0.000000  -0.000000  -0.000000
    30  H    0.001043   0.000025   0.000000  -0.000000   0.000000  -0.000000
    31  H   -0.000023  -0.000000  -0.000000   0.000000  -0.000000   0.000000
    32  H   -0.000036  -0.000050  -0.000000   0.000000  -0.000000   0.000000
              25         26         27         28         29         30
     1  O   -0.000000   0.000046  -0.000042  -0.000044   0.009981  -0.000074
     2  S   -0.000000  -0.001773   0.002170  -0.008016  -0.001140  -0.008064
     3  N   -0.000000  -0.000413  -0.000140   0.001844  -0.000396   0.002892
     4  C    0.000017   0.000104   0.000010   0.001399  -0.000016   0.000184
     5  N   -0.000314   0.000252   0.000007  -0.000152  -0.000000   0.000002
     6  N    0.012032  -0.000012  -0.000001   0.000008   0.000000   0.000000
     7  C    0.000110  -0.000015   0.000008   0.000416   0.000002  -0.000032
     8  N   -0.012274  -0.000002   0.000000  -0.000004  -0.000000  -0.000000
     9  C   -0.039117   0.000000   0.000000  -0.000001   0.000000  -0.000000
    10  C    0.005012  -0.000000  -0.000000  -0.000000   0.000000   0.000000
    11  C    0.000110  -0.000000  -0.000000   0.000000  -0.000000   0.000000
    12  C    0.004284   0.000000  -0.000000   0.000000  -0.000000   0.000000
    13  C   -0.034910  -0.000000  -0.000000   0.000000  -0.000000   0.000000
    14  C    0.358415  -0.000000  -0.000000  -0.000000  -0.000000   0.000000
    15  N   -0.000000  -0.031345  -0.034971  -0.043345  -0.031949  -0.044438
    16  C    0.000000   0.375325   0.378684   0.379081   0.004079  -0.000719
    17  C    0.000000   0.004108  -0.003385  -0.000549   0.375778   0.378378
    18  O    0.000000   0.010493   0.000102   0.000014   0.000051  -0.000041
    19  H    0.000000  -0.000016  -0.000003   0.000077  -0.000002   0.001043
    20  H   -0.000008  -0.000002  -0.000000   0.000065  -0.000000   0.000025
    21  H   -0.000121  -0.000000  -0.000000  -0.000000  -0.000000   0.000000
    22  H    0.000013  -0.000000   0.000000   0.000000  -0.000000  -0.000000
    23  H   -0.000131   0.000000  -0.000000   0.000000  -0.000000   0.000000
    24  H   -0.004906  -0.000000   0.000000  -0.000000  -0.000000  -0.000000
    25  H    0.522973  -0.000000  -0.000000   0.000000  -0.000000   0.000000
    26  H   -0.000000   0.488980  -0.020505  -0.027573  -0.000183  -0.000132
    27  H   -0.000000  -0.020505   0.511888  -0.034266   0.000013  -0.001263
    28  H    0.000000  -0.027573  -0.034266   0.541402  -0.000124   0.006345
    29  H   -0.000000  -0.000183   0.000013  -0.000124   0.489421  -0.028148
    30  H    0.000000  -0.000132  -0.001263   0.006345  -0.028148   0.545546
    31  H   -0.000000   0.000013   0.004742  -0.001369  -0.020512  -0.034447
    32  H   -0.000002  -0.000021  -0.000000   0.000023  -0.000000   0.000001
              31         32
     1  O    0.000099  -0.000019
     2  S    0.002633  -0.000219
     3  N   -0.000119  -0.000331
     4  C   -0.000007  -0.023307
     5  N    0.000000   0.302261
     6  N   -0.000000  -0.024677
     7  C    0.000000   0.005097
     8  N   -0.000000   0.003671
     9  C   -0.000000  -0.000054
    10  C   -0.000000   0.000002
    11  C   -0.000000  -0.000000
    12  C   -0.000000  -0.000000
    13  C   -0.000000  -0.000000
    14  C    0.000000   0.000001
    15  N   -0.033927   0.000067
    16  C   -0.003334  -0.000014
    17  C    0.379268  -0.000002
    18  O   -0.000044   0.013237
    19  H   -0.000023  -0.000036
    20  H   -0.000000  -0.000050
    21  H   -0.000000  -0.000000
    22  H    0.000000   0.000000
    23  H   -0.000000  -0.000000
    24  H    0.000000   0.000000
    25  H   -0.000000  -0.000002
    26  H    0.000013  -0.000021
    27  H    0.004742  -0.000000
    28  H   -0.001369   0.000023
    29  H   -0.020512  -0.000000
    30  H   -0.034447   0.000001
    31  H    0.509780   0.000000
    32  H    0.000000   0.257746
 Mulliken charges:
               1
     1  O   -0.547795
     2  S    1.333914
     3  N   -0.796858
     4  C    0.565981
     5  N   -0.396223
     6  N   -0.002261
     7  C    0.057661
     8  N   -0.327585
     9  C    0.326530
    10  C   -0.156985
    11  C   -0.153408
    12  C   -0.119710
    13  C   -0.151389
    14  C   -0.143336
    15  N   -0.497470
    16  C   -0.327761
    17  C   -0.327418
    18  O   -0.570452
    19  H    0.444996
    20  H    0.262906
    21  H    0.188558
    22  H    0.173199
    23  H    0.169023
    24  H    0.172714
    25  H    0.188816
    26  H    0.202670
    27  H    0.196952
    28  H    0.184771
    29  H    0.203145
    30  H    0.182940
    31  H    0.197249
    32  H    0.466626
 Sum of Mulliken charges =   1.00000
 Mulliken charges with hydrogens summed into heavy atoms:
               1
     1  O   -0.547795
     2  S    1.333914
     3  N   -0.351861
     4  C    0.565981
     5  N    0.070402
     6  N   -0.002261
     7  C    0.320567
     8  N   -0.327585
     9  C    0.326530
    10  C    0.031573
    11  C    0.019790
    12  C    0.049313
    13  C    0.021325
    14  C    0.045480
    15  N   -0.497470
    16  C    0.256631
    17  C    0.255917
    18  O   -0.570452
 Electronic spatial extent (au):  <R**2>=           6704.7890
 Charge=              1.0000 electrons
 Dipole moment (field-independent basis, Debye):
    X=              5.9457    Y=              4.9124    Z=             -0.9606  Tot=              7.7721
 Quadrupole moment (field-independent basis, Debye-Ang):
   XX=            -88.3317   YY=            -96.4226   ZZ=            -98.7381
   XY=            -11.8901   XZ=             -5.6401   YZ=             -5.6477
 Traceless Quadrupole moment (field-independent basis, Debye-Ang):
   XX=              6.1658   YY=             -1.9252   ZZ=             -4.2406
   XY=            -11.8901   XZ=             -5.6401   YZ=             -5.6477
 Octapole moment (field-independent basis, Debye-Ang**2):
  XXX=            194.2004  YYY=              1.7959  ZZZ=             10.0377  XYY=            -41.1000
  XXY=             84.5442  XXZ=             35.3357  XZZ=             -5.0456  YZZ=             14.5265
  YYZ=              0.7907  XYZ=            -22.6514
 Hexadecapole moment (field-independent basis, Debye-Ang**3):
 XXXX=          -6518.6653 YYYY=           -723.7708 ZZZZ=           -602.3946 XXXY=             16.3731
 XXXZ=             -0.0650 YYYX=             45.5657 YYYZ=              0.3654 ZZZX=             14.4154
 ZZZY=            -15.7245 XXYY=          -1284.8924 XXZZ=          -1265.1647 YYZZ=           -216.6278
 XXYZ=            -78.6487 YYXZ=            -10.6455 ZZXY=              0.6573
 N-N= 1.485485274946D+03 E-N=-5.786065210834D+03  KE= 1.202340913097D+03
 No NMR shielding tensors so no spin-rotation constants.
 Leave Link  601 at Mon Sep 28 08:23:37 2020, MaxMem=  2147483648 cpu:               0.5 elap:               0.1
 (Enter /prod/apps/gaussian/g16b1/l701.exe)
 ... and contract with generalized density number  0.
 Compute integral first derivatives.
 D1PCM: PCM CHGder 1st derivatives, ID1Alg=3 FixD1E=F DoIter=F DoCFld=F I1PDM=0.
 GePol: Maximum number of non-zero 1st derivatives   =     192
 Leave Link  701 at Mon Sep 28 08:23:39 2020, MaxMem=  2147483648 cpu:               9.2 elap:               2.3
 (Enter /prod/apps/gaussian/g16b1/l702.exe)
 L702 exits ... SP integral derivatives will be done elsewhere.
 Leave Link  702 at Mon Sep 28 08:23:39 2020, MaxMem=  2147483648 cpu:               0.1 elap:               0.0
 (Enter /prod/apps/gaussian/g16b1/l703.exe)
 Integral derivatives from FoFJK, PRISM(SPDF).
 Compute integral first derivatives, UseDBF=F ICtDFT=           0.
 Calling FoFJK, ICntrl=      2127 FMM=F ISym2X=0 I1Cent= 0 IOpClX= 0 NMat=1 NMatS=1 NMatT=0.
 FoFJK:  IHMeth= 1 ICntrl=    2127 DoSepK=F KAlg= 0 I1Cent=           0 FoldK=F
 IRaf=         0 NMat=       1 IRICut=       1 DoRegI=T DoRafI=F ISym2E= 0 IDoP0=0 IntGTp=1.
 FoFCou: FMM=F IPFlag=           0 FMFlag=      100000 FMFlg1=         800
         NFxFlg=           0 DoJE=F BraDBF=F KetDBF=F FulRan=T
         wScrn=  0.000000 ICntrl=      2127 IOpCl=  0 I1Cent=           0 NGrid=           0
         NMat0=    1 NMatS0=      1 NMatT0=    0 NMatD0=    1 NMtDS0=    0 NMtDT0=    0
 Symmetry not used in FoFCou.
 Leave Link  703 at Mon Sep 28 08:23:53 2020, MaxMem=  2147483648 cpu:              55.8 elap:              14.0
 (Enter /prod/apps/gaussian/g16b1/l716.exe)
 Dipole        = 2.33920587D+00 1.93267270D+00-3.77947085D-01
 -------------------------------------------------------------------
 Center     Atomic                   Forces (Hartrees/Bohr)
 Number     Number              X              Y              Z
 -------------------------------------------------------------------
      1        8           0.000518670   -0.000050630    0.000437914
      2       16          -0.000757000    0.000606597   -0.000702532
      3        7           0.000223100    0.000036671    0.000005409
      4        6          -0.000399373   -0.000317867    0.000165889
      5        7          -0.000040484   -0.000243180    0.000041669
      6        7          -0.000377800   -0.000017624    0.000048651
      7        6           0.000420910    0.000102916   -0.000073429
      8        7          -0.000291039    0.000056503   -0.000100930
      9        6           0.000316639    0.000317041   -0.000104829
     10        6           0.000311468   -0.000017957   -0.000024877
     11        6          -0.000500454    0.000354573   -0.000636699
     12        6           0.000532920   -0.000332055    0.000571386
     13        6          -0.000246808    0.000389055   -0.000482776
     14        6           0.000063293   -0.000440147    0.000619512
     15        7           0.000003592   -0.000490649    0.000075039
     16        6          -0.000648505    0.000135617    0.000396265
     17        6           0.000478494    0.000587140   -0.000188835
     18        8           0.000113548   -0.000405700    0.000338187
     19        1          -0.000070527   -0.000044954    0.000030533
     20        1           0.000018134   -0.000080194    0.000060504
     21        1           0.000029289   -0.000025874    0.000055368
     22        1          -0.000052305   -0.000150859    0.000187010
     23        1          -0.000296360   -0.000022530   -0.000061281
     24        1           0.000042462   -0.000085479    0.000121632
     25        1           0.000129475    0.000243940   -0.000286630
     26        1           0.000032008   -0.000157512    0.000088660
     27        1           0.000227103   -0.000198622   -0.000300327
     28        1           0.000410570    0.000288185   -0.000137152
     29        1          -0.000051504   -0.000045490   -0.000074322
     30        1          -0.000372795   -0.000153747    0.000040839
     31        1          -0.000024143   -0.000101465   -0.000007554
     32        1           0.000257423    0.000264298   -0.000102293
 -------------------------------------------------------------------
 Cartesian Forces:  Max     0.000757000 RMS     0.000297454
 Leave Link  716 at Mon Sep 28 08:23:53 2020, MaxMem=  2147483648 cpu:               0.1 elap:               0.0
 (Enter /prod/apps/gaussian/g16b1/l103.exe)

 GradGradGradGradGradGradGradGradGradGradGradGradGradGradGradGradGradGrad
 Berny optimization.
 FormGI is forming the generalized inverse of G from B-inverse, IUseBI=4.
 Internal  Forces:  Max     0.000673625 RMS     0.000138973
 Search for a local minimum.
 Step number   1 out of a maximum of  170
 All quantities printed in internal units (Hartrees-Bohrs-Radians)
 RMS Force = .13897D-03 SwitMx=.10000D-02 MixMth= 2
 Mixed Optimization -- En-DIIS/RFO-DIIS
 Second derivative matrix not updated -- first step.
 ITU=  0
     Eigenvalues ---    0.00738   0.00742   0.00914   0.01239   0.01712
     Eigenvalues ---    0.01852   0.01889   0.01930   0.01969   0.02108
     Eigenvalues ---    0.02139   0.02147   0.02157   0.02160   0.02165
     Eigenvalues ---    0.02166   0.02168   0.02169   0.02176   0.02244
     Eigenvalues ---    0.02263   0.02277   0.02319   0.07233   0.07237
     Eigenvalues ---    0.07758   0.07758   0.09135   0.10563   0.14198
     Eigenvalues ---    0.14941   0.15992   0.15997   0.15998   0.15999
     Eigenvalues ---    0.15999   0.16000   0.16000   0.16000   0.16000
     Eigenvalues ---    0.16000   0.16000   0.16000   0.16000   0.20261
     Eigenvalues ---    0.21119   0.21528   0.22000   0.22000   0.22617
     Eigenvalues ---    0.23357   0.23500   0.24066   0.24899   0.24994
     Eigenvalues ---    0.25000   0.25000   0.32624   0.34079   0.34341
     Eigenvalues ---    0.34566   0.34649   0.35062   0.35091   0.35445
     Eigenvalues ---    0.35489   0.35495   0.35525   0.35574   0.35627
     Eigenvalues ---    0.35680   0.36574   0.40382   0.42179   0.42337
[...]
 Alpha virt. eigenvalues --    2.62147   2.63433   2.66249   2.66885   2.67532
 Alpha virt. eigenvalues --    2.70146   2.70845   2.72721   2.73881   2.74226
 Alpha virt. eigenvalues --    2.75770   2.77440   2.77690   2.78784   2.79901
 Alpha virt. eigenvalues --    2.81907   2.82531   2.84007   2.84319   2.85507
 Alpha virt. eigenvalues --    2.88170   2.90621   2.92030   2.94668   2.95634
 Alpha virt. eigenvalues --    2.97136   2.98618   2.98659   3.01324   3.02307
 Alpha virt. eigenvalues --    3.03008   3.04688   3.05491   3.07603   3.09590
 Alpha virt. eigenvalues --    3.11193   3.18979   3.20438   3.22750   3.23574
 Alpha virt. eigenvalues --    3.27149   3.28473   3.33280   3.37712   3.39171
 Alpha virt. eigenvalues --    3.46999   3.52760   3.53510   3.60475   3.62672
 Alpha virt. eigenvalues --    3.63868   3.66207   3.67091   3.69685   3.71568
 Alpha virt. eigenvalues --    3.72974   3.74326   3.78278   3.80447   3.84652
 Alpha virt. eigenvalues --    3.92965   4.18213   4.39297   4.76160
          Condensed to atoms (all electrons):
               1          2          3          4          5          6
     1  O    8.969110  -0.028534  -0.047787   0.040125  -0.014934  -0.000116
     2  S   -0.028534  14.286474   0.229723  -1.426551   0.267693  -0.091884
     3  N   -0.047787   0.229723   8.967571  -3.521738   0.414532  -0.324477
     4  C    0.040125  -1.426551  -3.521738  21.209295  -2.213084   1.337546
     5  N   -0.014934   0.267693   0.414532  -2.213084   8.778558  -1.100268
     6  N   -0.000116  -0.091884  -0.324477   1.337546  -1.100268   9.095434
     7  C    0.013615   0.578674   1.602901 -10.356852   1.447521  -1.257808
     8  N   -0.003261   0.042296   0.083884  -0.228402  -0.277246  -0.265496
     9  C    0.001942  -0.016527   0.055535   0.205161  -0.131372  -0.394640
    10  C   -0.000472   0.003192  -0.017068  -0.172877   0.095106  -0.070637
    11  C   -0.000040  -0.000492  -0.009823   0.135367   0.021431  -0.013988
    12  C   -0.000001  -0.000291  -0.002864   0.013488  -0.005207   0.030661
    13  C    0.000027  -0.000418   0.002269  -0.000872  -0.070508   0.007736
    14  C    0.000326  -0.003780  -0.003324  -0.018445  -0.154978   0.635817
    15  N    0.017060  -0.402869   0.117761   0.005491  -0.033664   0.061276
    16  C    0.027952  -0.132356   0.013828   0.051622   0.002175  -0.016860
    17  C    0.031517  -0.222619   0.022491  -0.043649   0.012344   0.002048
    18  O   -0.007158  -0.031050  -0.084399   0.281774  -0.031874  -0.048780
    19  H    0.011240  -0.012693   0.280085   0.111529  -0.012413   0.011395
    20  H   -0.000645   0.005355  -0.137227   0.306542  -0.104720  -0.076121
    21  H    0.000153  -0.000381   0.010023  -0.086676   0.000020  -0.033277
    22  H   -0.000001   0.000060  -0.000022   0.004271  -0.000851   0.001416
    23  H    0.000000  -0.000023  -0.000054  -0.000139  -0.000297   0.001890
    24  H    0.000001  -0.000051  -0.000168   0.001532   0.000065   0.000544
    25  H    0.000082  -0.002242  -0.004746   0.035651  -0.040872   0.016657
    26  H   -0.002557   0.158827  -0.007706  -0.099509   0.003572  -0.007231
    27  H   -0.002187  -0.035983   0.013536   0.053949  -0.002188  -0.004350
    28  H    0.007376  -0.099720  -0.012970  -0.008709   0.000117   0.012403
    29  H    0.000706   0.128133  -0.002691   0.036687  -0.002235  -0.001038
    30  H   -0.004875  -0.011701  -0.013760  -0.052106   0.002815   0.002250
    31  H    0.007512  -0.060574   0.004238  -0.022276   0.002361  -0.000107
    32  H   -0.001303   0.008553  -0.007691  -0.023179   0.403322  -0.150532
               7          8          9         10         11         12
     1  O    0.013615  -0.003261   0.001942  -0.000472  -0.000040  -0.000001
     2  S    0.578674   0.042296  -0.016527   0.003192  -0.000492  -0.000291
     3  N    1.602901   0.083884   0.055535  -0.017068  -0.009823  -0.002864
     4  C  -10.356852  -0.228402   0.205161  -0.172877   0.135367   0.013488
     5  N    1.447521  -0.277246  -0.131372   0.095106   0.021431  -0.005207
     6  N   -1.257808  -0.265496  -0.394640  -0.070637  -0.013988   0.030661
     7  C   14.831100  -0.062886  -1.499215   0.654615  -0.335137   0.007715
     8  N   -0.062886   9.235511  -0.964917   0.573570  -0.380112   0.373877
     9  C   -1.499215  -0.964917  15.189467  -5.797684   2.837279  -3.604348
    10  C    0.654615   0.573570  -5.797684  12.836975  -3.430410   3.041923
    11  C   -0.335137  -0.380112   2.837279  -3.430410   9.932858  -2.914056
    12  C    0.007715   0.373877  -3.604348   3.041923  -2.914056   8.815421
    13  C    0.045656  -0.278630   2.666766  -3.236345   2.839687  -2.868386
    14  C   -0.152724  -0.069167  -5.191693   2.006083  -3.169121   2.889391
    15  N   -0.027804  -0.017660  -0.006014   0.002448  -0.000894   0.000258
    16  C   -0.098002   0.030414   0.030765  -0.006708   0.000509  -0.000346
    17  C    0.045299  -0.012939  -0.012154   0.000846  -0.000553   0.000043
    18  O   -0.060617  -0.008657  -0.005177   0.000729   0.000246  -0.000036
    19  H   -0.149141   0.006304   0.007336  -0.002253   0.000498  -0.000092
    20  H   -0.652780   0.170643   0.117072   0.043054   0.109354  -0.004817
    21  H    0.157250  -0.258371   1.010177  -1.038754   0.119600  -0.193523
    22  H    0.001803   0.003785  -0.126783   0.646260  -0.749779   0.289176
    23  H   -0.001788  -0.003817   0.113651  -0.171979   0.348385  -0.580128
    24  H   -0.002074  -0.009305  -0.082198   0.104881  -0.205402   0.246768
    25  H   -0.039464  -0.204474   0.626018  -0.112259   0.105541  -0.150359
    26  H    0.088973   0.011321   0.000865   0.001541  -0.000195   0.000122
    27  H   -0.046763  -0.000099   0.002334  -0.001404   0.000178  -0.000102
    28  H    0.030893  -0.010071  -0.001068  -0.001853   0.000649  -0.000521
    29  H   -0.004689  -0.001292  -0.001265   0.000140   0.000099  -0.000011
    30  H    0.025074   0.001160   0.002319  -0.000540  -0.000646   0.000042
    31  H    0.009609  -0.000206  -0.000399   0.000077  -0.000114   0.000012
    32  H   -0.076977   0.077854   0.012671  -0.002029   0.000865  -0.000865
              13         14         15         16         17         18
     1  O    0.000027   0.000326   0.017060   0.027952   0.031517  -0.007158
     2  S   -0.000418  -0.003780  -0.402869  -0.132356  -0.222619  -0.031050
     3  N    0.002269  -0.003324   0.117761   0.013828   0.022491  -0.084399
     4  C   -0.000872  -0.018445   0.005491   0.051622  -0.043649   0.281774
     5  N   -0.070508  -0.154978  -0.033664   0.002175   0.012344  -0.031874
     6  N    0.007736   0.635817   0.061276  -0.016860   0.002048  -0.048780
     7  C    0.045656  -0.152724  -0.027804  -0.098002   0.045299  -0.060617
     8  N   -0.278630  -0.069167  -0.017660   0.030414  -0.012939  -0.008657
     9  C    2.666766  -5.191693  -0.006014   0.030765  -0.012154  -0.005177
    10  C   -3.236345   2.006083   0.002448  -0.006708   0.000846   0.000729
    11  C    2.839687  -3.169121  -0.000894   0.000509  -0.000553   0.000246
    12  C   -2.868386   2.889391   0.000258  -0.000346   0.000043  -0.000036
    13  C    9.605913  -3.257763   0.000101   0.000061   0.000221  -0.000316
    14  C   -3.257763  12.632414   0.005794  -0.007667   0.002034  -0.002365
    15  N    0.000101   0.005794   8.191035   0.126936   0.323453   0.017595
    16  C    0.000061  -0.007667   0.126936   4.278351  -0.199467   0.004776
    17  C    0.000221   0.002034   0.323453  -0.199467   4.314066   0.028307
    18  O   -0.000316  -0.002365   0.017595   0.004776   0.028307   9.080522
    19  H   -0.000396  -0.001534  -0.022475  -0.002525  -0.000952   0.002888
    20  H   -0.005228  -0.172394  -0.009741  -0.002196   0.005366   0.003071
    21  H    0.128936  -0.126396   0.001272  -0.000476   0.000324  -0.000413
    22  H   -0.233150   0.114195  -0.000058   0.000047  -0.000034   0.000008
    23  H    0.385200  -0.119739   0.000013  -0.000019   0.000002  -0.000003
    24  H   -0.661487   0.571139  -0.000002   0.000016  -0.000004  -0.000009
    25  H    0.321244  -0.838839   0.000699  -0.000129  -0.000028  -0.000238
    26  H    0.000033  -0.000893  -0.103803   0.348896  -0.065170  -0.019512
    27  H    0.000052  -0.001160  -0.210884   0.485214   0.024644   0.006573
    28  H    0.000568   0.003557   0.166020   0.107155   0.055824   0.001721
    29  H    0.000007  -0.000184  -0.160379  -0.067085   0.399031  -0.000542
    30  H    0.000124   0.001091   0.145266   0.008775   0.213529   0.002487
    31  H    0.000007   0.000244  -0.069726   0.059213   0.392456  -0.000262
    32  H    0.001557  -0.001495   0.003689  -0.003221  -0.001539  -0.007537
              19         20         21         22         23         24
     1  O    0.011240  -0.000645   0.000153  -0.000001   0.000000   0.000001
     2  S   -0.012693   0.005355  -0.000381   0.000060  -0.000023  -0.000051
     3  N    0.280085  -0.137227   0.010023  -0.000022  -0.000054  -0.000168
     4  C    0.111529   0.306542  -0.086676   0.004271  -0.000139   0.001532
     5  N   -0.012413  -0.104720   0.000020  -0.000851  -0.000297   0.000065
     6  N    0.011395  -0.076121  -0.033277   0.001416   0.001890   0.000544
     7  C   -0.149141  -0.652780   0.157250   0.001803  -0.001788  -0.002074
     8  N    0.006304   0.170643  -0.258371   0.003785  -0.003817  -0.009305
     9  C    0.007336   0.117072   1.010177  -0.126783   0.113651  -0.082198
    10  C   -0.002253   0.043054  -1.038754   0.646260  -0.171979   0.104881
    11  C    0.000498   0.109354   0.119600  -0.749779   0.348385  -0.205402
    12  C   -0.000092  -0.004817  -0.193523   0.289176  -0.580128   0.246768
    13  C   -0.000396  -0.005228   0.128936  -0.233150   0.385200  -0.661487
    14  C   -0.001534  -0.172394  -0.126396   0.114195  -0.119739   0.571139
    15  N   -0.022475  -0.009741   0.001272  -0.000058   0.000013  -0.000002
    16  C   -0.002525  -0.002196  -0.000476   0.000047  -0.000019   0.000016
    17  C   -0.000952   0.005366   0.000324  -0.000034   0.000002  -0.000004
    18  O    0.002888   0.003071  -0.000413   0.000008  -0.000003  -0.000009
    19  H    0.784099   0.006730   0.000473   0.000057  -0.000011  -0.000002
    20  H    0.006730   1.988336  -0.075183   0.001163  -0.000270   0.000450
    21  H    0.000473  -0.075183   2.140132  -0.078631  -0.014872   0.009646
    22  H    0.000057   0.001163  -0.078631   1.610512  -0.057942  -0.017365
    23  H   -0.000011  -0.000270  -0.014872  -0.057942   1.593296  -0.061727
    24  H   -0.000002   0.000450   0.009646  -0.017365  -0.061727   1.593626
    25  H   -0.000315  -0.005791  -0.016535   0.009038  -0.011093  -0.076664
    26  H    0.002535   0.003630   0.000068  -0.000010   0.000001   0.000019
    27  H   -0.000264  -0.001591  -0.000169   0.000013  -0.000006   0.000009
    28  H    0.000349   0.004042  -0.000364   0.000068   0.000023  -0.000061
    29  H   -0.001409   0.002662  -0.000189   0.000005  -0.000001   0.000001
    30  H    0.002242  -0.004583   0.000753  -0.000039   0.000005   0.000002
    31  H    0.000820  -0.000168   0.000087  -0.000005   0.000001  -0.000002
    32  H    0.003158  -0.000652  -0.000200   0.000034  -0.000026   0.000046
              25         26         27         28         29         30
     1  O    0.000082  -0.002557  -0.002187   0.007376   0.000706  -0.004875
     2  S   -0.002242   0.158827  -0.035983  -0.099720   0.128133  -0.011701
     3  N   -0.004746  -0.007706   0.013536  -0.012970  -0.002691  -0.013760
     4  C    0.035651  -0.099509   0.053949  -0.008709   0.036687  -0.052106
     5  N   -0.040872   0.003572  -0.002188   0.000117  -0.002235   0.002815
     6  N    0.016657  -0.007231  -0.004350   0.012403  -0.001038   0.002250
     7  C   -0.039464   0.088973  -0.046763   0.030893  -0.004689   0.025074
     8  N   -0.204474   0.011321  -0.000099  -0.010071  -0.001292   0.001160
     9  C    0.626018   0.000865   0.002334  -0.001068  -0.001265   0.002319
    10  C   -0.112259   0.001541  -0.001404  -0.001853   0.000140  -0.000540
    11  C    0.105541  -0.000195   0.000178   0.000649   0.000099  -0.000646
    12  C   -0.150359   0.000122  -0.000102  -0.000521  -0.000011   0.000042
    13  C    0.321244   0.000033   0.000052   0.000568   0.000007   0.000124
    14  C   -0.838839  -0.000893  -0.001160   0.003557  -0.000184   0.001091
    15  N    0.000699  -0.103803  -0.210884   0.166020  -0.160379   0.145266
    16  C   -0.000129   0.348896   0.485214   0.107155  -0.067085   0.008775
    17  C   -0.000028  -0.065170   0.024644   0.055824   0.399031   0.213529
    18  O   -0.000238  -0.019512   0.006573   0.001721  -0.000542   0.002487
    19  H   -0.000315   0.002535  -0.000264   0.000349  -0.001409   0.002242
    20  H   -0.005791   0.003630  -0.001591   0.004042   0.002662  -0.004583
    21  H   -0.016535   0.000068  -0.000169  -0.000364  -0.000189   0.000753
    22  H    0.009038  -0.000010   0.000013   0.000068   0.000005  -0.000039
    23  H   -0.011093   0.000001  -0.000006   0.000023  -0.000001   0.000005
    24  H   -0.076664   0.000019   0.000009  -0.000061   0.000001   0.000002
    25  H    1.918691  -0.000200  -0.000113   0.000267  -0.000025   0.000142
    26  H   -0.000200   1.352501  -0.334976  -0.160275  -0.002511  -0.005301
    27  H   -0.000113  -0.334976   1.441510  -0.218571   0.006315  -0.006998
    28  H    0.000267  -0.160275  -0.218571   1.193787  -0.006197   0.001619
    29  H   -0.000025  -0.002511   0.006315  -0.006197   1.243846  -0.180157
    30  H    0.000142  -0.005301  -0.006998   0.001619  -0.180157   1.042725
    31  H   -0.000018   0.005046  -0.000226   0.003539  -0.261457  -0.140770
    32  H   -0.001633   0.000127   0.000623  -0.000667   0.000177   0.000065
              31         32
     1  O    0.007512  -0.001303
     2  S   -0.060574   0.008553
     3  N    0.004238  -0.007691
     4  C   -0.022276  -0.023179
     5  N    0.002361   0.403322
     6  N   -0.000107  -0.150532
     7  C    0.009609  -0.076977
     8  N   -0.000206   0.077854
     9  C   -0.000399   0.012671
    10  C    0.000077  -0.002029
    11  C   -0.000114   0.000865
    12  C    0.000012  -0.000865
    13  C    0.000007   0.001557
    14  C    0.000244  -0.001495
    15  N   -0.069726   0.003689
    16  C    0.059213  -0.003221
    17  C    0.392456  -0.001539
    18  O   -0.000262  -0.007537
    19  H    0.000820   0.003158
    20  H   -0.000168  -0.000652
    21  H    0.000087  -0.000200
    22  H   -0.000005   0.000034
    23  H    0.000001  -0.000026
    24  H   -0.000002   0.000046
    25  H   -0.000018  -0.001633
    26  H    0.005046   0.000127
    27  H   -0.000226   0.000623
    28  H    0.003539  -0.000667
    29  H   -0.261457   0.000177
    30  H   -0.140770   0.000065
    31  H    1.192133  -0.000214
    32  H   -0.000214   0.741363
 Mulliken charges:
               1
     1  O   -1.014871
     2  S    2.871756
     3  N   -0.619866
     4  C    0.445033
     5  N   -0.254922
     6  N   -0.359465
     7  C    1.284023
     8  N   -0.553611
     9  C    0.956099
    10  C    0.051832
    11  C    0.758216
    12  C    0.617058
    13  C    0.607331
    14  C    0.431576
    15  N   -1.120195
    16  C    0.960351
    17  C    0.685262
    18  O   -1.121754
    19  H   -0.025265
    20  H   -0.513367
    21  H   -0.654505
    22  H   -0.417246
    23  H   -0.418535
    24  H   -0.412224
    25  H   -0.527997
    26  H   -0.168229
    27  H   -0.166915
    28  H   -0.068930
    29  H   -0.124453
    30  H   -0.031011
    31  H   -0.120834
    32  H    0.025655
 Sum of Mulliken charges =   1.00000
 Mulliken charges with hydrogens summed into heavy atoms:
               1
     1  O   -1.014871
     2  S    2.871756
     3  N   -0.645131
     4  C    0.445033
     5  N   -0.229268
     6  N   -0.359465
     7  C    0.770656
     8  N   -0.553611
     9  C    0.956099
    10  C   -0.602673
    11  C    0.340970
    12  C    0.198524
    13  C    0.195107
    14  C   -0.096421
    15  N   -1.120195
    16  C    0.556278
    17  C    0.408965
    18  O   -1.121754
 Electronic spatial extent (au):  <R**2>=           6694.9425
 Charge=              1.0000 electrons
 Dipole moment (field-independent basis, Debye):
    X=              5.9100    Y=              4.3792    Z=              0.3259  Tot=              7.3629
 Quadrupole moment (field-independent basis, Debye-Ang):
   XX=            -71.1718   YY=            -98.8504   ZZ=           -101.8337
   XY=            -10.6479   XZ=             -5.5988   YZ=             -5.6658
 Traceless Quadrupole moment (field-independent basis, Debye-Ang):
   XX=             19.4468   YY=             -8.2318   ZZ=            -11.2150
   XY=            -10.6479   XZ=             -5.5988   YZ=             -5.6658
 Octapole moment (field-independent basis, Debye-Ang**2):
  XXX=            220.0316  YYY=             -4.5701  ZZZ=              9.9605  XYY=            -31.6808
  XXY=             93.7986  XXZ=             53.5759  XZZ=             -7.6065  YZZ=             10.7874
  YYZ=             -4.7121  XYZ=            -29.3136
 Hexadecapole moment (field-independent basis, Debye-Ang**3):
 XXXX=          -6062.5992 YYYY=           -746.0408 ZZZZ=           -620.0738 XXXY=            -25.1061
 XXXZ=              7.2302 YYYX=            -35.6437 YYYZ=             -7.8100 ZZZX=            -24.8610
 ZZZY=            -18.2521 XXYY=          -1277.6436 XXZZ=          -1274.8136 YYZZ=           -219.5442
 XXYZ=            -84.1098 YYXZ=            -26.2324 ZZXY=            -33.9344
 N-N= 1.485465300334D+03 E-N=-5.785703534769D+03  KE= 1.204504805180D+03
 Leave Link  601 at Mon Sep 28 09:58:12 2020, MaxMem=   262144000 cpu:               0.5 elap:               0.2
 (Enter /prod/apps/gaussian/g16b1/l9999.exe)
 1\1\GINC-PIRINEUS34\SP\RMP2-FC\Aug-CC-pVDZ\C10H14N5O2S1(1+)\UBAFAR01\2
 8-Sep-2020\0\\#p mp2/aug-cc-pVDZ scf=(MaxCycle=2000,NoVarAcc,NoIncFock
 ) maxdisk=120GB geom=allcheck\\SM46_m2.b.3.pdb.xyz\\1,1\O,0,-4.2207471
 201,-0.3231212931,-1.160960909\S,0,-3.1264834527,-0.3279229749,-0.1979
 982023\N,0,-1.7230459933,-0.1842733226,-1.1976714791\C,0,-0.4503158308
 ,-0.4185320034,-0.7216410335\N,0,-0.0810441857,-1.5303339587,-0.028779
 0384\N,0,1.2047181611,-1.5574160251,0.2631305287\C,0,0.7210431381,0.29
 78081178,-0.8784282043\N,0,1.6817754845,-0.4481322235,-0.26760668\C,0,
 3.076238428,-0.1365081804,-0.1365511638\C,0,3.6770072604,0.6854360221,
 -1.0887782166\C,0,5.0294942666,0.9908482875,-0.9492201156\C,0,5.762097
 7022,0.4719248106,0.119855828\C,0,5.1409820631,-0.3538819855,1.0593717
 588\C,0,3.788226728,-0.6614175055,0.9422211792\N,0,-3.3221521865,0.982
 8269887,0.7879043687\C,0,-2.4202720345,1.1139653004,1.9441141893\C,0,-
 3.7261753805,2.2506400775,0.157335086\O,0,-2.8376303362,-1.4821519573,
 0.6505303335\H,0,-1.7874181027,0.6024995438,-1.8478179848\H,0,0.912210
 974,1.2490462016,-1.341566898\H,0,3.1095089615,1.0676640434,-1.9282114
 346\H,0,5.5086817699,1.6278458443,-1.6834960589\H,0,6.8145832581,0.711
 0295187,0.2215381072\H,0,5.7062271671,-0.7540526776,1.8930078638\H,0,3
 .2883144464,-1.2864354712,1.6703000186\H,0,-2.2042106306,0.1278105631,
 2.3495220374\H,0,-2.9457480958,1.7010225231,2.6993649576\H,0,-1.488630
 0797,1.6245006554,1.6786797617\H,0,-4.4513148417,2.050378617,-0.628702
 7424\H,0,-2.8679629043,2.7952190613,-0.2519202202\H,0,-4.1986146722,2.
 8589965357,0.9304649973\H,0,-0.6733439617,-2.3002831331,0.2870093657\\
 Version=ES64L-G16RevB.01\State=1-A\HF=-1206.0658051\MP2=-1208.8684826\
 RMSD=7.248e-09\PG=C01 [X(C10H14N5O2S1)]\\@


 Standing in the middle of the road is very dangerous;
 you get knocked down by the traffic from both sides.
                                -- Margaret Thatcher
 Job cpu time:       0 days  4 hours 23 minutes 19.3 seconds.
 Elapsed time:       0 days  1 hours 21 minutes 21.5 seconds.
 File lengths (MBytes):  RWF=  78006 Int=      0 D2E=      0 Chk=     25 Scr=      1
 Normal termination of Gaussian 16 at Mon Sep 28 09:58:14 2020.
