 Entering Gaussian System, Link 0=g16
 Initial command:
 /prod/apps/gaussian/g16b1/l1.exe "/tmp/ubafar01/1461483/Gau-151624.inp" -scrdir="/tmp/ubafar01/1461483/"
 Entering Link 1 = /prod/apps/gaussian/g16b1/l1.exe PID=    151627.
  
 Copyright (c) 1988-2017, Gaussian, Inc.  All Rights Reserved.
  
 This is part of the Gaussian(R) 16 program.  It is based on
 the Gaussian(R) 09 system (copyright 2009, Gaussian, Inc.),
 the Gaussian(R) 03 system (copyright 2003, Gaussian, Inc.),
 the Gaussian(R) 98 system (copyright 1998, Gaussian, Inc.),
 the Gaussian(R) 94 system (copyright 1995, Gaussian, Inc.),
 the Gaussian 92(TM) system (copyright 1992, Gaussian, Inc.),
 the Gaussian 90(TM) system (copyright 1990, Gaussian, Inc.),
 the Gaussian 88(TM) system (copyright 1988, Gaussian, Inc.),
 the Gaussian 86(TM) system (copyright 1986, Carnegie Mellon
 University), and the Gaussian 82(TM) system (copyright 1983,
 Carnegie Mellon University). Gaussian is a federally registered
 trademark of Gaussian, Inc.
  
 This software contains proprietary and confidential information,
 including trade secrets, belonging to Gaussian, Inc.
  
 This software is provided under written license and may be
 used, copied, transmitted, or stored only in accord with that
 written license.
  
 The following legend is applicable only to US Government
 contracts under FAR:
  
                    RESTRICTED RIGHTS LEGEND
  
 Use, reproduction and disclosure by the US Government is
 subject to restrictions as set forth in subparagraphs (a)
 and (c) of the Commercial Computer Software - Restricted
 Rights clause in FAR 52.227-19.
  
 Gaussian, Inc.
 340 Quinnipiac St., Bldg. 40, Wallingford CT 06492
  
  
 ---------------------------------------------------------------
 Warning -- This program may not be used in any manner that
 competes with the business of Gaussian, Inc. or will provide
 assistance to any competitor of Gaussian, Inc.  The licensee
 of this program is prohibited from giving any competitor of
 Gaussian, Inc. access to this program.  By using this program,
 the user acknowledges that Gaussian, Inc. is engaged in the
 business of creating and licensing software in the field of
 computational chemistry and represents and warrants to the
 licensee that it is not a competitor of Gaussian, Inc. and that
 it will not use this program in any manner prohibited above.
 ---------------------------------------------------------------
  

 Cite this work as:
 Gaussian 16, Revision B.01,
 M. J. Frisch, G. W. Trucks, H. B. Schlegel, G. E. Scuseria, 
 M. A. Robb, J. R. Cheeseman, G. Scalmani, V. Barone, 
 G. A. Petersson, H. Nakatsuji, X. Li, M. Caricato, A. V. Marenich, 
 J. Bloino, B. G. Janesko, R. Gomperts, B. Mennucci, H. P. Hratchian, 
 J. V. Ortiz, A. F. Izmaylov, J. L. Sonnenberg, D. Williams-Young, 
 F. Ding, F. Lipparini, F. Egidi, J. Goings, B. Peng, A. Petrone, 
 T. Henderson, D. Ranasinghe, V. G. Zakrzewski, J. Gao, N. Rega, 
 G. Zheng, W. Liang, M. Hada, M. Ehara, K. Toyota, R. Fukuda, 
 J. Hasegawa, M. Ishida, T. Nakajima, Y. Honda, O. Kitao, H. Nakai, 
 T. Vreven, K. Throssell, J. A. Montgomery, Jr., J. E. Peralta, 
 F. Ogliaro, M. J. Bearpark, J. J. Heyd, E. N. Brothers, K. N. Kudin, 
 V. N. Staroverov, T. A. Keith, R. Kobayashi, J. Normand, 
 K. Raghavachari, A. P. Rendell, J. C. Burant, S. S. Iyengar, 
 J. Tomasi, M. Cossi, J. M. Millam, M. Klene, C. Adamo, R. Cammi, 
 J. W. Ochterski, R. L. Martin, K. Morokuma, O. Farkas, 
 J. B. Foresman, and D. J. Fox, Gaussian, Inc., Wallingford CT, 2016.
 
 ******************************************
 Gaussian 16:  ES64L-G16RevB.01 20-Dec-2017
                24-Sep-2020 
 ******************************************
 %nproc=4
 Will use up to    4 processors via shared memory.
 %Chk=SM46_m3.b.8.pdb.xyz.mst.b.w.chk
 %mem=16GB
 ----------------------------------------------------------------------
 #p b3lyp/6-31G(d) opt freq NoSymm scf=(MaxCycle=2000,NoVarAcc,NoIncFoc
 k) scrf=(iefpcm,read,solvent=water)
 ----------------------------------------------------------------------
 1/18=20,19=15,26=3,38=1,40=2/1,3;
 2/9=110,12=2,15=1,17=6,18=5,40=1/2;
 3/5=1,6=6,7=1,11=2,25=1,30=1,70=2203,71=1,72=1,74=-5/1,2,3;
 4//1;
 5/5=100002,7=2000,38=1,53=1/2;
 6/7=2,8=2,9=2,10=2,28=1/1;
 7/30=1/1,2,3,16;
 1/18=20,19=15,26=3/3(2);
 2/9=110,15=1/2;
 99//99;
 2/9=110,15=1/2;
 3/5=1,6=6,7=1,11=2,25=1,30=1,70=2205,71=1,72=1,74=-5/1,2,3;
 4/5=5,16=3,69=1/1;
 5/5=100002,7=2000,38=1,53=1/2;
 7/30=1/1,2,3,16;
 1/18=20,19=15,26=3/3(-5);
 2/9=110,15=1/2;
 6/7=2,8=2,9=2,10=2,19=2,28=1/1;
 99/9=1/99;
 Leave Link    1 at Thu Sep 24 17:36:53 2020, MaxMem=  2147483648 cpu:               0.1 elap:               0.0
 (Enter /prod/apps/gaussian/g16b1/l101.exe)
 -------------------
 SM46_m3.b.8.pdb.xyz
 -------------------
 Symbolic Z-matrix:
 Charge =  2 Multiplicity = 1
 O                    -3.912    -0.583    -1.482 
 S                    -2.778    -0.619    -0.584 
 N                    -1.819     0.677    -0.923 
 C                    -0.481     0.786    -0.563 
 N                     0.05      1.922    -0.04 
 N                     1.338     1.823     0.193 
 C                     0.573    -0.097    -0.655 
 N                     1.644     0.589    -0.169 
 C                     3.001     0.126    -0.054 
 C                     3.234    -1.199     0.313 
 C                     4.554    -1.639     0.416 
 C                     5.611    -0.76      0.165 
 C                     5.353     0.565    -0.196 
 C                     4.041     1.02     -0.314 
 N                    -3.565    -0.274     1.094 
 C                    -2.587    -0.307     2.236 
 C                    -4.426     0.956     1.08 
 O                    -1.943    -1.776    -0.337 
 H                    -2.305     1.506    -1.282 
 H                     0.629    -1.103    -1.033 
 H                     2.412    -1.87      0.536 
 H                     4.752    -2.666     0.704 
 H                     6.635    -1.108     0.249 
 H                     6.173     1.247    -0.397 
 H                     3.825     2.04     -0.61 
 H                    -1.984    -1.209     2.156 
 H                    -3.177    -0.332     3.153 
 H                    -1.97      0.59      2.214 
 H                    -5.103     0.902     0.229 
 H                    -3.789     1.838     1.029 
 H                    -4.995     0.957     2.01 
 H                    -4.19     -1.097     1.192 
 H                    -0.426     2.807     0.165 
 
 ITRead=  0  0  0  0  0  0  0  0  0  0  0  0  0  0  0  0  0  0  0  0
 ITRead=  0  0  0  0  0  0  0  0  0  0  0  0  0
 MicOpt= -1 -1 -1 -1 -1 -1 -1 -1 -1 -1 -1 -1 -1 -1 -1 -1 -1 -1 -1 -1
 MicOpt= -1 -1 -1 -1 -1 -1 -1 -1 -1 -1 -1 -1 -1
 NAtoms=     33 NQM=       33 NQMF=       0 NMMI=      0 NMMIF=      0
                NMic=       0 NMicF=      0.
                    Isotopes and Nuclear Properties:
 (Nuclear quadrupole moments (NQMom) in fm**2, nuclear magnetic moments (NMagM)
  in nuclear magnetons)

  Atom         1           2           3           4           5           6           7           8           9          10
 IAtWgt=          16          32          14          12          14          14          12          14          12          12
 AtmWgt=  15.9949146  31.9720718  14.0030740  12.0000000  14.0030740  14.0030740  12.0000000  14.0030740  12.0000000  12.0000000
 NucSpn=           0           0           2           0           2           2           0           2           0           0
 AtZEff=  -0.0000000  -0.0000000  -0.0000000  -0.0000000  -0.0000000  -0.0000000  -0.0000000  -0.0000000  -0.0000000  -0.0000000
 NQMom=    0.0000000   0.0000000   2.0440000   0.0000000   2.0440000   2.0440000   0.0000000   2.0440000   0.0000000   0.0000000
 NMagM=    0.0000000   0.0000000   0.4037610   0.0000000   0.4037610   0.4037610   0.0000000   0.4037610   0.0000000   0.0000000
 AtZNuc=   8.0000000  16.0000000   7.0000000   6.0000000   7.0000000   7.0000000   6.0000000   7.0000000   6.0000000   6.0000000

  Atom        11          12          13          14          15          16          17          18          19          20
 IAtWgt=          12          12          12          12          14          12          12          16           1           1
 AtmWgt=  12.0000000  12.0000000  12.0000000  12.0000000  14.0030740  12.0000000  12.0000000  15.9949146   1.0078250   1.0078250
 NucSpn=           0           0           0           0           2           0           0           0           1           1
 AtZEff=  -0.0000000  -0.0000000  -0.0000000  -0.0000000  -0.0000000  -0.0000000  -0.0000000  -0.0000000  -0.0000000  -0.0000000
 NQMom=    0.0000000   0.0000000   0.0000000   0.0000000   2.0440000   0.0000000   0.0000000   0.0000000   0.0000000   0.0000000
 NMagM=    0.0000000   0.0000000   0.0000000   0.0000000   0.4037610   0.0000000   0.0000000   0.0000000   2.7928460   2.7928460
 AtZNuc=   6.0000000   6.0000000   6.0000000   6.0000000   7.0000000   6.0000000   6.0000000   8.0000000   1.0000000   1.0000000

  Atom        21          22          23          24          25          26          27          28          29          30
 IAtWgt=           1           1           1           1           1           1           1           1           1           1
 AtmWgt=   1.0078250   1.0078250   1.0078250   1.0078250   1.0078250   1.0078250   1.0078250   1.0078250   1.0078250   1.0078250
 NucSpn=           1           1           1           1           1           1           1           1           1           1
 AtZEff=  -0.0000000  -0.0000000  -0.0000000  -0.0000000  -0.0000000  -0.0000000  -0.0000000  -0.0000000  -0.0000000  -0.0000000
 NQMom=    0.0000000   0.0000000   0.0000000   0.0000000   0.0000000   0.0000000   0.0000000   0.0000000   0.0000000   0.0000000
 NMagM=    2.7928460   2.7928460   2.7928460   2.7928460   2.7928460   2.7928460   2.7928460   2.7928460   2.7928460   2.7928460
 AtZNuc=   1.0000000   1.0000000   1.0000000   1.0000000   1.0000000   1.0000000   1.0000000   1.0000000   1.0000000   1.0000000

  Atom        31          32          33
 IAtWgt=           1           1           1
 AtmWgt=   1.0078250   1.0078250   1.0078250
 NucSpn=           1           1           1
 AtZEff=  -0.0000000  -0.0000000  -0.0000000
 NQMom=    0.0000000   0.0000000   0.0000000
 NMagM=    2.7928460   2.7928460   2.7928460
 AtZNuc=   1.0000000   1.0000000   1.0000000
 Leave Link  101 at Thu Sep 24 17:36:53 2020, MaxMem=  2147483648 cpu:               1.5 elap:               0.4
 (Enter /prod/apps/gaussian/g16b1/l103.exe)

 GradGradGradGradGradGradGradGradGradGradGradGradGradGradGradGradGradGrad
 Berny optimization.
 Initialization pass.
                           ----------------------------
                           !    Initial Parameters    !
                           ! (Angstroms and Degrees)  !
 --------------------------                            --------------------------
 ! Name  Definition              Value          Derivative Info.                !
 --------------------------------------------------------------------------------
 ! R1    R(1,2)                  1.4469         estimate D2E/DX2                !
 ! R2    R(2,3)                  1.6475         estimate D2E/DX2                !
 ! R3    R(2,15)                 1.8852         estimate D2E/DX2                !
 ! R4    R(2,18)                 1.4481         estimate D2E/DX2                !
 ! R5    R(3,4)                  1.3899         estimate D2E/DX2                !
 ! R6    R(3,19)                 1.0258         estimate D2E/DX2                !
 ! R7    R(4,5)                  1.3587         estimate D2E/DX2                !
 ! R8    R(4,7)                  1.3781         estimate D2E/DX2                !
 ! R9    R(5,6)                  1.3126         estimate D2E/DX2                !
 ! R10   R(5,33)                 1.0256         estimate D2E/DX2                !
 ! R11   R(6,8)                  1.3219         estimate D2E/DX2                !
 ! R12   R(7,8)                  1.3616         estimate D2E/DX2                !
 ! R13   R(7,20)                 1.0761         estimate D2E/DX2                !
 ! R14   R(8,9)                  1.4384         estimate D2E/DX2                !
 ! R15   R(9,10)                 1.3945         estimate D2E/DX2                !
 ! R16   R(9,14)                 1.3959         estimate D2E/DX2                !
 ! R17   R(10,11)                1.3952         estimate D2E/DX2                !
 ! R18   R(10,21)                1.0843         estimate D2E/DX2                !
 ! R19   R(11,12)                1.3975         estimate D2E/DX2                !
 ! R20   R(11,22)                1.0848         estimate D2E/DX2                !
 ! R21   R(12,13)                1.3973         estimate D2E/DX2                !
 ! R22   R(12,23)                1.0848         estimate D2E/DX2                !
 ! R23   R(13,14)                1.3937         estimate D2E/DX2                !
 ! R24   R(13,24)                1.0853         estimate D2E/DX2                !
 ! R25   R(14,25)                1.0838         estimate D2E/DX2                !
 ! R26   R(15,16)                1.5039         estimate D2E/DX2                !
 ! R27   R(15,17)                1.5015         estimate D2E/DX2                !
 ! R28   R(15,32)                1.0381         estimate D2E/DX2                !
 ! R29   R(16,26)                1.0879         estimate D2E/DX2                !
 ! R30   R(16,27)                1.0907         estimate D2E/DX2                !
 ! R31   R(16,28)                1.0889         estimate D2E/DX2                !
 ! R32   R(17,29)                1.0888         estimate D2E/DX2                !
 ! R33   R(17,30)                1.0892         estimate D2E/DX2                !
 ! R34   R(17,31)                1.0903         estimate D2E/DX2                !
 ! A1    A(1,2,3)              107.9946         estimate D2E/DX2                !
 ! A2    A(1,2,15)             102.7488         estimate D2E/DX2                !
 ! A3    A(1,2,18)             125.286          estimate D2E/DX2                !
 ! A4    A(3,2,15)             106.391          estimate D2E/DX2                !
 ! A5    A(3,2,18)             109.146          estimate D2E/DX2                !
 ! A6    A(15,2,18)            103.5984         estimate D2E/DX2                !
 ! A7    A(2,3,4)              124.6646         estimate D2E/DX2                !
 ! A8    A(2,3,19)             115.5914         estimate D2E/DX2                !
 ! A9    A(4,3,19)             118.9047         estimate D2E/DX2                !
 ! A10   A(3,4,5)              122.7869         estimate D2E/DX2                !
 ! A11   A(3,4,7)              131.9711         estimate D2E/DX2                !
 ! A12   A(5,4,7)              105.2198         estimate D2E/DX2                !
 ! A13   A(4,5,6)              112.877          estimate D2E/DX2                !
 ! A14   A(4,5,33)             128.1011         estimate D2E/DX2                !
 ! A15   A(6,5,33)             119.0133         estimate D2E/DX2                !
 ! A16   A(5,6,8)              104.4144         estimate D2E/DX2                !
 ! A17   A(4,7,8)              104.7712         estimate D2E/DX2                !
 ! A18   A(4,7,20)             131.4714         estimate D2E/DX2                !
 ! A19   A(8,7,20)             123.7416         estimate D2E/DX2                !
 ! A20   A(6,8,7)              112.7054         estimate D2E/DX2                !
 ! A21   A(6,8,9)              119.7994         estimate D2E/DX2                !
 ! A22   A(7,8,9)              127.4767         estimate D2E/DX2                !
 ! A23   A(8,9,10)             118.9805         estimate D2E/DX2                !
 ! A24   A(8,9,14)             118.8057         estimate D2E/DX2                !
 ! A25   A(10,9,14)            122.2138         estimate D2E/DX2                !
 ! A26   A(9,10,11)            118.4999         estimate D2E/DX2                !
 ! A27   A(9,10,21)            121.0286         estimate D2E/DX2                !
 ! A28   A(11,10,21)           120.4574         estimate D2E/DX2                !
 ! A29   A(10,11,12)           120.2634         estimate D2E/DX2                !
 ! A30   A(10,11,22)           119.3949         estimate D2E/DX2                !
 ! A31   A(12,11,22)           120.3377         estimate D2E/DX2                !
 ! A32   A(11,12,13)           120.2113         estimate D2E/DX2                !
 ! A33   A(11,12,23)           119.8878         estimate D2E/DX2                !
 ! A34   A(13,12,23)           119.9008         estimate D2E/DX2                !
 ! A35   A(12,13,14)           120.3496         estimate D2E/DX2                !
 ! A36   A(12,13,24)           120.2786         estimate D2E/DX2                !
 ! A37   A(14,13,24)           119.3689         estimate D2E/DX2                !
 ! A38   A(9,14,13)            118.4592         estimate D2E/DX2                !
 ! A39   A(9,14,25)            120.3402         estimate D2E/DX2                !
 ! A40   A(13,14,25)           121.1978         estimate D2E/DX2                !
 ! A41   A(2,15,16)            113.6029         estimate D2E/DX2                !
 ! A42   A(2,15,17)            112.3957         estimate D2E/DX2                !
 ! A43   A(2,15,32)            100.9695         estimate D2E/DX2                !
 ! A44   A(16,15,17)           113.4511         estimate D2E/DX2                !
 ! A45   A(16,15,32)           107.6052         estimate D2E/DX2                !
 ! A46   A(17,15,32)           107.7644         estimate D2E/DX2                !
 ! A47   A(15,16,26)           108.8319         estimate D2E/DX2                !
 ! A48   A(15,16,27)           106.6876         estimate D2E/DX2                !
 ! A49   A(15,16,28)           109.5757         estimate D2E/DX2                !
 ! A50   A(26,16,27)           110.0378         estimate D2E/DX2                !
 ! A51   A(26,16,28)           111.5567         estimate D2E/DX2                !
 ! A52   A(27,16,28)           110.0212         estimate D2E/DX2                !
 ! A53   A(15,17,29)           108.8577         estimate D2E/DX2                !
 ! A54   A(15,17,30)           109.1741         estimate D2E/DX2                !
 ! A55   A(15,17,31)           106.982          estimate D2E/DX2                !
 ! A56   A(29,17,30)           111.5443         estimate D2E/DX2                !
 ! A57   A(29,17,31)           110.0141         estimate D2E/DX2                !
 ! A58   A(30,17,31)           110.1469         estimate D2E/DX2                !
 ! D1    D(1,2,3,4)           -160.5373         estimate D2E/DX2                !
 ! D2    D(1,2,3,19)            30.1098         estimate D2E/DX2                !
 ! D3    D(15,2,3,4)            89.7442         estimate D2E/DX2                !
 ! D4    D(15,2,3,19)          -79.6087         estimate D2E/DX2                !
 ! D5    D(18,2,3,4)           -21.4509         estimate D2E/DX2                !
 ! D6    D(18,2,3,19)          169.1962         estimate D2E/DX2                !
 ! D7    D(1,2,15,16)          177.8356         estimate D2E/DX2                !
 ! D8    D(1,2,15,17)          -51.6389         estimate D2E/DX2                !
 ! D9    D(1,2,15,32)           62.9439         estimate D2E/DX2                !
 ! D10   D(3,2,15,16)          -68.792          estimate D2E/DX2                !
 ! D11   D(3,2,15,17)           61.7335         estimate D2E/DX2                !
 ! D12   D(3,2,15,32)          176.3163         estimate D2E/DX2                !
 ! D13   D(18,2,15,16)          46.2246         estimate D2E/DX2                !
 ! D14   D(18,2,15,17)         176.7502         estimate D2E/DX2                !
 ! D15   D(18,2,15,32)         -68.6671         estimate D2E/DX2                !
 ! D16   D(2,3,4,5)           -136.0743         estimate D2E/DX2                !
 ! D17   D(2,3,4,7)             45.9116         estimate D2E/DX2                !
 ! D18   D(19,3,4,5)            32.9527         estimate D2E/DX2                !
 ! D19   D(19,3,4,7)          -145.0614         estimate D2E/DX2                !
 ! D20   D(3,4,5,6)           -178.1406         estimate D2E/DX2                !
 ! D21   D(3,4,5,33)             0.7663         estimate D2E/DX2                !
 ! D22   D(7,4,5,6)              0.3294         estimate D2E/DX2                !
 ! D23   D(7,4,5,33)           179.2363         estimate D2E/DX2                !
 ! D24   D(3,4,7,8)            178.6421         estimate D2E/DX2                !
 ! D25   D(3,4,7,20)             0.0851         estimate D2E/DX2                !
 ! D26   D(5,4,7,8)              0.3722         estimate D2E/DX2                !
 ! D27   D(5,4,7,20)          -178.1848         estimate D2E/DX2                !
 ! D28   D(4,5,6,8)             -0.9            estimate D2E/DX2                !
 ! D29   D(33,5,6,8)          -179.9163         estimate D2E/DX2                !
 ! D30   D(5,6,8,7)              1.1575         estimate D2E/DX2                !
 ! D31   D(5,6,8,9)            179.71           estimate D2E/DX2                !
 ! D32   D(4,7,8,6)             -0.974          estimate D2E/DX2                !
 ! D33   D(4,7,8,9)           -179.3913         estimate D2E/DX2                !
 ! D34   D(20,7,8,6)           177.7258         estimate D2E/DX2                !
 ! D35   D(20,7,8,9)            -0.6915         estimate D2E/DX2                !
 ! D36   D(6,8,9,10)           143.8295         estimate D2E/DX2                !
 ! D37   D(6,8,9,14)           -36.1683         estimate D2E/DX2                !
 ! D38   D(7,8,9,10)           -37.8532         estimate D2E/DX2                !
 ! D39   D(7,8,9,14)           142.1491         estimate D2E/DX2                !
 ! D40   D(8,9,10,11)          179.7312         estimate D2E/DX2                !
 ! D41   D(8,9,10,21)           -1.627          estimate D2E/DX2                !
 ! D42   D(14,9,10,11)          -0.2711         estimate D2E/DX2                !
 ! D43   D(14,9,10,21)         178.3707         estimate D2E/DX2                !
 ! D44   D(8,9,14,13)          179.7854         estimate D2E/DX2                !
 ! D45   D(8,9,14,25)           -0.82           estimate D2E/DX2                !
 ! D46   D(10,9,14,13)          -0.2122         estimate D2E/DX2                !
 ! D47   D(10,9,14,25)         179.1823         estimate D2E/DX2                !
 ! D48   D(9,10,11,12)           0.4967         estimate D2E/DX2                !
 ! D49   D(9,10,11,22)         179.7779         estimate D2E/DX2                !
 ! D50   D(21,10,11,12)       -178.1531         estimate D2E/DX2                !
 ! D51   D(21,10,11,22)          1.1281         estimate D2E/DX2                !
 ! D52   D(10,11,12,13)         -0.2433         estimate D2E/DX2                !
 ! D53   D(10,11,12,23)        179.8653         estimate D2E/DX2                !
 ! D54   D(22,11,12,13)       -179.5177         estimate D2E/DX2                !
 ! D55   D(22,11,12,23)          0.5909         estimate D2E/DX2                !
 ! D56   D(11,12,13,14)         -0.2528         estimate D2E/DX2                !
 ! D57   D(11,12,13,24)       -179.6313         estimate D2E/DX2                !
 ! D58   D(23,12,13,14)        179.6385         estimate D2E/DX2                !
 ! D59   D(23,12,13,24)          0.2601         estimate D2E/DX2                !
 ! D60   D(12,13,14,9)           0.4732         estimate D2E/DX2                !
 ! D61   D(12,13,14,25)       -178.916          estimate D2E/DX2                !
 ! D62   D(24,13,14,9)         179.8572         estimate D2E/DX2                !
 ! D63   D(24,13,14,25)          0.4681         estimate D2E/DX2                !
 ! D64   D(2,15,16,26)         -48.2246         estimate D2E/DX2                !
 ! D65   D(2,15,16,27)        -166.9215         estimate D2E/DX2                !
 ! D66   D(2,15,16,28)          74.0038         estimate D2E/DX2                !
 ! D67   D(17,15,16,26)       -178.2231         estimate D2E/DX2                !
 ! D68   D(17,15,16,27)         63.08           estimate D2E/DX2                !
 ! D69   D(17,15,16,28)        -55.9947         estimate D2E/DX2                !
 ! D70   D(32,15,16,26)         62.6617         estimate D2E/DX2                !
 ! D71   D(32,15,16,27)        -56.0352         estimate D2E/DX2                !
 ! D72   D(32,15,16,28)       -175.1099         estimate D2E/DX2                !
 ! D73   D(2,15,17,29)          49.4906         estimate D2E/DX2                !
 ! D74   D(2,15,17,30)         -72.4885         estimate D2E/DX2                !
 ! D75   D(2,15,17,31)         168.3367         estimate D2E/DX2                !
 ! D76   D(16,15,17,29)       -179.9067         estimate D2E/DX2                !
 ! D77   D(16,15,17,30)         58.1143         estimate D2E/DX2                !
 ! D78   D(16,15,17,31)        -61.0605         estimate D2E/DX2                !
 ! D79   D(32,15,17,29)        -60.8828         estimate D2E/DX2                !
 ! D80   D(32,15,17,30)        177.1381         estimate D2E/DX2                !
 ! D81   D(32,15,17,31)         57.9633         estimate D2E/DX2                !
 --------------------------------------------------------------------------------
 Trust Radius=3.00D-01 FncErr=1.00D-07 GrdErr=1.00D-06 EigMax=2.50D+02 EigMin=1.00D-04
 Number of steps in this run=    183 maximum allowed number of steps=    198.
 GradGradGradGradGradGradGradGradGradGradGradGradGradGradGradGradGradGrad

 Leave Link  103 at Thu Sep 24 17:36:53 2020, MaxMem=  2147483648 cpu:               0.0 elap:               0.0
 (Enter /prod/apps/gaussian/g16b1/l202.exe)
                          Input orientation:                          
 ---------------------------------------------------------------------
 Center     Atomic      Atomic             Coordinates (Angstroms)
 Number     Number       Type             X           Y           Z
 ---------------------------------------------------------------------
      1          8           0       -3.912000   -0.583000   -1.482000
      2         16           0       -2.778000   -0.619000   -0.584000
      3          7           0       -1.819000    0.677000   -0.923000
      4          6           0       -0.481000    0.786000   -0.563000
      5          7           0        0.050000    1.922000   -0.040000
      6          7           0        1.338000    1.823000    0.193000
      7          6           0        0.573000   -0.097000   -0.655000
      8          7           0        1.644000    0.589000   -0.169000
      9          6           0        3.001000    0.126000   -0.054000
     10          6           0        3.234000   -1.199000    0.313000
     11          6           0        4.554000   -1.639000    0.416000
     12          6           0        5.611000   -0.760000    0.165000
     13          6           0        5.353000    0.565000   -0.196000
     14          6           0        4.041000    1.020000   -0.314000
     15          7           0       -3.565000   -0.274000    1.094000
     16          6           0       -2.587000   -0.307000    2.236000
     17          6           0       -4.426000    0.956000    1.080000
     18          8           0       -1.943000   -1.776000   -0.337000
     19          1           0       -2.305000    1.506000   -1.282000
     20          1           0        0.629000   -1.103000   -1.033000
     21          1           0        2.412000   -1.870000    0.536000
     22          1           0        4.752000   -2.666000    0.704000
     23          1           0        6.635000   -1.108000    0.249000
     24          1           0        6.173000    1.247000   -0.397000
     25          1           0        3.825000    2.040000   -0.610000
     26          1           0       -1.984000   -1.209000    2.156000
     27          1           0       -3.177000   -0.332000    3.153000
     28          1           0       -1.970000    0.590000    2.214000
     29          1           0       -5.103000    0.902000    0.229000
     30          1           0       -3.789000    1.838000    1.029000
     31          1           0       -4.995000    0.957000    2.010000
     32          1           0       -4.190000   -1.097000    1.192000
     33          1           0       -0.426000    2.807000    0.165000
 ---------------------------------------------------------------------
                    Distance matrix (angstroms):
                    1          2          3          4          5
     1  O    0.000000
     2  S    1.446947   0.000000
     3  N    2.506138   1.647488   0.000000
     4  C    3.806637   2.692708   1.389865   0.000000
     5  N    4.904267   3.840599   2.413063   1.358671   0.000000
     6  N    6.013066   4.848562   3.539127   2.226133   1.312644
     7  C    4.586431   3.392157   2.528352   1.378067   2.174423
     8  N    5.828095   4.602779   3.545226   2.170177   2.081914
     9  C    7.094465   5.850877   4.928606   3.580364   3.454593
    10  C    7.393700   6.106157   5.529908   4.302189   4.472483
    11  C    8.740177   7.469848   6.911722   5.673649   5.759746
    12  C    9.665995   8.423550   7.645496   6.327129   6.177368
    13  C    9.424008   8.225908   7.209623   5.849708   5.476093
    14  C    8.196587   7.018403   5.901536   4.534892   4.100824
    15  N    2.617569   1.885226   2.832173   3.657910   4.379109
    16  C    3.956681   2.843629   3.396669   3.669371   4.135503
    17  C    3.032583   2.822308   3.299439   4.276842   4.714036
    18  O    2.571232   1.448062   2.525070   2.958439   4.211349
    19  H    2.643174   2.286167   1.025826   2.088621   2.694744
    20  H    4.592677   3.470375   3.028730   2.240830   3.236034
    21  H    6.761780   5.454860   5.149490   4.078184   4.504452
    22  H    9.175096   7.908859   7.549889   6.395771   6.611511
    23  H   10.700990   9.462430   8.719514   7.408376   7.254423
    24  H   10.306956   9.145344   8.029548   6.672016   6.170430
    25  H    8.215941   7.118326   5.814677   4.485127   3.819614
    26  H    4.164625   2.913097   3.614479   3.692153   4.331597
    27  H    4.699622   3.769183   4.413165   4.725145   5.068461
    28  H    4.336786   3.153308   3.141837   3.157098   3.306832
    29  H    2.559536   2.894829   3.487461   4.690800   5.259864
    30  H    3.490199   3.108173   3.006514   3.818905   3.985943
    31  H    3.967185   3.758683   4.332189   5.198631   5.530438
    32  H    2.737107   2.318707   3.638948   4.514687   5.348812
    33  H    5.133898   4.222604   2.767868   2.148825   1.025586
                    6          7          8          9         10
     6  N    0.000000
     7  C    2.233994   0.000000
     8  N    1.321906   1.361555   0.000000
     9  C    2.388805   2.511198   1.438417   0.000000
    10  C    3.569552   3.038478   2.440772   1.394490   0.000000
    11  C    4.730521   4.401496   3.711376   2.397485   1.395209
    12  C    4.993115   5.147175   4.203385   2.764970   2.421725
    13  C    4.225412   4.847404   3.709176   2.396829   2.803736
    14  C    2.864972   3.659371   2.439753   1.395864   2.443018
    15  N    5.408199   4.495929   5.428961   6.677594   6.905939
    16  C    4.910842   4.288074   4.948556   6.054530   6.194968
    17  C    5.895944   5.395279   6.208026   7.558782   7.994243
    18  O    4.898843   3.041450   4.299770   5.304793   5.249453
    19  H    3.943040   3.353449   4.204076   5.618365   6.367226
    20  H    3.250728   1.076130   2.153970   2.845218   2.933762
    21  H    3.861266   2.818498   2.670867   2.163108   1.084276
    22  H    5.662830   5.090254   4.584410   3.381690   2.146927
    23  H    6.054098   6.211858   5.288158   3.849743   3.402819
    24  H    4.904804   5.764798   4.582225   3.381697   3.889053
    25  H    2.622416   3.891568   2.656434   2.156735   3.419405
    26  H    4.907349   3.959358   4.669134   5.613960   5.533920
    27  H    5.812990   5.349634   5.926716   6.975837   7.065282
    28  H    4.067873   3.894866   4.328936   5.483608   5.822022
    29  H    6.506613   5.830646   6.765972   8.145986   8.598071
    30  H    5.194733   5.060348   5.701990   7.085756   7.684956
    31  H    6.645174   6.262249   6.997127   8.299800   8.674364
    32  H    6.331128   5.205533   6.223381   7.399914   7.476551
    33  H    2.020083   3.178619   3.052209   4.356610   5.428217
                   11         12         13         14         15
    11  C    0.000000
    12  C    1.397459   0.000000
    13  C    2.422924   1.397322   0.000000
    14  C    2.804701   2.421310   1.393662   0.000000
    15  N    8.260815   9.235703   9.049793   7.842712   0.000000
    16  C    7.488692   8.467671   8.349767   7.224529   1.503907
    17  C    9.370983  10.223661   9.869645   8.581225   1.501472
    18  O    6.541925   7.638532   7.663666   6.605028   2.633372
    19  H    7.734346   8.360121   7.791652   6.437774   3.225116
    20  H    4.218118   5.135482   5.079269   4.082381   4.775040
    21  H    2.157759   3.406368   3.887741   3.424652   6.211530
    22  H    1.084840   2.158990   3.407427   3.889530   8.662924
    23  H    2.154161   1.084775   2.154177   3.402086  10.268865
    24  H    3.407510   2.158642   1.085323   2.145657   9.968208
    25  H    3.888336   3.410340   2.163748   1.083823   7.929080
    26  H    6.779229   7.864458   7.906361   6.882584   2.121705
    27  H    8.304684   9.291947   9.207677   8.120808   2.096041
    28  H    7.124873   7.968216   7.709413   6.535121   2.131882
    29  H    9.987457  10.842331  10.470059   9.160868   2.120529
    30  H    9.059302   9.790613   9.311139   7.986343   2.124840
    31  H   10.023146  10.901346  10.587786   9.330286   2.097455
    32  H    8.795082   9.860421   9.785583   8.631285   1.038055
    33  H    6.680593   7.012051   6.209165   4.834966   4.495434
                   16         17         18         19         20
    16  C    0.000000
    17  C    2.512653   0.000000
    18  O    3.032000   3.954365   0.000000
    19  H    3.967722   3.221829   3.434471   0.000000
    20  H    4.654313   5.852971   2.748186   3.934112   0.000000
    21  H    5.506630   7.418926   4.442633   6.078864   2.495824
    22  H    7.859569   9.874003   6.833652   8.435107   4.739121
    23  H    9.467579  11.282570   8.623903   9.439309   6.141302
    24  H    9.278211  10.705373   8.660923   8.528000   6.054992
    25  H    7.397423   8.491770   6.921431   6.189801   4.502421
    26  H    1.087940   3.436330   2.556994   4.392506   4.124164
    27  H    1.090694   2.741582   3.973411   4.879329   5.709875
    28  H    1.088936   2.729807   3.479409   3.629504   4.490441
    29  H    3.438021   1.088782   4.180627   3.236779   6.202297
    30  H    2.739102   1.089171   4.281900   2.766442   5.693861
    31  H    2.728962   1.090258   4.721483   4.286580   6.718097
    32  H    2.069697   2.069553   2.801409   4.055800   5.307864
    33  H    4.319254   4.501492   4.853574   2.705005   4.223308
                   21         22         23         24         25
    21  H    0.000000
    22  H    2.477386   0.000000
    23  H    4.300784   2.485976   0.000000
    24  H    4.973057   4.306160   2.485314   0.000000
    25  H    4.312538   4.973164   4.306261   2.487433   0.000000
    26  H    4.731399   7.043071   8.828024   8.893053   7.207721
    27  H    6.360114   8.620568  10.262102  10.125129   8.295454
    28  H    5.298038   7.620165   8.988351   8.576562   6.607534
    29  H    8.015825  10.491772  11.908868  11.298632   9.039256
    30  H    7.241872   9.661280  10.860345  10.080883   7.791028
    31  H    8.064010  10.480256  11.942456  11.428122   9.264431
    32  H    6.679391   9.091714  10.866002  10.742952   8.793645
    33  H    5.483267   7.553538   8.074156   6.804134   4.388612
                   26         27         28         29         30
    26  H    0.000000
    27  H    1.785045   0.000000
    28  H    1.799989   1.785680   0.000000
    29  H    4.230580   3.712413   3.721997   0.000000
    30  H    3.716499   3.097551   2.504095   1.800748   0.000000
    31  H    3.712007   2.504615   3.054002   1.785119   1.786885
    32  H    2.410037   2.336004   2.969655   2.399362   2.966748
    33  H    4.745493   5.133173   3.390785   5.050490   3.604889
                   31         32         33
    31  H    0.000000
    32  H    2.352884   0.000000
    33  H    5.263296   5.519388   0.000000
 Symmetry turned off by external request.
 Stoichiometry    C10H15N5O2S(2+)
 Framework group  C1[X(C10H15N5O2S)]
 Deg. of freedom    93
 Full point group                 C1      NOp   1
 Rotational constants (GHZ):           1.0024530           0.1689675           0.1628355
 Leave Link  202 at Thu Sep 24 17:36:53 2020, MaxMem=  2147483648 cpu:               0.0 elap:               0.0
 (Enter /prod/apps/gaussian/g16b1/l301.exe)
 Standard basis: 6-31G(d) (6D, 7F)
 Ernie: Thresh=  0.10000D-02 Tol=  0.10000D-05 Strict=F.
   304 basis functions,   588 primitive gaussians,   304 cartesian basis functions
    70 alpha electrons       70 beta electrons
       nuclear repulsion energy      1502.0872424490 Hartrees.
 IExCor=  402 DFT=T Ex+Corr=B3LYP ExCW=0 ScaHFX=  0.200000
 ScaDFX=  0.800000  0.720000  1.000000  0.810000 ScalE2=  1.000000  1.000000
 IRadAn=      5 IRanWt=     -1 IRanGd=            0 ICorTp=0 IEmpDi=  4
 NAtoms=   33 NActive=   33 NUniq=   33 SFac= 1.00D+00 NAtFMM=   60 NAOKFM=F Big=F
 Integral buffers will be    131072 words long.
 Raffenetti 2 integral format.
 Two-electron integral symmetry is turned off.
 Using the following non-standard input for PCM:
 MSTModel=DFT cav MSTcharged
 --- end of non-standard input.
 MST model for solvation energy: B3LYP parametrization.
 MST cavity parameters:
 ISph   IAn     Re0     Alpha   Atom Type   QCorr
 ------------------------------------------------
   1      8     1.40     1.25      O          F
   2     16     1.75     1.25      S          F
   3      7     1.50     1.25      NH         F
   4      6     1.50     1.25      C          F
   5      7     1.50     1.15      NH         T
   6      7     1.40     1.25      N          F
   7      6     1.50     1.25      CH         F
   8      7     1.40     1.25      N          F
   9      6     1.50     1.25      C          F
  10      6     1.50     1.25      CH         F
  11      6     1.50     1.25      CH         F
  12      6     1.50     1.25      CH         F
  13      6     1.50     1.25      CH         F
  14      6     1.50     1.25      CH         F
  15      7     1.50     1.15      NH         T
  16      6     1.50     1.25      CH3        F
  17      6     1.50     1.25      CH3        F
  18      8     1.40     1.25      O          F
  19      1     0.90     1.25      NH         F
  20      1     1.20     1.25      CH         F
  21      1     1.20     1.25      CH         F
  22      1     1.20     1.25      CH         F
  23      1     1.20     1.25      CH         F
  24      1     1.20     1.25      CH         F
  25      1     1.20     1.25      CH         F
  26      1     1.20     1.25      CH3        F
  27      1     1.20     1.25      CH3        F
  28      1     1.20     1.25      CH3        F
  29      1     1.20     1.25      CH3        F
  30      1     1.20     1.25      CH3        F
  31      1     1.20     1.25      CH3        F
  32      1     0.90     1.15      NH         T
  33      1     0.90     1.15      NH         T
 ------------------------------------------------------------------------------
 Polarizable Continuum Model (PCM)
 =================================
 Model                : PCM.
 Atomic radii         : MST.
 Polarization charges : Total charges.
 Charge compensation  : None.
 Solution method      : On-the-fly selection.
 Cavity type          : Scaled VdW (van der Waals Surface) (Alpha=1.250).
 Cavity algorithm     : GePol (No added spheres)
                        Default sphere list used, NSphG=   33.
                        Lebedev-Laikov grids with approx.  5.0 points / Ang**2.
                        Smoothing algorithm: York/Karplus (Gamma=1.0000).
                        Polarization charges: spherical gaussians, with
                                              point-specific exponents (IZeta= 3).
                        Self-potential: point-specific (ISelfS= 7).
                        Self-field    : sphere-specific E.n sum rule (ISelfD= 2).
 1st derivatives      : Analytical E(r).r(x)/FMM algorithm (CHGder, D1EAlg=3).
                        Cavity 1st derivative terms included.
 Solvent              : Water, Eps=  78.355300 Eps(inf)=   1.777849
 ------------------------------------------------------------------------------
 GePol: Number of generator spheres                  =      33
 GePol: Total number of spheres                      =      33
 GePol: Number of exposed spheres                    =      33 (100.00%)
 GePol: Number of points                             =    2420
 GePol: Average weight of points                     =       0.13
 GePol: Minimum weight of points                     =   0.14D-08
 GePol: Maximum weight of points                     =    0.22001
 GePol: Number of points with low weight             =     152
 GePol: Fraction of low-weight points (<1% of avg)   =       6.28%
 GePol: Cavity surface area                          =    313.139 Ang**2
 GePol: Cavity volume                                =    294.675 Ang**3
 PCM non-electrostatic energy =         0.0021958472 Hartrees.
 Nuclear repulsion after PCM non-electrostatic terms =     1502.0894382962 Hartrees.
 Leave Link  301 at Thu Sep 24 17:36:53 2020, MaxMem=  2147483648 cpu:               0.3 elap:               0.1
 (Enter /prod/apps/gaussian/g16b1/l302.exe)
 NPDir=0 NMtPBC=     1 NCelOv=     1 NCel=       1 NClECP=     1 NCelD=      1
         NCelK=      1 NCelE2=     1 NClLst=     1 CellRange=     0.0.
 One-electron integrals computed using PRISM.
 NBasis=   304 RedAO= T EigKep=  4.77D-04  NBF=   304
 NBsUse=   304 1.00D-06 EigRej= -1.00D+00 NBFU=   304
 Precomputing XC quadrature grid using
 IXCGrd= 4 IRadAn=           5 IRanWt=          -1 IRanGd=           0 AccXCQ= 0.00D+00.
 Generated NRdTot=       0 NPtTot=           0 NUsed=           0 NTot=          32
 NSgBfM=   302   302   302   302   302 MxSgAt=    33 MxSgA2=    33.
 Leave Link  302 at Thu Sep 24 17:36:54 2020, MaxMem=  2147483648 cpu:               1.7 elap:               0.4
 (Enter /prod/apps/gaussian/g16b1/l303.exe)
 DipDrv:  MaxL=1.
 Leave Link  303 at Thu Sep 24 17:36:54 2020, MaxMem=  2147483648 cpu:               0.1 elap:               0.1
 (Enter /prod/apps/gaussian/g16b1/l401.exe)
 ExpMin= 1.17D-01 ExpMax= 2.19D+04 ExpMxC= 3.30D+03 IAcc=3 IRadAn=         5 AccDes= 0.00D+00
 Harris functional with IExCor=  402 and IRadAn=       5 diagonalized for initial guess.
 HarFok:  IExCor=  402 AccDes= 0.00D+00 IRadAn=         5 IDoV= 1 UseB2=F ITyADJ=14
 ICtDFT=  3500011 ScaDFX=  1.000000  1.000000  1.000000  1.000000
 FoFCou: FMM=F IPFlag=           0 FMFlag=      100000 FMFlg1=           0
         NFxFlg=           0 DoJE=T BraDBF=F KetDBF=T FulRan=T
         wScrn=  0.000000 ICntrl=       500 IOpCl=  0 I1Cent=   200000004 NGrid=           0
         NMat0=    1 NMatS0=      1 NMatT0=    0 NMatD0=    1 NMtDS0=    0 NMtDT0=    0
 Symmetry not used in FoFCou.
 Harris En= -1211.95814158616    
 JPrj=0 DoOrth=F DoCkMO=F.
 Leave Link  401 at Thu Sep 24 17:36:56 2020, MaxMem=  2147483648 cpu:               8.9 elap:               2.2
 (Enter /prod/apps/gaussian/g16b1/l502.exe)
 Two-electron integral symmetry not used.
 Closed shell SCF:
 Using DIIS extrapolation, IDIIS=  1040.
 NGot=  2147483648 LenX=  2147294283 LenY=  2147201426
 Requested convergence on RMS density matrix=1.00D-08 within2000 cycles.
 Requested convergence on MAX density matrix=1.00D-06.
 Requested convergence on             energy=1.00D-06.
 No special actions if energy rises.

 Cycle   1  Pass 1  IDiag  1:
 FoFJK:  IHMeth= 1 ICntrl=       0 DoSepK=F KAlg= 0 I1Cent=           0 FoldK=F
 IRaf= 770000000 NMat=       1 IRICut=       1 DoRegI=T DoRafI=F ISym2E= 0 IDoP0=0 IntGTp=1.
 FoFCou: FMM=F IPFlag=           0 FMFlag=      100000 FMFlg1=           0
         NFxFlg=           0 DoJE=F BraDBF=F KetDBF=F FulRan=T
         wScrn=  0.000000 ICntrl=         0 IOpCl=  0 I1Cent=           0 NGrid=           0
         NMat0=    1 NMatS0=      1 NMatT0=    0 NMatD0=    1 NMtDS0=    0 NMtDT0=    0
 Symmetry not used in FoFCou.
 Inv3:  Mode=1 IEnd=    17569200.
 Iteration    1 A*A^-1 deviation from unit magnitude is 3.11D-15 for     32.
 Iteration    1 A*A^-1 deviation from orthogonality  is 2.00D-15 for   2241    212.
 Iteration    1 A^-1*A deviation from unit magnitude is 3.11D-15 for     32.
 Iteration    1 A^-1*A deviation from orthogonality  is 1.79D-15 for   1198    193.
 E= -1211.53253064174    
 DIIS: error= 3.73D-02 at cycle   1 NSaved=   1.
 NSaved= 1 IEnMin= 1 EnMin= -1211.53253064174     IErMin= 1 ErrMin= 3.73D-02
 ErrMax= 3.73D-02  0.00D+00 EMaxC= 1.00D-01 BMatC= 6.06D-01 BMatP= 6.06D-01
 IDIUse=3 WtCom= 6.27D-01 WtEn= 3.73D-01
 Coeff-Com:  0.100D+01
 Coeff-En:   0.100D+01
 Coeff:      0.100D+01
 Gap=     0.386 Goal=   None    Shift=    0.000
 GapD=    0.386 DampG=1.000 DampE=0.500 DampFc=0.5000 IDamp=-1.
 Damping current iteration by 5.00D-01
 RMSDP=6.52D-03 MaxDP=6.69D-01              OVMax= 2.73D-01

 Cycle   2  Pass 1  IDiag  1:
 E= -1211.61634647636     Delta-E=       -0.083815834626 Rises=F Damp=T
 DIIS: error= 2.20D-02 at cycle   2 NSaved=   2.
 NSaved= 2 IEnMin= 2 EnMin= -1211.61634647636     IErMin= 2 ErrMin= 2.20D-02
 ErrMax= 2.20D-02  0.00D+00 EMaxC= 1.00D-01 BMatC= 1.26D-01 BMatP= 6.06D-01
 IDIUse=3 WtCom= 7.80D-01 WtEn= 2.20D-01
 Coeff-Com:  0.271D+00 0.729D+00
 Coeff-En:   0.426D+00 0.574D+00
 Coeff:      0.305D+00 0.695D+00
 Gap=     0.167 Goal=   None    Shift=    0.000
 RMSDP=1.82D-03 MaxDP=1.42D-01 DE=-8.38D-02 OVMax= 2.06D-01

 Cycle   3  Pass 1  IDiag  1:
 E= -1212.02124473372     Delta-E=       -0.404898257355 Rises=F Damp=F
 DIIS: error= 1.09D-02 at cycle   3 NSaved=   3.
 NSaved= 3 IEnMin= 3 EnMin= -1212.02124473372     IErMin= 3 ErrMin= 1.09D-02
 ErrMax= 1.09D-02  0.00D+00 EMaxC= 1.00D-01 BMatC= 4.52D-02 BMatP= 1.26D-01
 IDIUse=3 WtCom= 8.91D-01 WtEn= 1.09D-01
 Coeff-Com:  0.100D+00 0.376D+00 0.524D+00
 Coeff-En:   0.000D+00 0.000D+00 0.100D+01
 Coeff:      0.892D-01 0.335D+00 0.576D+00
 Gap=     0.197 Goal=   None    Shift=    0.000
 RMSDP=8.90D-04 MaxDP=3.39D-02 DE=-4.05D-01 OVMax= 4.98D-02

 Cycle   4  Pass 1  IDiag  1:
 E= -1212.05388989477     Delta-E=       -0.032645161052 Rises=F Damp=F
 DIIS: error= 4.31D-03 at cycle   4 NSaved=   4.
 NSaved= 4 IEnMin= 4 EnMin= -1212.05388989477     IErMin= 4 ErrMin= 4.31D-03
 ErrMax= 4.31D-03  0.00D+00 EMaxC= 1.00D-01 BMatC= 8.87D-03 BMatP= 4.52D-02
 IDIUse=3 WtCom= 9.57D-01 WtEn= 4.31D-02
 Coeff-Com:  0.813D-02 0.727D-01 0.317D+00 0.602D+00
 Coeff-En:   0.000D+00 0.000D+00 0.161D+00 0.839D+00
 Coeff:      0.778D-02 0.695D-01 0.311D+00 0.612D+00
 Gap=     0.186 Goal=   None    Shift=    0.000
 RMSDP=3.24D-04 MaxDP=1.51D-02 DE=-3.26D-02 OVMax= 2.01D-02

 Cycle   5  Pass 1  IDiag  1:
 E= -1212.06090026701     Delta-E=       -0.007010372242 Rises=F Damp=F
 DIIS: error= 8.32D-04 at cycle   5 NSaved=   5.
 NSaved= 5 IEnMin= 5 EnMin= -1212.06090026701     IErMin= 5 ErrMin= 8.32D-04
 ErrMax= 8.32D-04  0.00D+00 EMaxC= 1.00D-01 BMatC= 7.95D-04 BMatP= 8.87D-03
 IDIUse=3 WtCom= 9.92D-01 WtEn= 8.32D-03
 Coeff-Com: -0.290D-02 0.166D-01 0.135D+00 0.344D+00 0.507D+00
 Coeff-En:   0.000D+00 0.000D+00 0.000D+00 0.000D+00 0.100D+01
 Coeff:     -0.288D-02 0.165D-01 0.134D+00 0.341D+00 0.511D+00
 Gap=     0.186 Goal=   None    Shift=    0.000
 RMSDP=1.03D-04 MaxDP=4.82D-03 DE=-7.01D-03 OVMax= 1.01D-02

 Cycle   6  Pass 1  IDiag  1:
 E= -1212.06158037957     Delta-E=       -0.000680112553 Rises=F Damp=F
 DIIS: error= 3.40D-04 at cycle   6 NSaved=   6.
 NSaved= 6 IEnMin= 6 EnMin= -1212.06158037957     IErMin= 6 ErrMin= 3.40D-04
 ErrMax= 3.40D-04  0.00D+00 EMaxC= 1.00D-01 BMatC= 6.45D-05 BMatP= 7.95D-04
 IDIUse=3 WtCom= 9.97D-01 WtEn= 3.40D-03
 Coeff-Com: -0.245D-02 0.354D-02 0.442D-01 0.129D+00 0.282D+00 0.543D+00
 Coeff-En:   0.000D+00 0.000D+00 0.000D+00 0.000D+00 0.799D-02 0.992D+00
 Coeff:     -0.245D-02 0.353D-02 0.440D-01 0.129D+00 0.281D+00 0.545D+00
 Gap=     0.186 Goal=   None    Shift=    0.000
 RMSDP=2.98D-05 MaxDP=1.70D-03 DE=-6.80D-04 OVMax= 3.23D-03

 Cycle   7  Pass 1  IDiag  1:
 E= -1212.06163585374     Delta-E=       -0.000055474175 Rises=F Damp=F
 DIIS: error= 1.11D-04 at cycle   7 NSaved=   7.
 NSaved= 7 IEnMin= 7 EnMin= -1212.06163585374     IErMin= 7 ErrMin= 1.11D-04
 ErrMax= 1.11D-04  0.00D+00 EMaxC= 1.00D-01 BMatC= 8.40D-06 BMatP= 6.45D-05
 IDIUse=3 WtCom= 9.99D-01 WtEn= 1.11D-03
 Coeff-Com: -0.133D-02 0.500D-03 0.136D-01 0.449D-01 0.122D+00 0.329D+00
 Coeff-Com:  0.492D+00
 Coeff-En:   0.000D+00 0.000D+00 0.000D+00 0.000D+00 0.000D+00 0.480D-01
 Coeff-En:   0.952D+00
 Coeff:     -0.132D-02 0.499D-03 0.135D-01 0.449D-01 0.122D+00 0.328D+00
 Coeff:      0.492D+00
 Gap=     0.186 Goal=   None    Shift=    0.000
 RMSDP=8.66D-06 MaxDP=5.37D-04 DE=-5.55D-05 OVMax= 6.32D-04

 Cycle   8  Pass 1  IDiag  1:
 E= -1212.06164269874     Delta-E=       -0.000006844997 Rises=F Damp=F
 DIIS: error= 1.99D-05 at cycle   8 NSaved=   8.
 NSaved= 8 IEnMin= 8 EnMin= -1212.06164269874     IErMin= 8 ErrMin= 1.99D-05
 ErrMax= 1.99D-05  0.00D+00 EMaxC= 1.00D-01 BMatC= 3.50D-07 BMatP= 8.40D-06
 IDIUse=1 WtCom= 1.00D+00 WtEn= 0.00D+00
 Coeff-Com: -0.360D-03-0.778D-04 0.128D-02 0.607D-02 0.245D-01 0.917D-01
 Coeff-Com:  0.220D+00 0.657D+00
 Coeff:     -0.360D-03-0.778D-04 0.128D-02 0.607D-02 0.245D-01 0.917D-01
 Coeff:      0.220D+00 0.657D+00
 Gap=     0.186 Goal=   None    Shift=    0.000
 RMSDP=2.05D-06 MaxDP=1.02D-04 DE=-6.84D-06 OVMax= 1.04D-04

 Cycle   9  Pass 1  IDiag  1:
 E= -1212.06164295915     Delta-E=       -0.000000260409 Rises=F Damp=F
 DIIS: error= 7.03D-06 at cycle   9 NSaved=   9.
 NSaved= 9 IEnMin= 9 EnMin= -1212.06164295915     IErMin= 9 ErrMin= 7.03D-06
 ErrMax= 7.03D-06  0.00D+00 EMaxC= 1.00D-01 BMatC= 4.73D-08 BMatP= 3.50D-07
 IDIUse=1 WtCom= 1.00D+00 WtEn= 0.00D+00
 Coeff-Com: -0.564D-04-0.637D-04-0.691D-03-0.133D-02 0.342D-03 0.141D-01
 Coeff-Com:  0.623D-01 0.333D+00 0.592D+00
 Coeff:     -0.564D-04-0.637D-04-0.691D-03-0.133D-02 0.342D-03 0.141D-01
 Coeff:      0.623D-01 0.333D+00 0.592D+00
 Gap=     0.186 Goal=   None    Shift=    0.000
 RMSDP=7.50D-07 MaxDP=2.65D-05 DE=-2.60D-07 OVMax= 4.41D-05

 Cycle  10  Pass 1  IDiag  1:
 E= -1212.06164299501     Delta-E=       -0.000000035862 Rises=F Damp=F
 DIIS: error= 4.17D-06 at cycle  10 NSaved=  10.
 NSaved=10 IEnMin=10 EnMin= -1212.06164299501     IErMin=10 ErrMin= 4.17D-06
 ErrMax= 4.17D-06  0.00D+00 EMaxC= 1.00D-01 BMatC= 5.69D-09 BMatP= 4.73D-08
 IDIUse=1 WtCom= 1.00D+00 WtEn= 0.00D+00
 Coeff-Com: -0.110D-04-0.276D-04-0.485D-03-0.115D-02-0.157D-02 0.147D-02
 Coeff-Com:  0.191D-01 0.143D+00 0.334D+00 0.506D+00
 Coeff:     -0.110D-04-0.276D-04-0.485D-03-0.115D-02-0.157D-02 0.147D-02
 Coeff:      0.191D-01 0.143D+00 0.334D+00 0.506D+00
 Gap=     0.186 Goal=   None    Shift=    0.000
 RMSDP=2.73D-07 MaxDP=1.48D-05 DE=-3.59D-08 OVMax= 1.67D-05

 Cycle  11  Pass 1  IDiag  1:
 E= -1212.06164299940     Delta-E=       -0.000000004391 Rises=F Damp=F
 DIIS: error= 1.28D-06 at cycle  11 NSaved=  11.
 NSaved=11 IEnMin=11 EnMin= -1212.06164299940     IErMin=11 ErrMin= 1.28D-06
 ErrMax= 1.28D-06  0.00D+00 EMaxC= 1.00D-01 BMatC= 6.44D-10 BMatP= 5.69D-09
 IDIUse=1 WtCom= 1.00D+00 WtEn= 0.00D+00
 Coeff-Com: -0.798D-07-0.289D-05-0.183D-03-0.454D-03-0.950D-03-0.103D-02
 Coeff-Com:  0.236D-02 0.361D-01 0.103D+00 0.277D+00 0.584D+00
 Coeff:     -0.798D-07-0.289D-05-0.183D-03-0.454D-03-0.950D-03-0.103D-02
 Coeff:      0.236D-02 0.361D-01 0.103D+00 0.277D+00 0.584D+00
 Gap=     0.186 Goal=   None    Shift=    0.000
 RMSDP=9.17D-08 MaxDP=4.49D-06 DE=-4.39D-09 OVMax= 6.00D-06

 Cycle  12  Pass 1  IDiag  1:
 E= -1212.06164299984     Delta-E=       -0.000000000437 Rises=F Damp=F
 DIIS: error= 5.61D-07 at cycle  12 NSaved=  12.
 NSaved=12 IEnMin=12 EnMin= -1212.06164299984     IErMin=12 ErrMin= 5.61D-07
 ErrMax= 5.61D-07  0.00D+00 EMaxC= 1.00D-01 BMatC= 1.18D-10 BMatP= 6.44D-10
 IDIUse=1 WtCom= 1.00D+00 WtEn= 0.00D+00
 Coeff-Com:  0.151D-05 0.285D-05-0.489D-04-0.123D-03-0.389D-03-0.912D-03
 Coeff-Com: -0.143D-02 0.167D-02 0.135D-01 0.932D-01 0.357D+00 0.537D+00
 Coeff:      0.151D-05 0.285D-05-0.489D-04-0.123D-03-0.389D-03-0.912D-03
 Coeff:     -0.143D-02 0.167D-02 0.135D-01 0.932D-01 0.357D+00 0.537D+00
 Gap=     0.186 Goal=   None    Shift=    0.000
 RMSDP=3.17D-08 MaxDP=1.45D-06 DE=-4.37D-10 OVMax= 1.73D-06

 Cycle  13  Pass 1  IDiag  1:
 E= -1212.06164299994     Delta-E=       -0.000000000106 Rises=F Damp=F
 DIIS: error= 8.52D-08 at cycle  13 NSaved=  13.
 NSaved=13 IEnMin=13 EnMin= -1212.06164299994     IErMin=13 ErrMin= 8.52D-08
 ErrMax= 8.52D-08  0.00D+00 EMaxC= 1.00D-01 BMatC= 2.72D-12 BMatP= 1.18D-10
 IDIUse=1 WtCom= 1.00D+00 WtEn= 0.00D+00
 Coeff-Com:  0.542D-06 0.110D-05-0.608D-05-0.136D-04-0.847D-04-0.302D-03
 Coeff-Com: -0.818D-03-0.253D-02-0.419D-02 0.126D-01 0.905D-01 0.187D+00
 Coeff-Com:  0.718D+00
 Coeff:      0.542D-06 0.110D-05-0.608D-05-0.136D-04-0.847D-04-0.302D-03
 Coeff:     -0.818D-03-0.253D-02-0.419D-02 0.126D-01 0.905D-01 0.187D+00
 Coeff:      0.718D+00
 Gap=     0.186 Goal=   None    Shift=    0.000
 RMSDP=8.51D-09 MaxDP=2.53D-07 DE=-1.06D-10 OVMax= 8.70D-07

 Error on total polarization charges =  0.01874
 SCF Done:  E(RB3LYP) =  -1212.06164300     A.U. after   13 cycles
            NFock= 13  Conv=0.85D-08     -V/T= 2.0079
 KE= 1.202508702275D+03 PE=-5.798896607086D+03 EE= 1.882236823515D+03
 Leave Link  502 at Thu Sep 24 17:38:03 2020, MaxMem=  2147483648 cpu:             269.3 elap:              67.4
 (Enter /prod/apps/gaussian/g16b1/l601.exe)
 Copying SCF densities to generalized density rwf, IOpCl= 0 IROHF=0.

 **********************************************************************

            Population analysis using the SCF Density.

 **********************************************************************

 Alpha  occ. eigenvalues --  -89.19766 -19.22025 -19.21841 -14.50411 -14.48904
 Alpha  occ. eigenvalues --  -14.48776 -14.46976 -14.44999 -10.34114 -10.29054
 Alpha  occ. eigenvalues --  -10.26842 -10.25662 -10.25642 -10.22114 -10.21950
 Alpha  occ. eigenvalues --  -10.21171 -10.21130 -10.21038  -8.22088  -6.18581
 Alpha  occ. eigenvalues --   -6.18513  -6.18440  -1.19502  -1.19059  -1.08275
 Alpha  occ. eigenvalues --   -1.02654  -1.01473  -0.99304  -0.88169  -0.88093
 Alpha  occ. eigenvalues --   -0.80054  -0.77367  -0.76592  -0.75283  -0.72046
 Alpha  occ. eigenvalues --   -0.71804  -0.68323  -0.65243  -0.63140  -0.61606
 Alpha  occ. eigenvalues --   -0.60783  -0.57690  -0.57131  -0.56011  -0.55653
 Alpha  occ. eigenvalues --   -0.54423  -0.52176  -0.51226  -0.50812  -0.49893
 Alpha  occ. eigenvalues --   -0.47504  -0.46571  -0.45685  -0.44564  -0.44369
 Alpha  occ. eigenvalues --   -0.43564  -0.42688  -0.42288  -0.41148  -0.40277
 Alpha  occ. eigenvalues --   -0.39210  -0.38587  -0.38096  -0.37578  -0.37523
 Alpha  occ. eigenvalues --   -0.36866  -0.36378  -0.30622  -0.27489  -0.27278
 Alpha virt. eigenvalues --   -0.08653  -0.06938  -0.02491  -0.02087  -0.00408
 Alpha virt. eigenvalues --    0.01586   0.03915   0.05204   0.05560   0.07746
 Alpha virt. eigenvalues --    0.08460   0.08806   0.10340   0.11366   0.12168
 Alpha virt. eigenvalues --    0.12635   0.13537   0.13884   0.14077   0.14797
 Alpha virt. eigenvalues --    0.14999   0.15237   0.15602   0.16717   0.17775
 Alpha virt. eigenvalues --    0.18277   0.18590   0.18849   0.19786   0.21881
 Alpha virt. eigenvalues --    0.26164   0.27646   0.28393   0.29599   0.32022
 Alpha virt. eigenvalues --    0.32457   0.33367   0.34601   0.35768   0.39713
 Alpha virt. eigenvalues --    0.42568   0.45014   0.45533   0.45696   0.47290
 Alpha virt. eigenvalues --    0.49090   0.50362   0.50877   0.51467   0.52960
 Alpha virt. eigenvalues --    0.54213   0.54560   0.55030   0.55136   0.55825
 Alpha virt. eigenvalues --    0.56973   0.57437   0.57734   0.58249   0.59430
 Alpha virt. eigenvalues --    0.60002   0.60090   0.61635   0.62090   0.63467
 Alpha virt. eigenvalues --    0.64259   0.65672   0.67981   0.69075   0.70988
 Alpha virt. eigenvalues --    0.72449   0.72877   0.74061   0.74597   0.75361
 Alpha virt. eigenvalues --    0.76463   0.77247   0.77992   0.79104   0.79773
 Alpha virt. eigenvalues --    0.80260   0.82600   0.82851   0.83150   0.83295
 Alpha virt. eigenvalues --    0.84174   0.85341   0.86333   0.86525   0.87916
 Alpha virt. eigenvalues --    0.89449   0.89731   0.90991   0.91547   0.92373
 Alpha virt. eigenvalues --    0.93956   0.94743   0.95040   0.96138   0.96830
 Alpha virt. eigenvalues --    0.97338   0.99161   0.99776   1.00582   1.01518
 Alpha virt. eigenvalues --    1.03948   1.05848   1.06492   1.07602   1.10299
 Alpha virt. eigenvalues --    1.10774   1.13100   1.13809   1.14649   1.15530
 Alpha virt. eigenvalues --    1.16643   1.17219   1.19530   1.24326   1.24838
 Alpha virt. eigenvalues --    1.27494   1.29567   1.32109   1.33609   1.34792
 Alpha virt. eigenvalues --    1.36821   1.38542   1.40303   1.40983   1.41608
 Alpha virt. eigenvalues --    1.43703   1.44600   1.46559   1.46944   1.48735
 Alpha virt. eigenvalues --    1.50050   1.52979   1.58683   1.60320   1.63909
 Alpha virt. eigenvalues --    1.67559   1.67952   1.71713   1.72529   1.72708
 Alpha virt. eigenvalues --    1.73903   1.77064   1.77997   1.78404   1.79198
 Alpha virt. eigenvalues --    1.80021   1.81253   1.82606   1.83794   1.86609
 Alpha virt. eigenvalues --    1.86909   1.88812   1.90642   1.93037   1.93722
 Alpha virt. eigenvalues --    1.94642   1.97865   1.98116   1.99324   1.99895
 Alpha virt. eigenvalues --    2.02518   2.03372   2.04953   2.05541   2.06662
 Alpha virt. eigenvalues --    2.07791   2.09593   2.11693   2.11989   2.13477
 Alpha virt. eigenvalues --    2.14711   2.15066   2.17420   2.19943   2.20254
 Alpha virt. eigenvalues --    2.21222   2.24424   2.24853   2.27257   2.28226
 Alpha virt. eigenvalues --    2.29492   2.29590   2.32119   2.32553   2.36300
 Alpha virt. eigenvalues --    2.39846   2.41847   2.48969   2.51178   2.52608
 Alpha virt. eigenvalues --    2.53680   2.55897   2.56702   2.60847   2.62899
 Alpha virt. eigenvalues --    2.63565   2.64675   2.68157   2.69945   2.71031
 Alpha virt. eigenvalues --    2.72510   2.73028   2.76366   2.78655   2.81946
 Alpha virt. eigenvalues --    2.86375   2.97120   3.02356   3.10213   3.20505
 Alpha virt. eigenvalues --    3.40190   3.56252   3.71182   3.88275   3.90746
 Alpha virt. eigenvalues --    3.96964   4.00344   4.02183   4.06770   4.09457
 Alpha virt. eigenvalues --    4.10863   4.13545   4.17070   4.25596   4.27169
 Alpha virt. eigenvalues --    4.30645   4.37723   4.45194   4.68855
          Condensed to atoms (all electrons):
               1          2          3          4          5          6
     1  O    8.146601   0.453509  -0.049559   0.000830  -0.000013   0.000000
     2  S    0.453509  13.519208   0.175813  -0.014543  -0.001924   0.000234
     3  N   -0.049559   0.175813   7.325796   0.254467  -0.056568   0.004409
     4  C    0.000830  -0.014543   0.254467   4.509721   0.277660  -0.058734
     5  N   -0.000013  -0.001924  -0.056568   0.277660   6.718445   0.254439
     6  N    0.000000   0.000234   0.004409  -0.058734   0.254439   6.661072
     7  C   -0.000031  -0.004016  -0.062653   0.523241  -0.047120  -0.088741
     8  N   -0.000000  -0.000122   0.003617  -0.013221  -0.082373   0.271336
     9  C   -0.000000  -0.000001  -0.000087   0.002250   0.006586  -0.052155
    10  C   -0.000000  -0.000003   0.000004   0.001046  -0.000304   0.003089
    11  C   -0.000000  -0.000000   0.000000  -0.000007   0.000002  -0.000069
    12  C    0.000000   0.000000  -0.000000  -0.000000  -0.000000   0.000014
    13  C   -0.000000  -0.000000  -0.000000   0.000005  -0.000003   0.000184
    14  C    0.000000   0.000000   0.000000  -0.000613   0.000441  -0.000501
    15  N   -0.044708   0.103514  -0.044820   0.000648   0.000008  -0.000002
    16  C    0.001147  -0.011636   0.001215   0.001038  -0.000269  -0.000010
    17  C   -0.001913  -0.012114   0.001382   0.000220   0.000016  -0.000000
    18  O   -0.033328   0.429886  -0.053455   0.002677   0.000111  -0.000001
    19  H    0.000642  -0.009313   0.288178  -0.012004  -0.001866   0.000013
    20  H   -0.000007   0.000839  -0.001180  -0.024777   0.003225   0.002919
    21  H    0.000000   0.000002  -0.000000  -0.000080  -0.000009  -0.000045
    22  H   -0.000000  -0.000000   0.000000   0.000000  -0.000000   0.000001
    23  H   -0.000000  -0.000000  -0.000000  -0.000000  -0.000000   0.000000
    24  H   -0.000000  -0.000000   0.000000  -0.000000   0.000000  -0.000006
    25  H   -0.000000  -0.000000  -0.000000   0.000002  -0.000278   0.008743
    26  H    0.000023  -0.001851  -0.000234   0.000191  -0.000001  -0.000003
    27  H   -0.000039   0.001464  -0.000071   0.000018   0.000005  -0.000000
    28  H   -0.000012  -0.003581   0.001788   0.000688   0.000630   0.000050
    29  H    0.006979  -0.000792  -0.000329  -0.000010   0.000001  -0.000000
    30  H   -0.000229  -0.004175   0.003540   0.000024   0.000027   0.000001
    31  H    0.000018   0.001712  -0.000038  -0.000006  -0.000000  -0.000000
    32  H    0.000825  -0.006207   0.000937  -0.000009  -0.000001   0.000000
    33  H   -0.000001   0.000007  -0.000554  -0.022701   0.307893  -0.025560
               7          8          9         10         11         12
     1  O   -0.000031  -0.000000  -0.000000  -0.000000  -0.000000   0.000000
     2  S   -0.004016  -0.000122  -0.000001  -0.000003  -0.000000   0.000000
     3  N   -0.062653   0.003617  -0.000087   0.000004   0.000000  -0.000000
     4  C    0.523241  -0.013221   0.002250   0.001046  -0.000007  -0.000000
     5  N   -0.047120  -0.082373   0.006586  -0.000304   0.000002  -0.000000
     6  N   -0.088741   0.271336  -0.052155   0.003089  -0.000069   0.000014
     7  C    4.908699   0.317864  -0.032285  -0.004071  -0.000013   0.000015
     8  N    0.317864   6.759380   0.207497  -0.049129   0.004314   0.000363
     9  C   -0.032285   0.207497   4.645561   0.531360  -0.012306  -0.036659
    10  C   -0.004071  -0.049129   0.531360   4.950710   0.529682  -0.041037
    11  C   -0.000013   0.004314  -0.012306   0.529682   4.855748   0.541671
    12  C    0.000015   0.000363  -0.036659  -0.041037   0.541671   4.856276
    13  C   -0.000075   0.004256  -0.011832  -0.041201  -0.023773   0.538483
    14  C    0.005985  -0.054604   0.521372  -0.064192  -0.040721  -0.040096
    15  N    0.000174  -0.000000  -0.000000   0.000000   0.000000  -0.000000
    16  C    0.000136  -0.000005   0.000000  -0.000000  -0.000000   0.000000
    17  C   -0.000005  -0.000000   0.000000  -0.000000   0.000000  -0.000000
    18  O    0.002578   0.000012   0.000006  -0.000006  -0.000000   0.000000
    19  H    0.001584  -0.000013   0.000000   0.000000   0.000000  -0.000000
    20  H    0.363620  -0.029666  -0.001320   0.001965   0.000067   0.000001
    21  H    0.004693  -0.008057  -0.039903   0.357102  -0.031612   0.004144
    22  H   -0.000004  -0.000112   0.003434  -0.036754   0.364565  -0.038116
    23  H   -0.000000   0.000003   0.000481   0.004849  -0.040460   0.366551
    24  H    0.000001  -0.000108   0.003508   0.000715   0.004260  -0.038441
    25  H    0.000148  -0.010668  -0.040383   0.004786   0.000120   0.004274
    26  H    0.000140  -0.000003   0.000000  -0.000000  -0.000000   0.000000
    27  H    0.000004  -0.000000  -0.000000   0.000000   0.000000  -0.000000
    28  H   -0.000059  -0.000045   0.000001   0.000000  -0.000000  -0.000000
    29  H   -0.000000   0.000000  -0.000000   0.000000   0.000000  -0.000000
    30  H    0.000004  -0.000000   0.000000  -0.000000  -0.000000   0.000000
    31  H    0.000000  -0.000000  -0.000000   0.000000   0.000000   0.000000
    32  H   -0.000004  -0.000000   0.000000  -0.000000  -0.000000   0.000000
    33  H    0.004106   0.004020  -0.000054   0.000002  -0.000000  -0.000000
              13         14         15         16         17         18
     1  O   -0.000000   0.000000  -0.044708   0.001147  -0.001913  -0.033328
     2  S   -0.000000   0.000000   0.103514  -0.011636  -0.012114   0.429886
     3  N   -0.000000   0.000000  -0.044820   0.001215   0.001382  -0.053455
     4  C    0.000005  -0.000613   0.000648   0.001038   0.000220   0.002677
     5  N   -0.000003   0.000441   0.000008  -0.000269   0.000016   0.000111
     6  N    0.000184  -0.000501  -0.000002  -0.000010  -0.000000  -0.000001
     7  C   -0.000075   0.005985   0.000174   0.000136  -0.000005   0.002578
     8  N    0.004256  -0.054604  -0.000000  -0.000005  -0.000000   0.000012
     9  C   -0.011832   0.521372  -0.000000   0.000000   0.000000   0.000006
    10  C   -0.041201  -0.064192   0.000000  -0.000000  -0.000000  -0.000006
    11  C   -0.023773  -0.040721   0.000000  -0.000000   0.000000  -0.000000
    12  C    0.538483  -0.040096  -0.000000   0.000000  -0.000000   0.000000
    13  C    4.863794   0.526483   0.000000  -0.000000   0.000000  -0.000000
    14  C    0.526483   4.948709   0.000000   0.000000   0.000000   0.000000
    15  N    0.000000   0.000000   7.108600   0.206286   0.206446  -0.042013
    16  C   -0.000000   0.000000   0.206286   5.070533  -0.040058  -0.001095
    17  C    0.000000   0.000000   0.206446  -0.040058   5.073166   0.001090
    18  O   -0.000000   0.000000  -0.042013  -0.001095   0.001090   8.173271
    19  H    0.000000  -0.000000   0.000352   0.000091   0.000231   0.000808
    20  H   -0.000006   0.000008   0.000014  -0.000005  -0.000000   0.003604
    21  H    0.000181   0.004572   0.000000   0.000000   0.000000   0.000008
    22  H    0.004221   0.000749   0.000000  -0.000000  -0.000000  -0.000000
    23  H   -0.040450   0.004705  -0.000000   0.000000   0.000000   0.000000
    24  H    0.364756  -0.036947   0.000000  -0.000000   0.000000  -0.000000
    25  H   -0.033803   0.359906   0.000000  -0.000000   0.000000   0.000000
    26  H   -0.000000   0.000000  -0.027633   0.375247   0.003426   0.007184
    27  H    0.000000   0.000000  -0.025365   0.375384  -0.001774   0.000044
    28  H   -0.000000  -0.000000  -0.031718   0.380466  -0.001976  -0.000258
    29  H    0.000000   0.000000  -0.028276   0.003419   0.375174   0.000032
    30  H   -0.000000  -0.000000  -0.032252  -0.002091   0.380356  -0.000010
    31  H    0.000000  -0.000000  -0.025268  -0.001900   0.376309  -0.000037
    32  H   -0.000000  -0.000000   0.280151  -0.019039  -0.019304   0.000328
    33  H   -0.000000  -0.000002  -0.000015   0.000014   0.000012   0.000002
              19         20         21         22         23         24
     1  O    0.000642  -0.000007   0.000000  -0.000000  -0.000000  -0.000000
     2  S   -0.009313   0.000839   0.000002  -0.000000  -0.000000  -0.000000
     3  N    0.288178  -0.001180  -0.000000   0.000000  -0.000000   0.000000
     4  C   -0.012004  -0.024777  -0.000080   0.000000  -0.000000  -0.000000
     5  N   -0.001866   0.003225  -0.000009  -0.000000  -0.000000   0.000000
     6  N    0.000013   0.002919  -0.000045   0.000001   0.000000  -0.000006
     7  C    0.001584   0.363620   0.004693  -0.000004  -0.000000   0.000001
     8  N   -0.000013  -0.029666  -0.008057  -0.000112   0.000003  -0.000108
     9  C    0.000000  -0.001320  -0.039903   0.003434   0.000481   0.003508
    10  C    0.000000   0.001965   0.357102  -0.036754   0.004849   0.000715
    11  C    0.000000   0.000067  -0.031612   0.364565  -0.040460   0.004260
    12  C   -0.000000   0.000001   0.004144  -0.038116   0.366551  -0.038441
    13  C    0.000000  -0.000006   0.000181   0.004221  -0.040450   0.364756
    14  C   -0.000000   0.000008   0.004572   0.000749   0.004705  -0.036947
    15  N    0.000352   0.000014   0.000000   0.000000  -0.000000   0.000000
    16  C    0.000091  -0.000005   0.000000  -0.000000   0.000000  -0.000000
    17  C    0.000231  -0.000000   0.000000  -0.000000   0.000000   0.000000
    18  O    0.000808   0.003604   0.000008  -0.000000   0.000000  -0.000000
    19  H    0.245887  -0.000028  -0.000000  -0.000000   0.000000  -0.000000
    20  H   -0.000028   0.405171   0.001009   0.000000  -0.000000   0.000000
    21  H   -0.000000   0.001009   0.521676  -0.004850  -0.000136   0.000013
    22  H   -0.000000   0.000000  -0.004850   0.536663  -0.004906  -0.000152
    23  H    0.000000  -0.000000  -0.000136  -0.004906   0.543144  -0.004938
    24  H   -0.000000   0.000000   0.000013  -0.000152  -0.004938   0.537373
    25  H    0.000000  -0.000007  -0.000117   0.000012  -0.000131  -0.004863
    26  H   -0.000003  -0.000003   0.000003  -0.000000  -0.000000   0.000000
    27  H    0.000000   0.000000   0.000000   0.000000  -0.000000  -0.000000
    28  H   -0.000011   0.000006  -0.000000   0.000000  -0.000000  -0.000000
    29  H    0.000097  -0.000000  -0.000000   0.000000   0.000000   0.000000
    30  H    0.000418   0.000000  -0.000000   0.000000  -0.000000  -0.000000
    31  H   -0.000007   0.000000  -0.000000  -0.000000   0.000000  -0.000000
    32  H   -0.000004   0.000000  -0.000000   0.000000  -0.000000  -0.000000
    33  H    0.000806  -0.000043  -0.000000   0.000000  -0.000000   0.000000
              25         26         27         28         29         30
     1  O   -0.000000   0.000023  -0.000039  -0.000012   0.006979  -0.000229
     2  S   -0.000000  -0.001851   0.001464  -0.003581  -0.000792  -0.004175
     3  N   -0.000000  -0.000234  -0.000071   0.001788  -0.000329   0.003540
     4  C    0.000002   0.000191   0.000018   0.000688  -0.000010   0.000024
     5  N   -0.000278  -0.000001   0.000005   0.000630   0.000001   0.000027
     6  N    0.008743  -0.000003  -0.000000   0.000050  -0.000000   0.000001
     7  C    0.000148   0.000140   0.000004  -0.000059  -0.000000   0.000004
     8  N   -0.010668  -0.000003  -0.000000  -0.000045   0.000000  -0.000000
     9  C   -0.040383   0.000000  -0.000000   0.000001  -0.000000   0.000000
    10  C    0.004786  -0.000000   0.000000   0.000000   0.000000  -0.000000
    11  C    0.000120  -0.000000   0.000000  -0.000000   0.000000  -0.000000
    12  C    0.004274   0.000000  -0.000000  -0.000000  -0.000000   0.000000
    13  C   -0.033803  -0.000000   0.000000  -0.000000   0.000000  -0.000000
    14  C    0.359906   0.000000   0.000000  -0.000000   0.000000  -0.000000
    15  N    0.000000  -0.027633  -0.025365  -0.031718  -0.028276  -0.032252
    16  C   -0.000000   0.375247   0.375384   0.380466   0.003419  -0.002091
    17  C    0.000000   0.003426  -0.001774  -0.001976   0.375174   0.380356
    18  O    0.000000   0.007184   0.000044  -0.000258   0.000032  -0.000010
    19  H    0.000000  -0.000003   0.000000  -0.000011   0.000097   0.000418
    20  H   -0.000007  -0.000003   0.000000   0.000006  -0.000000   0.000000
    21  H   -0.000117   0.000003   0.000000  -0.000000  -0.000000  -0.000000
    22  H    0.000012  -0.000000   0.000000   0.000000   0.000000   0.000000
    23  H   -0.000131  -0.000000  -0.000000  -0.000000   0.000000  -0.000000
    24  H   -0.004863   0.000000  -0.000000  -0.000000   0.000000  -0.000000
    25  H    0.522576   0.000000   0.000000   0.000000   0.000000  -0.000000
    26  H    0.000000   0.451265  -0.019392  -0.022061  -0.000147  -0.000007
    27  H    0.000000  -0.019392   0.453836  -0.022111  -0.000058  -0.000464
    28  H    0.000000  -0.022061  -0.022111   0.459227   0.000010   0.003925
    29  H    0.000000  -0.000147  -0.000058   0.000010   0.451090  -0.021896
    30  H   -0.000000  -0.000007  -0.000464   0.003925  -0.021896   0.460160
    31  H   -0.000000  -0.000044   0.002507  -0.000468  -0.019646  -0.022005
    32  H   -0.000000  -0.001481  -0.003276   0.002773  -0.001587   0.002885
    33  H   -0.000001  -0.000002  -0.000001   0.000107  -0.000001   0.000108
              31         32         33
     1  O    0.000018   0.000825  -0.000001
     2  S    0.001712  -0.006207   0.000007
     3  N   -0.000038   0.000937  -0.000554
     4  C   -0.000006  -0.000009  -0.022701
     5  N   -0.000000  -0.000001   0.307893
     6  N   -0.000000   0.000000  -0.025560
     7  C    0.000000  -0.000004   0.004106
     8  N   -0.000000  -0.000000   0.004020
     9  C   -0.000000   0.000000  -0.000054
    10  C    0.000000  -0.000000   0.000002
    11  C    0.000000  -0.000000  -0.000000
    12  C    0.000000   0.000000  -0.000000
    13  C    0.000000  -0.000000  -0.000000
    14  C   -0.000000  -0.000000  -0.000002
    15  N   -0.025268   0.280151  -0.000015
    16  C   -0.001900  -0.019039   0.000014
    17  C    0.376309  -0.019304   0.000012
    18  O   -0.000037   0.000328   0.000002
    19  H   -0.000007  -0.000004   0.000806
    20  H    0.000000   0.000000  -0.000043
    21  H   -0.000000  -0.000000  -0.000000
    22  H   -0.000000   0.000000   0.000000
    23  H    0.000000  -0.000000  -0.000000
    24  H   -0.000000  -0.000000   0.000000
    25  H   -0.000000  -0.000000  -0.000001
    26  H   -0.000044  -0.001481  -0.000002
    27  H    0.002507  -0.003276  -0.000001
    28  H   -0.000468   0.002773   0.000107
    29  H   -0.019646  -0.001587  -0.000001
    30  H   -0.022005   0.002885   0.000108
    31  H    0.452066  -0.002961  -0.000000
    32  H   -0.002961   0.257416   0.000000
    33  H   -0.000000   0.000000   0.247959
 Mulliken charges:
               1
     1  O   -0.480733
     2  S    1.384088
     3  N   -0.791600
     4  C    0.571980
     5  N   -0.378762
     6  N    0.019323
     7  C    0.106085
     8  N   -0.324538
     9  C    0.304929
    10  C   -0.148610
    11  C   -0.151468
    12  C   -0.117441
    13  C   -0.151221
    14  C   -0.135256
    15  N   -0.604123
    16  C   -0.338868
    17  C   -0.340683
    18  O   -0.491437
    19  H    0.484140
    20  H    0.274595
    21  H    0.191405
    22  H    0.175249
    23  H    0.171287
    24  H    0.174829
    25  H    0.189685
    26  H    0.235386
    27  H    0.239290
    28  H    0.232630
    29  H    0.235938
    30  H    0.231682
    31  H    0.239766
    32  H    0.508557
    33  H    0.483897
 Sum of Mulliken charges =   2.00000
 Mulliken charges with hydrogens summed into heavy atoms:
               1
     1  O   -0.480733
     2  S    1.384088
     3  N   -0.307459
     4  C    0.571980
     5  N    0.105136
     6  N    0.019323
     7  C    0.380680
     8  N   -0.324538
     9  C    0.304929
    10  C    0.042795
    11  C    0.023780
    12  C    0.053846
    13  C    0.023609
    14  C    0.054428
    15  N   -0.095566
    16  C    0.368438
    17  C    0.366703
    18  O   -0.491437
 Electronic spatial extent (au):  <R**2>=           6562.9717
 Charge=              2.0000 electrons
 Dipole moment (field-independent basis, Debye):
    X=            -11.7315    Y=              6.6445    Z=              5.1137  Tot=             14.4197
 Quadrupole moment (field-independent basis, Debye-Ang):
   XX=            -11.1643   YY=            -81.7934   ZZ=            -96.1102
   XY=            -13.4898   XZ=            -26.2010   YZ=             -7.3094
 Traceless Quadrupole moment (field-independent basis, Debye-Ang):
   XX=             51.8584   YY=            -18.7708   ZZ=            -33.0876
   XY=            -13.4898   XZ=            -26.2010   YZ=             -7.3094
 Octapole moment (field-independent basis, Debye-Ang**2):
  XXX=           -123.5440  YYY=             36.2536  ZZZ=             22.0715  XYY=            -25.9146
  XXY=              3.2075  XXZ=            100.7935  XZZ=            -70.0459  YZZ=             -1.5610
  YYZ=              1.1543  XYZ=              3.1932
 Hexadecapole moment (field-independent basis, Debye-Ang**3):
 XXXX=          -4810.9163 YYYY=           -686.4132 ZZZZ=           -526.8191 XXXY=            -87.1570
 XXXZ=           -373.7355 YYYX=            -65.2683 YYYZ=            -13.6747 ZZZX=            -37.1955
 ZZZY=             -2.9922 XXYY=          -1113.7401 XXZZ=          -1199.1661 YYZZ=           -223.5980
 XXYZ=           -101.4394 YYXZ=             14.8364 ZZXY=              2.1420
 N-N= 1.502089438296D+03 E-N=-5.798896604498D+03  KE= 1.202508702275D+03
 No NMR shielding tensors so no spin-rotation constants.
 Leave Link  601 at Thu Sep 24 17:38:04 2020, MaxMem=  2147483648 cpu:               0.4 elap:               0.1
 (Enter /prod/apps/gaussian/g16b1/l701.exe)
 ... and contract with generalized density number  0.
 Compute integral first derivatives.
 D1PCM: PCM CHGder 1st derivatives, ID1Alg=3 FixD1E=F DoIter=F DoCFld=F I1PDM=0.
 GePol: Maximum number of non-zero 1st derivatives   =     176
 Leave Link  701 at Thu Sep 24 17:38:06 2020, MaxMem=  2147483648 cpu:               8.8 elap:               2.2
 (Enter /prod/apps/gaussian/g16b1/l702.exe)
 L702 exits ... SP integral derivatives will be done elsewhere.
 Leave Link  702 at Thu Sep 24 17:38:06 2020, MaxMem=  2147483648 cpu:               0.1 elap:               0.0
 (Enter /prod/apps/gaussian/g16b1/l703.exe)
 Integral derivatives from FoFJK, PRISM(SPDF).
 Compute integral first derivatives, UseDBF=F ICtDFT=           0.
 Calling FoFJK, ICntrl=      2127 FMM=F ISym2X=0 I1Cent= 0 IOpClX= 0 NMat=1 NMatS=1 NMatT=0.
 FoFJK:  IHMeth= 1 ICntrl=    2127 DoSepK=F KAlg= 0 I1Cent=           0 FoldK=F
 IRaf=         0 NMat=       1 IRICut=       1 DoRegI=T DoRafI=F ISym2E= 0 IDoP0=0 IntGTp=1.
 FoFCou: FMM=F IPFlag=           0 FMFlag=      100000 FMFlg1=         800
         NFxFlg=           0 DoJE=F BraDBF=F KetDBF=F FulRan=T
         wScrn=  0.000000 ICntrl=      2127 IOpCl=  0 I1Cent=           0 NGrid=           0
         NMat0=    1 NMatS0=      1 NMatT0=    0 NMatD0=    1 NMtDS0=    0 NMtDT0=    0
 Symmetry not used in FoFCou.
 Leave Link  703 at Thu Sep 24 17:38:20 2020, MaxMem=  2147483648 cpu:              55.4 elap:              13.9
 (Enter /prod/apps/gaussian/g16b1/l716.exe)
 Dipole        =-4.61551371D+00 2.61415237D+00 2.01188288D+00
 -------------------------------------------------------------------
 Center     Atomic                   Forces (Hartrees/Bohr)
 Number     Number              X              Y              Z
 -------------------------------------------------------------------
      1        8           0.000471480    0.000243772    0.000891000
      2       16          -0.000461320   -0.000083648    0.000737356
      3        7          -0.000298868    0.000617439   -0.000151948
      4        6           0.000996091   -0.000663373    0.000013663
      5        7          -0.000454811    0.000322761    0.000071185
      6        7           0.000275953   -0.000123848   -0.000150101
      7        6          -0.000408533    0.000510885    0.000304905
      8        7           0.000136529   -0.000752932   -0.000274024
      9        6          -0.000053361    0.000547659   -0.000133621
     10        6           0.000671153   -0.000795741    0.000163047
     11        6          -0.000113148    0.000897308   -0.000148424
     12        6          -0.000661874   -0.000582987   -0.000052358
     13        6           0.000137320    0.000490184   -0.000073661
     14        6          -0.000246794    0.000115815    0.000071918
     15        7          -0.000058009   -0.000486143    0.000653129
     16        6          -0.000591949    0.000471156   -0.000544817
     17        6           0.000736704   -0.000367648   -0.000462666
     18        8          -0.000609124    0.001091787    0.000517065
     19        1           0.000273767   -0.000526581    0.000239550
     20        1           0.000092825    0.000811800    0.000375718
[...]
 Alpha virt. eigenvalues --    3.49469   3.50890   3.53637   3.54208   3.55838
 Alpha virt. eigenvalues --    3.57305   3.61414   3.64858   3.74691   3.75301
 Alpha virt. eigenvalues --    4.05134   4.23269   4.68767
          Condensed to atoms (all electrons):
               1          2          3          4          5          6
     1  O    8.872776   0.091514  -0.035344   0.045756  -0.010478  -0.000180
     2  S    0.091514  13.643391   0.426166  -1.321706   0.137414  -0.073735
     3  N   -0.035344   0.426166   9.285768  -3.841535   0.480061  -0.342787
     4  C    0.045756  -1.321706  -3.841535  20.360869  -2.572131   1.487746
     5  N   -0.010478   0.137414   0.480061  -2.572131   8.389634  -0.685935
     6  N   -0.000180  -0.073735  -0.342787   1.487746  -0.685935   8.687651
     7  C    0.004220   0.374762   1.200156  -7.564673   1.525587  -1.413746
     8  N    0.001246   0.102375   0.392648  -1.093809  -0.106667  -0.282470
     9  C    0.002271   0.009447   0.189951  -0.210017  -0.217029  -0.435454
    10  C   -0.000292   0.018784   0.077797  -0.567105   0.136644   0.105656
    11  C   -0.000014   0.005691   0.014113   0.011351   0.011098  -0.053807
    12  C    0.000013   0.000147   0.005389  -0.074022   0.008889   0.046691
    13  C   -0.000011  -0.003697  -0.030363   0.232116  -0.018779   0.016317
    14  C   -0.000118  -0.012874  -0.043997  -0.032107   0.045816   0.458855
    15  N   -0.156927  -0.231986  -0.231272   0.026629  -0.006852   0.023160
    16  C    0.011307   0.092113   0.076011  -0.121123   0.033264  -0.028119
    17  C    0.028679  -0.049398   0.039532   0.042826  -0.000804   0.000740
    18  O    0.012629  -0.017036  -0.104060   0.309595  -0.007319   0.009311
    19  H    0.025268  -0.120927   0.207128   0.225119  -0.098424   0.000114
    20  H   -0.005758   0.070420   0.046031  -0.346699  -0.081081  -0.091502
    21  H    0.000581  -0.009652  -0.015774   0.107492  -0.011124  -0.001152
    22  H   -0.000012   0.000422   0.000163   0.001021  -0.000841  -0.002447
    23  H    0.000001  -0.000040   0.000102  -0.000435   0.000098   0.002426
    24  H   -0.000001  -0.000048  -0.000501   0.002867  -0.000409  -0.002692
    25  H    0.000051  -0.000435   0.007122  -0.030571   0.024177  -0.010985
    26  H   -0.000450   0.090024  -0.001448  -0.086642   0.016907  -0.001203
    27  H    0.002096  -0.013590   0.020459   0.059425  -0.009474  -0.003714
    28  H    0.003055  -0.063848   0.024645  -0.046098   0.021622   0.002931
    29  H    0.026316   0.103936  -0.025748   0.023063  -0.002852   0.000082
    30  H    0.009515  -0.004654   0.022309  -0.028645   0.007787  -0.003298
    31  H    0.002320  -0.039627   0.005247   0.007012  -0.001590   0.000325
    32  H    0.028962  -0.045571   0.047167  -0.035272   0.002604  -0.000461
    33  H   -0.000160  -0.012052  -0.006076   0.084761   0.418552  -0.193426
               7          8          9         10         11         12
     1  O    0.004220   0.001246   0.002271  -0.000292  -0.000014   0.000013
     2  S    0.374762   0.102375   0.009447   0.018784   0.005691   0.000147
     3  N    1.200156   0.392648   0.189951   0.077797   0.014113   0.005389
     4  C   -7.564673  -1.093809  -0.210017  -0.567105   0.011351  -0.074022
     5  N    1.525587  -0.106667  -0.217029   0.136644   0.011098   0.008889
     6  N   -1.413746  -0.282470  -0.435454   0.105656  -0.053807   0.046691
     7  C   12.377680   0.180922  -1.582350   0.716799  -0.193873   0.019315
     8  N    0.180922   9.683785  -1.047986   0.434381  -0.272448   0.326253
     9  C   -1.582350  -1.047986  16.080426  -6.157577   2.864944  -3.741865
    10  C    0.716799   0.434381  -6.157577  13.090468  -3.687836   3.092239
    11  C   -0.193873  -0.272448   2.864944  -3.687836  10.298523  -2.989378
    12  C    0.019315   0.326253  -3.741865   3.092239  -2.989378   8.873543
    13  C   -0.076550  -0.214061   2.743863  -3.212354   2.963361  -2.920385
    14  C   -0.201307  -0.149496  -5.319330   2.240399  -3.357856   3.124176
    15  N    0.036246  -0.024374  -0.021797   0.003109  -0.001183   0.000037
    16  C    0.008386   0.024899   0.022079  -0.004972   0.000398  -0.000696
    17  C   -0.006594  -0.001686  -0.000333  -0.000252   0.000087   0.000024
    18  O   -0.140514   0.000686   0.009895  -0.014484  -0.000482  -0.000277
    19  H   -0.073716  -0.039347  -0.001471  -0.003882   0.000231  -0.000054
    20  H   -0.182996   0.150712   0.114251   0.036343   0.081636   0.010568
    21  H    0.004296  -0.210667   0.833921  -1.005803   0.119427  -0.176691
    22  H    0.003887  -0.003690  -0.106947   0.613614  -0.690475   0.269598
    23  H   -0.003562  -0.006164   0.113905  -0.147289   0.340218  -0.550701
    24  H   -0.001951  -0.010039  -0.124755   0.130137  -0.216460   0.297722
    25  H   -0.039096  -0.274852   0.914622  -0.154639   0.133017  -0.195311
    26  H    0.036182   0.005421   0.007789  -0.001021   0.001199   0.000025
    27  H   -0.028491   0.002233   0.002326  -0.001214  -0.000123  -0.000118
    28  H    0.043037  -0.011075   0.000096   0.002319   0.000949  -0.000486
    29  H   -0.001215  -0.001139  -0.000519  -0.000210  -0.000016  -0.000011
    30  H   -0.001232   0.002834   0.001200   0.000139  -0.000031   0.000038
    31  H    0.002463  -0.000039   0.000003   0.000108   0.000011   0.000007
    32  H    0.005981   0.001464  -0.000298   0.000513   0.000014  -0.000000
    33  H   -0.125811   0.048109   0.015915  -0.001452  -0.000476  -0.000492
              13         14         15         16         17         18
     1  O   -0.000011  -0.000118  -0.156927   0.011307   0.028679   0.012629
     2  S   -0.003697  -0.012874  -0.231986   0.092113  -0.049398  -0.017036
     3  N   -0.030363  -0.043997  -0.231272   0.076011   0.039532  -0.104060
     4  C    0.232116  -0.032107   0.026629  -0.121123   0.042826   0.309595
     5  N   -0.018779   0.045816  -0.006852   0.033264  -0.000804  -0.007319
     6  N    0.016317   0.458855   0.023160  -0.028119   0.000740   0.009311
     7  C   -0.076550  -0.201307   0.036246   0.008386  -0.006594  -0.140514
     8  N   -0.214061  -0.149496  -0.024374   0.024899  -0.001686   0.000686
     9  C    2.743863  -5.319330  -0.021797   0.022079  -0.000333   0.009895
    10  C   -3.212354   2.240399   0.003109  -0.004972  -0.000252  -0.014484
    11  C    2.963361  -3.357856  -0.001183   0.000398   0.000087  -0.000482
    12  C   -2.920385   3.124176   0.000037  -0.000696   0.000024  -0.000277
    13  C    9.646528  -3.606696   0.000046   0.000932  -0.000065   0.000443
    14  C   -3.606696  13.174799   0.003128  -0.002905  -0.000221   0.004881
    15  N    0.000046   0.003128   8.891182  -0.149693  -0.040929  -0.059999
    16  C    0.000932  -0.002905  -0.149693   4.097661  -0.027429   0.017792
    17  C   -0.000065  -0.000221  -0.040929  -0.027429   4.072602   0.013059
    18  O    0.000443   0.004881  -0.059999   0.017792   0.013059   8.919504
    19  H   -0.000015   0.004661  -0.023063  -0.001746   0.006821   0.011905
    20  H   -0.033752  -0.125564  -0.010192   0.011688  -0.001491  -0.010672
    21  H    0.135420  -0.117746   0.003222  -0.000915  -0.000236  -0.000613
    22  H   -0.232685   0.107287  -0.000083   0.000139   0.000007   0.000168
    23  H    0.362156  -0.125809   0.000005  -0.000024   0.000000  -0.000001
    24  H   -0.638028   0.538767  -0.000009   0.000034  -0.000001   0.000014
    25  H    0.311699  -0.992719   0.000005  -0.000092   0.000024  -0.000024
    26  H   -0.000199  -0.000094  -0.048895   0.307968  -0.011657   0.007716
    27  H    0.000196  -0.000081  -0.195018   0.440807   0.038600  -0.002554
    28  H    0.000289  -0.003487  -0.172430   0.282133   0.022999   0.021419
    29  H    0.000035   0.000088  -0.146721  -0.007832   0.340713  -0.003123
    30  H   -0.000056  -0.000041  -0.188721   0.013360   0.377222   0.000823
    31  H   -0.000020   0.000034  -0.056056   0.047515   0.376226   0.002148
    32  H   -0.000027  -0.000373   0.299897  -0.010486  -0.003869   0.029259
    33  H    0.002664  -0.008420   0.001307  -0.002762   0.001535   0.000638
              19         20         21         22         23         24
     1  O    0.025268  -0.005758   0.000581  -0.000012   0.000001  -0.000001
     2  S   -0.120927   0.070420  -0.009652   0.000422  -0.000040  -0.000048
     3  N    0.207128   0.046031  -0.015774   0.000163   0.000102  -0.000501
     4  C    0.225119  -0.346699   0.107492   0.001021  -0.000435   0.002867
     5  N   -0.098424  -0.081081  -0.011124  -0.000841   0.000098  -0.000409
     6  N    0.000114  -0.091502  -0.001152  -0.002447   0.002426  -0.002692
     7  C   -0.073716  -0.182996   0.004296   0.003887  -0.003562  -0.001951
     8  N   -0.039347   0.150712  -0.210667  -0.003690  -0.006164  -0.010039
     9  C   -0.001471   0.114251   0.833921  -0.106947   0.113905  -0.124755
    10  C   -0.003882   0.036343  -1.005803   0.613614  -0.147289   0.130137
    11  C    0.000231   0.081636   0.119427  -0.690475   0.340218  -0.216460
    12  C   -0.000054   0.010568  -0.176691   0.269598  -0.550701   0.297722
    13  C   -0.000015  -0.033752   0.135420  -0.232685   0.362156  -0.638028
    14  C    0.004661  -0.125564  -0.117746   0.107287  -0.125809   0.538767
    15  N   -0.023063  -0.010192   0.003222  -0.000083   0.000005  -0.000009
    16  C   -0.001746   0.011688  -0.000915   0.000139  -0.000024   0.000034
    17  C    0.006821  -0.001491  -0.000236   0.000007   0.000000  -0.000001
    18  O    0.011905  -0.010672  -0.000613   0.000168  -0.000001   0.000014
    19  H    0.921229  -0.004395   0.000359   0.000020   0.000007  -0.000006
    20  H   -0.004395   1.907194  -0.059489   0.002631  -0.000066  -0.000053
    21  H    0.000359  -0.059489   2.159213  -0.085431  -0.015216   0.009896
    22  H    0.000020   0.002631  -0.085431   1.597974  -0.059686  -0.017880
    23  H    0.000007  -0.000066  -0.015216  -0.059686   1.570543  -0.064318
    24  H   -0.000006  -0.000053   0.009896  -0.017880  -0.064318   1.571372
    25  H    0.000251  -0.003762  -0.018014   0.009899  -0.011847  -0.076889
    26  H    0.001787   0.001253  -0.002937   0.000152   0.000008  -0.000002
    27  H   -0.000121  -0.000215  -0.000908   0.000036  -0.000005   0.000006
    28  H    0.004283   0.002044   0.001460  -0.000014  -0.000007   0.000017
    29  H    0.009312   0.000058  -0.000057   0.000002  -0.000000   0.000001
    30  H   -0.004990  -0.001175   0.000159  -0.000004   0.000001  -0.000003
    31  H   -0.000406   0.000188  -0.000058   0.000002   0.000000  -0.000001
    32  H   -0.004916   0.001455   0.000164  -0.000010  -0.000001  -0.000000
    33  H   -0.003444  -0.000207   0.000562  -0.000056  -0.000014   0.000047
              25         26         27         28         29         30
     1  O    0.000051  -0.000450   0.002096   0.003055   0.026316   0.009515
     2  S   -0.000435   0.090024  -0.013590  -0.063848   0.103936  -0.004654
     3  N    0.007122  -0.001448   0.020459   0.024645  -0.025748   0.022309
     4  C   -0.030571  -0.086642   0.059425  -0.046098   0.023063  -0.028645
     5  N    0.024177   0.016907  -0.009474   0.021622  -0.002852   0.007787
     6  N   -0.010985  -0.001203  -0.003714   0.002931   0.000082  -0.003298
     7  C   -0.039096   0.036182  -0.028491   0.043037  -0.001215  -0.001232
     8  N   -0.274852   0.005421   0.002233  -0.011075  -0.001139   0.002834
     9  C    0.914622   0.007789   0.002326   0.000096  -0.000519   0.001200
    10  C   -0.154639  -0.001021  -0.001214   0.002319  -0.000210   0.000139
    11  C    0.133017   0.001199  -0.000123   0.000949  -0.000016  -0.000031
    12  C   -0.195311   0.000025  -0.000118  -0.000486  -0.000011   0.000038
    13  C    0.311699  -0.000199   0.000196   0.000289   0.000035  -0.000056
    14  C   -0.992719  -0.000094  -0.000081  -0.003487   0.000088  -0.000041
    15  N    0.000005  -0.048895  -0.195018  -0.172430  -0.146721  -0.188721
    16  C   -0.000092   0.307968   0.440807   0.282133  -0.007832   0.013360
    17  C    0.000024  -0.011657   0.038600   0.022999   0.340713   0.377222
    18  O   -0.000024   0.007716  -0.002554   0.021419  -0.003123   0.000823
    19  H    0.000251   0.001787  -0.000121   0.004283   0.009312  -0.004990
    20  H   -0.003762   0.001253  -0.000215   0.002044   0.000058  -0.001175
    21  H   -0.018014  -0.002937  -0.000908   0.001460  -0.000057   0.000159
    22  H    0.009899   0.000152   0.000036  -0.000014   0.000002  -0.000004
    23  H   -0.011847   0.000008  -0.000005  -0.000007  -0.000000   0.000001
    24  H   -0.076889  -0.000002   0.000006   0.000017   0.000001  -0.000003
    25  H    1.937443   0.000058  -0.000044   0.000109  -0.000025   0.000077
    26  H    0.000058   1.275659  -0.303062  -0.172107  -0.001442   0.001721
    27  H   -0.000044  -0.303062   1.398935  -0.244676   0.010296   0.000164
    28  H    0.000109  -0.172107  -0.244676   1.376965   0.001973  -0.001082
    29  H   -0.000025  -0.001442   0.010296   0.001973   1.222737  -0.181827
    30  H    0.000077   0.001721   0.000164  -0.001082  -0.181827   1.256490
    31  H    0.000017   0.006514  -0.004698   0.006773  -0.244541  -0.188865
    32  H   -0.000026  -0.026943  -0.024217   0.032104  -0.022774   0.039735
    33  H   -0.002087   0.000803  -0.001025   0.003355  -0.000154  -0.001549
              31         32         33
     1  O    0.002320   0.028962  -0.000160
     2  S   -0.039627  -0.045571  -0.012052
     3  N    0.005247   0.047167  -0.006076
     4  C    0.007012  -0.035272   0.084761
     5  N   -0.001590   0.002604   0.418552
     6  N    0.000325  -0.000461  -0.193426
     7  C    0.002463   0.005981  -0.125811
     8  N   -0.000039   0.001464   0.048109
     9  C    0.000003  -0.000298   0.015915
    10  C    0.000108   0.000513  -0.001452
    11  C    0.000011   0.000014  -0.000476
    12  C    0.000007  -0.000000  -0.000492
    13  C   -0.000020  -0.000027   0.002664
    14  C    0.000034  -0.000373  -0.008420
    15  N   -0.056056   0.299897   0.001307
    16  C    0.047515  -0.010486  -0.002762
    17  C    0.376226  -0.003869   0.001535
    18  O    0.002148   0.029259   0.000638
    19  H   -0.000406  -0.004916  -0.003444
    20  H    0.000188   0.001455  -0.000207
    21  H   -0.000058   0.000164   0.000562
    22  H    0.000002  -0.000010  -0.000056
    23  H    0.000000  -0.000001  -0.000014
    24  H   -0.000001  -0.000000   0.000047
    25  H    0.000017  -0.000026  -0.002087
    26  H    0.006514  -0.026943   0.000803
    27  H   -0.004698  -0.024217  -0.001025
    28  H    0.006773   0.032104   0.003355
    29  H   -0.244541  -0.022774  -0.000154
    30  H   -0.188865   0.039735  -0.001549
    31  H    1.182981  -0.027739  -0.000170
    32  H   -0.027739   0.523304   0.000120
    33  H   -0.000170   0.000120   0.776272
 Mulliken charges:
               1
     1  O   -0.958831
     2  S    2.854270
     3  N   -0.889057
     4  C    0.944942
     5  N   -0.428367
     6  N   -0.214894
     7  C    1.097759
     8  N   -0.607959
     9  C    1.040824
    10  C    0.260932
    11  C    0.618191
    12  C    0.575814
    13  C    0.571678
    14  C    0.398350
    15  N   -0.521775
    16  C    0.870311
    17  C    0.783273
    18  O   -1.010726
    19  H   -0.037572
    20  H   -0.477401
    21  H   -0.643688
    22  H   -0.406758
    23  H   -0.404284
    24  H   -0.396833
    25  H   -0.527153
    26  H   -0.103085
    27  H   -0.142234
    28  H   -0.139269
    29  H   -0.098406
    30  H   -0.127401
    31  H   -0.076086
    32  H    0.190239
    33  H    0.005194
 Sum of Mulliken charges =   2.00000
 Mulliken charges with hydrogens summed into heavy atoms:
               1
     1  O   -0.958831
     2  S    2.854270
     3  N   -0.926629
     4  C    0.944942
     5  N   -0.423173
     6  N   -0.214894
     7  C    0.620357
     8  N   -0.607959
     9  C    1.040824
    10  C   -0.382756
    11  C    0.211434
    12  C    0.171529
    13  C    0.174845
    14  C   -0.128803
    15  N   -0.331536
    16  C    0.485724
    17  C    0.481381
    18  O   -1.010726
 Electronic spatial extent (au):  <R**2>=           6521.4205
 Charge=              2.0000 electrons
 Dipole moment (field-independent basis, Debye):
    X=             -8.2140    Y=              4.5288    Z=              4.9250  Tot=             10.5941
 Quadrupole moment (field-independent basis, Debye-Ang):
   XX=             11.0320   YY=            -82.6721   ZZ=            -98.9361
   XY=            -11.6289   XZ=            -23.0450   YZ=             -6.4052
 Traceless Quadrupole moment (field-independent basis, Debye-Ang):
   XX=             67.8907   YY=            -25.8134   ZZ=            -42.0774
   XY=            -11.6289   XZ=            -23.0450   YZ=             -6.4052
 Octapole moment (field-independent basis, Debye-Ang**2):
  XXX=            -20.2155  YYY=             33.5664  ZZZ=             24.9960  XYY=            -14.9309
  XXY=             -9.4144  XXZ=            105.0342  XZZ=            -73.7726  YZZ=             -1.9816
  YYZ=              4.9854  XYZ=              2.1263
 Hexadecapole moment (field-independent basis, Debye-Ang**3):
 XXXX=          -3945.6739 YYYY=           -701.8450 ZZZZ=           -521.5745 XXXY=           -141.8018
 XXXZ=           -367.5230 YYYX=            -63.6570 YYYZ=            -16.1732 ZZZX=           -106.1152
 ZZZY=             -9.8773 XXYY=          -1057.1275 XXZZ=          -1224.6112 YYZZ=           -228.6844
 XXYZ=            -93.3714 YYXZ=             -3.2483 ZZXY=             10.3409
 N-N= 1.504622817298D+03 E-N=-5.804440681663D+03  KE= 1.204734405597D+03
 Leave Link  601 at Thu Sep 24 19:36:05 2020, MaxMem=   262144000 cpu:               1.7 elap:               0.8
 (Enter /prod/apps/gaussian/g16b1/l9999.exe)
 1\1\GINC-PIRINEUS12\SP\RMP2-FC\Aug-CC-pVDZ\C10H15N5O2S1(2+)\UBAFAR01\2
 4-Sep-2020\0\\#p mp2/aug-cc-pVDZ scf=(MaxCycle=2000,NoVarAcc,NoIncFock
 ) maxdisk=120GB geom=allcheck\\SM46_m3.b.8.pdb.xyz\\2,1\O,0,-3.9128378
 871,-0.5943416502,-1.4624030373\S,0,-2.7753157314,-0.6206974687,-0.569
 8307601\N,0,-1.8254583467,0.6788565515,-0.9161594261\C,0,-0.4849147224
 ,0.7911536198,-0.5683600546\N,0,0.0526722778,1.9394572246,-0.082364469
 3\N,0,1.3419110628,1.8420133897,0.1470991771\C,0,0.5635703097,-0.09840
 6476,-0.6375840822\N,0,1.6396481511,0.5965570244,-0.178906918\C,0,2.99
 23573556,0.1303236696,-0.0569572384\C,0,3.2185637106,-1.2007675544,0.2
 898583149\C,0,4.5349115446,-1.644433204,0.3997275157\C,0,5.5955467323,
 -0.7650459177,0.1747270955\C,0,5.3447366877,0.566134632,-0.1663517899\
 C,0,4.0358894227,1.0255237615,-0.2907003988\N,0,-3.5540854097,-0.27669
 97721,1.1023813881\C,0,-2.5689881867,-0.3103811777,2.2332082301\C,0,-4
 .4112742092,0.9515826393,1.0835117246\O,0,-1.932053317,-1.7694469471,-
 0.3169744917\H,0,-2.3136906607,1.5015875862,-1.2842895337\H,0,0.613707
 3481,-1.1154944252,-0.9810023641\H,0,2.3917296952,-1.8712179274,0.4899
 115746\H,0,4.7269664421,-2.6757330801,0.6719021342\H,0,6.617061219,-1.
 116412566,0.2648084196\H,0,6.1672995777,1.2482595628,-0.3468974438\H,0
 ,3.8235387233,2.0486811341,-0.5720810237\H,0,-1.9551653794,-1.20135914
 4,2.1285547024\H,0,-3.1475139919,-0.3578984769,3.15472593\H,0,-1.96596
 48472,0.594208565,2.2176765374\H,0,-5.0730352686,0.8997125114,0.222736
 3864\H,0,-3.7752185627,1.832873702,1.0443270111\H,0,-4.9936735169,0.94
 89582611,2.0033825837\H,0,-4.1787891741,-1.0979464401,1.2040055353\H,0
 ,-0.4171310486,2.8323983929,0.0933187713\\Version=ES64L-G16RevB.01\Sta
 te=1-A\HF=-1206.2809742\MP2=-1209.0862646\RMSD=4.172e-09\PG=C01 [X(C10
 H15N5O2S1)]\\@


 The most important thing in communication is to hear what isn't being said.
 -- Peter F. Drucker
 Job cpu time:       0 days  2 hours 41 minutes 38.1 seconds.
 Elapsed time:       0 days  0 hours 45 minutes 18.2 seconds.
 File lengths (MBytes):  RWF=  82155 Int=      0 D2E=      0 Chk=     25 Scr=      1
 Normal termination of Gaussian 16 at Thu Sep 24 19:36:07 2020.
