 Entering Gaussian System, Link 0=g16
 Initial command:
 /prod/apps/gaussian/g16b1/l1.exe "/tmp/ubafar01/1460693/Gau-133897.inp" -scrdir="/tmp/ubafar01/1460693/"
 Entering Link 1 = /prod/apps/gaussian/g16b1/l1.exe PID=    133900.
  
 Copyright (c) 1988-2017, Gaussian, Inc.  All Rights Reserved.
  
 This is part of the Gaussian(R) 16 program.  It is based on
 the Gaussian(R) 09 system (copyright 2009, Gaussian, Inc.),
 the Gaussian(R) 03 system (copyright 2003, Gaussian, Inc.),
 the Gaussian(R) 98 system (copyright 1998, Gaussian, Inc.),
 the Gaussian(R) 94 system (copyright 1995, Gaussian, Inc.),
 the Gaussian 92(TM) system (copyright 1992, Gaussian, Inc.),
 the Gaussian 90(TM) system (copyright 1990, Gaussian, Inc.),
 the Gaussian 88(TM) system (copyright 1988, Gaussian, Inc.),
 the Gaussian 86(TM) system (copyright 1986, Carnegie Mellon
 University), and the Gaussian 82(TM) system (copyright 1983,
 Carnegie Mellon University). Gaussian is a federally registered
 trademark of Gaussian, Inc.
  
 This software contains proprietary and confidential information,
 including trade secrets, belonging to Gaussian, Inc.
  
 This software is provided under written license and may be
 used, copied, transmitted, or stored only in accord with that
 written license.
  
 The following legend is applicable only to US Government
 contracts under FAR:
  
                    RESTRICTED RIGHTS LEGEND
  
 Use, reproduction and disclosure by the US Government is
 subject to restrictions as set forth in subparagraphs (a)
 and (c) of the Commercial Computer Software - Restricted
 Rights clause in FAR 52.227-19.
  
 Gaussian, Inc.
 340 Quinnipiac St., Bldg. 40, Wallingford CT 06492
  
  
 ---------------------------------------------------------------
 Warning -- This program may not be used in any manner that
 competes with the business of Gaussian, Inc. or will provide
 assistance to any competitor of Gaussian, Inc.  The licensee
 of this program is prohibited from giving any competitor of
 Gaussian, Inc. access to this program.  By using this program,
 the user acknowledges that Gaussian, Inc. is engaged in the
 business of creating and licensing software in the field of
 computational chemistry and represents and warrants to the
 licensee that it is not a competitor of Gaussian, Inc. and that
 it will not use this program in any manner prohibited above.
 ---------------------------------------------------------------
  

 Cite this work as:
 Gaussian 16, Revision B.01,
 M. J. Frisch, G. W. Trucks, H. B. Schlegel, G. E. Scuseria, 
 M. A. Robb, J. R. Cheeseman, G. Scalmani, V. Barone, 
 G. A. Petersson, H. Nakatsuji, X. Li, M. Caricato, A. V. Marenich, 
 J. Bloino, B. G. Janesko, R. Gomperts, B. Mennucci, H. P. Hratchian, 
 J. V. Ortiz, A. F. Izmaylov, J. L. Sonnenberg, D. Williams-Young, 
 F. Ding, F. Lipparini, F. Egidi, J. Goings, B. Peng, A. Petrone, 
 T. Henderson, D. Ranasinghe, V. G. Zakrzewski, J. Gao, N. Rega, 
 G. Zheng, W. Liang, M. Hada, M. Ehara, K. Toyota, R. Fukuda, 
 J. Hasegawa, M. Ishida, T. Nakajima, Y. Honda, O. Kitao, H. Nakai, 
 T. Vreven, K. Throssell, J. A. Montgomery, Jr., J. E. Peralta, 
 F. Ogliaro, M. J. Bearpark, J. J. Heyd, E. N. Brothers, K. N. Kudin, 
 V. N. Staroverov, T. A. Keith, R. Kobayashi, J. Normand, 
 K. Raghavachari, A. P. Rendell, J. C. Burant, S. S. Iyengar, 
 J. Tomasi, M. Cossi, J. M. Millam, M. Klene, C. Adamo, R. Cammi, 
 J. W. Ochterski, R. L. Martin, K. Morokuma, O. Farkas, 
 J. B. Foresman, and D. J. Fox, Gaussian, Inc., Wallingford CT, 2016.
 
 ******************************************
 Gaussian 16:  ES64L-G16RevB.01 20-Dec-2017
                23-Sep-2020 
 ******************************************
 %nproc=4
 Will use up to    4 processors via shared memory.
 %Chk=SM46_m0.n.1.pdb.xyz.mst.n.w.chk
 %mem=16GB
 ----------------------------------------------------------------------
 #p b3lyp/6-31G(d) opt freq NoSymm scf=(MaxCycle=2000,NoVarAcc,NoIncFoc
 k) scrf=(iefpcm,read,solvent=water)
 ----------------------------------------------------------------------
 1/18=20,19=15,26=3,38=1,40=2/1,3;
 2/9=110,12=2,15=1,17=6,18=5,40=1/2;
 3/5=1,6=6,7=1,11=2,25=1,30=1,70=2203,71=1,72=1,74=-5/1,2,3;
 4//1;
 5/5=100002,7=2000,38=1,53=1/2;
 6/7=2,8=2,9=2,10=2,28=1/1;
 7/30=1/1,2,3,16;
 1/18=20,19=15,26=3/3(2);
 2/9=110,15=1/2;
 99//99;
 2/9=110,15=1/2;
 3/5=1,6=6,7=1,11=2,25=1,30=1,70=2205,71=1,72=1,74=-5/1,2,3;
 4/5=5,16=3,69=1/1;
 5/5=100002,7=2000,38=1,53=1/2;
 7/30=1/1,2,3,16;
 1/18=20,19=15,26=3/3(-5);
 2/9=110,15=1/2;
 6/7=2,8=2,9=2,10=2,19=2,28=1/1;
 99/9=1/99;
 Leave Link    1 at Wed Sep 23 11:20:27 2020, MaxMem=  2147483648 cpu:               0.2 elap:               0.0
 (Enter /prod/apps/gaussian/g16b1/l101.exe)
 -------------------
 SM46_m0.n.1.pdb.xyz
 -------------------
 Symbolic Z-matrix:
 Charge =  0 Multiplicity = 1
 O                    -2.493    -0.269    -1.744 
 S                    -2.943    -0.301    -0.348 
 N                    -1.888    -1.168     0.655 
 C                    -0.511    -1.159     0.369 
 N                     0.144    -2.283    -0.027 
 N                     1.415    -2.001    -0.167 
 C                     0.393    -0.125     0.472 
 N                     1.576    -0.689     0.118 
 C                     2.861    -0.078     0.037 
 C                     2.957     1.301    -0.16 
 C                     4.218     1.891    -0.229 
 C                     5.37      1.111    -0.114 
 C                     5.257    -0.269     0.074 
 C                     4.005    -0.871     0.158 
 N                    -2.697     1.238     0.265 
 C                    -3.041     2.329    -0.663 
 C                    -3.206     1.439     1.632 
 O                    -4.268    -0.859    -0.043 
 H                    -2.26     -2.109     0.794 
 H                     0.292     0.904     0.768 
 H                     2.062     1.903    -0.27 
 H                     4.296     2.962    -0.38 
 H                     6.349     1.574    -0.173 
 H                     6.148    -0.88      0.167 
 H                     3.904    -1.936     0.317 
 H                    -2.595     2.134    -1.635 
 H                    -2.615     3.245    -0.251 
 H                    -4.124     2.462    -0.771 
 H                    -2.872     0.62      2.268 
 H                    -4.299     1.508     1.659 
 H                    -2.779     2.372     2.004 
 
 ITRead=  0  0  0  0  0  0  0  0  0  0  0  0  0  0  0  0  0  0  0  0
 ITRead=  0  0  0  0  0  0  0  0  0  0  0
 MicOpt= -1 -1 -1 -1 -1 -1 -1 -1 -1 -1 -1 -1 -1 -1 -1 -1 -1 -1 -1 -1
 MicOpt= -1 -1 -1 -1 -1 -1 -1 -1 -1 -1 -1
 NAtoms=     31 NQM=       31 NQMF=       0 NMMI=      0 NMMIF=      0
                NMic=       0 NMicF=      0.
                    Isotopes and Nuclear Properties:
 (Nuclear quadrupole moments (NQMom) in fm**2, nuclear magnetic moments (NMagM)
  in nuclear magnetons)

  Atom         1           2           3           4           5           6           7           8           9          10
 IAtWgt=          16          32          14          12          14          14          12          14          12          12
 AtmWgt=  15.9949146  31.9720718  14.0030740  12.0000000  14.0030740  14.0030740  12.0000000  14.0030740  12.0000000  12.0000000
 NucSpn=           0           0           2           0           2           2           0           2           0           0
 AtZEff=  -0.0000000  -0.0000000  -0.0000000  -0.0000000  -0.0000000  -0.0000000  -0.0000000  -0.0000000  -0.0000000  -0.0000000
 NQMom=    0.0000000   0.0000000   2.0440000   0.0000000   2.0440000   2.0440000   0.0000000   2.0440000   0.0000000   0.0000000
 NMagM=    0.0000000   0.0000000   0.4037610   0.0000000   0.4037610   0.4037610   0.0000000   0.4037610   0.0000000   0.0000000
 AtZNuc=   8.0000000  16.0000000   7.0000000   6.0000000   7.0000000   7.0000000   6.0000000   7.0000000   6.0000000   6.0000000

  Atom        11          12          13          14          15          16          17          18          19          20
 IAtWgt=          12          12          12          12          14          12          12          16           1           1
 AtmWgt=  12.0000000  12.0000000  12.0000000  12.0000000  14.0030740  12.0000000  12.0000000  15.9949146   1.0078250   1.0078250
 NucSpn=           0           0           0           0           2           0           0           0           1           1
 AtZEff=  -0.0000000  -0.0000000  -0.0000000  -0.0000000  -0.0000000  -0.0000000  -0.0000000  -0.0000000  -0.0000000  -0.0000000
 NQMom=    0.0000000   0.0000000   0.0000000   0.0000000   2.0440000   0.0000000   0.0000000   0.0000000   0.0000000   0.0000000
 NMagM=    0.0000000   0.0000000   0.0000000   0.0000000   0.4037610   0.0000000   0.0000000   0.0000000   2.7928460   2.7928460
 AtZNuc=   6.0000000   6.0000000   6.0000000   6.0000000   7.0000000   6.0000000   6.0000000   8.0000000   1.0000000   1.0000000

  Atom        21          22          23          24          25          26          27          28          29          30
 IAtWgt=           1           1           1           1           1           1           1           1           1           1
 AtmWgt=   1.0078250   1.0078250   1.0078250   1.0078250   1.0078250   1.0078250   1.0078250   1.0078250   1.0078250   1.0078250
 NucSpn=           1           1           1           1           1           1           1           1           1           1
 AtZEff=  -0.0000000  -0.0000000  -0.0000000  -0.0000000  -0.0000000  -0.0000000  -0.0000000  -0.0000000  -0.0000000  -0.0000000
 NQMom=    0.0000000   0.0000000   0.0000000   0.0000000   0.0000000   0.0000000   0.0000000   0.0000000   0.0000000   0.0000000
 NMagM=    2.7928460   2.7928460   2.7928460   2.7928460   2.7928460   2.7928460   2.7928460   2.7928460   2.7928460   2.7928460
 AtZNuc=   1.0000000   1.0000000   1.0000000   1.0000000   1.0000000   1.0000000   1.0000000   1.0000000   1.0000000   1.0000000

  Atom        31
 IAtWgt=           1
 AtmWgt=   1.0078250
 NucSpn=           1
 AtZEff=  -0.0000000
 NQMom=    0.0000000
 NMagM=    2.7928460
 AtZNuc=   1.0000000
 Leave Link  101 at Wed Sep 23 11:20:27 2020, MaxMem=  2147483648 cpu:               1.5 elap:               0.4
 (Enter /prod/apps/gaussian/g16b1/l103.exe)

 GradGradGradGradGradGradGradGradGradGradGradGradGradGradGradGradGradGrad
 Berny optimization.
 Initialization pass.
                           ----------------------------
                           !    Initial Parameters    !
                           ! (Angstroms and Degrees)  !
 --------------------------                            --------------------------
 ! Name  Definition              Value          Derivative Info.                !
 --------------------------------------------------------------------------------
 ! R1    R(1,2)                  1.4671         estimate D2E/DX2                !
 ! R2    R(2,3)                  1.6943         estimate D2E/DX2                !
 ! R3    R(2,15)                 1.6748         estimate D2E/DX2                !
 ! R4    R(2,18)                 1.4697         estimate D2E/DX2                !
 ! R5    R(3,4)                  1.4064         estimate D2E/DX2                !
 ! R6    R(3,19)                 1.0214         estimate D2E/DX2                !
 ! R7    R(4,5)                  1.3599         estimate D2E/DX2                !
 ! R8    R(4,7)                  1.3773         estimate D2E/DX2                !
 ! R9    R(5,6)                  1.3094         estimate D2E/DX2                !
 ! R10   R(6,8)                  1.3522         estimate D2E/DX2                !
 ! R11   R(7,8)                  1.3575         estimate D2E/DX2                !
 ! R12   R(7,20)                 1.0755         estimate D2E/DX2                !
 ! R13   R(8,9)                  1.4252         estimate D2E/DX2                !
 ! R14   R(9,10)                 1.3963         estimate D2E/DX2                !
 ! R15   R(9,14)                 1.3972         estimate D2E/DX2                !
 ! R16   R(10,11)                1.3939         estimate D2E/DX2                !
 ! R17   R(10,21)                1.0842         estimate D2E/DX2                !
 ! R18   R(11,12)                1.396          estimate D2E/DX2                !
 ! R19   R(11,22)                1.0844         estimate D2E/DX2                !
 ! R20   R(12,13)                1.3973         estimate D2E/DX2                !
 ! R21   R(12,23)                1.0846         estimate D2E/DX2                !
 ! R22   R(13,14)                1.3917         estimate D2E/DX2                !
 ! R23   R(13,24)                1.0844         estimate D2E/DX2                !
 ! R24   R(14,25)                1.0815         estimate D2E/DX2                !
 ! R25   R(15,16)                1.473          estimate D2E/DX2                !
 ! R26   R(15,17)                1.4725         estimate D2E/DX2                !
 ! R27   R(16,26)                1.0871         estimate D2E/DX2                !
 ! R28   R(16,27)                1.091          estimate D2E/DX2                !
 ! R29   R(16,28)                1.0965         estimate D2E/DX2                !
 ! R30   R(17,29)                1.0894         estimate D2E/DX2                !
 ! R31   R(17,30)                1.0955         estimate D2E/DX2                !
 ! R32   R(17,31)                1.0914         estimate D2E/DX2                !
 ! A1    A(1,2,3)              112.5484         estimate D2E/DX2                !
 ! A2    A(1,2,15)             106.4507         estimate D2E/DX2                !
 ! A3    A(1,2,18)             118.8346         estimate D2E/DX2                !
 ! A4    A(3,2,15)              99.3283         estimate D2E/DX2                !
 ! A5    A(3,2,18)             104.1365         estimate D2E/DX2                !
 ! A6    A(15,2,18)            113.9137         estimate D2E/DX2                !
 ! A7    A(2,3,4)              119.0773         estimate D2E/DX2                !
 ! A8    A(2,3,19)             108.9791         estimate D2E/DX2                !
 ! A9    A(4,3,19)             112.9652         estimate D2E/DX2                !
 ! A10   A(3,4,5)              121.7034         estimate D2E/DX2                !
 ! A11   A(3,4,7)              129.2142         estimate D2E/DX2                !
 ! A12   A(5,4,7)              109.036          estimate D2E/DX2                !
 ! A13   A(4,5,6)              108.703          estimate D2E/DX2                !
 ! A14   A(5,6,8)              107.5774         estimate D2E/DX2                !
 ! A15   A(4,7,8)              103.9198         estimate D2E/DX2                !
 ! A16   A(4,7,20)             132.6281         estimate D2E/DX2                !
 ! A17   A(8,7,20)             123.4433         estimate D2E/DX2                !
 ! A18   A(6,8,7)              110.751          estimate D2E/DX2                !
 ! A19   A(6,8,9)              120.7535         estimate D2E/DX2                !
 ! A20   A(7,8,9)              128.4938         estimate D2E/DX2                !
 ! A21   A(8,9,10)             119.5655         estimate D2E/DX2                !
 ! A22   A(8,9,14)             119.3403         estimate D2E/DX2                !
 ! A23   A(10,9,14)            121.0942         estimate D2E/DX2                !
 ! A24   A(9,10,11)            119.1571         estimate D2E/DX2                !
 ! A25   A(9,10,21)            120.3923         estimate D2E/DX2                !
 ! A26   A(11,10,21)           120.4464         estimate D2E/DX2                !
 ! A27   A(10,11,12)           120.3955         estimate D2E/DX2                !
 ! A28   A(10,11,22)           119.3408         estimate D2E/DX2                !
 ! A29   A(12,11,22)           120.2623         estimate D2E/DX2                !
 ! A30   A(11,12,13)           119.7471         estimate D2E/DX2                !
 ! A31   A(11,12,23)           120.1255         estimate D2E/DX2                !
 ! A32   A(13,12,23)           120.1272         estimate D2E/DX2                !
 ! A33   A(12,13,14)           120.5344         estimate D2E/DX2                !
 ! A34   A(12,13,24)           120.1038         estimate D2E/DX2                !
 ! A35   A(14,13,24)           119.3583         estimate D2E/DX2                !
 ! A36   A(9,14,13)            119.067          estimate D2E/DX2                !
 ! A37   A(9,14,25)            119.6797         estimate D2E/DX2                !
 ! A38   A(13,14,25)           121.2532         estimate D2E/DX2                !
 ! A39   A(2,15,16)            114.5646         estimate D2E/DX2                !
 ! A40   A(2,15,17)            114.486          estimate D2E/DX2                !
 ! A41   A(16,15,17)           113.7684         estimate D2E/DX2                !
 ! A42   A(15,16,26)           109.5504         estimate D2E/DX2                !
 ! A43   A(15,16,27)           107.0229         estimate D2E/DX2                !
 ! A44   A(15,16,28)           112.4922         estimate D2E/DX2                !
 ! A45   A(26,16,27)           109.1516         estimate D2E/DX2                !
 ! A46   A(26,16,28)           109.8113         estimate D2E/DX2                !
 ! A47   A(27,16,28)           108.725          estimate D2E/DX2                !
 ! A48   A(15,17,29)           109.4742         estimate D2E/DX2                !
 ! A49   A(15,17,30)           112.1087         estimate D2E/DX2                !
 ! A50   A(15,17,31)           107.3301         estimate D2E/DX2                !
 ! A51   A(29,17,30)           109.8067         estimate D2E/DX2                !
 ! A52   A(29,17,31)           108.8887         estimate D2E/DX2                !
 ! A53   A(30,17,31)           109.1532         estimate D2E/DX2                !
 ! D1    D(1,2,3,4)             32.5571         estimate D2E/DX2                !
 ! D2    D(1,2,3,19)           -98.9985         estimate D2E/DX2                !
 ! D3    D(15,2,3,4)           -79.711          estimate D2E/DX2                !
 ! D4    D(15,2,3,19)          148.7333         estimate D2E/DX2                !
 ! D5    D(18,2,3,4)           162.5793         estimate D2E/DX2                !
 ! D6    D(18,2,3,19)           31.0236         estimate D2E/DX2                !
 ! D7    D(1,2,15,16)           40.6567         estimate D2E/DX2                !
 ! D8    D(1,2,15,17)          174.6931         estimate D2E/DX2                !
 ! D9    D(3,2,15,16)          157.6376         estimate D2E/DX2                !
 ! D10   D(3,2,15,17)          -68.3261         estimate D2E/DX2                !
 ! D11   D(18,2,15,16)         -92.267          estimate D2E/DX2                !
 ! D12   D(18,2,15,17)          41.7694         estimate D2E/DX2                !
 ! D13   D(2,3,4,5)           -113.3824         estimate D2E/DX2                !
 ! D14   D(2,3,4,7)             69.3812         estimate D2E/DX2                !
 ! D15   D(19,3,4,5)            16.3943         estimate D2E/DX2                !
 ! D16   D(19,3,4,7)          -160.8422         estimate D2E/DX2                !
 ! D17   D(3,4,5,6)           -177.3116         estimate D2E/DX2                !
 ! D18   D(7,4,5,6)              0.4236         estimate D2E/DX2                !
 ! D19   D(3,4,7,8)            177.8092         estimate D2E/DX2                !
 ! D20   D(3,4,7,20)            -1.1052         estimate D2E/DX2                !
 ! D21   D(5,4,7,8)              0.2962         estimate D2E/DX2                !
 ! D22   D(5,4,7,20)          -178.6181         estimate D2E/DX2                !
 ! D23   D(4,5,6,8)             -0.9733         estimate D2E/DX2                !
 ! D24   D(5,6,8,7)              1.1995         estimate D2E/DX2                !
 ! D25   D(5,6,8,9)           -179.2465         estimate D2E/DX2                !
 ! D26   D(4,7,8,6)             -0.9044         estimate D2E/DX2                !
 ! D27   D(4,7,8,9)            179.5853         estimate D2E/DX2                !
 ! D28   D(20,7,8,6)           178.1384         estimate D2E/DX2                !
 ! D29   D(20,7,8,9)            -1.3719         estimate D2E/DX2                !
 ! D30   D(6,8,9,10)           156.2885         estimate D2E/DX2                !
 ! D31   D(6,8,9,14)           -23.7883         estimate D2E/DX2                !
 ! D32   D(7,8,9,10)           -24.2444         estimate D2E/DX2                !
 ! D33   D(7,8,9,14)           155.6789         estimate D2E/DX2                !
 ! D34   D(8,9,10,11)          179.5753         estimate D2E/DX2                !
 ! D35   D(8,9,10,21)           -1.1681         estimate D2E/DX2                !
 ! D36   D(14,9,10,11)          -0.3466         estimate D2E/DX2                !
 ! D37   D(14,9,10,21)         178.91           estimate D2E/DX2                !
 ! D38   D(8,9,14,13)          179.8082         estimate D2E/DX2                !
 ! D39   D(8,9,14,25)           -0.3464         estimate D2E/DX2                !
 ! D40   D(10,9,14,13)          -0.2697         estimate D2E/DX2                !
 ! D41   D(10,9,14,25)         179.5757         estimate D2E/DX2                !
 ! D42   D(9,10,11,12)           0.5437         estimate D2E/DX2                !
 ! D43   D(9,10,11,22)        -179.8826         estimate D2E/DX2                !
 ! D44   D(21,10,11,12)       -178.7125         estimate D2E/DX2                !
 ! D45   D(21,10,11,22)          0.8613         estimate D2E/DX2                !
 ! D46   D(10,11,12,13)         -0.1256         estimate D2E/DX2                !
 ! D47   D(10,11,12,23)        179.7117         estimate D2E/DX2                !
 ! D48   D(22,11,12,13)       -179.6954         estimate D2E/DX2                !
 ! D49   D(22,11,12,23)          0.1419         estimate D2E/DX2                !
 ! D50   D(11,12,13,14)         -0.5035         estimate D2E/DX2                !
 ! D51   D(11,12,13,24)       -179.8186         estimate D2E/DX2                !
 ! D52   D(23,12,13,14)        179.6592         estimate D2E/DX2                !
 ! D53   D(23,12,13,24)          0.3442         estimate D2E/DX2                !
 ! D54   D(12,13,14,9)           0.6958         estimate D2E/DX2                !
 ! D55   D(12,13,14,25)       -179.1471         estimate D2E/DX2                !
 ! D56   D(24,13,14,9)        -179.9841         estimate D2E/DX2                !
 ! D57   D(24,13,14,25)          0.173          estimate D2E/DX2                !
 ! D58   D(2,15,16,26)         -48.2259         estimate D2E/DX2                !
 ! D59   D(2,15,16,27)        -166.4431         estimate D2E/DX2                !
 ! D60   D(2,15,16,28)          74.2066         estimate D2E/DX2                !
 ! D61   D(17,15,16,26)        177.4073         estimate D2E/DX2                !
 ! D62   D(17,15,16,27)         59.1901         estimate D2E/DX2                !
 ! D63   D(17,15,16,28)        -60.1603         estimate D2E/DX2                !
 ! D64   D(2,15,17,29)          48.3416         estimate D2E/DX2                !
 ! D65   D(2,15,17,30)         -73.7708         estimate D2E/DX2                !
 ! D66   D(2,15,17,31)         166.3788         estimate D2E/DX2                !
 ! D67   D(16,15,17,29)       -177.2548         estimate D2E/DX2                !
 ! D68   D(16,15,17,30)         60.6327         estimate D2E/DX2                !
 ! D69   D(16,15,17,31)        -59.2176         estimate D2E/DX2                !
 --------------------------------------------------------------------------------
 Trust Radius=3.00D-01 FncErr=1.00D-07 GrdErr=1.00D-06 EigMax=2.50D+02 EigMin=1.00D-04
 Number of steps in this run=    164 maximum allowed number of steps=    186.
 GradGradGradGradGradGradGradGradGradGradGradGradGradGradGradGradGradGrad

 Leave Link  103 at Wed Sep 23 11:20:27 2020, MaxMem=  2147483648 cpu:               0.1 elap:               0.0
 (Enter /prod/apps/gaussian/g16b1/l202.exe)
                          Input orientation:                          
 ---------------------------------------------------------------------
 Center     Atomic      Atomic             Coordinates (Angstroms)
 Number     Number       Type             X           Y           Z
 ---------------------------------------------------------------------
      1          8           0       -2.493000   -0.269000   -1.744000
      2         16           0       -2.943000   -0.301000   -0.348000
      3          7           0       -1.888000   -1.168000    0.655000
      4          6           0       -0.511000   -1.159000    0.369000
      5          7           0        0.144000   -2.283000   -0.027000
      6          7           0        1.415000   -2.001000   -0.167000
      7          6           0        0.393000   -0.125000    0.472000
      8          7           0        1.576000   -0.689000    0.118000
      9          6           0        2.861000   -0.078000    0.037000
     10          6           0        2.957000    1.301000   -0.160000
     11          6           0        4.218000    1.891000   -0.229000
     12          6           0        5.370000    1.111000   -0.114000
     13          6           0        5.257000   -0.269000    0.074000
     14          6           0        4.005000   -0.871000    0.158000
     15          7           0       -2.697000    1.238000    0.265000
     16          6           0       -3.041000    2.329000   -0.663000
     17          6           0       -3.206000    1.439000    1.632000
     18          8           0       -4.268000   -0.859000   -0.043000
     19          1           0       -2.260000   -2.109000    0.794000
     20          1           0        0.292000    0.904000    0.768000
     21          1           0        2.062000    1.903000   -0.270000
     22          1           0        4.296000    2.962000   -0.380000
     23          1           0        6.349000    1.574000   -0.173000
     24          1           0        6.148000   -0.880000    0.167000
     25          1           0        3.904000   -1.936000    0.317000
     26          1           0       -2.595000    2.134000   -1.635000
     27          1           0       -2.615000    3.245000   -0.251000
     28          1           0       -4.124000    2.462000   -0.771000
     29          1           0       -2.872000    0.620000    2.268000
     30          1           0       -4.299000    1.508000    1.659000
     31          1           0       -2.779000    2.372000    2.004000
 ---------------------------------------------------------------------
                    Distance matrix (angstroms):
                    1          2          3          4          5
     1  O    0.000000
     2  S    1.467086   0.000000
     3  N    2.632380   1.694321   0.000000
     4  C    3.030708   2.676729   1.406416   0.000000
     5  N    3.736048   3.682517   2.416066   1.359859   0.000000
     6  N    4.556228   4.681338   3.504195   2.169271   1.309414
     7  C    3.641482   3.439807   2.514816   1.377309   2.228893
     8  N    4.494464   4.559502   3.537952   2.153943   2.147670
     9  C    5.645685   5.821028   4.911520   3.556567   3.499744
    10  C    5.888672   6.116514   5.498564   4.284678   4.558038
    11  C    7.210988   7.489923   6.886376   5.658935   5.836142
    12  C    8.147887   8.435311   7.646160   6.322369   6.232005
    13  C    7.960378   8.210914   7.224734   5.843710   5.496287
    14  C    6.797353   6.989681   5.921374   4.530091   4.115251
    15  N    2.519672   1.674756   2.568154   3.245770   4.533650
    16  C    2.866787   2.650609   3.910952   4.430809   5.640857
    17  C    3.850066   2.648994   3.080276   3.950671   5.275231
    18  O    2.528265   1.469699   2.499417   3.791410   4.636138
    19  H    3.143459   2.244887   1.021365   2.035221   2.546278
    20  H    3.929669   3.628044   3.009710   2.249440   3.287993
    21  H    5.257213   5.469344   5.088140   4.050246   4.610897
    22  H    7.641360   7.940486   7.507994   6.375805   6.698786
    23  H    9.167642   9.480903   8.720798   7.404232   7.307516
    24  H    8.870858   9.123966   8.055953   6.667903   6.168797
    25  H    6.924465   7.070846   5.852464   4.483153   3.791615
    26  H    2.407632   2.776094   4.080092   4.382114   5.440374
    27  H    3.819965   3.562458   4.563325   4.920003   6.182317
    28  H    3.326447   3.034445   4.495561   5.240707   6.425293
    29  H    4.126755   2.774300   2.601340   3.513597   4.773960
    30  H    4.242614   3.023122   3.739240   4.808943   6.079023
    31  H    4.593929   3.564229   3.891694   4.503888   5.859856
                    6          7          8          9         10
     6  N    0.000000
     7  C    2.229839   0.000000
     8  N    1.352217   1.357535   0.000000
     9  C    2.414635   2.506483   1.425169   0.000000
    10  C    3.644313   3.001166   2.438144   1.396304   0.000000
    11  C    4.796699   4.380215   3.709039   2.406069   1.393909
    12  C    5.032830   5.161552   4.205741   2.780576   2.420906
    13  C    4.221240   4.882380   3.705145   2.403886   2.794576
    14  C    2.844402   3.701575   2.436137   1.397221   2.432491
    15  N    5.252265   3.383595   4.689719   5.716223   5.670301
    16  C    6.233045   4.370663   5.570904   6.412274   6.106210
    17  C    6.035200   4.092004   5.448679   6.453976   6.419726
    18  O    5.797933   4.746462   5.848688   7.172099   7.541877
    19  H    3.800107   3.328415   4.145874   5.560814   6.305181
    20  H    3.251827   1.075480   2.146813   2.845777   2.849740
    21  H    3.958590   2.729269   2.665559   2.158011   1.084218
    22  H    5.742552   5.048652   4.579979   3.387435   2.144817
    23  H    6.093030   6.227083   5.290310   3.865145   3.402993
    24  H    4.875396   5.812321   4.576250   3.385923   3.878939
    25  H    2.536455   3.953589   2.648432   2.149049   3.406245
    26  H    5.944186   4.297752   5.332877   6.120169   5.804672
    27  H    6.615774   4.574680   5.759948   6.411852   5.902084
    28  H    7.138887   5.351720   6.573365   7.476275   7.201514
    29  H    5.583658   3.800114   5.110840   6.191272   6.351078
    30  H    6.949615   5.107888   6.458879   7.510784   7.483391
    31  H    6.436304   4.317825   5.647366   6.456097   6.223474
                   11         12         13         14         15
    11  C    0.000000
    12  C    1.395969   0.000000
    13  C    2.415974   1.397324   0.000000
    14  C    2.797102   2.421886   1.391749   0.000000
    15  N    6.963309   8.076897   8.097756   7.026815   0.000000
    16  C    7.285141   8.516446   8.726372   7.782041   1.473024
    17  C    7.667033   8.758075   8.773084   7.714097   1.472471
    18  O    8.922404   9.837529   9.543973   8.275450   2.638241
    19  H    7.681863   8.331252   7.772341   6.417738   3.416609
    20  H    4.169131   5.158183   5.148669   4.160420   3.049375
    21  H    2.156423   3.405064   3.878652   3.413724   4.834928
    22  H    1.084401   2.156486   3.401323   3.881496   7.231200
    23  H    2.155177   1.084569   2.156414   3.403222   9.062828
    24  H    3.400023   2.155998   1.084367   2.143038   9.095579
    25  H    3.878484   3.408684   2.160682   1.081530   7.324628
    26  H    6.960808   8.173200   8.387431   7.470266   2.103145
    27  H    6.965895   8.266375   8.626831   7.805968   2.073892
    28  H    8.379067   9.612122   9.806913   8.834737   2.146579
    29  H    7.623552   8.593344   8.466676   7.346313   2.103463
    30  H    8.732154   9.838226   9.848202   8.767500   2.140687
    31  H    7.360412   8.513651   8.676236   7.742572   2.077691
                   16         17         18         19         20
    16  C    0.000000
    17  C    2.467053   0.000000
    18  O    3.471782   3.035502   0.000000
    19  H    4.735890   3.766360   2.509010   0.000000
    20  H    3.897085   3.642626   4.955753   3.948614   0.000000
    21  H    5.135809   5.620029   6.910070   5.992322   2.282180
    22  H    7.369691   7.915029   9.383800   8.371049   4.645997
    23  H    9.433039   9.724931  10.892983   9.413525   6.166168
    24  H    9.768536   9.747887  10.418138   8.520448   6.151146
    25  H    8.208754   7.979471   8.250522   6.184849   4.616876
    26  H    1.087072   3.395532   3.780402   4.900542   3.952477
    27  H    1.090998   2.675183   4.429276   5.466568   3.869017
    28  H    1.096468   2.768332   3.402905   5.178587   4.929193
    29  H    3.397058   1.089409   3.078470   3.161433   3.513055
    30  H    2.765554   1.095509   2.915554   4.241278   4.715504
    31  H    2.680183   1.091422   4.104472   4.670420   3.621293
                   21         22         23         24         25
    21  H    0.000000
    22  H    2.474740   0.000000
    23  H    4.300700   2.486806   0.000000
    24  H    4.963009   4.300009   2.485582   0.000000
    25  H    4.298308   4.962850   4.305604   2.484587   0.000000
    26  H    4.858419   7.053119   9.079988   9.421860   7.912787
    27  H    4.865763   6.917995   9.118751   9.694355   8.346421
    28  H    6.231378   8.443890  10.527577  10.842638   9.218185
    29  H    5.694900   7.992315   9.586211   9.382143   7.500248
    30  H    6.658783   8.952411  10.804651  10.819816   8.997295
    31  H    5.369015   7.489138   9.417883   9.676849   8.128181
                   26         27         28         29         30
    26  H    0.000000
    27  H    1.774874   0.000000
    28  H    1.786595   1.777799   0.000000
    29  H    4.195514   3.647195   3.767756   0.000000
    30  H    3.761107   3.082389   2.616418   1.787667   0.000000
    31  H    3.651414   2.423644   3.085085   1.774218   1.782111
                   31
    31  H    0.000000
 Symmetry turned off by external request.
 Stoichiometry    C10H13N5O2S
 Framework group  C1[X(C10H13N5O2S)]
 Deg. of freedom    87
 Full point group                 C1      NOp   1
 Rotational constants (GHZ):           0.9025374           0.1860312           0.1664270
 Leave Link  202 at Wed Sep 23 11:20:27 2020, MaxMem=  2147483648 cpu:               0.1 elap:               0.0
 (Enter /prod/apps/gaussian/g16b1/l301.exe)
 Standard basis: 6-31G(d) (6D, 7F)
 Ernie: Thresh=  0.10000D-02 Tol=  0.10000D-05 Strict=F.
   300 basis functions,   580 primitive gaussians,   300 cartesian basis functions
    70 alpha electrons       70 beta electrons
       nuclear repulsion energy      1470.4601918637 Hartrees.
 IExCor=  402 DFT=T Ex+Corr=B3LYP ExCW=0 ScaHFX=  0.200000
 ScaDFX=  0.800000  0.720000  1.000000  0.810000 ScalE2=  1.000000  1.000000
 IRadAn=      5 IRanWt=     -1 IRanGd=            0 ICorTp=0 IEmpDi=  4
 NAtoms=   31 NActive=   31 NUniq=   31 SFac= 1.00D+00 NAtFMM=   60 NAOKFM=F Big=F
 Integral buffers will be    131072 words long.
 Raffenetti 2 integral format.
 Two-electron integral symmetry is turned off.
 Using the following non-standard input for PCM:
 MSTModel=DFT cav
 --- end of non-standard input.
 MST model for solvation energy: B3LYP parametrization.
 MST cavity parameters:
 ISph   IAn     Re0     Alpha   Atom Type   QCorr
 ------------------------------------------------
   1      8     1.40     1.25      O          F
   2     16     1.75     1.25      S          F
   3      7     1.50     1.25      NH         F
   4      6     1.50     1.25      C          F
   5      7     1.40     1.25      N          F
   6      7     1.40     1.25      N          F
   7      6     1.50     1.25      CH         F
   8      7     1.40     1.25      N          F
   9      6     1.50     1.25      C          F
  10      6     1.50     1.25      CH         F
  11      6     1.50     1.25      CH         F
  12      6     1.50     1.25      CH         F
  13      6     1.50     1.25      CH         F
  14      6     1.50     1.25      CH         F
  15      7     1.40     1.25      N          F
  16      6     1.50     1.25      CH3        F
  17      6     1.50     1.25      CH3        F
  18      8     1.40     1.25      O          F
  19      1     0.90     1.25      NH         F
  20      1     1.20     1.25      CH         F
  21      1     1.20     1.25      CH         F
  22      1     1.20     1.25      CH         F
  23      1     1.20     1.25      CH         F
  24      1     1.20     1.25      CH         F
  25      1     1.20     1.25      CH         F
  26      1     1.20     1.25      CH3        F
  27      1     1.20     1.25      CH3        F
  28      1     1.20     1.25      CH3        F
  29      1     1.20     1.25      CH3        F
  30      1     1.20     1.25      CH3        F
  31      1     1.20     1.25      CH3        F
 ------------------------------------------------------------------------------
 Polarizable Continuum Model (PCM)
 =================================
 Model                : PCM.
 Atomic radii         : MST.
 Polarization charges : Total charges.
 Charge compensation  : None.
 Solution method      : On-the-fly selection.
 Cavity type          : Scaled VdW (van der Waals Surface) (Alpha=1.250).
 Cavity algorithm     : GePol (No added spheres)
                        Default sphere list used, NSphG=   31.
                        Lebedev-Laikov grids with approx.  5.0 points / Ang**2.
                        Smoothing algorithm: York/Karplus (Gamma=1.0000).
                        Polarization charges: spherical gaussians, with
                                              point-specific exponents (IZeta= 3).
                        Self-potential: point-specific (ISelfS= 7).
                        Self-field    : sphere-specific E.n sum rule (ISelfD= 2).
 1st derivatives      : Analytical E(r).r(x)/FMM algorithm (CHGder, D1EAlg=3).
                        Cavity 1st derivative terms included.
 Solvent              : Water, Eps=  78.355300 Eps(inf)=   1.777849
 ------------------------------------------------------------------------------
 GePol: Number of generator spheres                  =      31
 GePol: Total number of spheres                      =      31
 GePol: Number of exposed spheres                    =      31 (100.00%)
 GePol: Number of points                             =    2382
 GePol: Average weight of points                     =       0.13
 GePol: Minimum weight of points                     =   0.76D-09
 GePol: Maximum weight of points                     =    0.22001
 GePol: Number of points with low weight             =     146
 GePol: Fraction of low-weight points (<1% of avg)   =       6.13%
 GePol: Cavity surface area                          =    309.048 Ang**2
 GePol: Cavity volume                                =    291.785 Ang**3
 PCM non-electrostatic energy =         0.0034575638 Hartrees.
 Nuclear repulsion after PCM non-electrostatic terms =     1470.4636494274 Hartrees.
 Leave Link  301 at Wed Sep 23 11:20:27 2020, MaxMem=  2147483648 cpu:               0.4 elap:               0.1
 (Enter /prod/apps/gaussian/g16b1/l302.exe)
 NPDir=0 NMtPBC=     1 NCelOv=     1 NCel=       1 NClECP=     1 NCelD=      1
         NCelK=      1 NCelE2=     1 NClLst=     1 CellRange=     0.0.
 One-electron integrals computed using PRISM.
 NBasis=   300 RedAO= T EigKep=  4.67D-04  NBF=   300
 NBsUse=   300 1.00D-06 EigRej= -1.00D+00 NBFU=   300
 Precomputing XC quadrature grid using
 IXCGrd= 4 IRadAn=           5 IRanWt=          -1 IRanGd=           0 AccXCQ= 0.00D+00.
 Generated NRdTot=       0 NPtTot=           0 NUsed=           0 NTot=          32
 NSgBfM=   299   299   299   299   299 MxSgAt=    31 MxSgA2=    31.
 Leave Link  302 at Wed Sep 23 11:20:28 2020, MaxMem=  2147483648 cpu:               1.5 elap:               0.4
 (Enter /prod/apps/gaussian/g16b1/l303.exe)
 DipDrv:  MaxL=1.
 Leave Link  303 at Wed Sep 23 11:20:28 2020, MaxMem=  2147483648 cpu:               0.2 elap:               0.1
 (Enter /prod/apps/gaussian/g16b1/l401.exe)
 ExpMin= 1.17D-01 ExpMax= 2.19D+04 ExpMxC= 3.30D+03 IAcc=3 IRadAn=         5 AccDes= 0.00D+00
 Harris functional with IExCor=  402 and IRadAn=       5 diagonalized for initial guess.
 HarFok:  IExCor=  402 AccDes= 0.00D+00 IRadAn=         5 IDoV= 1 UseB2=F ITyADJ=14
 ICtDFT=  3500011 ScaDFX=  1.000000  1.000000  1.000000  1.000000
 FoFCou: FMM=F IPFlag=           0 FMFlag=      100000 FMFlg1=           0
         NFxFlg=           0 DoJE=T BraDBF=F KetDBF=T FulRan=T
         wScrn=  0.000000 ICntrl=       500 IOpCl=  0 I1Cent=   200000004 NGrid=           0
         NMat0=    1 NMatS0=      1 NMatT0=    0 NMatD0=    1 NMtDS0=    0 NMtDT0=    0
 Symmetry not used in FoFCou.
 Harris En= -1211.16143248155    
 JPrj=0 DoOrth=F DoCkMO=F.
 Leave Link  401 at Wed Sep 23 11:20:30 2020, MaxMem=  2147483648 cpu:               8.5 elap:               2.2
 (Enter /prod/apps/gaussian/g16b1/l502.exe)
 Keep R1 ints in memory in canonical form, NReq=1032920423.
 FoFCou: FMM=F IPFlag=           0 FMFlag=           0 FMFlg1=           0
         NFxFlg=           0 DoJE=F BraDBF=F KetDBF=F FulRan=T
         wScrn=  0.000000 ICntrl=       600 IOpCl=  0 I1Cent=           0 NGrid=           0
         NMat0=    1 NMatS0=  45150 NMatT0=    0 NMatD0=    1 NMtDS0=    0 NMtDT0=    0
 Symmetry not used in FoFCou.
 Two-electron integral symmetry not used.
 Closed shell SCF:
 Using DIIS extrapolation, IDIIS=  1040.
 NGot=  2147483648 LenX=  1128015396 LenY=  1127924955
 Requested convergence on RMS density matrix=1.00D-08 within2000 cycles.
 Requested convergence on MAX density matrix=1.00D-06.
 Requested convergence on             energy=1.00D-06.
 No special actions if energy rises.

 Cycle   1  Pass 1  IDiag  1:
 Inv3:  Mode=1 IEnd=    17021772.
 Iteration    1 A*A^-1 deviation from unit magnitude is 3.55D-15 for    588.
 Iteration    1 A*A^-1 deviation from orthogonality  is 2.39D-15 for   1857     39.
 Iteration    1 A^-1*A deviation from unit magnitude is 3.11D-15 for    549.
 Iteration    1 A^-1*A deviation from orthogonality  is 6.18D-14 for   1868   1857.
 E= -1210.65283117480    
 DIIS: error= 3.11D-02 at cycle   1 NSaved=   1.
 NSaved= 1 IEnMin= 1 EnMin= -1210.65283117480     IErMin= 1 ErrMin= 3.11D-02
 ErrMax= 3.11D-02  0.00D+00 EMaxC= 1.00D-01 BMatC= 6.22D-01 BMatP= 6.22D-01
 IDIUse=3 WtCom= 6.89D-01 WtEn= 3.11D-01
 Coeff-Com:  0.100D+01
 Coeff-En:   0.100D+01
 Coeff:      0.100D+01
 Gap=     0.282 Goal=   None    Shift=    0.000
 GapD=    0.282 DampG=1.000 DampE=0.500 DampFc=0.5000 IDamp=-1.
 Damping current iteration by 5.00D-01
 RMSDP=6.19D-03 MaxDP=5.87D-01              OVMax= 2.25D-01

 Cycle   2  Pass 1  IDiag  1:
 E= -1210.79898976701     Delta-E=       -0.146158592207 Rises=F Damp=T
 DIIS: error= 1.29D-02 at cycle   2 NSaved=   2.
 NSaved= 2 IEnMin= 2 EnMin= -1210.79898976701     IErMin= 2 ErrMin= 1.29D-02
 ErrMax= 1.29D-02  0.00D+00 EMaxC= 1.00D-01 BMatC= 8.86D-02 BMatP= 6.22D-01
 IDIUse=3 WtCom= 8.71D-01 WtEn= 1.29D-01
 Coeff-Com:  0.217D+00 0.783D+00
 Coeff-En:   0.347D+00 0.653D+00
 Coeff:      0.234D+00 0.766D+00
 Gap=     0.218 Goal=   None    Shift=    0.000
 RMSDP=1.68D-03 MaxDP=1.25D-01 DE=-1.46D-01 OVMax= 1.68D-01

 Cycle   3  Pass 1  IDiag  1:
 E= -1211.15257688538     Delta-E=       -0.353587118366 Rises=F Damp=F
 DIIS: error= 7.37D-03 at cycle   3 NSaved=   3.
 NSaved= 3 IEnMin= 3 EnMin= -1211.15257688538     IErMin= 3 ErrMin= 7.37D-03
 ErrMax= 7.37D-03  0.00D+00 EMaxC= 1.00D-01 BMatC= 4.12D-02 BMatP= 8.86D-02
 IDIUse=3 WtCom= 9.26D-01 WtEn= 7.37D-02
 Coeff-Com:  0.635D-01 0.407D+00 0.530D+00
 Coeff-En:   0.000D+00 0.000D+00 0.100D+01
 Coeff:      0.588D-01 0.377D+00 0.565D+00
 Gap=     0.198 Goal=   None    Shift=    0.000
 RMSDP=8.89D-04 MaxDP=3.19D-02 DE=-3.54D-01 OVMax= 3.97D-02

 Cycle   4  Pass 1  IDiag  1:
 E= -1211.18269246812     Delta-E=       -0.030115582745 Rises=F Damp=F
 DIIS: error= 3.34D-03 at cycle   4 NSaved=   4.
 NSaved= 4 IEnMin= 4 EnMin= -1211.18269246812     IErMin= 4 ErrMin= 3.34D-03
 ErrMax= 3.34D-03  0.00D+00 EMaxC= 1.00D-01 BMatC= 7.03D-03 BMatP= 4.12D-02
 IDIUse=3 WtCom= 9.67D-01 WtEn= 3.34D-02
 Coeff-Com:  0.316D-02 0.918D-01 0.311D+00 0.594D+00
 Coeff-En:   0.000D+00 0.000D+00 0.135D+00 0.865D+00
 Coeff:      0.305D-02 0.887D-01 0.305D+00 0.603D+00
 Gap=     0.195 Goal=   None    Shift=    0.000
 RMSDP=3.09D-04 MaxDP=1.40D-02 DE=-3.01D-02 OVMax= 1.64D-02

 Cycle   5  Pass 1  IDiag  1:
 E= -1211.18825088260     Delta-E=       -0.005558414481 Rises=F Damp=F
 DIIS: error= 7.21D-04 at cycle   5 NSaved=   5.
 NSaved= 5 IEnMin= 5 EnMin= -1211.18825088260     IErMin= 5 ErrMin= 7.21D-04
 ErrMax= 7.21D-04  0.00D+00 EMaxC= 1.00D-01 BMatC= 5.32D-04 BMatP= 7.03D-03
 IDIUse=3 WtCom= 9.93D-01 WtEn= 7.21D-03
 Coeff-Com: -0.316D-02 0.183D-01 0.114D+00 0.312D+00 0.559D+00
 Coeff-En:   0.000D+00 0.000D+00 0.000D+00 0.000D+00 0.100D+01
 Coeff:     -0.314D-02 0.182D-01 0.113D+00 0.310D+00 0.562D+00
 Gap=     0.196 Goal=   None    Shift=    0.000
 RMSDP=8.86D-05 MaxDP=4.43D-03 DE=-5.56D-03 OVMax= 5.74D-03

 Cycle   6  Pass 1  IDiag  1:
 E= -1211.18869142316     Delta-E=       -0.000440540562 Rises=F Damp=F
 DIIS: error= 1.91D-04 at cycle   6 NSaved=   6.
 NSaved= 6 IEnMin= 6 EnMin= -1211.18869142316     IErMin= 6 ErrMin= 1.91D-04
 ErrMax= 1.91D-04  0.00D+00 EMaxC= 1.00D-01 BMatC= 3.17D-05 BMatP= 5.32D-04
 IDIUse=3 WtCom= 9.98D-01 WtEn= 1.91D-03
 Coeff-Com: -0.186D-02 0.349D-02 0.354D-01 0.113D+00 0.280D+00 0.570D+00
 Coeff-En:   0.000D+00 0.000D+00 0.000D+00 0.000D+00 0.000D+00 0.100D+01
 Coeff:     -0.186D-02 0.349D-02 0.353D-01 0.113D+00 0.279D+00 0.571D+00
 Gap=     0.196 Goal=   None    Shift=    0.000
 RMSDP=2.14D-05 MaxDP=1.05D-03 DE=-4.41D-04 OVMax= 1.81D-03

 Cycle   7  Pass 1  IDiag  1:
 E= -1211.18871700759     Delta-E=       -0.000025584430 Rises=F Damp=F
 DIIS: error= 7.82D-05 at cycle   7 NSaved=   7.
 NSaved= 7 IEnMin= 7 EnMin= -1211.18871700759     IErMin= 7 ErrMin= 7.82D-05
 ErrMax= 7.82D-05  0.00D+00 EMaxC= 1.00D-01 BMatC= 3.71D-06 BMatP= 3.17D-05
 IDIUse=1 WtCom= 1.00D+00 WtEn= 0.00D+00
 Coeff-Com: -0.871D-03 0.467D-03 0.111D-01 0.398D-01 0.116D+00 0.325D+00
 Coeff-Com:  0.508D+00
 Coeff:     -0.871D-03 0.467D-03 0.111D-01 0.398D-01 0.116D+00 0.325D+00
 Coeff:      0.508D+00
 Gap=     0.196 Goal=   None    Shift=    0.000
 RMSDP=7.33D-06 MaxDP=5.14D-04 DE=-2.56D-05 OVMax= 5.92D-04

 Cycle   8  Pass 1  IDiag  1:
 E= -1211.18872018857     Delta-E=       -0.000003180978 Rises=F Damp=F
 DIIS: error= 2.45D-05 at cycle   8 NSaved=   8.
 NSaved= 8 IEnMin= 8 EnMin= -1211.18872018857     IErMin= 8 ErrMin= 2.45D-05
 ErrMax= 2.45D-05  0.00D+00 EMaxC= 1.00D-01 BMatC= 3.64D-07 BMatP= 3.71D-06
 IDIUse=1 WtCom= 1.00D+00 WtEn= 0.00D+00
 Coeff-Com: -0.266D-03-0.954D-04 0.198D-02 0.860D-02 0.323D-01 0.116D+00
 Coeff-Com:  0.282D+00 0.560D+00
 Coeff:     -0.266D-03-0.954D-04 0.198D-02 0.860D-02 0.323D-01 0.116D+00
 Coeff:      0.282D+00 0.560D+00
 Gap=     0.196 Goal=   None    Shift=    0.000
 RMSDP=2.18D-06 MaxDP=1.83D-04 DE=-3.18D-06 OVMax= 1.56D-04

 Cycle   9  Pass 1  IDiag  1:
 E= -1211.18872047143     Delta-E=       -0.000000282859 Rises=F Damp=F
 DIIS: error= 7.79D-06 at cycle   9 NSaved=   9.
 NSaved= 9 IEnMin= 9 EnMin= -1211.18872047143     IErMin= 9 ErrMin= 7.79D-06
 ErrMax= 7.79D-06  0.00D+00 EMaxC= 1.00D-01 BMatC= 4.11D-08 BMatP= 3.64D-07
 IDIUse=1 WtCom= 1.00D+00 WtEn= 0.00D+00
 Coeff-Com: -0.269D-04-0.113D-03-0.432D-03-0.821D-03 0.145D-02 0.167D-01
 Coeff-Com:  0.776D-01 0.302D+00 0.604D+00
 Coeff:     -0.269D-04-0.113D-03-0.432D-03-0.821D-03 0.145D-02 0.167D-01
 Coeff:      0.776D-01 0.302D+00 0.604D+00
 Gap=     0.196 Goal=   None    Shift=    0.000
 RMSDP=6.45D-07 MaxDP=3.60D-05 DE=-2.83D-07 OVMax= 3.64D-05

 Cycle  10  Pass 1  IDiag  1:
 E= -1211.18872050241     Delta-E=       -0.000000030976 Rises=F Damp=F
 DIIS: error= 1.93D-06 at cycle  10 NSaved=  10.
 NSaved=10 IEnMin=10 EnMin= -1211.18872050241     IErMin=10 ErrMin= 1.93D-06
 ErrMax= 1.93D-06  0.00D+00 EMaxC= 1.00D-01 BMatC= 2.97D-09 BMatP= 4.11D-08
 IDIUse=1 WtCom= 1.00D+00 WtEn= 0.00D+00
 Coeff-Com: -0.351D-06-0.510D-04-0.345D-03-0.943D-03-0.113D-02 0.208D-02
 Coeff-Com:  0.249D-01 0.132D+00 0.315D+00 0.528D+00
 Coeff:     -0.351D-06-0.510D-04-0.345D-03-0.943D-03-0.113D-02 0.208D-02
 Coeff:      0.249D-01 0.132D+00 0.315D+00 0.528D+00
 Gap=     0.196 Goal=   None    Shift=    0.000
 RMSDP=2.17D-07 MaxDP=1.44D-05 DE=-3.10D-08 OVMax= 1.47D-05

 Cycle  11  Pass 1  IDiag  1:
 E= -1211.18872050484     Delta-E=       -0.000000002431 Rises=F Damp=F
 DIIS: error= 5.89D-07 at cycle  11 NSaved=  11.
 NSaved=11 IEnMin=11 EnMin= -1211.18872050484     IErMin=11 ErrMin= 5.89D-07
 ErrMax= 5.89D-07  0.00D+00 EMaxC= 1.00D-01 BMatC= 2.77D-10 BMatP= 2.97D-09
 IDIUse=1 WtCom= 1.00D+00 WtEn= 0.00D+00
 Coeff-Com:  0.267D-05-0.833D-05-0.110D-03-0.336D-03-0.731D-03-0.125D-02
 Coeff-Com:  0.163D-02 0.251D-01 0.636D-01 0.256D+00 0.656D+00
 Coeff:      0.267D-05-0.833D-05-0.110D-03-0.336D-03-0.731D-03-0.125D-02
 Coeff:      0.163D-02 0.251D-01 0.636D-01 0.256D+00 0.656D+00
 Gap=     0.196 Goal=   None    Shift=    0.000
 RMSDP=7.00D-08 MaxDP=3.32D-06 DE=-2.43D-09 OVMax= 6.76D-06

 Cycle  12  Pass 1  IDiag  1:
 E= -1211.18872050504     Delta-E=       -0.000000000206 Rises=F Damp=F
 DIIS: error= 3.47D-07 at cycle  12 NSaved=  12.
 NSaved=12 IEnMin=12 EnMin= -1211.18872050504     IErMin=12 ErrMin= 3.47D-07
 ErrMax= 3.47D-07  0.00D+00 EMaxC= 1.00D-01 BMatC= 6.65D-11 BMatP= 2.77D-10
 IDIUse=1 WtCom= 1.00D+00 WtEn= 0.00D+00
 Coeff-Com:  0.197D-05-0.305D-06-0.435D-04-0.142D-03-0.399D-03-0.103D-02
 Coeff-Com: -0.119D-02 0.484D-02 0.118D-01 0.117D+00 0.416D+00 0.453D+00
 Coeff:      0.197D-05-0.305D-06-0.435D-04-0.142D-03-0.399D-03-0.103D-02
 Coeff:     -0.119D-02 0.484D-02 0.118D-01 0.117D+00 0.416D+00 0.453D+00
 Gap=     0.196 Goal=   None    Shift=    0.000
 RMSDP=2.66D-08 MaxDP=1.89D-06 DE=-2.06D-10 OVMax= 2.25D-06

 Cycle  13  Pass 1  IDiag  1:
 E= -1211.18872050509     Delta-E=       -0.000000000046 Rises=F Damp=F
 DIIS: error= 7.54D-08 at cycle  13 NSaved=  13.
 NSaved=13 IEnMin=13 EnMin= -1211.18872050509     IErMin=13 ErrMin= 7.54D-08
 ErrMax= 7.54D-08  0.00D+00 EMaxC= 1.00D-01 BMatC= 2.34D-12 BMatP= 6.65D-11
 IDIUse=1 WtCom= 1.00D+00 WtEn= 0.00D+00
 Coeff-Com:  0.475D-06 0.807D-06-0.364D-05-0.127D-04-0.760D-04-0.309D-03
 Coeff-Com: -0.905D-03-0.184D-02-0.595D-02 0.144D-01 0.878D-01 0.181D+00
 Coeff-Com:  0.726D+00
 Coeff:      0.475D-06 0.807D-06-0.364D-05-0.127D-04-0.760D-04-0.309D-03
 Coeff:     -0.905D-03-0.184D-02-0.595D-02 0.144D-01 0.878D-01 0.181D+00
 Coeff:      0.726D+00
 Gap=     0.196 Goal=   None    Shift=    0.000
 RMSDP=7.05D-09 MaxDP=3.48D-07 DE=-4.59D-11 OVMax= 6.33D-07

 Error on total polarization charges =  0.02079
 SCF Done:  E(RB3LYP) =  -1211.18872051     A.U. after   13 cycles
            NFock= 13  Conv=0.71D-08     -V/T= 2.0076
 KE= 1.202082909685D+03 PE=-5.777546741138D+03 EE= 1.893811461521D+03
 Leave Link  502 at Wed Sep 23 11:21:36 2020, MaxMem=  2147483648 cpu:             208.4 elap:              65.7
 (Enter /prod/apps/gaussian/g16b1/l601.exe)
 Copying SCF densities to generalized density rwf, IOpCl= 0 IROHF=0.

 **********************************************************************

            Population analysis using the SCF Density.

 **********************************************************************

 Alpha  occ. eigenvalues --  -89.14200 -19.16123 -19.15994 -14.44695 -14.40419
 Alpha  occ. eigenvalues --  -14.38643 -14.38232 -14.37146 -10.26461 -10.25123
 Alpha  occ. eigenvalues --  -10.24277 -10.21995 -10.21993 -10.20665 -10.20389
 Alpha  occ. eigenvalues --  -10.20183 -10.20115 -10.19888  -8.16470  -6.12956
 Alpha  occ. eigenvalues --   -6.12891  -6.12848  -1.13485  -1.11390  -1.01710
 Alpha  occ. eigenvalues --   -0.96276  -0.94614  -0.92755  -0.86094  -0.81146
 Alpha  occ. eigenvalues --   -0.76476  -0.75940  -0.72722  -0.71738  -0.66615
 Alpha  occ. eigenvalues --   -0.65400  -0.61457  -0.60439  -0.59361  -0.56626
 Alpha  occ. eigenvalues --   -0.54174  -0.52260  -0.51592  -0.49757  -0.49179
 Alpha  occ. eigenvalues --   -0.48706  -0.47706  -0.46290  -0.45344  -0.44952
 Alpha  occ. eigenvalues --   -0.44168  -0.43343  -0.41788  -0.40795  -0.39066
 Alpha  occ. eigenvalues --   -0.38762  -0.37393  -0.37257  -0.36008  -0.35798
 Alpha  occ. eigenvalues --   -0.34881  -0.34765  -0.33060  -0.32128  -0.31114
 Alpha  occ. eigenvalues --   -0.29362  -0.26904  -0.26473  -0.25883  -0.24066
 Alpha virt. eigenvalues --   -0.04495  -0.01451   0.01320   0.02335   0.06019
 Alpha virt. eigenvalues --    0.07235   0.09033   0.09221   0.09370   0.11219
 Alpha virt. eigenvalues --    0.12350   0.13511   0.14143   0.15025   0.15306
 Alpha virt. eigenvalues --    0.15800   0.16271   0.16800   0.17943   0.18511
 Alpha virt. eigenvalues --    0.18707   0.18983   0.19481   0.20279   0.21821
 Alpha virt. eigenvalues --    0.22352   0.23249   0.25739   0.29395   0.30354
 Alpha virt. eigenvalues --    0.31014   0.33375   0.33571   0.35337   0.36501
 Alpha virt. eigenvalues --    0.38257   0.41909   0.43001   0.44197   0.47634
 Alpha virt. eigenvalues --    0.48729   0.49033   0.49709   0.50813   0.52534
 Alpha virt. eigenvalues --    0.53656   0.55082   0.56667   0.56998   0.57351
 Alpha virt. eigenvalues --    0.57951   0.58303   0.58796   0.59018   0.60411
 Alpha virt. eigenvalues --    0.60542   0.60927   0.61949   0.62634   0.63893
 Alpha virt. eigenvalues --    0.64552   0.66235   0.67253   0.68204   0.69088
 Alpha virt. eigenvalues --    0.70183   0.71545   0.73887   0.75120   0.76421
 Alpha virt. eigenvalues --    0.76905   0.78228   0.78633   0.79404   0.80353
 Alpha virt. eigenvalues --    0.81131   0.83292   0.83785   0.84073   0.84832
 Alpha virt. eigenvalues --    0.85709   0.86229   0.86912   0.88665   0.89224
 Alpha virt. eigenvalues --    0.90098   0.90495   0.90975   0.93056   0.93478
 Alpha virt. eigenvalues --    0.94189   0.94686   0.95697   0.96773   0.97282
 Alpha virt. eigenvalues --    0.98096   0.99666   1.01400   1.02400   1.02950
 Alpha virt. eigenvalues --    1.05385   1.05893   1.06836   1.08643   1.11226
 Alpha virt. eigenvalues --    1.11479   1.14616   1.15536   1.16127   1.17111
 Alpha virt. eigenvalues --    1.17860   1.19425   1.20963   1.24387   1.24671
 Alpha virt. eigenvalues --    1.25726   1.30125   1.33327   1.35214   1.36064
 Alpha virt. eigenvalues --    1.37117   1.40199   1.41073   1.41964   1.43780
 Alpha virt. eigenvalues --    1.44278   1.46069   1.46823   1.47983   1.49829
 Alpha virt. eigenvalues --    1.52639   1.53510   1.55445   1.56867   1.59355
 Alpha virt. eigenvalues --    1.62048   1.66193   1.68377   1.70530   1.74876
 Alpha virt. eigenvalues --    1.77940   1.79087   1.79539   1.80367   1.80783
 Alpha virt. eigenvalues --    1.81790   1.83308   1.83946   1.86000   1.87844
 Alpha virt. eigenvalues --    1.89670   1.91038   1.93329   1.94293   1.96261
 Alpha virt. eigenvalues --    1.96704   1.97400   1.98554   2.01112   2.05139
 Alpha virt. eigenvalues --    2.05302   2.06706   2.07164   2.09151   2.10535
 Alpha virt. eigenvalues --    2.11235   2.12947   2.13451   2.14574   2.14977
 Alpha virt. eigenvalues --    2.16488   2.18898   2.19923   2.20210   2.23863
 Alpha virt. eigenvalues --    2.24765   2.26308   2.27759   2.29416   2.30225
 Alpha virt. eigenvalues --    2.31818   2.32360   2.35770   2.36920   2.41431
 Alpha virt. eigenvalues --    2.42353   2.47734   2.48629   2.50351   2.54025
 Alpha virt. eigenvalues --    2.55414   2.58033   2.58486   2.61076   2.63544
 Alpha virt. eigenvalues --    2.64276   2.66991   2.69256   2.70085   2.71810
 Alpha virt. eigenvalues --    2.74183   2.74760   2.76122   2.79691   2.81430
 Alpha virt. eigenvalues --    2.85374   2.88177   2.99645   3.06371   3.13421
 Alpha virt. eigenvalues --    3.25516   3.42210   3.60970   3.79557   3.92525
 Alpha virt. eigenvalues --    3.93160   4.01129   4.02867   4.07597   4.08831
 Alpha virt. eigenvalues --    4.10508   4.13378   4.16492   4.23668   4.25257
 Alpha virt. eigenvalues --    4.31681   4.33437   4.39271   4.47246   4.70960
          Condensed to atoms (all electrons):
               1          2          3          4          5          6
     1  O    8.260175   0.442906  -0.057583   0.009293  -0.000423  -0.000001
     2  S    0.442906  13.567203   0.142393  -0.000925  -0.003068   0.000188
     3  N   -0.057583   0.142393   7.379771   0.248905  -0.066371   0.006433
     4  C    0.009293  -0.000925   0.248905   4.613496   0.393724  -0.087228
     5  N   -0.000423  -0.003068  -0.066371   0.393724   6.895521   0.300036
     6  N   -0.000001   0.000188   0.006433  -0.087228   0.300036   6.770681
     7  C   -0.000831  -0.003071  -0.057408   0.512088  -0.067925  -0.098093
     8  N   -0.000056  -0.000181   0.002570  -0.036271  -0.098551   0.238780
     9  C   -0.000000  -0.000023  -0.000103   0.004735   0.007149  -0.044564
    10  C   -0.000000  -0.000000   0.000003   0.000903  -0.000348   0.003041
    11  C   -0.000000  -0.000000   0.000000  -0.000009   0.000002  -0.000067
    12  C    0.000000   0.000000  -0.000000   0.000000  -0.000000   0.000017
    13  C   -0.000000  -0.000000  -0.000000   0.000006  -0.000004   0.000300
    14  C    0.000000   0.000000   0.000000  -0.000463   0.000365  -0.000484
    15  N   -0.054915   0.160871  -0.048653  -0.006847   0.000107   0.000001
    16  C   -0.003663  -0.029314   0.002130   0.000054   0.000002  -0.000000
    17  C    0.001527  -0.010042  -0.009063   0.000050  -0.000010   0.000000
    18  O   -0.045129   0.444224  -0.054814   0.001129   0.000010   0.000000
    19  H   -0.000355  -0.013509   0.298811  -0.026338   0.004483  -0.000056
    20  H   -0.000048   0.000566  -0.000723  -0.027166   0.004231   0.003471
    21  H   -0.000000   0.000000  -0.000001   0.000042  -0.000007  -0.000086
    22  H   -0.000000  -0.000000   0.000000  -0.000000  -0.000000   0.000001
    23  H    0.000000  -0.000000  -0.000000  -0.000000   0.000000   0.000000
    24  H   -0.000000  -0.000000   0.000000  -0.000000   0.000000  -0.000008
    25  H    0.000000  -0.000000  -0.000000   0.000025  -0.000312   0.016165
    26  H    0.011084  -0.004361   0.000110   0.000004  -0.000000   0.000000
    27  H    0.000255   0.002097  -0.000081   0.000009  -0.000000   0.000000
    28  H   -0.000502  -0.002726  -0.000081  -0.000008   0.000000   0.000000
    29  H    0.000031  -0.002921   0.012111  -0.000075   0.000001  -0.000000
    30  H   -0.000041  -0.007296  -0.000174  -0.000018   0.000000  -0.000000
    31  H   -0.000050   0.002790  -0.000012  -0.000015  -0.000000   0.000000
               7          8          9         10         11         12
     1  O   -0.000831  -0.000056  -0.000000  -0.000000  -0.000000   0.000000
     2  S   -0.003071  -0.000181  -0.000023  -0.000000  -0.000000   0.000000
     3  N   -0.057408   0.002570  -0.000103   0.000003   0.000000  -0.000000
     4  C    0.512088  -0.036271   0.004735   0.000903  -0.000009   0.000000
     5  N   -0.067925  -0.098551   0.007149  -0.000348   0.000002  -0.000000
     6  N   -0.098093   0.238780  -0.044564   0.003041  -0.000067   0.000017
     7  C    4.981912   0.336035  -0.033831  -0.006785   0.000022   0.000018
     8  N    0.336035   6.864663   0.202537  -0.050337   0.004660   0.000331
     9  C   -0.033831   0.202537   4.625904   0.528186  -0.009695  -0.038337
    10  C   -0.006785  -0.050337   0.528186   4.993918   0.526386  -0.040918
    11  C    0.000022   0.004660  -0.009695   0.526386   4.865438   0.543373
    12  C    0.000018   0.000331  -0.038337  -0.040918   0.543373   4.872890
    13  C   -0.000082   0.004540  -0.010619  -0.042198  -0.024744   0.538623
    14  C    0.007288  -0.059279   0.512755  -0.071297  -0.041422  -0.039326
    15  N    0.005035   0.000101   0.000003  -0.000001  -0.000000   0.000000
    16  C   -0.000040  -0.000001   0.000000  -0.000000   0.000000   0.000000
    17  C    0.000094  -0.000004  -0.000000   0.000000   0.000000  -0.000000
    18  O   -0.000029  -0.000000  -0.000000  -0.000000  -0.000000   0.000000
    19  H    0.004174   0.000072  -0.000002   0.000000  -0.000000  -0.000000
    20  H    0.361469  -0.033819  -0.001682   0.002017   0.000164  -0.000001
    21  H    0.005877  -0.009211  -0.039287   0.354244  -0.035003   0.004289
    22  H   -0.000004  -0.000108   0.003424  -0.037688   0.363665  -0.039661
    23  H   -0.000000   0.000003   0.000473   0.004872  -0.041333   0.365949
    24  H    0.000001  -0.000103   0.003558   0.000706   0.004478  -0.040186
    25  H    0.000226  -0.013576  -0.039673   0.005500   0.000083   0.004530
    26  H   -0.000036  -0.000001   0.000000  -0.000000  -0.000000   0.000000
    27  H   -0.000009  -0.000001  -0.000000  -0.000000   0.000000   0.000000
    28  H    0.000008   0.000000   0.000000   0.000000  -0.000000  -0.000000
    29  H   -0.000013   0.000000  -0.000000   0.000000   0.000000   0.000000
    30  H    0.000016   0.000000   0.000000  -0.000000  -0.000000   0.000000
    31  H   -0.000020  -0.000000  -0.000000   0.000000   0.000000  -0.000000
              13         14         15         16         17         18
     1  O   -0.000000   0.000000  -0.054915  -0.003663   0.001527  -0.045129
     2  S   -0.000000   0.000000   0.160871  -0.029314  -0.010042   0.444224
     3  N   -0.000000   0.000000  -0.048653   0.002130  -0.009063  -0.054814
     4  C    0.000006  -0.000463  -0.006847   0.000054   0.000050   0.001129
     5  N   -0.000004   0.000365   0.000107   0.000002  -0.000010   0.000010
     6  N    0.000300  -0.000484   0.000001  -0.000000   0.000000   0.000000
     7  C   -0.000082   0.007288   0.005035  -0.000040   0.000094  -0.000029
     8  N    0.004540  -0.059279   0.000101  -0.000001  -0.000004  -0.000000
     9  C   -0.010619   0.512755   0.000003   0.000000  -0.000000  -0.000000
    10  C   -0.042198  -0.071297  -0.000001  -0.000000   0.000000  -0.000000
    11  C   -0.024744  -0.041422  -0.000000   0.000000   0.000000  -0.000000
    12  C    0.538623  -0.039326   0.000000   0.000000  -0.000000   0.000000
    13  C    4.880034   0.519766  -0.000000  -0.000000   0.000000   0.000000
    14  C    0.519766   4.997290   0.000000   0.000000  -0.000000   0.000000
    15  N   -0.000000   0.000000   7.197002   0.285473   0.264948  -0.055114
    16  C   -0.000000   0.000000   0.285473   4.989695  -0.048505  -0.001970
    17  C    0.000000  -0.000000   0.264948  -0.048505   4.994289   0.002709
    18  O    0.000000   0.000000  -0.055114  -0.001970   0.002709   8.266948
    19  H    0.000000  -0.000000   0.002082  -0.000041  -0.000134   0.003520
    20  H   -0.000005  -0.000091   0.004126   0.000023  -0.000030   0.000003
    21  H    0.000207   0.005231  -0.000005   0.000004  -0.000000  -0.000000
    22  H    0.004432   0.000727   0.000000  -0.000000   0.000000   0.000000
    23  H   -0.041432   0.004669   0.000000   0.000000  -0.000000  -0.000000
    24  H    0.364084  -0.037959  -0.000000  -0.000000   0.000000   0.000000
    25  H   -0.038210   0.356952   0.000000   0.000000  -0.000000  -0.000000
    26  H   -0.000000   0.000000  -0.031770   0.377049   0.004412  -0.000104
    27  H    0.000000  -0.000000  -0.037458   0.380923  -0.002715  -0.000100
    28  H   -0.000000   0.000000  -0.046548   0.374359  -0.001897   0.001923
    29  H    0.000000   0.000000  -0.032694   0.004469   0.375911  -0.001740
    30  H   -0.000000   0.000000  -0.045566  -0.001788   0.376479   0.004913
    31  H    0.000000  -0.000000  -0.033360  -0.003753   0.377436   0.000053
              19         20         21         22         23         24
     1  O   -0.000355  -0.000048  -0.000000  -0.000000   0.000000  -0.000000
     2  S   -0.013509   0.000566   0.000000  -0.000000  -0.000000  -0.000000
     3  N    0.298811  -0.000723  -0.000001   0.000000  -0.000000   0.000000
     4  C   -0.026338  -0.027166   0.000042  -0.000000  -0.000000  -0.000000
     5  N    0.004483   0.004231  -0.000007  -0.000000   0.000000   0.000000
     6  N   -0.000056   0.003471  -0.000086   0.000001   0.000000  -0.000008
     7  C    0.004174   0.361469   0.005877  -0.000004  -0.000000   0.000001
     8  N    0.000072  -0.033819  -0.009211  -0.000108   0.000003  -0.000103
     9  C   -0.000002  -0.001682  -0.039287   0.003424   0.000473   0.003558
    10  C    0.000000   0.002017   0.354244  -0.037688   0.004872   0.000706
    11  C   -0.000000   0.000164  -0.035003   0.363665  -0.041333   0.004478
    12  C   -0.000000  -0.000001   0.004289  -0.039661   0.365949  -0.040186
    13  C    0.000000  -0.000005   0.000207   0.004432  -0.041432   0.364084
    14  C   -0.000000  -0.000091   0.005231   0.000727   0.004669  -0.037959
    15  N    0.002082   0.004126  -0.000005   0.000000   0.000000  -0.000000
    16  C   -0.000041   0.000023   0.000004  -0.000000   0.000000  -0.000000
    17  C   -0.000134  -0.000030  -0.000000   0.000000  -0.000000   0.000000
    18  O    0.003520   0.000003  -0.000000   0.000000  -0.000000   0.000000
    19  H    0.307608  -0.000074  -0.000000   0.000000  -0.000000  -0.000000
    20  H   -0.000074   0.460542   0.001497  -0.000001  -0.000000   0.000000
    21  H   -0.000000   0.001497   0.541589  -0.005107  -0.000144   0.000013
    22  H    0.000000  -0.000001  -0.005107   0.551171  -0.005066  -0.000164
    23  H   -0.000000  -0.000000  -0.000144  -0.005066   0.557251  -0.005094
    24  H   -0.000000   0.000000   0.000013  -0.000164  -0.005094   0.552213
    25  H   -0.000000  -0.000010  -0.000128   0.000013  -0.000134  -0.005181
    26  H   -0.000004  -0.000028   0.000001  -0.000000   0.000000   0.000000
    27  H    0.000001  -0.000073   0.000001  -0.000000  -0.000000  -0.000000
    28  H    0.000006   0.000009  -0.000000   0.000000  -0.000000   0.000000
    29  H   -0.000320   0.000011   0.000000   0.000000   0.000000  -0.000000
    30  H    0.000049   0.000016  -0.000000   0.000000   0.000000  -0.000000
    31  H   -0.000000  -0.000032   0.000000   0.000000  -0.000000   0.000000
              25         26         27         28         29         30
     1  O    0.000000   0.011084   0.000255  -0.000502   0.000031  -0.000041
     2  S   -0.000000  -0.004361   0.002097  -0.002726  -0.002921  -0.007296
     3  N   -0.000000   0.000110  -0.000081  -0.000081   0.012111  -0.000174
     4  C    0.000025   0.000004   0.000009  -0.000008  -0.000075  -0.000018
     5  N   -0.000312  -0.000000  -0.000000   0.000000   0.000001   0.000000
     6  N    0.016165   0.000000   0.000000   0.000000  -0.000000  -0.000000
     7  C    0.000226  -0.000036  -0.000009   0.000008  -0.000013   0.000016
     8  N   -0.013576  -0.000001  -0.000001   0.000000   0.000000   0.000000
     9  C   -0.039673   0.000000  -0.000000   0.000000  -0.000000   0.000000
    10  C    0.005500  -0.000000  -0.000000   0.000000   0.000000  -0.000000
    11  C    0.000083  -0.000000   0.000000  -0.000000   0.000000  -0.000000
    12  C    0.004530   0.000000   0.000000  -0.000000   0.000000   0.000000
    13  C   -0.038210  -0.000000   0.000000  -0.000000   0.000000  -0.000000
    14  C    0.356952   0.000000  -0.000000   0.000000   0.000000   0.000000
    15  N    0.000000  -0.031770  -0.037458  -0.046548  -0.032694  -0.045566
    16  C    0.000000   0.377049   0.380923   0.374359   0.004469  -0.001788
    17  C   -0.000000   0.004412  -0.002715  -0.001897   0.375911   0.376479
    18  O   -0.000000  -0.000104  -0.000100   0.001923  -0.001740   0.004913
    19  H   -0.000000  -0.000004   0.000001   0.000006  -0.000320   0.000049
    20  H   -0.000010  -0.000028  -0.000073   0.000009   0.000011   0.000016
    21  H   -0.000128   0.000001   0.000001  -0.000000   0.000000  -0.000000
    22  H    0.000013  -0.000000  -0.000000   0.000000   0.000000   0.000000
    23  H   -0.000134   0.000000  -0.000000  -0.000000   0.000000   0.000000
    24  H   -0.005181   0.000000  -0.000000   0.000000  -0.000000  -0.000000
    25  H    0.539432  -0.000000  -0.000000  -0.000000   0.000000   0.000000
    26  H   -0.000000   0.496786  -0.020384  -0.030212  -0.000190  -0.000164
    27  H   -0.000000  -0.020384   0.523561  -0.038314   0.000067  -0.001711
    28  H   -0.000000  -0.030212  -0.038314   0.564338  -0.000182   0.007866
    29  H    0.000000  -0.000190   0.000067  -0.000182   0.503080  -0.030344
    30  H    0.000000  -0.000164  -0.001711   0.007866  -0.030344   0.557184
    31  H    0.000000   0.000012   0.004840  -0.001285  -0.022045  -0.034074
              31
     1  O   -0.000050
     2  S    0.002790
     3  N   -0.000012
     4  C   -0.000015
     5  N   -0.000000
     6  N    0.000000
     7  C   -0.000020
     8  N   -0.000000
     9  C   -0.000000
    10  C    0.000000
    11  C    0.000000
    12  C   -0.000000
    13  C    0.000000
    14  C   -0.000000
    15  N   -0.033360
    16  C   -0.003753
    17  C    0.377436
    18  O    0.000053
    19  H   -0.000000
    20  H   -0.000032
    21  H    0.000000
    22  H    0.000000
    23  H   -0.000000
    24  H    0.000000
    25  H    0.000000
    26  H    0.000012
    27  H    0.004840
    28  H   -0.001285
    29  H   -0.022045
    30  H   -0.034074
    31  H    0.520367
 Mulliken charges:
               1
     1  O   -0.561674
     2  S    1.314197
     3  N   -0.798171
     4  C    0.400900
     5  N   -0.368614
     6  N   -0.108528
     7  C    0.053915
     8  N   -0.352796
     9  C    0.329086
    10  C   -0.170203
    11  C   -0.155999
    12  C   -0.131592
    13  C   -0.154697
    14  C   -0.154726
    15  N   -0.526819
    16  C   -0.325105
    17  C   -0.325456
    18  O   -0.566433
    19  H    0.420027
    20  H    0.225635
    21  H    0.175982
    22  H    0.164368
    23  H    0.159987
    24  H    0.163642
    25  H    0.174298
    26  H    0.197798
    27  H    0.189091
    28  H    0.173245
    29  H    0.194842
    30  H    0.174653
    31  H    0.189148
 Sum of Mulliken charges =  -0.00000
 Mulliken charges with hydrogens summed into heavy atoms:
               1
     1  O   -0.561674
     2  S    1.314197
     3  N   -0.378144
     4  C    0.400900
     5  N   -0.368614
     6  N   -0.108528
     7  C    0.279550
     8  N   -0.352796
     9  C    0.329086
    10  C    0.005779
    11  C    0.008369
    12  C    0.028395
    13  C    0.008945
    14  C    0.019572
    15  N   -0.526819
    16  C    0.235028
    17  C    0.233187
    18  O   -0.566433
 Electronic spatial extent (au):  <R**2>=           6335.2494
 Charge=             -0.0000 electrons
 Dipole moment (field-independent basis, Debye):
    X=              3.7494    Y=              7.6605    Z=              4.4176  Tot=              9.6050
 Quadrupole moment (field-independent basis, Debye-Ang):
   XX=           -103.6840   YY=           -105.2001   ZZ=           -115.5801
   XY=             -5.2298   XZ=             -8.3320   YZ=             -3.9245
 Traceless Quadrupole moment (field-independent basis, Debye-Ang):
   XX=              4.4707   YY=              2.9546   ZZ=             -7.4253
   XY=             -5.2298   XZ=             -8.3320   YZ=             -3.9245
 Octapole moment (field-independent basis, Debye-Ang**2):
  XXX=            145.9927  YYY=             47.4900  ZZZ=             10.1331  XYY=            -27.3615
  XXY=             58.9844  XXZ=             24.2092  XZZ=            -22.6612  YZZ=              4.2986
  YYZ=              6.6701  XYZ=             -2.6817
 Hexadecapole moment (field-independent basis, Debye-Ang**3):
 XXXX=          -6248.9013 YYYY=          -1246.4665 ZZZZ=           -425.8171 XXXY=           -132.1690
 XXXZ=            -53.4042 YYYX=             41.3543 YYYZ=            -24.3663 ZZZX=            -24.9302
 ZZZY=              2.3022 XXYY=          -1162.7313 XXZZ=          -1247.9288 YYZZ=           -271.8773
 XXYZ=            -35.7351 YYXZ=            -11.6968 ZZXY=            -23.5273
 N-N= 1.470463649427D+03 E-N=-5.777546733466D+03  KE= 1.202082909685D+03
 No NMR shielding tensors so no spin-rotation constants.
 Leave Link  601 at Wed Sep 23 11:21:36 2020, MaxMem=  2147483648 cpu:               0.4 elap:               0.1
 (Enter /prod/apps/gaussian/g16b1/l701.exe)
 ... and contract with generalized density number  0.
 Compute integral first derivatives.
 D1PCM: PCM CHGder 1st derivatives, ID1Alg=3 FixD1E=F DoIter=F DoCFld=F I1PDM=0.
 GePol: Maximum number of non-zero 1st derivatives   =     174
 Leave Link  701 at Wed Sep 23 11:21:38 2020, MaxMem=  2147483648 cpu:               8.8 elap:               2.2
 (Enter /prod/apps/gaussian/g16b1/l702.exe)
 L702 exits ... SP integral derivatives will be done elsewhere.
 Leave Link  702 at Wed Sep 23 11:21:38 2020, MaxMem=  2147483648 cpu:               0.1 elap:               0.0
 (Enter /prod/apps/gaussian/g16b1/l703.exe)
 Integral derivatives from FoFJK, PRISM(SPDF).
 Compute integral first derivatives, UseDBF=F ICtDFT=           0.
 Calling FoFJK, ICntrl=      2127 FMM=F ISym2X=0 I1Cent= 0 IOpClX= 0 NMat=1 NMatS=1 NMatT=0.
 FoFJK:  IHMeth= 1 ICntrl=    2127 DoSepK=F KAlg= 0 I1Cent=           0 FoldK=F
 IRaf=         0 NMat=       1 IRICut=       1 DoRegI=T DoRafI=F ISym2E= 0 IDoP0=0 IntGTp=1.
 FoFCou: FMM=F IPFlag=           0 FMFlag=      100000 FMFlg1=         800
         NFxFlg=           0 DoJE=F BraDBF=F KetDBF=F FulRan=T
         wScrn=  0.000000 ICntrl=      2127 IOpCl=  0 I1Cent=           0 NGrid=           0
         NMat0=    1 NMatS0=      1 NMatT0=    0 NMatD0=    1 NMtDS0=    0 NMtDT0=    0
 Symmetry not used in FoFCou.
 Leave Link  703 at Wed Sep 23 11:21:52 2020, MaxMem=  2147483648 cpu:              56.9 elap:              14.2
 (Enter /prod/apps/gaussian/g16b1/l716.exe)
 Dipole        = 1.47511086D+00 3.01386583D+00 1.73799870D+00
 -------------------------------------------------------------------
 Center     Atomic                   Forces (Hartrees/Bohr)
 Number     Number              X              Y              Z
 -------------------------------------------------------------------
      1        8          -0.000262965   -0.000027055    0.000211182
      2       16           0.001104567    0.000035212    0.000020947
      3        7          -0.000221434    0.000219657    0.000269982
      4        6          -0.000695947   -0.000194071    0.000005738
      5        7           0.000858848   -0.000121445    0.000027212
      6        7          -0.000283219   -0.000348824   -0.000371747
      7        6           0.000504310    0.000909673   -0.000037623
      8        7           0.000046115   -0.000262279    0.000141199
      9        6           0.000014255    0.000506117    0.000000466
     10        6          -0.000545000   -0.000076925   -0.000004576
     11        6           0.000367151    0.000271377    0.000258236
     12        6          -0.000306273   -0.000265824   -0.000270006
     13        6           0.001770001    0.001042494    0.000046979
     14        6          -0.001328117   -0.000360257   -0.000081878
     15        7          -0.000239018   -0.000465661   -0.000072911
     16        6          -0.000252259    0.001045661   -0.000201749
     17        6           0.000076071    0.000227282    0.000587929
     18        8          -0.000593469   -0.000011475   -0.000007140
     19        1          -0.000340415   -0.000349492   -0.000246651
     20        1          -0.000096111   -0.000170103    0.000053350
     21        1           0.000457927   -0.000415951    0.000034136
     22        1          -0.000078636   -0.000010979   -0.000069767
     23        1          -0.000099701   -0.000044725    0.000063647
     24        1           0.000021262   -0.000103480   -0.000014588
     25        1          -0.000090508   -0.000359628    0.000089005
     26        1           0.000226366   -0.000261903   -0.000412768
     27        1           0.000169612    0.000114179    0.000091940
     28        1           0.000016317   -0.000183966   -0.000052161
     29        1           0.000005469   -0.000116048   -0.000039843
     30        1          -0.000252679   -0.000126987    0.000104328
     31        1           0.000047482   -0.000094572   -0.000122871
 -------------------------------------------------------------------
 Cartesian Forces:  Max     0.001770001 RMS     0.000403475
 Leave Link  716 at Wed Sep 23 11:21:52 2020, MaxMem=  2147483648 cpu:               0.1 elap:               0.1
 (Enter /prod/apps/gaussian/g16b1/l103.exe)

 GradGradGradGradGradGradGradGradGradGradGradGradGradGradGradGradGradGrad
 Berny optimization.
 FormGI is forming the generalized inverse of G from B-inverse, IUseBI=4.
 Internal  Forces:  Max     0.001674884 RMS     0.000255387
 Search for a local minimum.
 Step number   1 out of a maximum of  164
 All quantities printed in internal units (Hartrees-Bohrs-Radians)
 RMS Force = .25539D-03 SwitMx=.10000D-02 MixMth= 2
 Mixed Optimization -- En-DIIS/RFO-DIIS
 Second derivative matrix not updated -- first step.
 ITU=  0
     Eigenvalues ---    0.00726   0.00733   0.01359   0.01371   0.01607
     Eigenvalues ---    0.01630   0.01839   0.01901   0.02044   0.02131
     Eigenvalues ---    0.02133   0.02147   0.02150   0.02150   0.02157
     Eigenvalues ---    0.02159   0.02160   0.02162   0.02173   0.02308
     Eigenvalues ---    0.02336   0.02833   0.07158   0.07207   0.07737
     Eigenvalues ---    0.07751   0.10846   0.11190   0.12304   0.13189
     Eigenvalues ---    0.15995   0.15999   0.15999   0.16000   0.16000
     Eigenvalues ---    0.16000   0.16000   0.16000   0.16000   0.16000
     Eigenvalues ---    0.16000   0.16000   0.18184   0.19034   0.19317
     Eigenvalues ---    0.22000   0.22000   0.23023   0.23493   0.23790
     Eigenvalues ---    0.24976   0.24997   0.24999   0.25000   0.25000
     Eigenvalues ---    0.34076   0.34184   0.34649   0.34698   0.34881
     Eigenvalues ---    0.35153   0.35381   0.35446   0.35448   0.35468
     Eigenvalues ---    0.35472   0.35489   0.35810   0.36546   0.36583
     Eigenvalues ---    0.39109   0.41691   0.42035   0.42259   0.44121
     Eigenvalues ---    0.44574   0.45907   0.46141   0.46179   0.46403
     Eigenvalues ---    0.46864   0.47767   0.52721   0.53631   0.62154
     Eigenvalues ---    0.87655   0.88698
 RFO step:  Lambda=-5.11022598D-05 EMin= 7.25807047D-03
 Linear search not attempted -- first point.
 Iteration  1 RMS(Cart)=  0.01591685 RMS(Int)=  0.00004044
 Iteration  2 RMS(Cart)=  0.00010132 RMS(Int)=  0.00000211
 Iteration  3 RMS(Cart)=  0.00000000 RMS(Int)=  0.00000211
 ITry= 1 IFail=0 DXMaxC= 7.15D-02 DCOld= 1.00D+10 DXMaxT= 3.00D-01 DXLimC= 3.00D+00 Rises=F
 Variable       Old X    -DE/DX   Delta X   Delta X   Delta X     New X
                                 (Linear)    (Quad)   (Total)
    R1        2.77239  -0.00029   0.00000  -0.00033  -0.00033   2.77206
    R2        3.20180  -0.00001   0.00000  -0.00003  -0.00003   3.20177
    R3        3.16483   0.00003   0.00000   0.00008   0.00008   3.16490
    R4        2.77733   0.00054   0.00000   0.00062   0.00062   2.77795
    R5        2.65774   0.00053   0.00000   0.00120   0.00120   2.65894
    R6        1.93010   0.00041   0.00000   0.00093   0.00093   1.93103
    R7        2.56976   0.00058   0.00000   0.00112   0.00112   2.57088
    R8        2.60274   0.00066   0.00000   0.00139   0.00139   2.60413
    R9        2.47443  -0.00014   0.00000  -0.00026  -0.00026   2.47418
   R10        2.55532   0.00029   0.00000   0.00047   0.00047   2.55579
   R11        2.56537   0.00021   0.00000   0.00040   0.00040   2.56577
   R12        2.03236  -0.00014   0.00000  -0.00037  -0.00037   2.03199
   R13        2.69318   0.00025   0.00000   0.00059   0.00059   2.69377
   R14        2.63863  -0.00031   0.00000  -0.00073  -0.00073   2.63790
   R15        2.64036   0.00007   0.00000   0.00021   0.00021   2.64058
   R16        2.63411   0.00022   0.00000   0.00035   0.00035   2.63446
   R17        2.04888  -0.00061   0.00000  -0.00172  -0.00172   2.04715
   R18        2.63800  -0.00007   0.00000  -0.00021  -0.00021   2.63779
   R19        2.04922  -0.00000   0.00000  -0.00001  -0.00001   2.04921
   R20        2.64056  -0.00023   0.00000  -0.00044  -0.00044   2.64011
   R21        2.04954  -0.00011   0.00000  -0.00032  -0.00032   2.04922
[...]
 Alpha virt. eigenvalues --    2.31284   2.32105   2.33025   2.33260   2.34715
 Alpha virt. eigenvalues --    2.35096   2.36593   2.37045   2.38190   2.38955
 Alpha virt. eigenvalues --    2.39633   2.40484   2.42242   2.42552   2.44115
 Alpha virt. eigenvalues --    2.45000   2.46317   2.47131   2.48192   2.49920
 Alpha virt. eigenvalues --    2.50466   2.51577   2.54689   2.55694   2.56583
 Alpha virt. eigenvalues --    2.57469   2.58633   2.60384   2.62220   2.63438
 Alpha virt. eigenvalues --    2.63457   2.67504   2.67951   2.69592   2.71229
 Alpha virt. eigenvalues --    2.72700   2.73547   2.75191   2.76749   2.78915
 Alpha virt. eigenvalues --    2.80902   2.81815   2.82932   2.85016   2.86287
 Alpha virt. eigenvalues --    2.87353   2.88584   2.89264   2.90797   2.91478
 Alpha virt. eigenvalues --    2.91806   2.95041   2.96376   2.96938   2.97332
 Alpha virt. eigenvalues --    2.98882   3.02856   3.03574   3.04191   3.05013
 Alpha virt. eigenvalues --    3.07538   3.09212   3.11630   3.13372   3.13672
 Alpha virt. eigenvalues --    3.14846   3.16283   3.17685   3.20130   3.22117
 Alpha virt. eigenvalues --    3.24534   3.26932   3.31846   3.34772   3.35195
 Alpha virt. eigenvalues --    3.38001   3.40603   3.43346   3.46766   3.54941
 Alpha virt. eigenvalues --    3.57347   3.59418   3.64943   3.68185   3.73818
 Alpha virt. eigenvalues --    3.74944   3.76914   3.77717   3.79357   3.82247
 Alpha virt. eigenvalues --    3.83317   3.85163   3.85828   3.87832   3.94143
 Alpha virt. eigenvalues --    3.95953   4.03893   4.26331   4.39114   4.88984
          Condensed to atoms (all electrons):
               1          2          3          4          5          6
     1  O    9.113075  -0.250897   0.098915   0.091899  -0.009773   0.005456
     2  S   -0.250897  14.814690   0.099883  -1.354783   0.108247  -0.040740
     3  N    0.098915   0.099883   8.459408  -1.776434   0.233325  -0.084563
     4  C    0.091899  -1.354783  -1.776434  15.866765  -2.054805   1.148472
     5  N   -0.009773   0.108247   0.233325  -2.054805   8.882575  -0.667629
     6  N    0.005456  -0.040740  -0.084563   1.148472  -0.667629   8.813789
     7  C   -0.024607   0.415445   0.742010  -7.035765   1.643140  -1.490382
     8  N   -0.004130   0.074848   0.038627  -0.258750  -0.182175  -0.322426
     9  C    0.004442  -0.005318   0.036996   0.722234  -0.224021  -0.151921
    10  C   -0.007393   0.046997   0.045979  -0.617564   0.125962  -0.130540
    11  C   -0.000804   0.017369   0.014492  -0.076483   0.020543  -0.022536
    12  C   -0.000162  -0.000502   0.002006  -0.046709   0.003327   0.020768
    13  C    0.000202  -0.002484  -0.013137   0.171926  -0.013604   0.005146
    14  C    0.001536  -0.030197  -0.027209   0.142817  -0.015211   0.460687
    15  N    0.102705  -0.599503  -0.265641   0.868264  -0.105449   0.046909
    16  C    0.031741  -0.111278  -0.078908   0.078541  -0.010679   0.009388
    17  C    0.014307  -0.235597  -0.038701   0.189122  -0.017214   0.001518
    18  O    0.007174  -0.332423  -0.052220   0.048979   0.000414  -0.002863
    19  H   -0.011069  -0.107477   0.359458   0.352516  -0.146625  -0.007186
    20  H    0.001297   0.144415   0.117857  -0.899711   0.016553  -0.147199
    21  H   -0.000567  -0.012164  -0.011740   0.092382  -0.006549  -0.023312
    22  H    0.000011   0.001000   0.000238   0.001221  -0.000574   0.000813
    23  H   -0.000005  -0.000068   0.000015  -0.000785   0.000339   0.001976
    24  H    0.000001   0.000071  -0.000135   0.001848   0.000302  -0.002608
    25  H    0.000047  -0.000783   0.002632  -0.019222   0.000805  -0.006768
    26  H   -0.037638   0.131192  -0.011806  -0.020460  -0.001156   0.000847
    27  H    0.001755   0.031248  -0.011652  -0.014298   0.000329   0.000017
    28  H    0.012360  -0.093759   0.011643   0.004805   0.000012  -0.000118
    29  H    0.005700  -0.037010   0.080730  -0.129692   0.005264  -0.001416
    30  H   -0.000281   0.020516  -0.033848   0.018288   0.000430  -0.000209
    31  H   -0.001973  -0.004443  -0.005349   0.030020  -0.003710   0.001350
               7          8          9         10         11         12
     1  O   -0.024607  -0.004130   0.004442  -0.007393  -0.000804  -0.000162
     2  S    0.415445   0.074848  -0.005318   0.046997   0.017369  -0.000502
     3  N    0.742010   0.038627   0.036996   0.045979   0.014492   0.002006
     4  C   -7.035765  -0.258750   0.722234  -0.617564  -0.076483  -0.046709
     5  N    1.643140  -0.182175  -0.224021   0.125962   0.020543   0.003327
     6  N   -1.490382  -0.322426  -0.151921  -0.130540  -0.022536   0.020768
     7  C   13.333956  -0.055074  -2.359984   0.769692  -0.124697   0.019807
     8  N   -0.055074   9.416570  -0.773160   0.531466  -0.309391   0.291008
     9  C   -2.359984  -0.773160  14.933330  -5.627789   2.868306  -3.659365
    10  C    0.769692   0.531466  -5.627789  12.965656  -4.124441   3.112682
    11  C   -0.124697  -0.309391   2.868306  -4.124441  11.270960  -3.222704
    12  C    0.019807   0.291008  -3.659365   3.112682  -3.222704   9.172699
    13  C   -0.014869  -0.204935   2.804360  -3.369218   3.132615  -3.060057
    14  C   -0.314062  -0.175936  -5.133123   2.348303  -3.585830   3.165034
    15  N   -0.446731  -0.020080   0.003163  -0.065390  -0.018496  -0.001567
    16  C   -0.075467   0.000139  -0.021075  -0.007448  -0.006714   0.000167
    17  C   -0.121355   0.002466   0.018697  -0.015595  -0.004476  -0.001394
    18  O    0.006927  -0.002180   0.000122  -0.001345  -0.000259   0.000011
    19  H   -0.220851  -0.008562   0.008251  -0.007361   0.000216  -0.000356
    20  H    0.141429   0.122888   0.038245   0.116799   0.120635   0.014239
    21  H   -0.032527  -0.206052   0.907264  -0.972025   0.078013  -0.197606
    22  H    0.007879   0.003103  -0.135020   0.700064  -0.812656   0.307982
    23  H   -0.003162  -0.002622   0.105111  -0.155170   0.349794  -0.631836
    24  H   -0.001764  -0.006678  -0.105451   0.121338  -0.214192   0.297618
    25  H   -0.029532  -0.220868   0.813771  -0.114151   0.126423  -0.189028
    26  H    0.012053  -0.000178  -0.000548  -0.001125  -0.001323  -0.000826
    27  H    0.003301  -0.000573  -0.004649   0.000548   0.000154   0.000502
    28  H   -0.001334   0.000508   0.000217   0.000736   0.000330   0.000223
    29  H    0.102469  -0.000470   0.001479   0.000999  -0.000633  -0.000042
    30  H   -0.022420  -0.001212  -0.002526   0.000477   0.000257  -0.000026
    31  H   -0.009021   0.002592   0.007178  -0.002000  -0.000607  -0.000243
              13         14         15         16         17         18
     1  O    0.000202   0.001536   0.102705   0.031741   0.014307   0.007174
     2  S   -0.002484  -0.030197  -0.599503  -0.111278  -0.235597  -0.332423
     3  N   -0.013137  -0.027209  -0.265641  -0.078908  -0.038701  -0.052220
     4  C    0.171926   0.142817   0.868264   0.078541   0.189122   0.048979
     5  N   -0.013604  -0.015211  -0.105449  -0.010679  -0.017214   0.000414
     6  N    0.005146   0.460687   0.046909   0.009388   0.001518  -0.002863
     7  C   -0.014869  -0.314062  -0.446731  -0.075467  -0.121355   0.006927
     8  N   -0.204935  -0.175936  -0.020080   0.000139   0.002466  -0.002180
     9  C    2.804360  -5.133123   0.003163  -0.021075   0.018697   0.000122
    10  C   -3.369218   2.348303  -0.065390  -0.007448  -0.015595  -0.001345
    11  C    3.132615  -3.585830  -0.018496  -0.006714  -0.004476  -0.000259
    12  C   -3.060057   3.165034  -0.001567   0.000167  -0.001394   0.000011
    13  C   10.167644  -4.062636   0.003980  -0.000696   0.001463   0.000018
    14  C   -4.062636  13.356436   0.040007   0.005802   0.004701   0.000746
    15  N    0.003980   0.040007   8.664723   0.020491   0.285462   0.189007
    16  C   -0.000696   0.005802   0.020491   4.407386  -0.121981   0.004014
    17  C    0.001463   0.004701   0.285462  -0.121981   4.391514   0.041908
    18  O    0.000018   0.000746   0.189007   0.004014   0.041908   9.212903
    19  H    0.000822   0.001799   0.059440   0.006229   0.003623   0.018485
    20  H   -0.037805  -0.175326  -0.211124  -0.004254  -0.049090   0.000009
    21  H    0.147065  -0.125908   0.011056  -0.011562   0.004606   0.000365
    22  H   -0.240184   0.118970  -0.000437   0.000318   0.000157  -0.000021
    23  H    0.396752  -0.111324   0.000036  -0.000013  -0.000025   0.000001
    24  H   -0.717481   0.582979  -0.000027  -0.000032   0.000032  -0.000001
    25  H    0.350741  -1.006719   0.000478  -0.000041  -0.000223   0.000036
    26  H    0.000428   0.000733  -0.108453   0.449222  -0.077810  -0.008590
    27  H   -0.000381   0.000407  -0.297039   0.428341   0.038649  -0.006070
    28  H   -0.000136  -0.000185   0.110396   0.220169   0.058175   0.017696
    29  H    0.000103   0.000649  -0.059556  -0.109640   0.349020   0.048272
    30  H    0.000018  -0.000139  -0.002283   0.103301   0.225564  -0.020506
    31  H    0.000331   0.000244  -0.126882   0.033989   0.337238  -0.001156
              19         20         21         22         23         24
     1  O   -0.011069   0.001297  -0.000567   0.000011  -0.000005   0.000001
     2  S   -0.107477   0.144415  -0.012164   0.001000  -0.000068   0.000071
     3  N    0.359458   0.117857  -0.011740   0.000238   0.000015  -0.000135
     4  C    0.352516  -0.899711   0.092382   0.001221  -0.000785   0.001848
     5  N   -0.146625   0.016553  -0.006549  -0.000574   0.000339   0.000302
     6  N   -0.007186  -0.147199  -0.023312   0.000813   0.001976  -0.002608
     7  C   -0.220851   0.141429  -0.032527   0.007879  -0.003162  -0.001764
     8  N   -0.008562   0.122888  -0.206052   0.003103  -0.002622  -0.006678
     9  C    0.008251   0.038245   0.907264  -0.135020   0.105111  -0.105451
    10  C   -0.007361   0.116799  -0.972025   0.700064  -0.155170   0.121338
    11  C    0.000216   0.120635   0.078013  -0.812656   0.349794  -0.214192
    12  C   -0.000356   0.014239  -0.197606   0.307982  -0.631836   0.297618
    13  C    0.000822  -0.037805   0.147065  -0.240184   0.396752  -0.717481
    14  C    0.001799  -0.175326  -0.125908   0.118970  -0.111324   0.582979
    15  N    0.059440  -0.211124   0.011056  -0.000437   0.000036  -0.000027
    16  C    0.006229  -0.004254  -0.011562   0.000318  -0.000013  -0.000032
    17  C    0.003623  -0.049090   0.004606   0.000157  -0.000025   0.000032
    18  O    0.018485   0.000009   0.000365  -0.000021   0.000001  -0.000001
    19  H    0.789356  -0.010154   0.000005   0.000037  -0.000010   0.000031
    20  H   -0.010154   2.424218  -0.130984   0.001517   0.000647  -0.000145
    21  H    0.000005  -0.130984   2.246376  -0.088332  -0.015180   0.010598
    22  H    0.000037   0.001517  -0.088332   1.643101  -0.054850  -0.018690
    23  H   -0.000010   0.000647  -0.015180  -0.054850   1.635819  -0.060079
    24  H    0.000031  -0.000145   0.010598  -0.018690  -0.060079   1.628534
    25  H   -0.000273  -0.004254  -0.013730   0.009465  -0.011087  -0.082663
    26  H    0.001116   0.013486  -0.005051   0.000178  -0.000009   0.000007
    27  H   -0.000379   0.003479  -0.004120   0.000042   0.000010  -0.000012
    28  H   -0.001611  -0.001851   0.001219  -0.000053   0.000004  -0.000002
    29  H   -0.014173   0.002134   0.002245  -0.000035   0.000001  -0.000001
    30  H   -0.001774   0.004019  -0.000833   0.000021  -0.000002   0.000001
    31  H    0.003202  -0.004664   0.001640  -0.000006  -0.000000   0.000010
              25         26         27         28         29         30
     1  O    0.000047  -0.037638   0.001755   0.012360   0.005700  -0.000281
     2  S   -0.000783   0.131192   0.031248  -0.093759  -0.037010   0.020516
     3  N    0.002632  -0.011806  -0.011652   0.011643   0.080730  -0.033848
     4  C   -0.019222  -0.020460  -0.014298   0.004805  -0.129692   0.018288
     5  N    0.000805  -0.001156   0.000329   0.000012   0.005264   0.000430
     6  N   -0.006768   0.000847   0.000017  -0.000118  -0.001416  -0.000209
     7  C   -0.029532   0.012053   0.003301  -0.001334   0.102469  -0.022420
     8  N   -0.220868  -0.000178  -0.000573   0.000508  -0.000470  -0.001212
     9  C    0.813771  -0.000548  -0.004649   0.000217   0.001479  -0.002526
    10  C   -0.114151  -0.001125   0.000548   0.000736   0.000999   0.000477
    11  C    0.126423  -0.001323   0.000154   0.000330  -0.000633   0.000257
    12  C   -0.189028  -0.000826   0.000502   0.000223  -0.000042  -0.000026
    13  C    0.350741   0.000428  -0.000381  -0.000136   0.000103   0.000018
    14  C   -1.006719   0.000733   0.000407  -0.000185   0.000649  -0.000139
    15  N    0.000478  -0.108453  -0.297039   0.110396  -0.059556  -0.002283
    16  C   -0.000041   0.449222   0.428341   0.220169  -0.109640   0.103301
    17  C   -0.000223  -0.077810   0.038649   0.058175   0.349020   0.225564
    18  O    0.000036  -0.008590  -0.006070   0.017696   0.048272  -0.020506
    19  H   -0.000273   0.001116  -0.000379  -0.001611  -0.014173  -0.001774
    20  H   -0.004254   0.013486   0.003479  -0.001851   0.002134   0.004019
    21  H   -0.013730  -0.005051  -0.004120   0.001219   0.002245  -0.000833
    22  H    0.009465   0.000178   0.000042  -0.000053  -0.000035   0.000021
    23  H   -0.011087  -0.000009   0.000010   0.000004   0.000001  -0.000002
    24  H   -0.082663   0.000007  -0.000012  -0.000002  -0.000001   0.000001
    25  H    1.921211  -0.000037   0.000011   0.000008   0.000026  -0.000023
    26  H   -0.000037   1.287088  -0.245796  -0.234727  -0.008732   0.002708
    27  H    0.000011  -0.245796   1.386309  -0.173722   0.003355   0.004448
    28  H    0.000008  -0.234727  -0.173722   1.158238   0.001312   0.008654
    29  H    0.000026  -0.008732   0.003355   0.001312   1.386362  -0.243069
    30  H   -0.000023   0.002708   0.004448   0.008654  -0.243069   1.154134
    31  H    0.000019   0.005275   0.017321  -0.005550  -0.289802  -0.148355
              31
     1  O   -0.001973
     2  S   -0.004443
     3  N   -0.005349
     4  C    0.030020
     5  N   -0.003710
     6  N    0.001350
     7  C   -0.009021
     8  N    0.002592
     9  C    0.007178
    10  C   -0.002000
    11  C   -0.000607
    12  C   -0.000243
    13  C    0.000331
    14  C    0.000244
    15  N   -0.126882
    16  C    0.033989
    17  C    0.337238
    18  O   -0.001156
    19  H    0.003202
    20  H   -0.004664
    21  H    0.001640
    22  H   -0.000006
    23  H   -0.000000
    24  H    0.000010
    25  H    0.000019
    26  H    0.005275
    27  H    0.017321
    28  H   -0.005550
    29  H   -0.289802
    30  H   -0.148355
    31  H    1.318332
 Mulliken charges:
               1
     1  O   -1.143324
     2  S    3.313506
     3  N   -0.932873
     4  C    0.475360
     5  N   -0.582393
     6  N   -0.414720
     7  C    1.185498
     8  N   -0.728760
     9  C    0.930784
    10  C    0.330857
    11  C    0.526132
    12  C    0.604351
    13  C    0.554011
    14  C    0.531952
    15  N   -1.077456
    16  C    0.760549
    17  C    0.715236
    18  O   -1.169452
    19  H   -0.066727
    20  H   -0.607304
    21  H   -0.644593
    22  H   -0.445259
    23  H   -0.444278
    24  H   -0.433408
    25  H   -0.526272
    26  H   -0.140068
    27  H   -0.161534
    28  H   -0.093656
    29  H   -0.095851
    30  H   -0.065331
    31  H   -0.154981
 Sum of Mulliken charges =  -0.00000
 Mulliken charges with hydrogens summed into heavy atoms:
               1
     1  O   -1.143324
     2  S    3.313506
     3  N   -0.999600
     4  C    0.475360
     5  N   -0.582393
     6  N   -0.414720
     7  C    0.578195
     8  N   -0.728760
     9  C    0.930784
    10  C   -0.313736
    11  C    0.080874
    12  C    0.160074
    13  C    0.120603
    14  C    0.005680
    15  N   -1.077456
    16  C    0.365291
    17  C    0.399073
    18  O   -1.169452
 Electronic spatial extent (au):  <R**2>=           6308.7878
 Charge=             -0.0000 electrons
 Dipole moment (field-independent basis, Debye):
    X=              3.5326    Y=              6.0336    Z=              3.5811  Tot=              7.8554
 Quadrupole moment (field-independent basis, Debye-Ang):
   XX=           -110.1613   YY=           -108.1100   ZZ=           -120.2121
   XY=             -6.8598   XZ=             -7.2665   YZ=             -3.8993
 Traceless Quadrupole moment (field-independent basis, Debye-Ang):
   XX=              2.6665   YY=              4.7178   ZZ=             -7.3843
   XY=             -6.8598   XZ=             -7.2665   YZ=             -3.8993
 Octapole moment (field-independent basis, Debye-Ang**2):
  XXX=            128.4882  YYY=             35.3590  ZZZ=              8.0520  XYY=            -24.9984
  XXY=             46.2949  XXZ=             18.1089  XZZ=            -29.1382  YZZ=              3.3162
  YYZ=              3.5824  XYZ=             -3.0748
 Hexadecapole moment (field-independent basis, Debye-Ang**3):
 XXXX=          -6502.2085 YYYY=          -1299.8668 ZZZZ=           -453.9095 XXXY=           -165.4029
 XXXZ=            -38.6688 YYYX=             35.6247 YYYZ=            -25.2234 ZZZX=            -21.5182
 ZZZY=              0.8814 XXYY=          -1211.7851 XXZZ=          -1300.6697 YYZZ=           -289.1638
 XXYZ=            -40.1296 YYXZ=             -8.0932 ZZXY=            -27.3440
 N-N= 1.471623160852D+03 E-N=-5.777893479085D+03  KE= 1.204105527958D+03
 Leave Link  601 at Wed Sep 23 12:25:24 2020, MaxMem=   262144000 cpu:               1.1 elap:               0.4
 (Enter /prod/apps/gaussian/g16b1/l9999.exe)
 1\1\GINC-PIRINEUS15\SP\RMP2-FC\Aug-CC-pVDZ\C10H13N5O2S1\UBAFAR01\23-Se
 p-2020\0\\#p mp2/aug-cc-pVDZ scf=(MaxCycle=2000,NoVarAcc,NoIncFock) ma
 xdisk=120GB geom=allcheck\\SM46_m0.n.1.pdb.xyz\\0,1\O,0,-2.520918129,-
 0.2894999636,-1.7410013247\S,0,-2.95384346,-0.3094743218,-0.3393628006
 \N,0,-1.9026974098,-1.1943840436,0.6545031955\C,0,-0.5250237856,-1.178
 9894239,0.3667969708\N,0,0.1334769144,-2.2934682048,-0.0517820965\N,0,
 1.4026468566,-2.0048143506,-0.1922276425\C,0,0.3770430878,-0.143804761
 3,0.4859089949\N,0,1.5604617737,-0.6977321973,0.1178569776\C,0,2.84111
 93946,-0.0768774581,0.0384671416\C,0,2.9245224821,1.3019055135,-0.1637
 320519\C,0,4.1797415339,1.9042096067,-0.2326899943\C,0,5.3387086739,1.
 135028405,-0.1142794665\C,0,5.2399565942,-0.2446659963,0.0803030415\C,
 0,3.9916218177,-0.8591536532,0.1646499805\N,0,-2.6753950804,1.22432539
 16,0.2670334591\C,0,-2.9708657292,2.3251060293,-0.6676884417\C,0,-3.17
 73876401,1.4443997252,1.6341619742\O,0,-4.2853528344,-0.8439650793,-0.
 0186746305\H,0,-2.2746570336,-2.1397783914,0.7664952361\H,0,0.27386998
 57,0.8784845843,0.8029270993\H,0,2.0238392579,1.8928512193,-0.27896030
 59\H,0,4.2472793012,2.9750121742,-0.3897239654\H,0,6.3130760926,1.6074
 156042,-0.1734954709\H,0,6.1363342198,-0.8472730529,0.1769078787\H,0,3
 .900204125,-1.9247879493,0.3291023718\H,0,-2.5260608112,2.1066264909,-
 1.6359380874\H,0,-2.5115157066,3.2254386941,-0.2564670907\H,0,-4.04719
 57031,2.4975412305,-0.7840912477\H,0,-2.8682299593,0.6160821257,2.2708
 979065\H,0,-4.2680767264,1.5462536441,1.6623801541\H,0,-2.7206821024,2
 .3639884088,2.0037222348\\Version=ES64L-G16RevB.01\State=1-A\HF=-1205.
 6999021\MP2=-1208.5097338\RMSD=4.179e-09\PG=C01 [X(C10H13N5O2S1)]\\@


 ... I FELL INTO A REVERIE ... THE ATOMS WERE GAMBOLING BEFORE MY EYES
 ... I SAW HOW TWO SMALL ONES UNITED TO FORM A PAIR;
 HOW THE LARGER ONES SEIZED TWO OF THE SMALLER ONES;
 HOW STILL LARGER ONES KEPT HOLD OF THREE OR FOUR
 SMALLER ONES ... I SAW HOW THE LARGER ONES FORMED A CHAIN ...
 THIS WAS THE ORIGIN OF THE STRUCTURE THEORY.

                                   -- C.F.KEKULE VON STRADONITZ
 Job cpu time:       0 days  2 hours 37 minutes 14.1 seconds.
 Elapsed time:       0 days  0 hours 45 minutes  8.9 seconds.
 File lengths (MBytes):  RWF=  74751 Int=      0 D2E=      0 Chk=     24 Scr=      1
 Normal termination of Gaussian 16 at Wed Sep 23 12:25:27 2020.
