 Entering Gaussian System, Link 0=g16
 Initial command:
 /prod/apps/gaussian/g16b1/l1.exe "/tmp/ubafar01/1458820/Gau-204255.inp" -scrdir="/tmp/ubafar01/1458820/"
 Entering Link 1 = /prod/apps/gaussian/g16b1/l1.exe PID=    204256.
  
 Copyright (c) 1988-2017, Gaussian, Inc.  All Rights Reserved.
  
 This is part of the Gaussian(R) 16 program.  It is based on
 the Gaussian(R) 09 system (copyright 2009, Gaussian, Inc.),
 the Gaussian(R) 03 system (copyright 2003, Gaussian, Inc.),
 the Gaussian(R) 98 system (copyright 1998, Gaussian, Inc.),
 the Gaussian(R) 94 system (copyright 1995, Gaussian, Inc.),
 the Gaussian 92(TM) system (copyright 1992, Gaussian, Inc.),
 the Gaussian 90(TM) system (copyright 1990, Gaussian, Inc.),
 the Gaussian 88(TM) system (copyright 1988, Gaussian, Inc.),
 the Gaussian 86(TM) system (copyright 1986, Carnegie Mellon
 University), and the Gaussian 82(TM) system (copyright 1983,
 Carnegie Mellon University). Gaussian is a federally registered
 trademark of Gaussian, Inc.
  
 This software contains proprietary and confidential information,
 including trade secrets, belonging to Gaussian, Inc.
  
 This software is provided under written license and may be
 used, copied, transmitted, or stored only in accord with that
 written license.
  
 The following legend is applicable only to US Government
 contracts under FAR:
  
                    RESTRICTED RIGHTS LEGEND
  
 Use, reproduction and disclosure by the US Government is
 subject to restrictions as set forth in subparagraphs (a)
 and (c) of the Commercial Computer Software - Restricted
 Rights clause in FAR 52.227-19.
  
 Gaussian, Inc.
 340 Quinnipiac St., Bldg. 40, Wallingford CT 06492
  
  
 ---------------------------------------------------------------
 Warning -- This program may not be used in any manner that
 competes with the business of Gaussian, Inc. or will provide
 assistance to any competitor of Gaussian, Inc.  The licensee
 of this program is prohibited from giving any competitor of
 Gaussian, Inc. access to this program.  By using this program,
 the user acknowledges that Gaussian, Inc. is engaged in the
 business of creating and licensing software in the field of
 computational chemistry and represents and warrants to the
 licensee that it is not a competitor of Gaussian, Inc. and that
 it will not use this program in any manner prohibited above.
 ---------------------------------------------------------------
  

 Cite this work as:
 Gaussian 16, Revision B.01,
 M. J. Frisch, G. W. Trucks, H. B. Schlegel, G. E. Scuseria, 
 M. A. Robb, J. R. Cheeseman, G. Scalmani, V. Barone, 
 G. A. Petersson, H. Nakatsuji, X. Li, M. Caricato, A. V. Marenich, 
 J. Bloino, B. G. Janesko, R. Gomperts, B. Mennucci, H. P. Hratchian, 
 J. V. Ortiz, A. F. Izmaylov, J. L. Sonnenberg, D. Williams-Young, 
 F. Ding, F. Lipparini, F. Egidi, J. Goings, B. Peng, A. Petrone, 
 T. Henderson, D. Ranasinghe, V. G. Zakrzewski, J. Gao, N. Rega, 
 G. Zheng, W. Liang, M. Hada, M. Ehara, K. Toyota, R. Fukuda, 
 J. Hasegawa, M. Ishida, T. Nakajima, Y. Honda, O. Kitao, H. Nakai, 
 T. Vreven, K. Throssell, J. A. Montgomery, Jr., J. E. Peralta, 
 F. Ogliaro, M. J. Bearpark, J. J. Heyd, E. N. Brothers, K. N. Kudin, 
 V. N. Staroverov, T. A. Keith, R. Kobayashi, J. Normand, 
 K. Raghavachari, A. P. Rendell, J. C. Burant, S. S. Iyengar, 
 J. Tomasi, M. Cossi, J. M. Millam, M. Klene, C. Adamo, R. Cammi, 
 J. W. Ochterski, R. L. Martin, K. Morokuma, O. Farkas, 
 J. B. Foresman, and D. J. Fox, Gaussian, Inc., Wallingford CT, 2016.
 
 ******************************************
 Gaussian 16:  ES64L-G16RevB.01 20-Dec-2017
                14-Sep-2020 
 ******************************************
 %nproc=4
 Will use up to    4 processors via shared memory.
 %Chk=SM46_m0.n.5.pdb.xyz.mst.n.w.chk
 %mem=16GB
 ----------------------------------------------------------------------
 #p b3lyp/6-31G(d) opt freq NoSymm scf=(MaxCycle=2000,NoVarAcc,NoIncFoc
 k) scrf=(iefpcm,read,solvent=water) MaxDisk=20GB
 ----------------------------------------------------------------------
 1/18=20,19=15,26=3,38=1,40=2/1,3;
 2/9=110,12=2,15=1,17=6,18=5,40=1/2;
 3/5=1,6=6,7=1,11=2,25=1,30=1,70=2203,71=1,72=1,74=-5/1,2,3;
 4//1;
 5/5=100002,7=2000,38=1,53=1/2;
 6/7=2,8=2,9=2,10=2,28=1/1;
 7/30=1/1,2,3,16;
 1/18=20,19=15,26=3/3(2);
 2/9=110,15=1/2;
 99//99;
 2/9=110,15=1/2;
 3/5=1,6=6,7=1,11=2,25=1,30=1,70=2205,71=1,72=1,74=-5/1,2,3;
 4/5=5,16=3,69=1/1;
 5/5=100002,7=2000,38=1,53=1/2;
 7/30=1/1,2,3,16;
 1/18=20,19=15,26=3/3(-5);
 2/9=110,15=1/2;
 6/7=2,8=2,9=2,10=2,19=2,28=1/1;
 99/9=1/99;
 Leave Link    1 at Mon Sep 14 02:05:24 2020, MaxMem=  2147483648 cpu:               0.1 elap:               0.0
 (Enter /prod/apps/gaussian/g16b1/l101.exe)
 -------------------
 SM46_m0.n.5.pdb.xyz
 -------------------
 Symbolic Z-matrix:
 Charge =  0 Multiplicity = 1
 O                    -3.767    -1.337    -1.162 
 S                    -2.814    -0.662    -0.281 
 N                    -1.736     0.178    -1.257 
 C                    -0.423     0.462    -0.85 
 N                    -0.01      1.725    -0.554 
 N                     1.261     1.695    -0.25 
 C                     0.646    -0.398    -0.717 
 N                     1.668     0.407    -0.333 
 C                     3.017     0.053    -0.04 
 C                     3.317    -1.247     0.371 
 C                     4.642    -1.581     0.65 
 C                     5.652    -0.625     0.53 
 C                     5.334     0.673     0.124 
 C                     4.017     1.018    -0.17 
 N                    -3.679     0.56      0.493 
 C                    -4.971     0.112     1.044 
 C                    -2.881     1.345     1.45 
 O                    -1.997    -1.466     0.637 
 H                    -2.194     0.918    -1.791 
 H                     0.752    -1.457    -0.874 
 H                     2.529    -1.982     0.485 
 H                     4.879    -2.589     0.969 
 H                     6.68     -0.889     0.752 
 H                     6.113     1.42      0.024 
 H                     3.756     2.016    -0.499 
 H                    -5.528    -0.422     0.276 
 H                    -5.527     1.009     1.328 
 H                    -4.853    -0.525     1.928 
 H                    -1.974     1.709     0.965 
 H                    -2.616     0.768     2.345 
 H                    -3.487     2.203     1.745 
 
 ITRead=  0  0  0  0  0  0  0  0  0  0  0  0  0  0  0  0  0  0  0  0
 ITRead=  0  0  0  0  0  0  0  0  0  0  0
 MicOpt= -1 -1 -1 -1 -1 -1 -1 -1 -1 -1 -1 -1 -1 -1 -1 -1 -1 -1 -1 -1
 MicOpt= -1 -1 -1 -1 -1 -1 -1 -1 -1 -1 -1
 NAtoms=     31 NQM=       31 NQMF=       0 NMMI=      0 NMMIF=      0
                NMic=       0 NMicF=      0.
                    Isotopes and Nuclear Properties:
 (Nuclear quadrupole moments (NQMom) in fm**2, nuclear magnetic moments (NMagM)
  in nuclear magnetons)

  Atom         1           2           3           4           5           6           7           8           9          10
 IAtWgt=          16          32          14          12          14          14          12          14          12          12
 AtmWgt=  15.9949146  31.9720718  14.0030740  12.0000000  14.0030740  14.0030740  12.0000000  14.0030740  12.0000000  12.0000000
 NucSpn=           0           0           2           0           2           2           0           2           0           0
 AtZEff=  -0.0000000  -0.0000000  -0.0000000  -0.0000000  -0.0000000  -0.0000000  -0.0000000  -0.0000000  -0.0000000  -0.0000000
 NQMom=    0.0000000   0.0000000   2.0440000   0.0000000   2.0440000   2.0440000   0.0000000   2.0440000   0.0000000   0.0000000
 NMagM=    0.0000000   0.0000000   0.4037610   0.0000000   0.4037610   0.4037610   0.0000000   0.4037610   0.0000000   0.0000000
 AtZNuc=   8.0000000  16.0000000   7.0000000   6.0000000   7.0000000   7.0000000   6.0000000   7.0000000   6.0000000   6.0000000

  Atom        11          12          13          14          15          16          17          18          19          20
 IAtWgt=          12          12          12          12          14          12          12          16           1           1
 AtmWgt=  12.0000000  12.0000000  12.0000000  12.0000000  14.0030740  12.0000000  12.0000000  15.9949146   1.0078250   1.0078250
 NucSpn=           0           0           0           0           2           0           0           0           1           1
 AtZEff=  -0.0000000  -0.0000000  -0.0000000  -0.0000000  -0.0000000  -0.0000000  -0.0000000  -0.0000000  -0.0000000  -0.0000000
 NQMom=    0.0000000   0.0000000   0.0000000   0.0000000   2.0440000   0.0000000   0.0000000   0.0000000   0.0000000   0.0000000
 NMagM=    0.0000000   0.0000000   0.0000000   0.0000000   0.4037610   0.0000000   0.0000000   0.0000000   2.7928460   2.7928460
 AtZNuc=   6.0000000   6.0000000   6.0000000   6.0000000   7.0000000   6.0000000   6.0000000   8.0000000   1.0000000   1.0000000

  Atom        21          22          23          24          25          26          27          28          29          30
 IAtWgt=           1           1           1           1           1           1           1           1           1           1
 AtmWgt=   1.0078250   1.0078250   1.0078250   1.0078250   1.0078250   1.0078250   1.0078250   1.0078250   1.0078250   1.0078250
 NucSpn=           1           1           1           1           1           1           1           1           1           1
 AtZEff=  -0.0000000  -0.0000000  -0.0000000  -0.0000000  -0.0000000  -0.0000000  -0.0000000  -0.0000000  -0.0000000  -0.0000000
 NQMom=    0.0000000   0.0000000   0.0000000   0.0000000   0.0000000   0.0000000   0.0000000   0.0000000   0.0000000   0.0000000
 NMagM=    2.7928460   2.7928460   2.7928460   2.7928460   2.7928460   2.7928460   2.7928460   2.7928460   2.7928460   2.7928460
 AtZNuc=   1.0000000   1.0000000   1.0000000   1.0000000   1.0000000   1.0000000   1.0000000   1.0000000   1.0000000   1.0000000

  Atom        31
 IAtWgt=           1
 AtmWgt=   1.0078250
 NucSpn=           1
 AtZEff=  -0.0000000
 NQMom=    0.0000000
 NMagM=    2.7928460
 AtZNuc=   1.0000000
 Leave Link  101 at Mon Sep 14 02:05:25 2020, MaxMem=  2147483648 cpu:               1.2 elap:               0.3
 (Enter /prod/apps/gaussian/g16b1/l103.exe)

 GradGradGradGradGradGradGradGradGradGradGradGradGradGradGradGradGradGrad
 Berny optimization.
 Initialization pass.
                           ----------------------------
                           !    Initial Parameters    !
                           ! (Angstroms and Degrees)  !
 --------------------------                            --------------------------
 ! Name  Definition              Value          Derivative Info.                !
 --------------------------------------------------------------------------------
 ! R1    R(1,2)                  1.4629         estimate D2E/DX2                !
 ! R2    R(2,3)                  1.6794         estimate D2E/DX2                !
 ! R3    R(2,15)                 1.6854         estimate D2E/DX2                !
 ! R4    R(2,18)                 1.4685         estimate D2E/DX2                !
 ! R5    R(3,4)                  1.4037         estimate D2E/DX2                !
 ! R6    R(3,19)                 1.021          estimate D2E/DX2                !
 ! R7    R(4,5)                  1.3614         estimate D2E/DX2                !
 ! R8    R(4,7)                  1.3784         estimate D2E/DX2                !
 ! R9    R(5,6)                  1.3072         estimate D2E/DX2                !
 ! R10   R(6,8)                  1.3533         estimate D2E/DX2                !
 ! R11   R(7,8)                  1.3565         estimate D2E/DX2                !
 ! R12   R(7,20)                 1.0758         estimate D2E/DX2                !
 ! R13   R(8,9)                  1.4251         estimate D2E/DX2                !
 ! R14   R(9,10)                 1.396          estimate D2E/DX2                !
 ! R15   R(9,14)                 1.3958         estimate D2E/DX2                !
 ! R16   R(10,11)                1.3946         estimate D2E/DX2                !
 ! R17   R(10,21)                1.0836         estimate D2E/DX2                !
 ! R18   R(11,12)                1.3959         estimate D2E/DX2                !
 ! R19   R(11,22)                1.0835         estimate D2E/DX2                !
 ! R20   R(12,13)                1.3967         estimate D2E/DX2                !
 ! R21   R(12,23)                1.0843         estimate D2E/DX2                !
 ! R22   R(13,14)                1.3928         estimate D2E/DX2                !
 ! R23   R(13,24)                1.0839         estimate D2E/DX2                !
 ! R24   R(14,25)                1.0828         estimate D2E/DX2                !
 ! R25   R(15,16)                1.4743         estimate D2E/DX2                !
 ! R26   R(15,17)                1.4727         estimate D2E/DX2                !
 ! R27   R(16,26)                1.0887         estimate D2E/DX2                !
 ! R28   R(16,27)                1.0929         estimate D2E/DX2                !
 ! R29   R(16,28)                1.096          estimate D2E/DX2                !
 ! R30   R(17,29)                1.091          estimate D2E/DX2                !
 ! R31   R(17,30)                1.0974         estimate D2E/DX2                !
 ! R32   R(17,31)                1.0911         estimate D2E/DX2                !
 ! A1    A(1,2,3)              107.3958         estimate D2E/DX2                !
 ! A2    A(1,2,15)             106.0679         estimate D2E/DX2                !
 ! A3    A(1,2,18)             119.0959         estimate D2E/DX2                !
 ! A4    A(3,2,15)             103.5139         estimate D2E/DX2                !
 ! A5    A(3,2,18)             106.2616         estimate D2E/DX2                !
 ! A6    A(15,2,18)            113.2912         estimate D2E/DX2                !
 ! A7    A(2,3,4)              122.2176         estimate D2E/DX2                !
 ! A8    A(2,3,19)             112.2425         estimate D2E/DX2                !
 ! A9    A(4,3,19)             115.1252         estimate D2E/DX2                !
 ! A10   A(3,4,5)              122.3117         estimate D2E/DX2                !
 ! A11   A(3,4,7)              128.8421         estimate D2E/DX2                !
 ! A12   A(5,4,7)              108.8182         estimate D2E/DX2                !
 ! A13   A(4,5,6)              108.9197         estimate D2E/DX2                !
 ! A14   A(5,6,8)              107.4572         estimate D2E/DX2                !
 ! A15   A(4,7,8)              103.9669         estimate D2E/DX2                !
 ! A16   A(4,7,20)             132.5695         estimate D2E/DX2                !
 ! A17   A(8,7,20)             123.4538         estimate D2E/DX2                !
 ! A18   A(6,8,7)              110.8294         estimate D2E/DX2                !
 ! A19   A(6,8,9)              120.5626         estimate D2E/DX2                !
 ! A20   A(7,8,9)              128.6073         estimate D2E/DX2                !
 ! A21   A(8,9,10)             119.6867         estimate D2E/DX2                !
 ! A22   A(8,9,14)             119.1634         estimate D2E/DX2                !
 ! A23   A(10,9,14)            121.1499         estimate D2E/DX2                !
 ! A24   A(9,10,11)            119.0828         estimate D2E/DX2                !
 ! A25   A(9,10,21)            120.4202         estimate D2E/DX2                !
 ! A26   A(11,10,21)           120.4913         estimate D2E/DX2                !
 ! A27   A(10,11,12)           120.4121         estimate D2E/DX2                !
 ! A28   A(10,11,22)           119.3082         estimate D2E/DX2                !
 ! A29   A(12,11,22)           120.2778         estimate D2E/DX2                !
 ! A30   A(11,12,13)           119.784          estimate D2E/DX2                !
 ! A31   A(11,12,23)           120.108          estimate D2E/DX2                !
 ! A32   A(13,12,23)           120.108          estimate D2E/DX2                !
 ! A33   A(12,13,14)           120.4535         estimate D2E/DX2                !
 ! A34   A(12,13,24)           120.2424         estimate D2E/DX2                !
 ! A35   A(14,13,24)           119.3006         estimate D2E/DX2                !
 ! A36   A(9,14,13)            119.1136         estimate D2E/DX2                !
 ! A37   A(9,14,25)            119.5287         estimate D2E/DX2                !
 ! A38   A(13,14,25)           121.3575         estimate D2E/DX2                !
 ! A39   A(2,15,16)            113.6456         estimate D2E/DX2                !
 ! A40   A(2,15,17)            114.0038         estimate D2E/DX2                !
 ! A41   A(16,15,17)           113.2015         estimate D2E/DX2                !
 ! A42   A(15,16,26)           109.4974         estimate D2E/DX2                !
 ! A43   A(15,16,27)           107.0706         estimate D2E/DX2                !
 ! A44   A(15,16,28)           112.564          estimate D2E/DX2                !
 ! A45   A(26,16,27)           109.0028         estimate D2E/DX2                !
 ! A46   A(26,16,28)           109.8159         estimate D2E/DX2                !
 ! A47   A(27,16,28)           108.797          estimate D2E/DX2                !
 ! A48   A(15,17,29)           109.8417         estimate D2E/DX2                !
 ! A49   A(15,17,30)           112.3693         estimate D2E/DX2                !
 ! A50   A(15,17,31)           107.092          estimate D2E/DX2                !
 ! A51   A(29,17,30)           109.7081         estimate D2E/DX2                !
 ! A52   A(29,17,31)           108.6364         estimate D2E/DX2                !
 ! A53   A(30,17,31)           109.0929         estimate D2E/DX2                !
 ! D1    D(1,2,3,4)           -152.7864         estimate D2E/DX2                !
 ! D2    D(1,2,3,19)            64.0903         estimate D2E/DX2                !
 ! D3    D(15,2,3,4)            95.2759         estimate D2E/DX2                !
 ! D4    D(15,2,3,19)          -47.8474         estimate D2E/DX2                !
 ! D5    D(18,2,3,4)           -24.3091         estimate D2E/DX2                !
 ! D6    D(18,2,3,19)         -167.4324         estimate D2E/DX2                !
 ! D7    D(1,2,15,16)           47.292          estimate D2E/DX2                !
 ! D8    D(1,2,15,17)          179.0328         estimate D2E/DX2                !
 ! D9    D(3,2,15,16)          160.1971         estimate D2E/DX2                !
 ! D10   D(3,2,15,17)          -68.0621         estimate D2E/DX2                !
 ! D11   D(18,2,15,16)         -85.1568         estimate D2E/DX2                !
 ! D12   D(18,2,15,17)          46.5839         estimate D2E/DX2                !
 ! D13   D(2,3,4,5)           -110.2466         estimate D2E/DX2                !
 ! D14   D(2,3,4,7)             71.9021         estimate D2E/DX2                !
 ! D15   D(19,3,4,5)            31.9112         estimate D2E/DX2                !
 ! D16   D(19,3,4,7)          -145.9401         estimate D2E/DX2                !
 ! D17   D(3,4,5,6)           -177.9508         estimate D2E/DX2                !
 ! D18   D(7,4,5,6)              0.2813         estimate D2E/DX2                !
 ! D19   D(3,4,7,8)            178.3881         estimate D2E/DX2                !
 ! D20   D(3,4,7,20)            -0.4688         estimate D2E/DX2                !
 ! D21   D(5,4,7,8)              0.3065         estimate D2E/DX2                !
 ! D22   D(5,4,7,20)          -178.5504         estimate D2E/DX2                !
 ! D23   D(4,5,6,8)             -0.7568         estimate D2E/DX2                !
 ! D24   D(5,6,8,7)              0.983          estimate D2E/DX2                !
 ! D25   D(5,6,8,9)           -179.2901         estimate D2E/DX2                !
 ! D26   D(4,7,8,6)             -0.7811         estimate D2E/DX2                !
 ! D27   D(4,7,8,9)            179.5198         estimate D2E/DX2                !
 ! D28   D(20,7,8,6)           178.2099         estimate D2E/DX2                !
 ! D29   D(20,7,8,9)            -1.4893         estimate D2E/DX2                !
 ! D30   D(6,8,9,10)           155.5558         estimate D2E/DX2                !
 ! D31   D(6,8,9,14)           -24.4271         estimate D2E/DX2                !
 ! D32   D(7,8,9,10)           -24.7708         estimate D2E/DX2                !
 ! D33   D(7,8,9,14)           155.2463         estimate D2E/DX2                !
 ! D34   D(8,9,10,11)          179.7801         estimate D2E/DX2                !
 ! D35   D(8,9,10,21)           -1.0789         estimate D2E/DX2                !
 ! D36   D(14,9,10,11)          -0.2373         estimate D2E/DX2                !
 ! D37   D(14,9,10,21)         178.9037         estimate D2E/DX2                !
 ! D38   D(8,9,14,13)          179.6355         estimate D2E/DX2                !
 ! D39   D(8,9,14,25)           -0.5439         estimate D2E/DX2                !
 ! D40   D(10,9,14,13)          -0.3471         estimate D2E/DX2                !
 ! D41   D(10,9,14,25)         179.4734         estimate D2E/DX2                !
 ! D42   D(9,10,11,12)           0.5102         estimate D2E/DX2                !
 ! D43   D(9,10,11,22)        -179.9831         estimate D2E/DX2                !
 ! D44   D(21,10,11,12)       -178.6302         estimate D2E/DX2                !
 ! D45   D(21,10,11,22)          0.8765         estimate D2E/DX2                !
 ! D46   D(10,11,12,13)         -0.1977         estimate D2E/DX2                !
 ! D47   D(10,11,12,23)        179.7548         estimate D2E/DX2                !
 ! D48   D(22,11,12,13)       -179.6996         estimate D2E/DX2                !
 ! D49   D(22,11,12,23)          0.253          estimate D2E/DX2                !
 ! D50   D(11,12,13,14)         -0.3985         estimate D2E/DX2                !
 ! D51   D(11,12,13,24)       -179.7216         estimate D2E/DX2                !
 ! D52   D(23,12,13,14)        179.6489         estimate D2E/DX2                !
 ! D53   D(23,12,13,24)          0.3259         estimate D2E/DX2                !
 ! D54   D(12,13,14,9)           0.6653         estimate D2E/DX2                !
 ! D55   D(12,13,14,25)       -179.1519         estimate D2E/DX2                !
 ! D56   D(24,13,14,9)         179.9946         estimate D2E/DX2                !
 ! D57   D(24,13,14,25)          0.1774         estimate D2E/DX2                !
 ! D58   D(2,15,16,26)         -50.3604         estimate D2E/DX2                !
 ! D59   D(2,15,16,27)        -168.3991         estimate D2E/DX2                !
 ! D60   D(2,15,16,28)          72.089          estimate D2E/DX2                !
 ! D61   D(17,15,16,26)        177.5086         estimate D2E/DX2                !
 ! D62   D(17,15,16,27)         59.4699         estimate D2E/DX2                !
 ! D63   D(17,15,16,28)        -60.042          estimate D2E/DX2                !
 ! D64   D(2,15,17,29)          52.173          estimate D2E/DX2                !
 ! D65   D(2,15,17,30)         -70.2515         estimate D2E/DX2                !
 ! D66   D(2,15,17,31)         169.9728         estimate D2E/DX2                !
 ! D67   D(16,15,17,29)       -175.8714         estimate D2E/DX2                !
 ! D68   D(16,15,17,30)         61.7041         estimate D2E/DX2                !
 ! D69   D(16,15,17,31)        -58.0716         estimate D2E/DX2                !
 --------------------------------------------------------------------------------
 Trust Radius=3.00D-01 FncErr=1.00D-07 GrdErr=1.00D-06 EigMax=2.50D+02 EigMin=1.00D-04
 Number of steps in this run=    164 maximum allowed number of steps=    186.
 GradGradGradGradGradGradGradGradGradGradGradGradGradGradGradGradGradGrad

 Leave Link  103 at Mon Sep 14 02:05:25 2020, MaxMem=  2147483648 cpu:               0.1 elap:               0.0
 (Enter /prod/apps/gaussian/g16b1/l202.exe)
                          Input orientation:                          
 ---------------------------------------------------------------------
 Center     Atomic      Atomic             Coordinates (Angstroms)
 Number     Number       Type             X           Y           Z
 ---------------------------------------------------------------------
      1          8           0       -3.767000   -1.337000   -1.162000
      2         16           0       -2.814000   -0.662000   -0.281000
      3          7           0       -1.736000    0.178000   -1.257000
      4          6           0       -0.423000    0.462000   -0.850000
      5          7           0       -0.010000    1.725000   -0.554000
      6          7           0        1.261000    1.695000   -0.250000
      7          6           0        0.646000   -0.398000   -0.717000
      8          7           0        1.668000    0.407000   -0.333000
      9          6           0        3.017000    0.053000   -0.040000
     10          6           0        3.317000   -1.247000    0.371000
     11          6           0        4.642000   -1.581000    0.650000
     12          6           0        5.652000   -0.625000    0.530000
     13          6           0        5.334000    0.673000    0.124000
     14          6           0        4.017000    1.018000   -0.170000
     15          7           0       -3.679000    0.560000    0.493000
     16          6           0       -4.971000    0.112000    1.044000
     17          6           0       -2.881000    1.345000    1.450000
     18          8           0       -1.997000   -1.466000    0.637000
     19          1           0       -2.194000    0.918000   -1.791000
     20          1           0        0.752000   -1.457000   -0.874000
     21          1           0        2.529000   -1.982000    0.485000
     22          1           0        4.879000   -2.589000    0.969000
     23          1           0        6.680000   -0.889000    0.752000
     24          1           0        6.113000    1.420000    0.024000
     25          1           0        3.756000    2.016000   -0.499000
     26          1           0       -5.528000   -0.422000    0.276000
     27          1           0       -5.527000    1.009000    1.328000
     28          1           0       -4.853000   -0.525000    1.928000
     29          1           0       -1.974000    1.709000    0.965000
     30          1           0       -2.616000    0.768000    2.345000
     31          1           0       -3.487000    2.203000    1.745000
 ---------------------------------------------------------------------
                    Distance matrix (angstroms):
                    1          2          3          4          5
     1  O    0.000000
     2  S    1.462872   0.000000
     3  N    2.535589   1.679363   0.000000
     4  C    3.809998   2.702595   1.403664   0.000000
     5  N    4.884727   3.692521   2.422085   1.361379   0.000000
     6  N    5.941848   4.707657   3.506757   2.171669   1.307194
     7  C    4.533687   3.497341   2.509442   1.378423   2.228011
     8  N    5.767842   4.608014   3.534605   2.154668   2.145145
     9  C    7.015243   5.879615   4.907925   3.557665   3.496071
    10  C    7.248534   6.193262   5.496710   4.289420   4.556022
    11  C    8.605473   7.569892   6.885464   5.663751   5.832697
    12  C    9.596216   8.504837   7.643345   6.323891   6.225416
    13  C    9.408618   8.266568   7.220601   5.842623   5.488599
    14  C    8.192725   7.035430   5.914742   4.526051   4.106584
    15  N    2.519003   1.685404   2.642664   3.523463   3.989360
    16  C    2.900974   2.647140   3.970413   4.939032   5.455905
    17  C    3.847163   2.651207   3.162398   3.480151   3.521797
    18  O    2.527042   1.468547   2.521526   2.899281   3.943239
    19  H    2.820460   2.271761   1.021039   2.056662   2.636527
    20  H    4.529758   3.701355   3.001676   2.250280   3.287578
    21  H    6.539744   5.556690   5.088260   4.058284   4.611712
    22  H    8.992329   8.028579   7.507968   6.381894   6.695704
    23  H   10.630330   9.552730   8.718006   7.405688   7.300324
    24  H   10.325795   9.171645   8.049244   6.663403   6.157779
    25  H    8.263033   7.098176   5.840794   4.472377   3.777627
    26  H    2.450753   2.780943   4.133927   5.301920   5.978866
    27  H    3.847261   3.569523   4.663096   5.576173   5.872978
    28  H    3.374439   3.009314   4.511554   5.321311   5.888758
    29  H    4.125178   2.807090   2.708854   2.693480   2.482924
    30  H    4.249103   2.996661   3.754584   3.887275   4.013887
    31  H    4.589188   3.572930   4.022267   4.376437   4.195642
                    6          7          8          9         10
     6  N    0.000000
     7  C    2.230911   0.000000
     8  N    1.353323   1.356453   0.000000
     9  C    2.413255   2.506665   1.425120   0.000000
    10  C    3.642546   3.006457   2.439371   1.396038   0.000000
    11  C    4.793051   4.385909   3.709866   2.405552   1.394640
    12  C    5.027095   5.163969   4.205003   2.779894   2.421650
    13  C    4.215885   4.881769   3.703939   2.404118   2.795657
    14  C    2.839061   3.697013   2.432630   1.395752   2.431647
    15  N    5.122878   4.592112   5.412587   6.736286   7.226628
    16  C    6.558822   5.908630   6.786713   8.061432   8.425601
    17  C    4.490954   4.491511   4.975172   6.218984   6.804257
    18  O    4.625284   3.155850   4.228623   5.282602   5.325158
    19  H    3.862051   3.309219   4.159559   5.564957   6.303379
    20  H    3.253239   1.075809   2.146214   2.847083   2.858907
    21  H    3.958330   2.738530   2.667914   2.157544   1.083589
    22  H    5.738340   5.055825   4.580583   3.386043   2.144391
    23  H    6.086594   6.229623   5.289327   3.864220   3.403394
    24  H    4.867505   5.808812   4.572925   3.384967   3.879551
    25  H    2.527858   3.942971   2.641246   2.147131   3.405406
    26  H    7.130840   6.253391   7.269150   8.564024   8.883900
    27  H    7.002687   6.653390   7.408735   8.705475   9.177239
    28  H    6.859525   6.103372   6.964495   8.132897   8.348319
    29  H    3.455669   3.759385   4.079727   5.353732   6.089783
    30  H    4.756520   4.623423   5.065043   6.158745   6.569428
    31  H    5.175094   5.468851   5.841038   7.078894   7.751438
                   11         12         13         14         15
    11  C    0.000000
    12  C    1.395864   0.000000
    13  C    2.415793   1.396698   0.000000
    14  C    2.796038   2.421296   1.392821   0.000000
    15  N    8.593461   9.406017   9.021258   7.738071   0.000000
    16  C    9.768892  10.660933  10.361185   9.114756   1.474303
    17  C    8.111535   8.805645   8.348418   7.093217   1.472711
    18  O    6.640009   7.695839   7.653891   6.556653   2.637145
    19  H    7.676873   8.326320   7.771617   6.419826   2.747735
    20  H    4.179719   5.164634   5.150498   4.157098   5.056752
    21  H    2.157034   3.405379   3.879094   3.412209   6.708285
    22  H    1.083510   2.155817   3.400249   3.879538   9.131382
    23  H    2.154695   1.084327   2.155445   3.402690  10.463057
    24  H    3.400253   2.156521   1.083905   2.143002   9.840875
    25  H    3.878609   3.410064   2.163761   1.082759   7.640892
    26  H   10.242659  11.184727  10.918112   9.663309   2.104807
    27  H   10.515529  11.325935  10.932696   9.660850   2.077000
    28  H    9.638643  10.598086  10.414633   9.244423   2.148191
    29  H    7.395592   7.987031   7.428825   6.136594   2.109505
    30  H    7.814691   8.578724   8.254960   7.098198   2.145492
    31  H    9.033179   9.643398   9.098274   7.834632   2.074564
                   16         17         18         19         20
    16  C    0.000000
    17  C    2.460330   0.000000
    18  O    3.391225   3.056820   0.000000
    19  H    4.049517   3.340416   3.408438   0.000000
    20  H    6.236442   5.143041   3.136910   3.893640   0.000000
    21  H    7.806876   6.424037   4.557854   5.991403   2.297876
    22  H   10.213889   8.713513   6.975007   8.363252   4.659421
    23  H   11.697567   9.843306   8.696924   9.406379   6.173142
    24  H   11.207423   9.106653   8.629998   8.517774   6.150110
    25  H    9.064579   6.949720   6.819958   6.186871   4.607208
    26  H    1.088682   3.392223   3.699759   4.145316   6.467776
    27  H    1.092887   2.670037   4.366235   4.565669   7.096182
    28  H    1.095969   2.759378   3.272445   4.794110   6.335286
    29  H    3.396860   1.091041   3.191980   2.875694   4.564707
    30  H    2.769289   1.097351   2.879441   4.160178   5.162946
    31  H    2.658183   1.091066   4.112095   3.978237   6.182547
                   21         22         23         24         25
    21  H    0.000000
    22  H    2.474915   0.000000
    23  H    4.300784   2.486099   0.000000
    24  H    4.962981   4.299751   2.486555   0.000000
    25  H    4.296253   4.962074   4.307412   2.486804   0.000000
    26  H    8.209295  10.652783  12.226198  11.788526   9.630012
    27  H    8.634574  11.016321  12.367095  11.720023   9.514519
    28  H    7.661529   9.994579  11.598515  11.298734   9.298489
    29  H    5.842165   8.089279   9.038069   8.146691   5.922030
    30  H    6.123163   8.326935   9.575955   9.055804   7.088598
    31  H    7.435999   9.672404  10.673069   9.784423   7.584956
                   26         27         28         29         30
    26  H    0.000000
    27  H    1.776082   0.000000
    28  H    1.787551   1.779728   0.000000
    29  H    4.200809   3.639447   3.769186   0.000000
    30  H    3.765183   3.092942   2.617233   1.789426   0.000000
    31  H    3.635143   2.400234   3.056375   1.772457   1.782657
                   31
    31  H    0.000000
 Symmetry turned off by external request.
 Stoichiometry    C10H13N5O2S
 Framework group  C1[X(C10H13N5O2S)]
 Deg. of freedom    87
 Full point group                 C1      NOp   1
 Rotational constants (GHZ):           1.1450382           0.1658451           0.1582370
 Leave Link  202 at Mon Sep 14 02:05:25 2020, MaxMem=  2147483648 cpu:               0.0 elap:               0.0
 (Enter /prod/apps/gaussian/g16b1/l301.exe)
 Standard basis: 6-31G(d) (6D, 7F)
 Ernie: Thresh=  0.10000D-02 Tol=  0.10000D-05 Strict=F.
   300 basis functions,   580 primitive gaussians,   300 cartesian basis functions
    70 alpha electrons       70 beta electrons
       nuclear repulsion energy      1464.5088353641 Hartrees.
 IExCor=  402 DFT=T Ex+Corr=B3LYP ExCW=0 ScaHFX=  0.200000
 ScaDFX=  0.800000  0.720000  1.000000  0.810000 ScalE2=  1.000000  1.000000
 IRadAn=      5 IRanWt=     -1 IRanGd=            0 ICorTp=0 IEmpDi=  4
 NAtoms=   31 NActive=   31 NUniq=   31 SFac= 1.00D+00 NAtFMM=   60 NAOKFM=F Big=F
 Integral buffers will be    131072 words long.
 Raffenetti 2 integral format.
 Two-electron integral symmetry is turned off.
 Using the following non-standard input for PCM:
 MSTModel=DFT cav
 --- end of non-standard input.
 MST model for solvation energy: B3LYP parametrization.
 MST cavity parameters:
 ISph   IAn     Re0     Alpha   Atom Type   QCorr
 ------------------------------------------------
   1      8     1.40     1.25      O          F
   2     16     1.75     1.25      S          F
   3      7     1.50     1.25      NH         F
   4      6     1.50     1.25      C          F
   5      7     1.40     1.25      N          F
   6      7     1.40     1.25      N          F
   7      6     1.50     1.25      CH         F
   8      7     1.40     1.25      N          F
   9      6     1.50     1.25      C          F
  10      6     1.50     1.25      CH         F
  11      6     1.50     1.25      CH         F
  12      6     1.50     1.25      CH         F
  13      6     1.50     1.25      CH         F
  14      6     1.50     1.25      CH         F
  15      7     1.40     1.25      N          F
  16      6     1.50     1.25      CH3        F
  17      6     1.50     1.25      CH3        F
  18      8     1.40     1.25      O          F
  19      1     0.90     1.25      NH         F
  20      1     1.20     1.25      CH         F
  21      1     1.20     1.25      CH         F
  22      1     1.20     1.25      CH         F
  23      1     1.20     1.25      CH         F
  24      1     1.20     1.25      CH         F
  25      1     1.20     1.25      CH         F
  26      1     1.20     1.25      CH3        F
  27      1     1.20     1.25      CH3        F
  28      1     1.20     1.25      CH3        F
  29      1     1.20     1.25      CH3        F
  30      1     1.20     1.25      CH3        F
  31      1     1.20     1.25      CH3        F
 ------------------------------------------------------------------------------
 Polarizable Continuum Model (PCM)
 =================================
 Model                : PCM.
 Atomic radii         : MST.
 Polarization charges : Total charges.
 Charge compensation  : None.
 Solution method      : On-the-fly selection.
 Cavity type          : Scaled VdW (van der Waals Surface) (Alpha=1.250).
 Cavity algorithm     : GePol (No added spheres)
                        Default sphere list used, NSphG=   31.
                        Lebedev-Laikov grids with approx.  5.0 points / Ang**2.
                        Smoothing algorithm: York/Karplus (Gamma=1.0000).
                        Polarization charges: spherical gaussians, with
                                              point-specific exponents (IZeta= 3).
                        Self-potential: point-specific (ISelfS= 7).
                        Self-field    : sphere-specific E.n sum rule (ISelfD= 2).
 1st derivatives      : Analytical E(r).r(x)/FMM algorithm (CHGder, D1EAlg=3).
                        Cavity 1st derivative terms included.
 Solvent              : Water, Eps=  78.355300 Eps(inf)=   1.777849
 ------------------------------------------------------------------------------
 GePol: Number of generator spheres                  =      31
 GePol: Total number of spheres                      =      31
 GePol: Number of exposed spheres                    =      31 (100.00%)
 GePol: Number of points                             =    2337
 GePol: Average weight of points                     =       0.13
 GePol: Minimum weight of points                     =   0.12D-09
 GePol: Maximum weight of points                     =    0.22001
 GePol: Number of points with low weight             =     149
 GePol: Fraction of low-weight points (<1% of avg)   =       6.38%
 GePol: Cavity surface area                          =    306.749 Ang**2
 GePol: Cavity volume                                =    291.461 Ang**3
 PCM non-electrostatic energy =         0.0034351833 Hartrees.
 Nuclear repulsion after PCM non-electrostatic terms =     1464.5122705474 Hartrees.
 Leave Link  301 at Mon Sep 14 02:05:25 2020, MaxMem=  2147483648 cpu:               0.3 elap:               0.1
 (Enter /prod/apps/gaussian/g16b1/l302.exe)
 NPDir=0 NMtPBC=     1 NCelOv=     1 NCel=       1 NClECP=     1 NCelD=      1
         NCelK=      1 NCelE2=     1 NClLst=     1 CellRange=     0.0.
 One-electron integrals computed using PRISM.
 NBasis=   300 RedAO= T EigKep=  4.67D-04  NBF=   300
 NBsUse=   300 1.00D-06 EigRej= -1.00D+00 NBFU=   300
 Precomputing XC quadrature grid using
 IXCGrd= 4 IRadAn=           5 IRanWt=          -1 IRanGd=           0 AccXCQ= 0.00D+00.
 Generated NRdTot=       0 NPtTot=           0 NUsed=           0 NTot=          32
 NSgBfM=   298   297   298   298   298 MxSgAt=    31 MxSgA2=    31.
 Leave Link  302 at Mon Sep 14 02:05:25 2020, MaxMem=  2147483648 cpu:               1.4 elap:               0.4
 (Enter /prod/apps/gaussian/g16b1/l303.exe)
 DipDrv:  MaxL=1.
 Leave Link  303 at Mon Sep 14 02:05:25 2020, MaxMem=  2147483648 cpu:               0.1 elap:               0.1
 (Enter /prod/apps/gaussian/g16b1/l401.exe)
 ExpMin= 1.17D-01 ExpMax= 2.19D+04 ExpMxC= 3.30D+03 IAcc=3 IRadAn=         5 AccDes= 0.00D+00
 Harris functional with IExCor=  402 and IRadAn=       5 diagonalized for initial guess.
 HarFok:  IExCor=  402 AccDes= 0.00D+00 IRadAn=         5 IDoV= 1 UseB2=F ITyADJ=14
 ICtDFT=  3500011 ScaDFX=  1.000000  1.000000  1.000000  1.000000
 FoFCou: FMM=F IPFlag=           0 FMFlag=      100000 FMFlg1=           0
         NFxFlg=           0 DoJE=T BraDBF=F KetDBF=T FulRan=T
         wScrn=  0.000000 ICntrl=       500 IOpCl=  0 I1Cent=   200000004 NGrid=           0
         NMat0=    1 NMatS0=      1 NMatT0=    0 NMatD0=    1 NMtDS0=    0 NMtDT0=    0
 Symmetry not used in FoFCou.
 Harris En= -1211.15966467014    
 JPrj=0 DoOrth=F DoCkMO=F.
 Leave Link  401 at Mon Sep 14 02:05:27 2020, MaxMem=  2147483648 cpu:               7.7 elap:               1.9
 (Enter /prod/apps/gaussian/g16b1/l502.exe)
 Keep R1 ints in memory in canonical form, NReq=1032920423.
 FoFCou: FMM=F IPFlag=           0 FMFlag=           0 FMFlg1=           0
         NFxFlg=           0 DoJE=F BraDBF=F KetDBF=F FulRan=T
         wScrn=  0.000000 ICntrl=       600 IOpCl=  0 I1Cent=           0 NGrid=           0
         NMat0=    1 NMatS0=  45150 NMatT0=    0 NMatD0=    1 NMtDS0=    0 NMtDT0=    0
 Symmetry not used in FoFCou.
 Two-electron integral symmetry not used.
 Closed shell SCF:
 Using DIIS extrapolation, IDIIS=  1040.
 NGot=  2147483648 LenX=  1128015396 LenY=  1127924955
 Requested convergence on RMS density matrix=1.00D-08 within2000 cycles.
 Requested convergence on MAX density matrix=1.00D-06.
 Requested convergence on             energy=1.00D-06.
 No special actions if energy rises.

 Cycle   1  Pass 1  IDiag  1:
 Inv3:  Mode=1 IEnd=    16384707.
 Iteration    1 A*A^-1 deviation from unit magnitude is 3.55D-15 for   1113.
 Iteration    1 A*A^-1 deviation from orthogonality  is 2.49D-15 for   1586    752.
 Iteration    1 A^-1*A deviation from unit magnitude is 3.55D-15 for   1113.
 Iteration    1 A^-1*A deviation from orthogonality  is 3.01D-11 for   2272   2129.
 E= -1210.64975992256    
 DIIS: error= 3.02D-02 at cycle   1 NSaved=   1.
 NSaved= 1 IEnMin= 1 EnMin= -1210.64975992256     IErMin= 1 ErrMin= 3.02D-02
 ErrMax= 3.02D-02  0.00D+00 EMaxC= 1.00D-01 BMatC= 6.24D-01 BMatP= 6.24D-01
 IDIUse=3 WtCom= 6.98D-01 WtEn= 3.02D-01
 Coeff-Com:  0.100D+01
 Coeff-En:   0.100D+01
 Coeff:      0.100D+01
 Gap=     0.301 Goal=   None    Shift=    0.000
 GapD=    0.301 DampG=1.000 DampE=0.500 DampFc=0.5000 IDamp=-1.
 Damping current iteration by 5.00D-01
 RMSDP=6.18D-03 MaxDP=5.90D-01              OVMax= 2.25D-01

 Cycle   2  Pass 1  IDiag  1:
 E= -1210.79449814962     Delta-E=       -0.144738227060 Rises=F Damp=T
 DIIS: error= 1.41D-02 at cycle   2 NSaved=   2.
 NSaved= 2 IEnMin= 2 EnMin= -1210.79449814962     IErMin= 2 ErrMin= 1.41D-02
 ErrMax= 1.41D-02  0.00D+00 EMaxC= 1.00D-01 BMatC= 8.95D-02 BMatP= 6.24D-01
 IDIUse=3 WtCom= 8.59D-01 WtEn= 1.41D-01
 Coeff-Com:  0.218D+00 0.782D+00
 Coeff-En:   0.350D+00 0.650D+00
 Coeff:      0.237D+00 0.763D+00
 Gap=     0.217 Goal=   None    Shift=    0.000
 RMSDP=1.68D-03 MaxDP=1.28D-01 DE=-1.45D-01 OVMax= 1.76D-01

 Cycle   3  Pass 1  IDiag  1:
 E= -1211.15117424572     Delta-E=       -0.356676096101 Rises=F Damp=F
 DIIS: error= 7.59D-03 at cycle   3 NSaved=   3.
 NSaved= 3 IEnMin= 3 EnMin= -1211.15117424572     IErMin= 3 ErrMin= 7.59D-03
 ErrMax= 7.59D-03  0.00D+00 EMaxC= 1.00D-01 BMatC= 4.00D-02 BMatP= 8.95D-02
 IDIUse=3 WtCom= 9.24D-01 WtEn= 7.59D-02
 Coeff-Com:  0.642D-01 0.402D+00 0.534D+00
 Coeff-En:   0.000D+00 0.000D+00 0.100D+01
 Coeff:      0.593D-01 0.371D+00 0.570D+00
 Gap=     0.201 Goal=   None    Shift=    0.000
 RMSDP=8.69D-04 MaxDP=2.75D-02 DE=-3.57D-01 OVMax= 3.83D-02

 Cycle   4  Pass 1  IDiag  1:
 E= -1211.18062537076     Delta-E=       -0.029451125042 Rises=F Damp=F
 DIIS: error= 2.88D-03 at cycle   4 NSaved=   4.
 NSaved= 4 IEnMin= 4 EnMin= -1211.18062537076     IErMin= 4 ErrMin= 2.88D-03
 ErrMax= 2.88D-03  0.00D+00 EMaxC= 1.00D-01 BMatC= 6.72D-03 BMatP= 4.00D-02
 IDIUse=3 WtCom= 9.71D-01 WtEn= 2.88D-02
 Coeff-Com:  0.336D-02 0.884D-01 0.309D+00 0.599D+00
 Coeff-En:   0.000D+00 0.000D+00 0.130D+00 0.870D+00
 Coeff:      0.327D-02 0.859D-01 0.304D+00 0.607D+00
 Gap=     0.198 Goal=   None    Shift=    0.000
 RMSDP=2.98D-04 MaxDP=1.40D-02 DE=-2.95D-02 OVMax= 1.76D-02

 Cycle   5  Pass 1  IDiag  1:
 E= -1211.18597764174     Delta-E=       -0.005352270979 Rises=F Damp=F
 DIIS: error= 8.28D-04 at cycle   5 NSaved=   5.
 NSaved= 5 IEnMin= 5 EnMin= -1211.18597764174     IErMin= 5 ErrMin= 8.28D-04
 ErrMax= 8.28D-04  0.00D+00 EMaxC= 1.00D-01 BMatC= 4.93D-04 BMatP= 6.72D-03
 IDIUse=3 WtCom= 9.92D-01 WtEn= 8.28D-03
 Coeff-Com: -0.298D-02 0.179D-01 0.113D+00 0.311D+00 0.561D+00
 Coeff-En:   0.000D+00 0.000D+00 0.000D+00 0.000D+00 0.100D+01
 Coeff:     -0.295D-02 0.178D-01 0.112D+00 0.308D+00 0.565D+00
 Gap=     0.198 Goal=   None    Shift=    0.000
 RMSDP=8.51D-05 MaxDP=4.53D-03 DE=-5.35D-03 OVMax= 4.67D-03

 Cycle   6  Pass 1  IDiag  1:
 E= -1211.18638284834     Delta-E=       -0.000405206592 Rises=F Damp=F
 DIIS: error= 1.97D-04 at cycle   6 NSaved=   6.
 NSaved= 6 IEnMin= 6 EnMin= -1211.18638284834     IErMin= 6 ErrMin= 1.97D-04
 ErrMax= 1.97D-04  0.00D+00 EMaxC= 1.00D-01 BMatC= 3.10D-05 BMatP= 4.93D-04
 IDIUse=3 WtCom= 9.98D-01 WtEn= 1.97D-03
 Coeff-Com: -0.181D-02 0.321D-02 0.346D-01 0.111D+00 0.282D+00 0.571D+00
 Coeff-En:   0.000D+00 0.000D+00 0.000D+00 0.000D+00 0.000D+00 0.100D+01
 Coeff:     -0.181D-02 0.320D-02 0.345D-01 0.111D+00 0.281D+00 0.572D+00
 Gap=     0.198 Goal=   None    Shift=    0.000
 RMSDP=1.95D-05 MaxDP=8.00D-04 DE=-4.05D-04 OVMax= 1.33D-03

 Cycle   7  Pass 1  IDiag  1:
 E= -1211.18640701803     Delta-E=       -0.000024169699 Rises=F Damp=F
 DIIS: error= 5.98D-05 at cycle   7 NSaved=   7.
 NSaved= 7 IEnMin= 7 EnMin= -1211.18640701803     IErMin= 7 ErrMin= 5.98D-05
 ErrMax= 5.98D-05  0.00D+00 EMaxC= 1.00D-01 BMatC= 3.01D-06 BMatP= 3.10D-05
 IDIUse=1 WtCom= 1.00D+00 WtEn= 0.00D+00
 Coeff-Com: -0.810D-03 0.410D-03 0.103D-01 0.372D-01 0.113D+00 0.312D+00
 Coeff-Com:  0.528D+00
 Coeff:     -0.810D-03 0.410D-03 0.103D-01 0.372D-01 0.113D+00 0.312D+00
 Coeff:      0.528D+00
 Gap=     0.198 Goal=   None    Shift=    0.000
 RMSDP=6.48D-06 MaxDP=2.46D-04 DE=-2.42D-05 OVMax= 3.95D-04

 Cycle   8  Pass 1  IDiag  1:
 E= -1211.18640937767     Delta-E=       -0.000002359634 Rises=F Damp=F
 DIIS: error= 2.25D-05 at cycle   8 NSaved=   8.
 NSaved= 8 IEnMin= 8 EnMin= -1211.18640937767     IErMin= 8 ErrMin= 2.25D-05
 ErrMax= 2.25D-05  0.00D+00 EMaxC= 1.00D-01 BMatC= 3.16D-07 BMatP= 3.01D-06
 IDIUse=1 WtCom= 1.00D+00 WtEn= 0.00D+00
 Coeff-Com: -0.245D-03-0.118D-03 0.175D-02 0.769D-02 0.306D-01 0.108D+00
 Coeff-Com:  0.289D+00 0.563D+00
 Coeff:     -0.245D-03-0.118D-03 0.175D-02 0.769D-02 0.306D-01 0.108D+00
 Coeff:      0.289D+00 0.563D+00
 Gap=     0.198 Goal=   None    Shift=    0.000
 RMSDP=2.11D-06 MaxDP=9.91D-05 DE=-2.36D-06 OVMax= 1.35D-04

 Cycle   9  Pass 1  IDiag  1:
 E= -1211.18640960289     Delta-E=       -0.000000225224 Rises=F Damp=F
 DIIS: error= 6.69D-06 at cycle   9 NSaved=   9.
 NSaved= 9 IEnMin= 9 EnMin= -1211.18640960289     IErMin= 9 ErrMin= 6.69D-06
 ErrMax= 6.69D-06  0.00D+00 EMaxC= 1.00D-01 BMatC= 4.13D-08 BMatP= 3.16D-07
 IDIUse=1 WtCom= 1.00D+00 WtEn= 0.00D+00
 Coeff-Com: -0.240D-04-0.107D-03-0.448D-03-0.920D-03 0.127D-02 0.156D-01
 Coeff-Com:  0.843D-01 0.315D+00 0.585D+00
 Coeff:     -0.240D-04-0.107D-03-0.448D-03-0.920D-03 0.127D-02 0.156D-01
 Coeff:      0.843D-01 0.315D+00 0.585D+00
 Gap=     0.198 Goal=   None    Shift=    0.000
 RMSDP=6.71D-07 MaxDP=2.51D-05 DE=-2.25D-07 OVMax= 3.20D-05

 Cycle  10  Pass 1  IDiag  1:
 E= -1211.18640963448     Delta-E=       -0.000000031588 Rises=F Damp=F
 DIIS: error= 1.87D-06 at cycle  10 NSaved=  10.
 NSaved=10 IEnMin=10 EnMin= -1211.18640963448     IErMin=10 ErrMin= 1.87D-06
 ErrMax= 1.87D-06  0.00D+00 EMaxC= 1.00D-01 BMatC= 2.33D-09 BMatP= 4.13D-08
 IDIUse=1 WtCom= 1.00D+00 WtEn= 0.00D+00
 Coeff-Com: -0.749D-06-0.495D-04-0.330D-03-0.902D-03-0.107D-02 0.174D-02
 Coeff-Com:  0.274D-01 0.132D+00 0.296D+00 0.545D+00
 Coeff:     -0.749D-06-0.495D-04-0.330D-03-0.902D-03-0.107D-02 0.174D-02
 Coeff:      0.274D-01 0.132D+00 0.296D+00 0.545D+00
 Gap=     0.198 Goal=   None    Shift=    0.000
 RMSDP=1.92D-07 MaxDP=8.06D-06 DE=-3.16D-08 OVMax= 1.37D-05

 Cycle  11  Pass 1  IDiag  1:
 E= -1211.18640963641     Delta-E=       -0.000000001926 Rises=F Damp=F
 DIIS: error= 4.90D-07 at cycle  11 NSaved=  11.
 NSaved=11 IEnMin=11 EnMin= -1211.18640963641     IErMin=11 ErrMin= 4.90D-07
 ErrMax= 4.90D-07  0.00D+00 EMaxC= 1.00D-01 BMatC= 1.86D-10 BMatP= 2.33D-09
 IDIUse=1 WtCom= 1.00D+00 WtEn= 0.00D+00
 Coeff-Com:  0.281D-05-0.404D-05-0.881D-04-0.280D-03-0.669D-03-0.143D-02
 Coeff-Com:  0.997D-03 0.170D-01 0.469D-01 0.242D+00 0.696D+00
 Coeff:      0.281D-05-0.404D-05-0.881D-04-0.280D-03-0.669D-03-0.143D-02
 Coeff:      0.997D-03 0.170D-01 0.469D-01 0.242D+00 0.696D+00
 Gap=     0.198 Goal=   None    Shift=    0.000
 RMSDP=5.35D-08 MaxDP=2.38D-06 DE=-1.93D-09 OVMax= 6.10D-06

 Cycle  12  Pass 1  IDiag  1:
 E= -1211.18640963658     Delta-E=       -0.000000000176 Rises=F Damp=F
 DIIS: error= 1.65D-07 at cycle  12 NSaved=  12.
 NSaved=12 IEnMin=12 EnMin= -1211.18640963658     IErMin=12 ErrMin= 1.65D-07
 ErrMax= 1.65D-07  0.00D+00 EMaxC= 1.00D-01 BMatC= 2.44D-11 BMatP= 1.86D-10
 IDIUse=1 WtCom= 1.00D+00 WtEn= 0.00D+00
 Coeff-Com:  0.179D-05 0.146D-06-0.342D-04-0.114D-03-0.351D-03-0.102D-02
 Coeff-Com: -0.126D-02 0.140D-02 0.725D-02 0.103D+00 0.387D+00 0.504D+00
 Coeff:      0.179D-05 0.146D-06-0.342D-04-0.114D-03-0.351D-03-0.102D-02
 Coeff:     -0.126D-02 0.140D-02 0.725D-02 0.103D+00 0.387D+00 0.504D+00
 Gap=     0.198 Goal=   None    Shift=    0.000
 RMSDP=1.85D-08 MaxDP=8.17D-07 DE=-1.76D-10 OVMax= 1.15D-06

 Cycle  13  Pass 1  IDiag  1:
 E= -1211.18640963660     Delta-E=       -0.000000000019 Rises=F Damp=F
 DIIS: error= 5.60D-08 at cycle  13 NSaved=  13.
 NSaved=13 IEnMin=13 EnMin= -1211.18640963660     IErMin=13 ErrMin= 5.60D-08
 ErrMax= 5.60D-08  0.00D+00 EMaxC= 1.00D-01 BMatC= 2.11D-12 BMatP= 2.44D-11
 IDIUse=1 WtCom= 1.00D+00 WtEn= 0.00D+00
 Coeff-Com:  0.378D-06 0.718D-06-0.179D-05-0.674D-05-0.554D-04-0.244D-03
 Coeff-Com: -0.730D-03-0.208D-02-0.500D-02 0.100D-01 0.719D-01 0.246D+00
 Coeff-Com:  0.680D+00
 Coeff:      0.378D-06 0.718D-06-0.179D-05-0.674D-05-0.554D-04-0.244D-03
 Coeff:     -0.730D-03-0.208D-02-0.500D-02 0.100D-01 0.719D-01 0.246D+00
 Coeff:      0.680D+00
 Gap=     0.198 Goal=   None    Shift=    0.000
 RMSDP=6.35D-09 MaxDP=4.22D-07 DE=-1.91D-11 OVMax= 4.80D-07

 Error on total polarization charges =  0.02090
 SCF Done:  E(RB3LYP) =  -1211.18640964     A.U. after   13 cycles
            NFock= 13  Conv=0.64D-08     -V/T= 2.0076
 KE= 1.202084331332D+03 PE=-5.765865113289D+03 EE= 1.888082101773D+03
 Leave Link  502 at Mon Sep 14 02:06:28 2020, MaxMem=  2147483648 cpu:             193.3 elap:              61.2
 (Enter /prod/apps/gaussian/g16b1/l601.exe)
 Copying SCF densities to generalized density rwf, IOpCl= 0 IROHF=0.

 **********************************************************************

            Population analysis using the SCF Density.

 **********************************************************************

 Alpha  occ. eigenvalues --  -89.14198 -19.16031 -19.15874 -14.44767 -14.40560
 Alpha  occ. eigenvalues --  -14.38647 -14.37977 -14.37337 -10.26617 -10.25115
 Alpha  occ. eigenvalues --  -10.24477 -10.21911 -10.21860 -10.20680 -10.20402
 Alpha  occ. eigenvalues --  -10.20188 -10.20130 -10.19896  -8.16448  -6.12930
 Alpha  occ. eigenvalues --   -6.12872  -6.12838  -1.13537  -1.11535  -1.01755
 Alpha  occ. eigenvalues --   -0.96248  -0.94355  -0.92868  -0.86133  -0.81362
 Alpha  occ. eigenvalues --   -0.76505  -0.75959  -0.72534  -0.71347  -0.66753
 Alpha  occ. eigenvalues --   -0.65313  -0.61691  -0.60405  -0.59942  -0.56731
 Alpha  occ. eigenvalues --   -0.54739  -0.52285  -0.51608  -0.49890  -0.49038
 Alpha  occ. eigenvalues --   -0.48568  -0.47687  -0.46196  -0.45553  -0.44898
 Alpha  occ. eigenvalues --   -0.44266  -0.43353  -0.42085  -0.40686  -0.39223
 Alpha  occ. eigenvalues --   -0.38561  -0.37281  -0.36488  -0.35995  -0.35734
 Alpha  occ. eigenvalues --   -0.35160  -0.34285  -0.32866  -0.32232  -0.31260
 Alpha  occ. eigenvalues --   -0.29231  -0.26943  -0.26451  -0.25967  -0.24321
 Alpha virt. eigenvalues --   -0.04515  -0.01489   0.00872   0.02254   0.06153
 Alpha virt. eigenvalues --    0.07973   0.08904   0.09214   0.09482   0.11346
 Alpha virt. eigenvalues --    0.12115   0.13749   0.14306   0.14990   0.15332
 Alpha virt. eigenvalues --    0.15964   0.16093   0.17041   0.18032   0.18409
 Alpha virt. eigenvalues --    0.18904   0.19050   0.19653   0.20563   0.21666
 Alpha virt. eigenvalues --    0.22434   0.23382   0.26337   0.29354   0.30438
 Alpha virt. eigenvalues --    0.30679   0.32904   0.33968   0.36449   0.37900
 Alpha virt. eigenvalues --    0.39569   0.40632   0.43081   0.44115   0.47782
 Alpha virt. eigenvalues --    0.48722   0.48907   0.50321   0.50934   0.52463
 Alpha virt. eigenvalues --    0.53881   0.54483   0.55785   0.56491   0.57185
 Alpha virt. eigenvalues --    0.57764   0.58105   0.58733   0.59369   0.59681
 Alpha virt. eigenvalues --    0.60480   0.60950   0.61582   0.62881   0.64155
 Alpha virt. eigenvalues --    0.64558   0.66504   0.67613   0.68384   0.69632
 Alpha virt. eigenvalues --    0.70671   0.72445   0.74194   0.74634   0.76693
 Alpha virt. eigenvalues --    0.77247   0.77734   0.78751   0.80296   0.80701
 Alpha virt. eigenvalues --    0.81767   0.83025   0.83487   0.83949   0.84175
 Alpha virt. eigenvalues --    0.85678   0.86666   0.87363   0.87886   0.89233
 Alpha virt. eigenvalues --    0.90225   0.90880   0.91934   0.92988   0.93114
 Alpha virt. eigenvalues --    0.94503   0.95283   0.96032   0.97157   0.98004
 Alpha virt. eigenvalues --    0.99444   1.00497   1.01831   1.03648   1.03820
 Alpha virt. eigenvalues --    1.05913   1.07045   1.07871   1.08540   1.10147
 Alpha virt. eigenvalues --    1.13643   1.14711   1.15017   1.16781   1.17445
 Alpha virt. eigenvalues --    1.17969   1.19142   1.21423   1.22251   1.25092
 Alpha virt. eigenvalues --    1.27720   1.29678   1.30656   1.33152   1.37155
 Alpha virt. eigenvalues --    1.38433   1.40835   1.41506   1.42698   1.44075
 Alpha virt. eigenvalues --    1.44715   1.46092   1.47216   1.48224   1.49884
 Alpha virt. eigenvalues --    1.53764   1.55105   1.55743   1.57360   1.58687
 Alpha virt. eigenvalues --    1.61595   1.63066   1.68886   1.69822   1.76369
 Alpha virt. eigenvalues --    1.77300   1.79407   1.79595   1.80228   1.81562
 Alpha virt. eigenvalues --    1.82489   1.83908   1.84966   1.86617   1.87951
 Alpha virt. eigenvalues --    1.88947   1.89932   1.93567   1.94335   1.95499
 Alpha virt. eigenvalues --    1.96640   1.97754   1.98217   2.00483   2.04874
 Alpha virt. eigenvalues --    2.05339   2.06112   2.07531   2.09017   2.09706
 Alpha virt. eigenvalues --    2.10513   2.11974   2.12786   2.14495   2.14957
 Alpha virt. eigenvalues --    2.17691   2.18073   2.20022   2.20439   2.23597
 Alpha virt. eigenvalues --    2.24599   2.26127   2.28288   2.29265   2.30089
 Alpha virt. eigenvalues --    2.31753   2.33176   2.35463   2.36228   2.40605
 Alpha virt. eigenvalues --    2.42317   2.47869   2.48860   2.50479   2.53679
 Alpha virt. eigenvalues --    2.57882   2.57932   2.58626   2.59942   2.63261
 Alpha virt. eigenvalues --    2.64223   2.67096   2.69433   2.69985   2.72165
 Alpha virt. eigenvalues --    2.74205   2.76046   2.77398   2.78774   2.81798
 Alpha virt. eigenvalues --    2.87493   2.88176   2.99788   3.05659   3.13091
 Alpha virt. eigenvalues --    3.25438   3.42234   3.61171   3.80408   3.90866
 Alpha virt. eigenvalues --    3.96232   3.99462   4.02851   4.06757   4.08855
 Alpha virt. eigenvalues --    4.10509   4.14015   4.18613   4.23685   4.26516
 Alpha virt. eigenvalues --    4.31721   4.34239   4.39618   4.49092   4.70956
          Condensed to atoms (all electrons):
               1          2          3          4          5          6
     1  O    8.244188   0.471358  -0.056456   0.000406  -0.000018   0.000000
     2  S    0.471358  13.520749   0.171305  -0.013627  -0.004272   0.000436
     3  N   -0.056456   0.171305   7.354630   0.256743  -0.067246   0.006061
     4  C    0.000406  -0.013627   0.256743   4.625171   0.358493  -0.082572
     5  N   -0.000018  -0.004272  -0.067246   0.358493   6.918789   0.296843
     6  N    0.000000   0.000436   0.006061  -0.082572   0.296843   6.774387
     7  C    0.000015  -0.000098  -0.060295   0.530809  -0.071135  -0.095464
     8  N   -0.000000  -0.000375   0.002941  -0.033479  -0.094813   0.229049
     9  C   -0.000000  -0.000004  -0.000108   0.004678   0.006915  -0.043908
    10  C   -0.000000  -0.000003   0.000003   0.000962  -0.000320   0.002985
    11  C   -0.000000  -0.000000   0.000000  -0.000009   0.000002  -0.000067
    12  C    0.000000   0.000000  -0.000000   0.000000  -0.000000   0.000018
    13  C   -0.000000  -0.000000  -0.000000   0.000006  -0.000004   0.000288
    14  C   -0.000000   0.000000   0.000000  -0.000486   0.000375  -0.000674
    15  N   -0.060153   0.176927  -0.055796  -0.000962   0.000502  -0.000003
    16  C   -0.003932  -0.023221   0.002200  -0.000061  -0.000009   0.000000
    17  C    0.001642  -0.008820  -0.002976   0.001099  -0.006891   0.000065
    18  O   -0.046196   0.433561  -0.059007   0.001193  -0.000175   0.000006
    19  H   -0.000359  -0.006700   0.295620  -0.025326   0.002473  -0.000042
    20  H   -0.000011   0.001059  -0.000325  -0.026767   0.004137   0.003471
    21  H    0.000000   0.000002  -0.000001   0.000023  -0.000004  -0.000081
    22  H   -0.000000  -0.000000   0.000000   0.000000  -0.000000   0.000001
    23  H   -0.000000  -0.000000  -0.000000  -0.000000   0.000000   0.000000
    24  H   -0.000000  -0.000000   0.000000  -0.000000   0.000000  -0.000008
    25  H   -0.000000  -0.000000  -0.000000   0.000026  -0.000318   0.016254
    26  H    0.010721  -0.003554   0.000093  -0.000000   0.000000  -0.000000
    27  H    0.000210   0.001603  -0.000080   0.000001   0.000000  -0.000000
    28  H   -0.000595  -0.003094  -0.000086   0.000002   0.000000  -0.000000
    29  H   -0.000017  -0.002469   0.003487  -0.001433   0.016265  -0.000443
    30  H   -0.000057  -0.007979  -0.000293   0.000100   0.000160  -0.000009
    31  H   -0.000051   0.001979  -0.000119   0.000076   0.000073  -0.000001
               7          8          9         10         11         12
     1  O    0.000015  -0.000000  -0.000000  -0.000000  -0.000000   0.000000
     2  S   -0.000098  -0.000375  -0.000004  -0.000003  -0.000000   0.000000
     3  N   -0.060295   0.002941  -0.000108   0.000003   0.000000  -0.000000
     4  C    0.530809  -0.033479   0.004678   0.000962  -0.000009   0.000000
     5  N   -0.071135  -0.094813   0.006915  -0.000320   0.000002  -0.000000
     6  N   -0.095464   0.229049  -0.043908   0.002985  -0.000067   0.000018
     7  C    4.953263   0.335740  -0.033347  -0.006510   0.000012   0.000019
     8  N    0.335740   6.872012   0.200640  -0.050687   0.004670   0.000332
     9  C   -0.033347   0.200640   4.625210   0.529456  -0.009823  -0.038267
    10  C   -0.006510  -0.050687   0.529456   4.992068   0.526124  -0.040834
    11  C    0.000012   0.004670  -0.009823   0.526124   4.866011   0.543263
    12  C    0.000019   0.000332  -0.038267  -0.040834   0.543263   4.871850
    13  C   -0.000087   0.004562  -0.010584  -0.042181  -0.024681   0.538836
    14  C    0.007218  -0.058851   0.512827  -0.071297  -0.041623  -0.039175
    15  N    0.000119   0.000000  -0.000000   0.000000  -0.000000   0.000000
    16  C   -0.000002   0.000000   0.000000  -0.000000  -0.000000   0.000000
    17  C   -0.000088  -0.000020   0.000001  -0.000000   0.000000   0.000000
    18  O    0.003879  -0.000108   0.000006  -0.000005  -0.000000   0.000000
    19  H    0.002963   0.000046  -0.000001   0.000000  -0.000000  -0.000000
    20  H    0.363293  -0.034266  -0.001768   0.002048   0.000157  -0.000001
    21  H    0.005720  -0.009087  -0.038998   0.354246  -0.035066   0.004281
    22  H   -0.000004  -0.000109   0.003435  -0.037734   0.363799  -0.039643
    23  H   -0.000000   0.000003   0.000471   0.004870  -0.041312   0.366072
    24  H    0.000001  -0.000104   0.003567   0.000708   0.004469  -0.040112
    25  H    0.000219  -0.013715  -0.039644   0.005516   0.000088   0.004501
    26  H    0.000000   0.000000   0.000000  -0.000000  -0.000000   0.000000
    27  H    0.000000  -0.000000  -0.000000   0.000000  -0.000000  -0.000000
    28  H   -0.000001   0.000000  -0.000000   0.000000   0.000000  -0.000000
    29  H    0.000765   0.000086  -0.000006   0.000000  -0.000000  -0.000000
    30  H   -0.000051   0.000002  -0.000000   0.000000  -0.000000  -0.000000
    31  H    0.000002  -0.000000  -0.000000   0.000000  -0.000000  -0.000000
              13         14         15         16         17         18
     1  O   -0.000000  -0.000000  -0.060153  -0.003932   0.001642  -0.046196
     2  S   -0.000000   0.000000   0.176927  -0.023221  -0.008820   0.433561
     3  N   -0.000000   0.000000  -0.055796   0.002200  -0.002976  -0.059007
     4  C    0.000006  -0.000486  -0.000962  -0.000061   0.001099   0.001193
     5  N   -0.000004   0.000375   0.000502  -0.000009  -0.006891  -0.000175
     6  N    0.000288  -0.000674  -0.000003   0.000000   0.000065   0.000006
     7  C   -0.000087   0.007218   0.000119  -0.000002  -0.000088   0.003879
     8  N    0.004562  -0.058851   0.000000   0.000000  -0.000020  -0.000108
     9  C   -0.010584   0.512827  -0.000000   0.000000   0.000001   0.000006
    10  C   -0.042181  -0.071297   0.000000  -0.000000  -0.000000  -0.000005
    11  C   -0.024681  -0.041623  -0.000000  -0.000000   0.000000  -0.000000
    12  C    0.538836  -0.039175   0.000000   0.000000   0.000000   0.000000
    13  C    4.880300   0.519196   0.000000  -0.000000  -0.000000  -0.000000
    14  C    0.519196   4.998499   0.000000  -0.000000   0.000000   0.000000
    15  N    0.000000   0.000000   7.196550   0.276868   0.260457  -0.053637
    16  C   -0.000000  -0.000000   0.276868   5.000937  -0.049959  -0.002208
    17  C   -0.000000   0.000000   0.260457  -0.049959   5.033679   0.001922
    18  O   -0.000000   0.000000  -0.053637  -0.002208   0.001922   8.282526
    19  H    0.000000  -0.000000   0.003670  -0.000032  -0.000672   0.001331
    20  H   -0.000005  -0.000089   0.000005   0.000000   0.000007   0.000978
    21  H    0.000203   0.005273   0.000000  -0.000000   0.000000   0.000000
    22  H    0.004434   0.000732   0.000000  -0.000000  -0.000000  -0.000000
    23  H   -0.041562   0.004679   0.000000   0.000000   0.000000   0.000000
    24  H    0.364105  -0.037965   0.000000  -0.000000  -0.000000  -0.000000
    25  H   -0.037971   0.356669   0.000000  -0.000000   0.000000   0.000000
    26  H   -0.000000  -0.000000  -0.033235   0.377257   0.004584  -0.000193
    27  H    0.000000   0.000000  -0.036023   0.379259  -0.002928  -0.000106
    28  H    0.000000   0.000000  -0.046602   0.371843  -0.002353   0.002757
    29  H   -0.000000  -0.000000  -0.032262   0.004487   0.363643  -0.001639
    30  H    0.000000   0.000000  -0.045140  -0.002563   0.370734   0.005991
    31  H    0.000000   0.000000  -0.032290  -0.004443   0.377259   0.000036
              19         20         21         22         23         24
     1  O   -0.000359  -0.000011   0.000000  -0.000000  -0.000000  -0.000000
     2  S   -0.006700   0.001059   0.000002  -0.000000  -0.000000  -0.000000
     3  N    0.295620  -0.000325  -0.000001   0.000000  -0.000000   0.000000
     4  C   -0.025326  -0.026767   0.000023   0.000000  -0.000000  -0.000000
     5  N    0.002473   0.004137  -0.000004  -0.000000   0.000000   0.000000
     6  N   -0.000042   0.003471  -0.000081   0.000001   0.000000  -0.000008
     7  C    0.002963   0.363293   0.005720  -0.000004  -0.000000   0.000001
     8  N    0.000046  -0.034266  -0.009087  -0.000109   0.000003  -0.000104
     9  C   -0.000001  -0.001768  -0.038998   0.003435   0.000471   0.003567
    10  C    0.000000   0.002048   0.354246  -0.037734   0.004870   0.000708
    11  C   -0.000000   0.000157  -0.035066   0.363799  -0.041312   0.004469
    12  C   -0.000000  -0.000001   0.004281  -0.039643   0.366072  -0.040112
    13  C    0.000000  -0.000005   0.000203   0.004434  -0.041562   0.364105
    14  C   -0.000000  -0.000089   0.005273   0.000732   0.004679  -0.037965
    15  N    0.003670   0.000005   0.000000   0.000000   0.000000   0.000000
    16  C   -0.000032   0.000000  -0.000000  -0.000000   0.000000  -0.000000
    17  C   -0.000672   0.000007   0.000000  -0.000000   0.000000  -0.000000
    18  O    0.001331   0.000978   0.000000  -0.000000   0.000000  -0.000000
    19  H    0.302881  -0.000087  -0.000000   0.000000  -0.000000  -0.000000
    20  H   -0.000087   0.459599   0.001523  -0.000001  -0.000000   0.000000
    21  H   -0.000000   0.001523   0.540708  -0.005089  -0.000143   0.000013
    22  H    0.000000  -0.000001  -0.005089   0.550814  -0.005081  -0.000164
    23  H   -0.000000  -0.000000  -0.000143  -0.005081   0.557047  -0.005089
    24  H   -0.000000   0.000000   0.000013  -0.000164  -0.005089   0.551924
    25  H   -0.000000  -0.000010  -0.000129   0.000013  -0.000134  -0.005140
    26  H   -0.000010   0.000000  -0.000000   0.000000   0.000000  -0.000000
    27  H   -0.000005   0.000000   0.000000   0.000000   0.000000  -0.000000
    28  H    0.000005  -0.000000   0.000000   0.000000  -0.000000   0.000000
    29  H    0.000526  -0.000010  -0.000000   0.000000  -0.000000  -0.000000
    30  H    0.000031  -0.000002  -0.000000   0.000000  -0.000000   0.000000
    31  H   -0.000010   0.000000   0.000000   0.000000   0.000000  -0.000000
              25         26         27         28         29         30
     1  O   -0.000000   0.010721   0.000210  -0.000595  -0.000017  -0.000057
     2  S   -0.000000  -0.003554   0.001603  -0.003094  -0.002469  -0.007979
     3  N   -0.000000   0.000093  -0.000080  -0.000086   0.003487  -0.000293
     4  C    0.000026  -0.000000   0.000001   0.000002  -0.001433   0.000100
     5  N   -0.000318   0.000000   0.000000   0.000000   0.016265   0.000160
     6  N    0.016254  -0.000000  -0.000000  -0.000000  -0.000443  -0.000009
     7  C    0.000219   0.000000   0.000000  -0.000001   0.000765  -0.000051
     8  N   -0.013715   0.000000  -0.000000   0.000000   0.000086   0.000002
     9  C   -0.039644   0.000000  -0.000000  -0.000000  -0.000006  -0.000000
    10  C    0.005516  -0.000000   0.000000   0.000000   0.000000   0.000000
    11  C    0.000088  -0.000000  -0.000000   0.000000  -0.000000  -0.000000
    12  C    0.004501   0.000000  -0.000000  -0.000000  -0.000000  -0.000000
    13  C   -0.037971  -0.000000   0.000000   0.000000  -0.000000   0.000000
    14  C    0.356669  -0.000000   0.000000   0.000000  -0.000000   0.000000
    15  N    0.000000  -0.033235  -0.036023  -0.046602  -0.032262  -0.045140
    16  C   -0.000000   0.377257   0.379259   0.371843   0.004487  -0.002563
    17  C    0.000000   0.004584  -0.002928  -0.002353   0.363643   0.370734
    18  O    0.000000  -0.000193  -0.000106   0.002757  -0.001639   0.005991
    19  H   -0.000000  -0.000010  -0.000005   0.000005   0.000526   0.000031
    20  H   -0.000010   0.000000   0.000000  -0.000000  -0.000010  -0.000002
    21  H   -0.000129  -0.000000   0.000000   0.000000  -0.000000  -0.000000
    22  H    0.000013   0.000000   0.000000   0.000000   0.000000   0.000000
    23  H   -0.000134   0.000000   0.000000  -0.000000  -0.000000  -0.000000
    24  H   -0.005140  -0.000000  -0.000000   0.000000  -0.000000   0.000000
    25  H    0.539110   0.000000   0.000000   0.000000  -0.000000  -0.000000
    26  H    0.000000   0.501159  -0.020592  -0.031282  -0.000188  -0.000196
    27  H    0.000000  -0.020592   0.524197  -0.037373   0.000095  -0.001597
    28  H    0.000000  -0.031282  -0.037373   0.567958  -0.000156   0.008395
    29  H   -0.000000  -0.000188   0.000095  -0.000156   0.506210  -0.030204
    30  H   -0.000000  -0.000196  -0.001597   0.008395  -0.030204   0.563398
    31  H    0.000000   0.000029   0.005276  -0.001284  -0.021649  -0.033133
              31
     1  O   -0.000051
     2  S    0.001979
     3  N   -0.000119
     4  C    0.000076
     5  N    0.000073
     6  N   -0.000001
     7  C    0.000002
     8  N   -0.000000
     9  C   -0.000000
    10  C    0.000000
    11  C   -0.000000
    12  C   -0.000000
    13  C    0.000000
    14  C    0.000000
    15  N   -0.032290
    16  C   -0.004443
    17  C    0.377259
    18  O    0.000036
    19  H   -0.000010
    20  H    0.000000
    21  H    0.000000
    22  H    0.000000
    23  H    0.000000
    24  H   -0.000000
    25  H    0.000000
    26  H    0.000029
    27  H    0.005276
    28  H   -0.001284
    29  H   -0.021649
    30  H   -0.033133
    31  H    0.518638
 Mulliken charges:
               1
     1  O   -0.560697
     2  S    1.295238
     3  N   -0.790297
     4  C    0.404931
     5  N   -0.359824
     6  N   -0.106593
     7  C    0.063041
     8  N   -0.354470
     9  C    0.329251
    10  C   -0.169416
    11  C   -0.156015
    12  C   -0.131140
    13  C   -0.154855
    14  C   -0.155310
    15  N   -0.518995
    16  C   -0.326423
    17  C   -0.340386
    18  O   -0.570912
    19  H    0.423700
    20  H    0.227065
    21  H    0.176605
    22  H    0.164595
    23  H    0.160177
    24  H    0.163795
    25  H    0.174664
    26  H    0.195407
    27  H    0.188062
    28  H    0.171863
    29  H    0.194912
    30  H    0.172413
    31  H    0.189611
 Sum of Mulliken charges =  -0.00000
 Mulliken charges with hydrogens summed into heavy atoms:
               1
     1  O   -0.560697
     2  S    1.295238
     3  N   -0.366596
     4  C    0.404931
     5  N   -0.359824
     6  N   -0.106593
     7  C    0.290105
     8  N   -0.354470
     9  C    0.329251
    10  C    0.007189
    11  C    0.008581
    12  C    0.029037
    13  C    0.008939
    14  C    0.019354
    15  N   -0.518995
    16  C    0.228909
    17  C    0.216551
    18  O   -0.570912
 Electronic spatial extent (au):  <R**2>=           6712.9109
 Charge=             -0.0000 electrons
 Dipole moment (field-independent basis, Debye):
    X=              3.1004    Y=              0.7365    Z=              1.4030  Tot=              3.4819
 Quadrupole moment (field-independent basis, Debye-Ang):
   XX=            -84.8799   YY=           -116.1412   ZZ=           -110.2535
   XY=            -19.2170   XZ=             -8.5200   YZ=             -1.7274
 Traceless Quadrupole moment (field-independent basis, Debye-Ang):
   XX=             18.8783   YY=            -12.3830   ZZ=             -6.4952
   XY=            -19.2170   XZ=             -8.5200   YZ=             -1.7274
 Octapole moment (field-independent basis, Debye-Ang**2):
  XXX=             52.0191  YYY=            -20.2793  ZZZ=             -1.9815  XYY=             16.3147
  XXY=             38.2901  XXZ=             63.2087  XZZ=            -29.3036  YZZ=              9.4536
  YYZ=              5.6303  XYZ=             -4.6569
 Hexadecapole moment (field-independent basis, Debye-Ang**3):
 XXXX=          -6391.6282 YYYY=           -874.3042 ZZZZ=           -488.3195 XXXY=           -151.6975
 XXXZ=           -128.9710 YYYX=            -52.5533 YYYZ=              1.5176 ZZZX=            -18.2665
 ZZZY=             -8.9027 XXYY=          -1335.5952 XXZZ=          -1367.4305 YYZZ=           -220.5346
 XXYZ=            -70.1357 YYXZ=             -5.7126 ZZXY=            -33.6387
 N-N= 1.464512270547D+03 E-N=-5.765865109027D+03  KE= 1.202084331332D+03
 No NMR shielding tensors so no spin-rotation constants.
 Leave Link  601 at Mon Sep 14 02:06:28 2020, MaxMem=  2147483648 cpu:               0.4 elap:               0.1
 (Enter /prod/apps/gaussian/g16b1/l701.exe)
 ... and contract with generalized density number  0.
 Compute integral first derivatives.
 D1PCM: PCM CHGder 1st derivatives, ID1Alg=3 FixD1E=F DoIter=F DoCFld=F I1PDM=0.
 GePol: Maximum number of non-zero 1st derivatives   =     170
 Leave Link  701 at Mon Sep 14 02:06:30 2020, MaxMem=  2147483648 cpu:               8.2 elap:               2.1
 (Enter /prod/apps/gaussian/g16b1/l702.exe)
 L702 exits ... SP integral derivatives will be done elsewhere.
 Leave Link  702 at Mon Sep 14 02:06:31 2020, MaxMem=  2147483648 cpu:               0.1 elap:               0.0
 (Enter /prod/apps/gaussian/g16b1/l703.exe)
 Integral derivatives from FoFJK, PRISM(SPDF).
 Compute integral first derivatives, UseDBF=F ICtDFT=           0.
 Calling FoFJK, ICntrl=      2127 FMM=F ISym2X=0 I1Cent= 0 IOpClX= 0 NMat=1 NMatS=1 NMatT=0.
 FoFJK:  IHMeth= 1 ICntrl=    2127 DoSepK=F KAlg= 0 I1Cent=           0 FoldK=F
 IRaf=         0 NMat=       1 IRICut=       1 DoRegI=T DoRafI=F ISym2E= 0 IDoP0=0 IntGTp=1.
 FoFCou: FMM=F IPFlag=           0 FMFlag=      100000 FMFlg1=         800
         NFxFlg=           0 DoJE=F BraDBF=F KetDBF=F FulRan=T
         wScrn=  0.000000 ICntrl=      2127 IOpCl=  0 I1Cent=           0 NGrid=           0
         NMat0=    1 NMatS0=      1 NMatT0=    0 NMatD0=    1 NMtDS0=    0 NMtDT0=    0
 Symmetry not used in FoFCou.
 Leave Link  703 at Mon Sep 14 02:06:44 2020, MaxMem=  2147483648 cpu:              52.0 elap:              13.0
 (Enter /prod/apps/gaussian/g16b1/l716.exe)
 Dipole        = 1.21980624D+00 2.89768515D-01 5.51988453D-01
 -------------------------------------------------------------------
 Center     Atomic                   Forces (Hartrees/Bohr)
 Number     Number              X              Y              Z
 -------------------------------------------------------------------
      1        8          -0.000612738   -0.000333451   -0.000386275
      2       16           0.000118031   -0.000391289    0.001106512
      3        7           0.000653868    0.000707367   -0.001936013
      4        6           0.001165914   -0.000566343    0.000667704
      5        7          -0.000758117    0.001008839   -0.000085152
      6        7          -0.000721259    0.000089626   -0.000414051
      7        6          -0.000153547    0.000462844   -0.000068561
      8        7           0.000311310   -0.000939092    0.000072259
      9        6           0.000065533   -0.000565420    0.000084317
     10        6           0.000824511   -0.000130286    0.000342992
     11        6          -0.000845552    0.000175149   -0.000403548
     12        6           0.000162001    0.000200395    0.000100860
     13        6          -0.000280938    0.000057202   -0.000224006
     14        6           0.000353359    0.000837078   -0.000128135
     15        7           0.000132453    0.000034762    0.000169520
     16        6          -0.002313055    0.001024522   -0.000044411
     17        6           0.000715828   -0.000655689    0.000143743
     18        8           0.000142469   -0.000151768    0.000032438
     19        1          -0.000163882   -0.000132570    0.000197862
     20        1          -0.000162989    0.000279045    0.000000033
     21        1          -0.000010160    0.000085136    0.000003443
     22        1           0.000092198   -0.000548949    0.000194059
     23        1           0.000021547   -0.000045893    0.000001208
     24        1           0.000264237    0.000224522    0.000014891
     25        1           0.000468745   -0.000584257    0.000241161
     26        1           0.000299804    0.000005417    0.000133083
     27        1           0.000644259   -0.000649039   -0.000227299
     28        1           0.000197430   -0.000279765    0.000347817
     29        1          -0.000638272    0.000180288    0.000681411
     30        1          -0.000128689    0.000520636   -0.000640036
     31        1           0.000155704    0.000080981    0.000022175
 -------------------------------------------------------------------
 Cartesian Forces:  Max     0.002313055 RMS     0.000539500
 Leave Link  716 at Mon Sep 14 02:06:44 2020, MaxMem=  2147483648 cpu:               0.1 elap:               0.0
 (Enter /prod/apps/gaussian/g16b1/l103.exe)

 GradGradGradGradGradGradGradGradGradGradGradGradGradGradGradGradGradGrad
 Berny optimization.
 FormGI is forming the generalized inverse of G from B-inverse, IUseBI=4.
 Internal  Forces:  Max     0.001929129 RMS     0.000389571
 Search for a local minimum.
 Step number   1 out of a maximum of  164
 All quantities printed in internal units (Hartrees-Bohrs-Radians)
 RMS Force = .38957D-03 SwitMx=.10000D-02 MixMth= 2
 Mixed Optimization -- En-DIIS/RFO-DIIS
 Second derivative matrix not updated -- first step.
 ITU=  0
     Eigenvalues ---    0.00709   0.00730   0.01359   0.01489   0.01569
     Eigenvalues ---    0.01643   0.01843   0.01908   0.02049   0.02138
     Eigenvalues ---    0.02141   0.02148   0.02149   0.02150   0.02153
     Eigenvalues ---    0.02157   0.02161   0.02168   0.02265   0.02300
     Eigenvalues ---    0.02306   0.02331   0.07139   0.07146   0.07737
     Eigenvalues ---    0.07741   0.10145   0.11068   0.13254   0.14285
     Eigenvalues ---    0.15995   0.15998   0.15999   0.16000   0.16000
     Eigenvalues ---    0.16000   0.16000   0.16000   0.16000   0.16000
     Eigenvalues ---    0.16000   0.16000   0.18573   0.18834   0.19006
     Eigenvalues ---    0.22000   0.22000   0.22566   0.23494   0.23790
     Eigenvalues ---    0.24985   0.24998   0.25000   0.25000   0.25000
     Eigenvalues ---    0.33977   0.34132   0.34481   0.34690   0.34693
     Eigenvalues ---    0.34965   0.35230   0.35418   0.35477   0.35527
     Eigenvalues ---    0.35564   0.35574   0.35663   0.36505   0.37706
     Eigenvalues ---    0.38493   0.41699   0.42115   0.42221   0.44173
     Eigenvalues ---    0.45019   0.45745   0.46223   0.46322   0.46390
     Eigenvalues ---    0.46708   0.47701   0.52728   0.53396   0.62678
     Eigenvalues ---    0.88113   0.90414
 RFO step:  Lambda=-1.11697751D-04 EMin= 7.08895652D-03
 Linear search not attempted -- first point.
 Iteration  1 RMS(Cart)=  0.02303826 RMS(Int)=  0.00009846
 Iteration  2 RMS(Cart)=  0.00017795 RMS(Int)=  0.00000242
 Iteration  3 RMS(Cart)=  0.00000001 RMS(Int)=  0.00000242
 ITry= 1 IFail=0 DXMaxC= 7.83D-02 DCOld= 1.00D+10 DXMaxT= 3.00D-01 DXLimC= 3.00D+00 Rises=F
 Variable       Old X    -DE/DX   Delta X   Delta X   Delta X     New X
                                 (Linear)    (Quad)   (Total)
    R1        2.76443   0.00079   0.00000   0.00087   0.00087   2.76530
    R2        3.17354   0.00193   0.00000   0.00501   0.00501   3.17855
    R3        3.18495   0.00093   0.00000   0.00246   0.00246   3.18741
    R4        2.77515   0.00018   0.00000   0.00021   0.00021   2.77536
    R5        2.65254   0.00087   0.00000   0.00194   0.00194   2.65448
    R6        1.92948  -0.00013   0.00000  -0.00029  -0.00029   1.92920
    R7        2.57263   0.00026   0.00000   0.00047   0.00047   2.57310
    R8        2.60484  -0.00018   0.00000  -0.00051  -0.00051   2.60433
    R9        2.47024   0.00042   0.00000   0.00075   0.00074   2.47098
   R10        2.55741   0.00097   0.00000   0.00189   0.00188   2.55929
   R11        2.56332  -0.00012   0.00000  -0.00029  -0.00029   2.56304
   R12        2.03299  -0.00029   0.00000  -0.00080  -0.00080   2.03219
   R13        2.69309   0.00117   0.00000   0.00280   0.00280   2.69589
   R14        2.63813   0.00020   0.00000   0.00042   0.00042   2.63854
   R15        2.63759   0.00086   0.00000   0.00189   0.00190   2.63948
   R16        2.63549  -0.00057   0.00000  -0.00127  -0.00127   2.63422
   R17        2.04769  -0.00005   0.00000  -0.00015  -0.00015   2.04754
   R18        2.63780   0.00034   0.00000   0.00068   0.00068   2.63848
   R19        2.04754   0.00059   0.00000   0.00165   0.00165   2.04918
   R20        2.63938   0.00016   0.00000   0.00035   0.00035   2.63973
   R21        2.04908   0.00003   0.00000   0.00009   0.00009   2.04917
[...]
 Alpha virt. eigenvalues --    2.13530   2.14478   2.15353   2.16603   2.17349
 Alpha virt. eigenvalues --    2.18312   2.19698   2.20335   2.20488   2.21427
 Alpha virt. eigenvalues --    2.22715   2.23746   2.24851   2.25378   2.26642
 Alpha virt. eigenvalues --    2.27477   2.28713   2.30294   2.30595   2.31161
 Alpha virt. eigenvalues --    2.31900   2.32120   2.33087   2.34440   2.35080
 Alpha virt. eigenvalues --    2.35814   2.36321   2.37335   2.37643   2.38724
 Alpha virt. eigenvalues --    2.39538   2.40223   2.42260   2.42783   2.43988
 Alpha virt. eigenvalues --    2.45520   2.46384   2.48108   2.49236   2.50886
 Alpha virt. eigenvalues --    2.51492   2.51742   2.54128   2.55339   2.56507
 Alpha virt. eigenvalues --    2.58605   2.60803   2.62009   2.62373   2.63172
 Alpha virt. eigenvalues --    2.63714   2.66347   2.68297   2.70527   2.72244
 Alpha virt. eigenvalues --    2.73612   2.73914   2.75968   2.78559   2.79800
 Alpha virt. eigenvalues --    2.80947   2.81346   2.83006   2.84127   2.84958
 Alpha virt. eigenvalues --    2.86917   2.88534   2.88967   2.90387   2.91222
 Alpha virt. eigenvalues --    2.93588   2.94627   2.95615   2.97097   2.97375
 Alpha virt. eigenvalues --    3.00024   3.00766   3.02226   3.04070   3.05352
 Alpha virt. eigenvalues --    3.07875   3.08823   3.12385   3.12672   3.14107
 Alpha virt. eigenvalues --    3.15153   3.15884   3.19055   3.20103   3.21937
 Alpha virt. eigenvalues --    3.23600   3.26907   3.31533   3.32526   3.35172
 Alpha virt. eigenvalues --    3.37599   3.40853   3.41874   3.46541   3.53205
 Alpha virt. eigenvalues --    3.54243   3.60977   3.62423   3.66194   3.73553
 Alpha virt. eigenvalues --    3.73763   3.76650   3.77545   3.79518   3.83000
 Alpha virt. eigenvalues --    3.83209   3.84315   3.87807   3.89983   3.92708
 Alpha virt. eigenvalues --    3.94831   4.05076   4.28216   4.37433   4.88212
          Condensed to atoms (all electrons):
               1          2          3          4          5          6
     1  O    9.168086  -0.366138   0.012012   0.180728  -0.018951   0.002348
     2  S   -0.366138  15.100451   0.151818  -1.690961   0.242703  -0.105831
     3  N    0.012012   0.151818   8.379080  -1.300495   0.042068  -0.032358
     4  C    0.180728  -1.690961  -1.300495  13.641258  -1.597339   1.099146
     5  N   -0.018951   0.242703   0.042068  -1.597339   8.812027  -0.836784
     6  N    0.002348  -0.105831  -0.032358   1.099146  -0.836784   8.965847
     7  C   -0.051321   0.593183   0.012777  -4.995354   1.376657  -1.377722
     8  N    0.004360   0.076691   0.223350  -0.414518  -0.117928  -0.352840
     9  C    0.004618  -0.025951   0.174129   0.083191  -0.258037  -0.133893
    10  C   -0.001031   0.033380  -0.002494  -0.353371   0.151984  -0.142023
    11  C   -0.000137   0.009875   0.004720   0.030172   0.010825  -0.010858
    12  C    0.000011   0.000076   0.001126  -0.026774   0.007613   0.016412
    13  C    0.000029  -0.004907  -0.010611   0.085509  -0.038058  -0.002153
    14  C    0.000305  -0.025262  -0.006980   0.054654  -0.012122   0.447319
    15  N    0.057065  -0.176579  -0.139288  -0.036442   0.029919  -0.009338
    16  C    0.022632   0.002542  -0.048181   0.026326  -0.002137  -0.004363
    17  C    0.051258  -0.420475   0.128071   0.162875  -0.081738   0.032490
    18  O    0.055846  -0.477794  -0.003274   0.311492  -0.012678   0.009051
    19  H    0.026518  -0.191808   0.324305   0.058983  -0.079599  -0.001953
    20  H   -0.014316   0.154822   0.036805  -0.266415  -0.036984  -0.079604
    21  H    0.001122  -0.012141  -0.006939   0.038503   0.001669  -0.023822
    22  H   -0.000018   0.000278   0.000146   0.004239  -0.001589   0.000301
    23  H    0.000001  -0.000056   0.000035  -0.000369   0.000444   0.001843
    24  H    0.000000  -0.000020  -0.000154   0.000851  -0.000243  -0.000919
    25  H    0.000052  -0.001175   0.005358  -0.035571   0.002060  -0.012934
    26  H   -0.032714   0.068236   0.010842  -0.002818  -0.000988  -0.000243
    27  H    0.002253   0.052143  -0.024896   0.011016  -0.001609   0.000138
    28  H    0.005694  -0.093478   0.014379  -0.006283   0.002679  -0.000400
    29  H   -0.001751  -0.042398   0.064126  -0.114322   0.020563   0.019786
    30  H    0.001698   0.056054  -0.047067  -0.009260   0.000143   0.004317
    31  H   -0.001609  -0.004983  -0.016906   0.068277   0.002331  -0.008212
               7          8          9         10         11         12
     1  O   -0.051321   0.004360   0.004618  -0.001031  -0.000137   0.000011
     2  S    0.593183   0.076691  -0.025951   0.033380   0.009875   0.000076
     3  N    0.012777   0.223350   0.174129  -0.002494   0.004720   0.001126
     4  C   -4.995354  -0.414518   0.083191  -0.353371   0.030172  -0.026774
     5  N    1.376657  -0.117928  -0.258037   0.151984   0.010825   0.007613
     6  N   -1.377722  -0.352840  -0.133893  -0.142023  -0.010858   0.016412
     7  C   12.344115  -0.388056  -2.024224   0.834848  -0.301226   0.008253
     8  N   -0.388056   9.621350  -0.883602   0.630696  -0.262906   0.298533
     9  C   -2.024224  -0.883602  14.859207  -5.869506   2.495573  -3.411945
    10  C    0.834848   0.630696  -5.869506  12.914126  -3.736819   3.025221
    11  C   -0.301226  -0.262906   2.495573  -3.736819  10.629051  -2.937974
    12  C    0.008253   0.298533  -3.411945   3.025221  -2.937974   8.847466
    13  C    0.045948  -0.226893   2.674270  -3.263209   2.925948  -2.895263
    14  C   -0.402552  -0.251801  -4.323886   2.105664  -3.160125   2.869635
    15  N    0.053982  -0.015569  -0.013239   0.003327   0.000059   0.000165
    16  C   -0.003882  -0.004045  -0.005749   0.000840   0.000107   0.000009
    17  C   -0.117465   0.021352   0.024726  -0.007955  -0.000970  -0.000178
    18  O   -0.177646   0.012451   0.016110  -0.008816   0.000014  -0.000144
    19  H    0.018454  -0.029295  -0.003399  -0.001772   0.000325   0.000038
    20  H   -0.456293   0.198790   0.205204   0.010418   0.070599   0.001065
    21  H    0.085915  -0.193248   0.829500  -1.002061   0.129967  -0.181544
    22  H    0.004960  -0.006460  -0.089573   0.743164  -0.843356   0.257757
    23  H   -0.001588  -0.002369   0.104711  -0.145226   0.364720  -0.614886
    24  H   -0.001642  -0.000979  -0.099063   0.115304  -0.221138   0.262928
    25  H   -0.029288  -0.270500   0.733444  -0.163731   0.106242  -0.154059
    26  H   -0.002221   0.000716   0.000083   0.000086   0.000017  -0.000003
    27  H   -0.001441  -0.001037  -0.000747  -0.000016  -0.000009  -0.000003
    28  H    0.003043   0.000307   0.000268   0.000119   0.000053   0.000019
    29  H    0.010299   0.004643  -0.002649  -0.008524  -0.001767  -0.000588
    30  H    0.016389  -0.003696  -0.002465  -0.000412   0.000219  -0.000227
    31  H   -0.010820  -0.001983   0.001257   0.000933   0.000060   0.000057
              13         14         15         16         17         18
     1  O    0.000029   0.000305   0.057065   0.022632   0.051258   0.055846
     2  S   -0.004907  -0.025262  -0.176579   0.002542  -0.420475  -0.477794
     3  N   -0.010611  -0.006980  -0.139288  -0.048181   0.128071  -0.003274
     4  C    0.085509   0.054654  -0.036442   0.026326   0.162875   0.311492
     5  N   -0.038058  -0.012122   0.029919  -0.002137  -0.081738  -0.012678
     6  N   -0.002153   0.447319  -0.009338  -0.004363   0.032490   0.009051
     7  C    0.045948  -0.402552   0.053982  -0.003882  -0.117465  -0.177646
     8  N   -0.226893  -0.251801  -0.015569  -0.004045   0.021352   0.012451
     9  C    2.674270  -4.323886  -0.013239  -0.005749   0.024726   0.016110
    10  C   -3.263209   2.105664   0.003327   0.000840  -0.007955  -0.008816
    11  C    2.925948  -3.160125   0.000059   0.000107  -0.000970   0.000014
    12  C   -2.895263   2.869635   0.000165   0.000009  -0.000178  -0.000144
    13  C   10.059706  -3.804308  -0.000697  -0.000075   0.001720   0.000322
    14  C   -3.804308  12.569046  -0.001777  -0.000513   0.003120   0.004799
    15  N   -0.000697  -0.001777   8.066048   0.140779   0.269358   0.152847
    16  C   -0.000075  -0.000513   0.140779   4.324732  -0.201111  -0.035771
    17  C    0.001720   0.003120   0.269358  -0.201111   4.284871   0.082250
    18  O    0.000322   0.004799   0.152847  -0.035771   0.082250   9.208101
    19  H   -0.000195   0.003253   0.067099   0.004565  -0.003464   0.006832
    20  H   -0.017065  -0.101836  -0.002476   0.001600  -0.014377  -0.004933
    21  H    0.120457  -0.100050   0.000583  -0.000173   0.001685   0.001481
    22  H   -0.232129   0.097675  -0.000046  -0.000001   0.000026   0.000116
    23  H    0.368004  -0.122291   0.000002  -0.000001   0.000001   0.000005
    24  H   -0.766098   0.659885  -0.000020  -0.000001   0.000062   0.000009
    25  H    0.412265  -0.894352   0.000050  -0.000093  -0.000010   0.000178
    26  H    0.000011  -0.000038  -0.106002   0.477010  -0.042450  -0.002306
    27  H    0.000005   0.000028  -0.181293   0.402870   0.020312  -0.012131
    28  H   -0.000046  -0.000167   0.196101   0.171495   0.015130   0.022221
    29  H    0.001487   0.002821  -0.069386  -0.065469   0.471338   0.035557
    30  H    0.000571  -0.000203   0.069340   0.033917   0.168571  -0.020815
    31  H   -0.000076  -0.000228  -0.102350   0.041130   0.280843  -0.001923
              19         20         21         22         23         24
     1  O    0.026518  -0.014316   0.001122  -0.000018   0.000001   0.000000
     2  S   -0.191808   0.154822  -0.012141   0.000278  -0.000056  -0.000020
     3  N    0.324305   0.036805  -0.006939   0.000146   0.000035  -0.000154
     4  C    0.058983  -0.266415   0.038503   0.004239  -0.000369   0.000851
     5  N   -0.079599  -0.036984   0.001669  -0.001589   0.000444  -0.000243
     6  N   -0.001953  -0.079604  -0.023822   0.000301   0.001843  -0.000919
     7  C    0.018454  -0.456293   0.085915   0.004960  -0.001588  -0.001642
     8  N   -0.029295   0.198790  -0.193248  -0.006460  -0.002369  -0.000979
     9  C   -0.003399   0.205204   0.829500  -0.089573   0.104711  -0.099063
    10  C   -0.001772   0.010418  -1.002061   0.743164  -0.145226   0.115304
    11  C    0.000325   0.070599   0.129967  -0.843356   0.364720  -0.221138
    12  C    0.000038   0.001065  -0.181544   0.257757  -0.614886   0.262928
    13  C   -0.000195  -0.017065   0.120457  -0.232129   0.368004  -0.766098
    14  C    0.003253  -0.101836  -0.100050   0.097675  -0.122291   0.659885
    15  N    0.067099  -0.002476   0.000583  -0.000046   0.000002  -0.000020
    16  C    0.004565   0.001600  -0.000173  -0.000001  -0.000001  -0.000001
    17  C   -0.003464  -0.014377   0.001685   0.000026   0.000001   0.000062
    18  O    0.006832  -0.004933   0.001481   0.000116   0.000005   0.000009
    19  H    0.839238   0.001080  -0.000064   0.000033   0.000004  -0.000007
    20  H    0.001080   1.871054  -0.081946   0.002124   0.000253   0.000082
    21  H   -0.000064  -0.081946   2.142881  -0.079317  -0.016306   0.010483
    22  H    0.000033   0.002124  -0.079317   1.646071  -0.052726  -0.017952
    23  H    0.000004   0.000253  -0.016306  -0.052726   1.629194  -0.058583
    24  H   -0.000007   0.000082   0.010483  -0.017952  -0.058583   1.633585
    25  H    0.000146  -0.001618  -0.019079   0.009213  -0.010589  -0.082357
    26  H   -0.000983  -0.000712   0.000065   0.000002  -0.000000   0.000001
    27  H   -0.000102   0.000509  -0.000053   0.000001  -0.000000  -0.000000
    28  H   -0.001142  -0.000119   0.000041  -0.000007   0.000000  -0.000001
    29  H   -0.009791  -0.001546   0.001544  -0.000093  -0.000004  -0.000015
    30  H    0.002387   0.000335  -0.000351   0.000033  -0.000003   0.000016
    31  H   -0.000733  -0.000769   0.000006   0.000006   0.000002  -0.000001
              25         26         27         28         29         30
     1  O    0.000052  -0.032714   0.002253   0.005694  -0.001751   0.001698
     2  S   -0.001175   0.068236   0.052143  -0.093478  -0.042398   0.056054
     3  N    0.005358   0.010842  -0.024896   0.014379   0.064126  -0.047067
     4  C   -0.035571  -0.002818   0.011016  -0.006283  -0.114322  -0.009260
     5  N    0.002060  -0.000988  -0.001609   0.002679   0.020563   0.000143
     6  N   -0.012934  -0.000243   0.000138  -0.000400   0.019786   0.004317
     7  C   -0.029288  -0.002221  -0.001441   0.003043   0.010299   0.016389
     8  N   -0.270500   0.000716  -0.001037   0.000307   0.004643  -0.003696
     9  C    0.733444   0.000083  -0.000747   0.000268  -0.002649  -0.002465
    10  C   -0.163731   0.000086  -0.000016   0.000119  -0.008524  -0.000412
    11  C    0.106242   0.000017  -0.000009   0.000053  -0.001767   0.000219
    12  C   -0.154059  -0.000003  -0.000003   0.000019  -0.000588  -0.000227
    13  C    0.412265   0.000011   0.000005  -0.000046   0.001487   0.000571
    14  C   -0.894352  -0.000038   0.000028  -0.000167   0.002821  -0.000203
    15  N    0.000050  -0.106002  -0.181293   0.196101  -0.069386   0.069340
    16  C   -0.000093   0.477010   0.402870   0.171495  -0.065469   0.033917
    17  C   -0.000010  -0.042450   0.020312   0.015130   0.471338   0.168571
    18  O    0.000178  -0.002306  -0.012131   0.022221   0.035557  -0.020815
    19  H    0.000146  -0.000983  -0.000102  -0.001142  -0.009791   0.002387
    20  H   -0.001618  -0.000712   0.000509  -0.000119  -0.001546   0.000335
    21  H   -0.019079   0.000065  -0.000053   0.000041   0.001544  -0.000351
    22  H    0.009213   0.000002   0.000001  -0.000007  -0.000093   0.000033
    23  H   -0.010589  -0.000000  -0.000000   0.000000  -0.000004  -0.000003
    24  H   -0.082357   0.000001  -0.000000  -0.000001  -0.000015   0.000016
    25  H    1.951154  -0.000017  -0.000016   0.000012  -0.000725  -0.000036
    26  H   -0.000017   1.162845  -0.257437  -0.166479  -0.010797  -0.002528
    27  H   -0.000016  -0.257437   1.301836  -0.174129   0.003698   0.001418
    28  H    0.000012  -0.166479  -0.174129   1.054815   0.009795  -0.010026
    29  H   -0.000725  -0.010797   0.003698   0.009795   1.546632  -0.185670
    30  H   -0.000036  -0.002528   0.001418  -0.010026  -0.185670   1.072241
    31  H    0.000124   0.014075   0.006109  -0.013387  -0.359130  -0.123137
              31
     1  O   -0.001609
     2  S   -0.004983
     3  N   -0.016906
     4  C    0.068277
     5  N    0.002331
     6  N   -0.008212
     7  C   -0.010820
     8  N   -0.001983
     9  C    0.001257
    10  C    0.000933
    11  C    0.000060
    12  C    0.000057
    13  C   -0.000076
    14  C   -0.000228
    15  N   -0.102350
    16  C    0.041130
    17  C    0.280843
    18  O   -0.001923
    19  H   -0.000733
    20  H   -0.000769
    21  H    0.000006
    22  H    0.000006
    23  H    0.000002
    24  H   -0.000001
    25  H    0.000124
    26  H    0.014075
    27  H    0.006109
    28  H   -0.013387
    29  H   -0.359130
    30  H   -0.123137
    31  H    1.364814
 Mulliken charges:
               1
     1  O   -1.108650
     2  S    3.097707
     3  N   -0.945501
     4  C    0.993073
     5  N   -0.606901
     6  N   -0.462746
     7  C    0.933920
     8  N   -0.665513
     9  C    0.941636
    10  C    0.136858
    11  C    0.698737
    12  C    0.627205
    13  C    0.565532
    14  C    0.390286
    15  N   -1.252221
    16  C    0.721012
    17  C    0.870132
    18  O   -1.161448
    19  H   -0.028951
    20  H   -0.473731
    21  H   -0.648806
    22  H   -0.442875
    23  H   -0.444221
    24  H   -0.434013
    25  H   -0.544152
    26  H   -0.105250
    27  H   -0.147416
    28  H   -0.030506
    29  H   -0.317666
    30  H   -0.021752
    31  H   -0.133779
 Sum of Mulliken charges =  -0.00000
 Mulliken charges with hydrogens summed into heavy atoms:
               1
     1  O   -1.108650
     2  S    3.097707
     3  N   -0.974452
     4  C    0.993073
     5  N   -0.606901
     6  N   -0.462746
     7  C    0.460188
     8  N   -0.665513
     9  C    0.941636
    10  C   -0.511948
    11  C    0.255861
    12  C    0.182984
    13  C    0.131519
    14  C   -0.153865
    15  N   -1.252221
    16  C    0.437841
    17  C    0.396935
    18  O   -1.161448
 Electronic spatial extent (au):  <R**2>=           6722.8611
 Charge=             -0.0000 electrons
 Dipole moment (field-independent basis, Debye):
    X=              2.4197    Y=              0.9787    Z=              1.6937  Tot=              3.1115
 Quadrupole moment (field-independent basis, Debye-Ang):
   XX=            -91.9647   YY=           -118.5000   ZZ=           -115.6309
   XY=            -15.5298   XZ=             -8.8107   YZ=             -2.1245
 Traceless Quadrupole moment (field-independent basis, Debye-Ang):
   XX=             16.7339   YY=             -9.8015   ZZ=             -6.9323
   XY=            -15.5298   XZ=             -8.8107   YZ=             -2.1245
 Octapole moment (field-independent basis, Debye-Ang**2):
  XXX=             26.1986  YYY=            -18.1864  ZZZ=              0.3100  XYY=             13.3902
  XXY=             36.7040  XXZ=             61.3352  XZZ=            -33.6321  YZZ=              8.6553
  YYZ=              4.4420  XYZ=             -4.1132
 Hexadecapole moment (field-independent basis, Debye-Ang**3):
 XXXX=          -6756.9878 YYYY=           -898.3259 ZZZZ=           -538.9403 XXXY=            -91.6698
 XXXZ=           -118.1802 YYYX=            -37.6410 YYYZ=             -1.2951 ZZZX=            -29.0755
 ZZZY=             -7.0648 XXYY=          -1378.8270 XXZZ=          -1451.4765 YYZZ=           -232.6454
 XXYZ=            -81.9168 YYXZ=             -2.2512 ZZXY=            -28.1027
 N-N= 1.463565147083D+03 E-N=-5.762044063375D+03  KE= 1.204117266544D+03
 Leave Link  601 at Mon Sep 14 03:18:22 2020, MaxMem=   262144000 cpu:               0.5 elap:               0.2
 (Enter /prod/apps/gaussian/g16b1/l9999.exe)
 1\1\GINC-PIRINEUS16\SP\RMP2-FC\Aug-CC-pVDZ\C10H13N5O2S1\UBAFAR01\14-Se
 p-2020\0\\#p mp2/aug-cc-pVDZ scf=(MaxCycle=2000,NoVarAcc,NoIncFock) ma
 xdisk=180GB geom=allcheck\\SM46_m0.n.5.pdb.xyz\\0,1\O,0,-3.7701398485,
 -1.320630709,-1.1745142601\S,0,-2.8078357613,-0.6612819829,-0.29083471
 77\N,0,-1.7356509199,0.1931862753,-1.2716377707\C,0,-0.4213397724,0.47
 79845199,-0.8662154554\N,0,-0.0000284257,1.7477194156,-0.612034147\N,0
 ,1.2721832905,1.7170718755,-0.309296728\C,0,0.64133903,-0.3846726324,-
 0.7078077842\N,0,1.6704137783,0.4236251234,-0.3500967353\C,0,3.0171516
 398,0.0659822606,-0.0470193724\C,0,3.3030614906,-1.2230215514,0.407119
 4824\C,0,4.6239731244,-1.5653933888,0.6915134571\C,0,5.6458466354,-0.6
 264889043,0.5370783529\C,0,5.3429158491,0.6617016462,0.0896211892\C,0,
 4.0293000591,1.0139099877,-0.2112666041\N,0,-3.6638029508,0.5485680512
 ,0.5111199378\C,0,-4.9813979597,0.1205545628,1.0204818436\C,0,-2.86800
 27674,1.2910914727,1.5024518611\O,0,-1.9803894848,-1.4801990058,0.6043
 342929\H,0,-2.2019754118,0.9505583197,-1.7730907952\H,0,0.7372856434,-
 1.4485008322,-0.8316632904\H,0,2.5057735096,-1.9431015629,0.5478973483
 \H,0,4.8491601929,-2.5659671913,1.0435549762\H,0,6.6712095702,-0.89669
 94881,0.7639437685\H,0,6.131436238,1.3954070486,-0.0363955631\H,0,3.78
 24041792,2.0035618992,-0.571772787\H,0,-5.5281657132,-0.3866337374,0.2
 281958408\H,0,-5.5205007344,1.0252066997,1.3068905195\H,0,-4.899184263
 1,-0.535965546,1.8949512833\H,0,-1.9538300489,1.6663852662,1.042411547
 4\H,0,-2.6172479029,0.6823200452,2.3785548506\H,0,-3.467962266,2.14472
 20628,1.821525459\\Version=ES64L-G16RevB.01\State=1-A\HF=-1205.6993748
 \MP2=-1208.5090032\RMSD=4.101e-09\PG=C01 [X(C10H13N5O2S1)]\\@


 You can't act like a skunk without someone's getting wind of it.
 -- Lorene Workman
 Job cpu time:       0 days  2 hours 36 minutes 22.2 seconds.
 Elapsed time:       0 days  0 hours 45 minutes 13.9 seconds.
 File lengths (MBytes):  RWF=  73404 Int=      0 D2E=      0 Chk=     23 Scr=      1
 Normal termination of Gaussian 16 at Mon Sep 14 03:18:25 2020.
