 Entering Gaussian System, Link 0=g16
 Initial command:
 /prod/apps/gaussian/g16b1/l1.exe "/tmp/ubafar01/1461477/Gau-131593.inp" -scrdir="/tmp/ubafar01/1461477/"
 Entering Link 1 = /prod/apps/gaussian/g16b1/l1.exe PID=    131594.
  
 Copyright (c) 1988-2017, Gaussian, Inc.  All Rights Reserved.
  
 This is part of the Gaussian(R) 16 program.  It is based on
 the Gaussian(R) 09 system (copyright 2009, Gaussian, Inc.),
 the Gaussian(R) 03 system (copyright 2003, Gaussian, Inc.),
 the Gaussian(R) 98 system (copyright 1998, Gaussian, Inc.),
 the Gaussian(R) 94 system (copyright 1995, Gaussian, Inc.),
 the Gaussian 92(TM) system (copyright 1992, Gaussian, Inc.),
 the Gaussian 90(TM) system (copyright 1990, Gaussian, Inc.),
 the Gaussian 88(TM) system (copyright 1988, Gaussian, Inc.),
 the Gaussian 86(TM) system (copyright 1986, Carnegie Mellon
 University), and the Gaussian 82(TM) system (copyright 1983,
 Carnegie Mellon University). Gaussian is a federally registered
 trademark of Gaussian, Inc.
  
 This software contains proprietary and confidential information,
 including trade secrets, belonging to Gaussian, Inc.
  
 This software is provided under written license and may be
 used, copied, transmitted, or stored only in accord with that
 written license.
  
 The following legend is applicable only to US Government
 contracts under FAR:
  
                    RESTRICTED RIGHTS LEGEND
  
 Use, reproduction and disclosure by the US Government is
 subject to restrictions as set forth in subparagraphs (a)
 and (c) of the Commercial Computer Software - Restricted
 Rights clause in FAR 52.227-19.
  
 Gaussian, Inc.
 340 Quinnipiac St., Bldg. 40, Wallingford CT 06492
  
  
 ---------------------------------------------------------------
 Warning -- This program may not be used in any manner that
 competes with the business of Gaussian, Inc. or will provide
 assistance to any competitor of Gaussian, Inc.  The licensee
 of this program is prohibited from giving any competitor of
 Gaussian, Inc. access to this program.  By using this program,
 the user acknowledges that Gaussian, Inc. is engaged in the
 business of creating and licensing software in the field of
 computational chemistry and represents and warrants to the
 licensee that it is not a competitor of Gaussian, Inc. and that
 it will not use this program in any manner prohibited above.
 ---------------------------------------------------------------
  

 Cite this work as:
 Gaussian 16, Revision B.01,
 M. J. Frisch, G. W. Trucks, H. B. Schlegel, G. E. Scuseria, 
 M. A. Robb, J. R. Cheeseman, G. Scalmani, V. Barone, 
 G. A. Petersson, H. Nakatsuji, X. Li, M. Caricato, A. V. Marenich, 
 J. Bloino, B. G. Janesko, R. Gomperts, B. Mennucci, H. P. Hratchian, 
 J. V. Ortiz, A. F. Izmaylov, J. L. Sonnenberg, D. Williams-Young, 
 F. Ding, F. Lipparini, F. Egidi, J. Goings, B. Peng, A. Petrone, 
 T. Henderson, D. Ranasinghe, V. G. Zakrzewski, J. Gao, N. Rega, 
 G. Zheng, W. Liang, M. Hada, M. Ehara, K. Toyota, R. Fukuda, 
 J. Hasegawa, M. Ishida, T. Nakajima, Y. Honda, O. Kitao, H. Nakai, 
 T. Vreven, K. Throssell, J. A. Montgomery, Jr., J. E. Peralta, 
 F. Ogliaro, M. J. Bearpark, J. J. Heyd, E. N. Brothers, K. N. Kudin, 
 V. N. Staroverov, T. A. Keith, R. Kobayashi, J. Normand, 
 K. Raghavachari, A. P. Rendell, J. C. Burant, S. S. Iyengar, 
 J. Tomasi, M. Cossi, J. M. Millam, M. Klene, C. Adamo, R. Cammi, 
 J. W. Ochterski, R. L. Martin, K. Morokuma, O. Farkas, 
 J. B. Foresman, and D. J. Fox, Gaussian, Inc., Wallingford CT, 2016.
 
 ******************************************
 Gaussian 16:  ES64L-G16RevB.01 20-Dec-2017
                24-Sep-2020 
 ******************************************
 %nproc=4
 Will use up to    4 processors via shared memory.
 %Chk=SM46_m3.b.1.pdb.xyz.mst.b.w.chk
 %mem=16GB
 ----------------------------------------------------------------------
 #p b3lyp/6-31G(d) opt freq NoSymm scf=(MaxCycle=2000,NoVarAcc,NoIncFoc
 k) scrf=(iefpcm,read,solvent=water)
 ----------------------------------------------------------------------
 1/18=20,19=15,26=3,38=1,40=2/1,3;
 2/9=110,12=2,15=1,17=6,18=5,40=1/2;
 3/5=1,6=6,7=1,11=2,25=1,30=1,70=2203,71=1,72=1,74=-5/1,2,3;
 4//1;
 5/5=100002,7=2000,38=1,53=1/2;
 6/7=2,8=2,9=2,10=2,28=1/1;
 7/30=1/1,2,3,16;
 1/18=20,19=15,26=3/3(2);
 2/9=110,15=1/2;
 99//99;
 2/9=110,15=1/2;
 3/5=1,6=6,7=1,11=2,25=1,30=1,70=2205,71=1,72=1,74=-5/1,2,3;
 4/5=5,16=3,69=1/1;
 5/5=100002,7=2000,38=1,53=1/2;
 7/30=1/1,2,3,16;
 1/18=20,19=15,26=3/3(-5);
 2/9=110,15=1/2;
 6/7=2,8=2,9=2,10=2,19=2,28=1/1;
 99/9=1/99;
 Leave Link    1 at Thu Sep 24 17:36:53 2020, MaxMem=  2147483648 cpu:               0.1 elap:               0.0
 (Enter /prod/apps/gaussian/g16b1/l101.exe)
 -------------------
 SM46_m3.b.1.pdb.xyz
 -------------------
 Symbolic Z-matrix:
 Charge =  2 Multiplicity = 1
 O                    -2.13      0.249    -1.782 
 S                    -2.79     -0.141    -0.554 
 N                    -1.77     -1.001     0.423 
 C                    -0.395    -1.051     0.223 
 N                     0.276    -2.196    -0.07 
 N                     1.569    -2.018    -0.173 
 C                     0.573    -0.075     0.297 
 N                     1.742    -0.721     0.034 
 C                     3.067    -0.164    -0.018 
 C                     3.244     1.103    -0.574 
 C                     4.533     1.634    -0.621 
 C                     5.615     0.901    -0.13 
 C                     5.415    -0.369     0.417 
 C                     4.133    -0.913     0.483 
 N                    -2.91      1.452     0.401 
 C                    -3.635     2.483    -0.421 
 C                    -3.527     1.248     1.754 
 O                    -4.114    -0.718    -0.465 
 H                    -2.223    -1.751     0.955 
 H                     0.503     0.973     0.535 
 H                     2.403     1.655    -0.981 
 H                     4.688     2.617    -1.054 
 H                     6.616     1.319    -0.173 
 H                     6.254    -0.938     0.804 
 H                     3.959    -1.889     0.92 
 H                    -3.115     2.603    -1.369 
 H                    -3.612     3.414     0.144 
 H                    -4.662     2.153    -0.571 
 H                    -2.93      0.53      2.313 
 H                    -4.549     0.898     1.624 
 H                    -3.514     2.213     2.26 
 H                    -1.928     1.763     0.522 
 H                    -0.11     -3.139    -0.192 
 
 ITRead=  0  0  0  0  0  0  0  0  0  0  0  0  0  0  0  0  0  0  0  0
 ITRead=  0  0  0  0  0  0  0  0  0  0  0  0  0
 MicOpt= -1 -1 -1 -1 -1 -1 -1 -1 -1 -1 -1 -1 -1 -1 -1 -1 -1 -1 -1 -1
 MicOpt= -1 -1 -1 -1 -1 -1 -1 -1 -1 -1 -1 -1 -1
 NAtoms=     33 NQM=       33 NQMF=       0 NMMI=      0 NMMIF=      0
                NMic=       0 NMicF=      0.
                    Isotopes and Nuclear Properties:
 (Nuclear quadrupole moments (NQMom) in fm**2, nuclear magnetic moments (NMagM)
  in nuclear magnetons)

  Atom         1           2           3           4           5           6           7           8           9          10
 IAtWgt=          16          32          14          12          14          14          12          14          12          12
 AtmWgt=  15.9949146  31.9720718  14.0030740  12.0000000  14.0030740  14.0030740  12.0000000  14.0030740  12.0000000  12.0000000
 NucSpn=           0           0           2           0           2           2           0           2           0           0
 AtZEff=  -0.0000000  -0.0000000  -0.0000000  -0.0000000  -0.0000000  -0.0000000  -0.0000000  -0.0000000  -0.0000000  -0.0000000
 NQMom=    0.0000000   0.0000000   2.0440000   0.0000000   2.0440000   2.0440000   0.0000000   2.0440000   0.0000000   0.0000000
 NMagM=    0.0000000   0.0000000   0.4037610   0.0000000   0.4037610   0.4037610   0.0000000   0.4037610   0.0000000   0.0000000
 AtZNuc=   8.0000000  16.0000000   7.0000000   6.0000000   7.0000000   7.0000000   6.0000000   7.0000000   6.0000000   6.0000000

  Atom        11          12          13          14          15          16          17          18          19          20
 IAtWgt=          12          12          12          12          14          12          12          16           1           1
 AtmWgt=  12.0000000  12.0000000  12.0000000  12.0000000  14.0030740  12.0000000  12.0000000  15.9949146   1.0078250   1.0078250
 NucSpn=           0           0           0           0           2           0           0           0           1           1
 AtZEff=  -0.0000000  -0.0000000  -0.0000000  -0.0000000  -0.0000000  -0.0000000  -0.0000000  -0.0000000  -0.0000000  -0.0000000
 NQMom=    0.0000000   0.0000000   0.0000000   0.0000000   2.0440000   0.0000000   0.0000000   0.0000000   0.0000000   0.0000000
 NMagM=    0.0000000   0.0000000   0.0000000   0.0000000   0.4037610   0.0000000   0.0000000   0.0000000   2.7928460   2.7928460
 AtZNuc=   6.0000000   6.0000000   6.0000000   6.0000000   7.0000000   6.0000000   6.0000000   8.0000000   1.0000000   1.0000000

  Atom        21          22          23          24          25          26          27          28          29          30
 IAtWgt=           1           1           1           1           1           1           1           1           1           1
 AtmWgt=   1.0078250   1.0078250   1.0078250   1.0078250   1.0078250   1.0078250   1.0078250   1.0078250   1.0078250   1.0078250
 NucSpn=           1           1           1           1           1           1           1           1           1           1
 AtZEff=  -0.0000000  -0.0000000  -0.0000000  -0.0000000  -0.0000000  -0.0000000  -0.0000000  -0.0000000  -0.0000000  -0.0000000
 NQMom=    0.0000000   0.0000000   0.0000000   0.0000000   0.0000000   0.0000000   0.0000000   0.0000000   0.0000000   0.0000000
 NMagM=    2.7928460   2.7928460   2.7928460   2.7928460   2.7928460   2.7928460   2.7928460   2.7928460   2.7928460   2.7928460
 AtZNuc=   1.0000000   1.0000000   1.0000000   1.0000000   1.0000000   1.0000000   1.0000000   1.0000000   1.0000000   1.0000000

  Atom        31          32          33
 IAtWgt=           1           1           1
 AtmWgt=   1.0078250   1.0078250   1.0078250
 NucSpn=           1           1           1
 AtZEff=  -0.0000000  -0.0000000  -0.0000000
 NQMom=    0.0000000   0.0000000   0.0000000
 NMagM=    2.7928460   2.7928460   2.7928460
 AtZNuc=   1.0000000   1.0000000   1.0000000
 Leave Link  101 at Thu Sep 24 17:36:53 2020, MaxMem=  2147483648 cpu:               1.8 elap:               0.5
 (Enter /prod/apps/gaussian/g16b1/l103.exe)

 GradGradGradGradGradGradGradGradGradGradGradGradGradGradGradGradGradGrad
 Berny optimization.
 Initialization pass.
                           ----------------------------
                           !    Initial Parameters    !
                           ! (Angstroms and Degrees)  !
 --------------------------                            --------------------------
 ! Name  Definition              Value          Derivative Info.                !
 --------------------------------------------------------------------------------
 ! R1    R(1,2)                  1.4476         estimate D2E/DX2                !
 ! R2    R(2,3)                  1.6536         estimate D2E/DX2                !
 ! R3    R(2,15)                 1.8612         estimate D2E/DX2                !
 ! R4    R(2,18)                 1.447          estimate D2E/DX2                !
 ! R5    R(3,4)                  1.3904         estimate D2E/DX2                !
 ! R6    R(3,19)                 1.0251         estimate D2E/DX2                !
 ! R7    R(4,5)                  1.3591         estimate D2E/DX2                !
 ! R8    R(4,7)                  1.3766         estimate D2E/DX2                !
 ! R9    R(5,6)                  1.3093         estimate D2E/DX2                !
 ! R10   R(5,33)                 1.0262         estimate D2E/DX2                !
 ! R11   R(6,8)                  1.3248         estimate D2E/DX2                !
 ! R12   R(7,8)                  1.3613         estimate D2E/DX2                !
 ! R13   R(7,20)                 1.077          estimate D2E/DX2                !
 ! R14   R(8,9)                  1.4383         estimate D2E/DX2                !
 ! R15   R(9,10)                 1.3949         estimate D2E/DX2                !
 ! R16   R(9,14)                 1.3958         estimate D2E/DX2                !
 ! R17   R(10,11)                1.3949         estimate D2E/DX2                !
 ! R18   R(10,21)                1.0852         estimate D2E/DX2                !
 ! R19   R(11,12)                1.3961         estimate D2E/DX2                !
 ! R20   R(11,22)                1.0853         estimate D2E/DX2                !
 ! R21   R(12,13)                1.3972         estimate D2E/DX2                !
 ! R22   R(12,23)                1.0856         estimate D2E/DX2                !
 ! R23   R(13,14)                1.3942         estimate D2E/DX2                !
 ! R24   R(13,24)                1.0851         estimate D2E/DX2                !
 ! R25   R(14,25)                1.0834         estimate D2E/DX2                !
 ! R26   R(15,16)                1.5047         estimate D2E/DX2                !
 ! R27   R(15,17)                1.501          estimate D2E/DX2                !
 ! R28   R(15,32)                1.0372         estimate D2E/DX2                !
 ! R29   R(16,26)                1.0879         estimate D2E/DX2                !
 ! R30   R(16,27)                1.0893         estimate D2E/DX2                !
 ! R31   R(16,28)                1.0891         estimate D2E/DX2                !
 ! R32   R(17,29)                1.0883         estimate D2E/DX2                !
 ! R33   R(17,30)                1.0881         estimate D2E/DX2                !
 ! R34   R(17,31)                1.0897         estimate D2E/DX2                !
 ! A1    A(1,2,3)              111.1042         estimate D2E/DX2                !
 ! A2    A(1,2,15)             103.5368         estimate D2E/DX2                !
 ! A3    A(1,2,18)             125.2227         estimate D2E/DX2                !
 ! A4    A(3,2,15)             100.471          estimate D2E/DX2                !
 ! A5    A(3,2,18)             108.7034         estimate D2E/DX2                !
 ! A6    A(15,2,18)            104.5213         estimate D2E/DX2                !
 ! A7    A(2,3,4)              122.9371         estimate D2E/DX2                !
 ! A8    A(2,3,19)             114.4915         estimate D2E/DX2                !
 ! A9    A(4,3,19)             119.0379         estimate D2E/DX2                !
 ! A10   A(3,4,5)              123.3372         estimate D2E/DX2                !
 ! A11   A(3,4,7)              131.4657         estimate D2E/DX2                !
 ! A12   A(5,4,7)              105.1725         estimate D2E/DX2                !
 ! A13   A(4,5,6)              112.9549         estimate D2E/DX2                !
 ! A14   A(4,5,33)             127.8853         estimate D2E/DX2                !
 ! A15   A(6,5,33)             119.1466         estimate D2E/DX2                !
 ! A16   A(5,6,8)              104.4646         estimate D2E/DX2                !
 ! A17   A(4,7,8)              104.8931         estimate D2E/DX2                !
 ! A18   A(4,7,20)             131.0025         estimate D2E/DX2                !
 ! A19   A(8,7,20)             124.0772         estimate D2E/DX2                !
 ! A20   A(6,8,7)              112.4984         estimate D2E/DX2                !
 ! A21   A(6,8,9)              119.5918         estimate D2E/DX2                !
 ! A22   A(7,8,9)              127.9038         estimate D2E/DX2                !
 ! A23   A(8,9,10)             118.8864         estimate D2E/DX2                !
 ! A24   A(8,9,14)             118.8668         estimate D2E/DX2                !
 ! A25   A(10,9,14)            122.2458         estimate D2E/DX2                !
 ! A26   A(9,10,11)            118.4546         estimate D2E/DX2                !
 ! A27   A(9,10,21)            120.876          estimate D2E/DX2                !
 ! A28   A(11,10,21)           120.6558         estimate D2E/DX2                !
 ! A29   A(10,11,12)           120.2961         estimate D2E/DX2                !
 ! A30   A(10,11,22)           119.3557         estimate D2E/DX2                !
 ! A31   A(12,11,22)           120.3439         estimate D2E/DX2                !
 ! A32   A(11,12,13)           120.2645         estimate D2E/DX2                !
 ! A33   A(11,12,23)           119.9021         estimate D2E/DX2                !
 ! A34   A(13,12,23)           119.8334         estimate D2E/DX2                !
 ! A35   A(12,13,14)           120.3199         estimate D2E/DX2                !
 ! A36   A(12,13,24)           120.3706         estimate D2E/DX2                !
 ! A37   A(14,13,24)           119.3066         estimate D2E/DX2                !
 ! A38   A(9,14,13)            118.4162         estimate D2E/DX2                !
 ! A39   A(9,14,25)            120.3652         estimate D2E/DX2                !
 ! A40   A(13,14,25)           121.216          estimate D2E/DX2                !
 ! A41   A(2,15,16)            109.7063         estimate D2E/DX2                !
 ! A42   A(2,15,17)            111.8823         estimate D2E/DX2                !
 ! A43   A(2,15,32)            104.8012         estimate D2E/DX2                !
 ! A44   A(16,15,17)           112.798          estimate D2E/DX2                !
 ! A45   A(16,15,32)           108.3285         estimate D2E/DX2                !
 ! A46   A(17,15,32)           108.9533         estimate D2E/DX2                !
 ! A47   A(15,16,26)           108.7418         estimate D2E/DX2                !
 ! A48   A(15,16,27)           106.983          estimate D2E/DX2                !
 ! A49   A(15,16,28)           108.7819         estimate D2E/DX2                !
 ! A50   A(26,16,27)           110.3422         estimate D2E/DX2                !
 ! A51   A(26,16,28)           111.3547         estimate D2E/DX2                !
 ! A52   A(27,16,28)           110.5073         estimate D2E/DX2                !
 ! A53   A(15,17,29)           109.0975         estimate D2E/DX2                !
 ! A54   A(15,17,30)           108.7917         estimate D2E/DX2                !
 ! A55   A(15,17,31)           107.0562         estimate D2E/DX2                !
 ! A56   A(29,17,30)           111.3707         estimate D2E/DX2                !
 ! A57   A(29,17,31)           109.8277         estimate D2E/DX2                !
 ! A58   A(30,17,31)           110.5821         estimate D2E/DX2                !
 ! D1    D(1,2,3,4)             14.2218         estimate D2E/DX2                !
 ! D2    D(1,2,3,19)          -144.3152         estimate D2E/DX2                !
 ! D3    D(15,2,3,4)           -94.8333         estimate D2E/DX2                !
 ! D4    D(15,2,3,19)          106.6297         estimate D2E/DX2                !
 ! D5    D(18,2,3,4)           155.7904         estimate D2E/DX2                !
 ! D6    D(18,2,3,19)           -2.7466         estimate D2E/DX2                !
 ! D7    D(1,2,15,16)           56.3452         estimate D2E/DX2                !
 ! D8    D(1,2,15,17)         -177.6818         estimate D2E/DX2                !
 ! D9    D(1,2,15,32)          -59.7672         estimate D2E/DX2                !
 ! D10   D(3,2,15,16)          171.2506         estimate D2E/DX2                !
 ! D11   D(3,2,15,17)          -62.7764         estimate D2E/DX2                !
 ! D12   D(3,2,15,32)           55.1382         estimate D2E/DX2                !
 ! D13   D(18,2,15,16)         -76.1224         estimate D2E/DX2                !
 ! D14   D(18,2,15,17)          49.8506         estimate D2E/DX2                !
 ! D15   D(18,2,15,32)         167.7652         estimate D2E/DX2                !
 ! D16   D(2,3,4,5)           -116.8325         estimate D2E/DX2                !
 ! D17   D(2,3,4,7)             65.2537         estimate D2E/DX2                !
 ! D18   D(19,3,4,5)            40.7811         estimate D2E/DX2                !
 ! D19   D(19,3,4,7)          -137.1327         estimate D2E/DX2                !
 ! D20   D(3,4,5,6)           -177.8734         estimate D2E/DX2                !
 ! D21   D(3,4,5,33)             0.7779         estimate D2E/DX2                !
 ! D22   D(7,4,5,6)              0.507          estimate D2E/DX2                !
 ! D23   D(7,4,5,33)           179.1582         estimate D2E/DX2                !
 ! D24   D(3,4,7,8)            178.5124         estimate D2E/DX2                !
 ! D25   D(3,4,7,20)             0.3924         estimate D2E/DX2                !
 ! D26   D(5,4,7,8)              0.3182         estimate D2E/DX2                !
 ! D27   D(5,4,7,20)          -177.8018         estimate D2E/DX2                !
 ! D28   D(4,5,6,8)             -1.121          estimate D2E/DX2                !
 ! D29   D(33,5,6,8)          -179.9022         estimate D2E/DX2                !
 ! D30   D(5,6,8,7)              1.3375         estimate D2E/DX2                !
 ! D31   D(5,6,8,9)           -179.4877         estimate D2E/DX2                !
 ! D32   D(4,7,8,6)             -1.0505         estimate D2E/DX2                !
 ! D33   D(4,7,8,9)            179.8589         estimate D2E/DX2                !
 ! D34   D(20,7,8,6)           177.2366         estimate D2E/DX2                !
 ! D35   D(20,7,8,9)            -1.854          estimate D2E/DX2                !
 ! D36   D(6,8,9,10)           142.6205         estimate D2E/DX2                !
 ! D37   D(6,8,9,14)           -37.0294         estimate D2E/DX2                !
 ! D38   D(7,8,9,10)           -38.3457         estimate D2E/DX2                !
 ! D39   D(7,8,9,14)           142.0044         estimate D2E/DX2                !
 ! D40   D(8,9,10,11)         -179.9405         estimate D2E/DX2                !
 ! D41   D(8,9,10,21)           -1.2789         estimate D2E/DX2                !
 ! D42   D(14,9,10,11)          -0.303          estimate D2E/DX2                !
 ! D43   D(14,9,10,21)         178.3586         estimate D2E/DX2                !
 ! D44   D(8,9,14,13)          179.4357         estimate D2E/DX2                !
 ! D45   D(8,9,14,25)           -1.1487         estimate D2E/DX2                !
 ! D46   D(10,9,14,13)          -0.2019         estimate D2E/DX2                !
 ! D47   D(10,9,14,25)         179.2137         estimate D2E/DX2                !
 ! D48   D(9,10,11,12)           0.5143         estimate D2E/DX2                !
 ! D49   D(9,10,11,22)         179.7638         estimate D2E/DX2                !
 ! D50   D(21,10,11,12)       -178.1504         estimate D2E/DX2                !
 ! D51   D(21,10,11,22)          1.0991         estimate D2E/DX2                !
 ! D52   D(10,11,12,13)         -0.2256         estimate D2E/DX2                !
 ! D53   D(10,11,12,23)        179.782          estimate D2E/DX2                !
 ! D54   D(22,11,12,13)       -179.4676         estimate D2E/DX2                !
 ! D55   D(22,11,12,23)          0.54           estimate D2E/DX2                !
 ! D56   D(11,12,13,14)         -0.2932         estimate D2E/DX2                !
 ! D57   D(11,12,13,24)       -179.6691         estimate D2E/DX2                !
 ! D58   D(23,12,13,14)        179.6992         estimate D2E/DX2                !
 ! D59   D(23,12,13,24)          0.3233         estimate D2E/DX2                !
 ! D60   D(12,13,14,9)           0.4991         estimate D2E/DX2                !
 ! D61   D(12,13,14,25)       -178.9113         estimate D2E/DX2                !
 ! D62   D(24,13,14,9)         179.8816         estimate D2E/DX2                !
 ! D63   D(24,13,14,25)          0.4712         estimate D2E/DX2                !
 ! D64   D(2,15,16,26)         -56.5138         estimate D2E/DX2                !
 ! D65   D(2,15,16,27)        -175.687          estimate D2E/DX2                !
 ! D66   D(2,15,16,28)          64.9221         estimate D2E/DX2                !
 ! D67   D(17,15,16,26)        178.0367         estimate D2E/DX2                !
 ! D68   D(17,15,16,27)         58.8635         estimate D2E/DX2                !
 ! D69   D(17,15,16,28)        -60.5274         estimate D2E/DX2                !
 ! D70   D(32,15,16,26)         57.3468         estimate D2E/DX2                !
 ! D71   D(32,15,16,27)        -61.8264         estimate D2E/DX2                !
 ! D72   D(32,15,16,28)        178.7827         estimate D2E/DX2                !
 ! D73   D(2,15,17,29)          58.4804         estimate D2E/DX2                !
 ! D74   D(2,15,17,30)         -63.1977         estimate D2E/DX2                !
 ! D75   D(2,15,17,31)         177.2761         estimate D2E/DX2                !
 ! D76   D(16,15,17,29)       -177.2566         estimate D2E/DX2                !
 ! D77   D(16,15,17,30)         61.0652         estimate D2E/DX2                !
 ! D78   D(16,15,17,31)        -58.461          estimate D2E/DX2                !
 ! D79   D(32,15,17,29)        -56.9244         estimate D2E/DX2                !
 ! D80   D(32,15,17,30)       -178.6026         estimate D2E/DX2                !
 ! D81   D(32,15,17,31)         61.8712         estimate D2E/DX2                !
 --------------------------------------------------------------------------------
 Trust Radius=3.00D-01 FncErr=1.00D-07 GrdErr=1.00D-06 EigMax=2.50D+02 EigMin=1.00D-04
 Number of steps in this run=    183 maximum allowed number of steps=    198.
 GradGradGradGradGradGradGradGradGradGradGradGradGradGradGradGradGradGrad

 Leave Link  103 at Thu Sep 24 17:36:53 2020, MaxMem=  2147483648 cpu:               0.1 elap:               0.0
 (Enter /prod/apps/gaussian/g16b1/l202.exe)
                          Input orientation:                          
 ---------------------------------------------------------------------
 Center     Atomic      Atomic             Coordinates (Angstroms)
 Number     Number       Type             X           Y           Z
 ---------------------------------------------------------------------
      1          8           0       -2.130000    0.249000   -1.782000
      2         16           0       -2.790000   -0.141000   -0.554000
      3          7           0       -1.770000   -1.001000    0.423000
      4          6           0       -0.395000   -1.051000    0.223000
      5          7           0        0.276000   -2.196000   -0.070000
      6          7           0        1.569000   -2.018000   -0.173000
      7          6           0        0.573000   -0.075000    0.297000
      8          7           0        1.742000   -0.721000    0.034000
      9          6           0        3.067000   -0.164000   -0.018000
     10          6           0        3.244000    1.103000   -0.574000
     11          6           0        4.533000    1.634000   -0.621000
     12          6           0        5.615000    0.901000   -0.130000
     13          6           0        5.415000   -0.369000    0.417000
     14          6           0        4.133000   -0.913000    0.483000
     15          7           0       -2.910000    1.452000    0.401000
     16          6           0       -3.635000    2.483000   -0.421000
     17          6           0       -3.527000    1.248000    1.754000
     18          8           0       -4.114000   -0.718000   -0.465000
     19          1           0       -2.223000   -1.751000    0.955000
     20          1           0        0.503000    0.973000    0.535000
     21          1           0        2.403000    1.655000   -0.981000
     22          1           0        4.688000    2.617000   -1.054000
     23          1           0        6.616000    1.319000   -0.173000
     24          1           0        6.254000   -0.938000    0.804000
     25          1           0        3.959000   -1.889000    0.920000
     26          1           0       -3.115000    2.603000   -1.369000
     27          1           0       -3.612000    3.414000    0.144000
     28          1           0       -4.662000    2.153000   -0.571000
     29          1           0       -2.930000    0.530000    2.313000
     30          1           0       -4.549000    0.898000    1.624000
     31          1           0       -3.514000    2.213000    2.260000
     32          1           0       -1.928000    1.763000    0.522000
     33          1           0       -0.110000   -3.139000   -0.192000
 ---------------------------------------------------------------------
                    Distance matrix (angstroms):
                    1          2          3          4          5
     1  O    0.000000
     2  S    1.447648   0.000000
     3  N    2.560103   1.653641   0.000000
     4  C    2.953007   2.677285   1.390369   0.000000
     5  N    3.833772   3.722585   2.420163   1.359086   0.000000
     6  N    4.627177   4.761215   3.540964   2.224680   1.309252
     7  C    3.425409   3.469629   2.522499   1.376618   2.172910
     8  N    4.385332   4.606644   3.544554   2.170574   2.082210
     9  C    5.503733   5.881520   4.928653   3.581940   3.452739
    10  C    5.573909   6.160933   5.528202   4.303167   4.466144
    11  C    6.903746   7.535346   6.910931   5.675099   5.752786
    12  C    7.946020   8.479951   7.646021   6.328903   6.172514
    13  C    7.883181   8.265401   7.212745   5.853107   5.475803
    14  C    6.760595   7.042676   5.903961   4.537557   4.102237
    15  N    2.611723   1.861202   2.705050   3.552734   4.866245
    16  C    3.017963   2.759908   4.040893   4.837509   6.108368
    17  C    3.931018   2.792732   3.149065   4.175977   5.445266
    18  O    2.570182   1.447006   2.522493   3.796735   4.648936
    19  H    3.391138   2.278304   1.025053   2.089834   2.737453
    20  H    3.581250   3.642906   3.012598   2.236140   3.234210
    21  H    4.813162   5.511370   5.141934   4.074415   4.492689
    22  H    7.254139   7.986053   7.548325   6.397018   6.602952
    23  H    8.956913   9.526258   8.721388   7.411332   7.249926
    24  H    8.853690   9.180050   8.033287   6.675293   6.171136
    25  H    6.996268   7.125811   5.818676   4.488359   3.826073
    26  H    2.584978   2.880865   4.243714   4.825410   6.018030
    27  H    3.990367   3.714958   4.791976   5.503776   6.828941
    28  H    3.391572   2.960930   4.393110   5.394751   6.599140
    29  H    4.181864   2.947801   2.694747   3.646078   4.836135
    30  H    4.227718   2.986183   3.573716   4.797616   5.976880
    31  H    4.702182   3.739530   4.092176   4.952901   6.263568
    32  H    2.764311   2.350752   2.770282   3.218398   4.569657
    33  H    4.252887   4.037505   2.775765   2.147835   1.026221
                    6          7          8          9         10
     6  N    0.000000
     7  C    2.233420   0.000000
     8  N    1.324759   1.361266   0.000000
     9  C    2.388586   2.515389   1.438255   0.000000
    10  C    3.564697   3.046402   2.439804   1.394903   0.000000
    11  C    4.724733   4.409649   3.710085   2.396992   1.394880
    12  C    4.989241   5.153316   4.202131   2.763887   2.420657
    13  C    4.225993   4.852401   3.709653   2.396738   2.803945
    14  C    2.868006   3.662027   2.440358   1.395836   2.443732
    15  N    5.694894   3.804449   5.147594   6.205767   6.240524
    16  C    6.884920   4.976560   6.275729   7.217051   7.017724
    17  C    6.352110   4.547876   5.881983   6.972415   7.161498
    18  O    5.837101   4.791875   5.877223   7.216196   7.580771
    19  H    3.965216   3.325591   4.198853   5.607976   6.353837
    20  H    3.253260   1.076962   2.157721   2.858789   2.959706
    21  H    3.852188   2.824019   2.666931   2.162643   1.085188
    22  H    5.655753   5.099538   4.583111   3.381553   2.146563
    23  H    6.050436   6.219484   5.287752   3.849508   3.402623
    24  H    4.906134   5.768499   4.582372   3.381084   3.889044
    25  H    2.631234   3.891493   2.657877   2.156649   3.419843
    26  H    6.687594   4.852688   6.050441   6.906418   6.581710
    27  H    7.513313   5.450757   6.765770   7.578745   7.270556
    28  H    7.508729   5.755227   7.045361   8.087752   7.975421
    29  H    5.737029   4.086721   5.346628   6.471415   6.839691
    30  H    7.011575   5.379827   6.687746   7.863044   8.099634
    31  H    7.046825   5.078571   6.417863   7.358599   7.411762
    32  H    5.196922   3.111892   4.458397   5.380981   5.327889
    33  H    2.018921   3.177059   3.054129   4.355942   5.421236
                   11         12         13         14         15
    11  C    0.000000
    12  C    1.396100   0.000000
    13  C    2.422267   1.397179   0.000000
    14  C    2.804643   2.421299   1.394208   0.000000
    15  N    7.515042   8.559275   8.521850   7.429926   0.000000
    16  C    8.214440   9.388818   9.525684   8.525952   1.504749
    17  C    8.411493   9.340558   9.184858   8.059836   1.500971
    18  O    8.962525   9.868476   9.576093   8.303598   2.628397
    19  H    7.719167   8.345332   7.780643   6.428356   3.322363
    20  H    4.244309   5.155575   5.093391   4.091039   3.449053
    21  H    2.160310   3.407295   3.888846   3.425028   5.493551
    22  H    1.085266   2.158185   3.407135   3.889896   7.823289
    23  H    2.153792   1.085621   2.154030   3.402565   9.544205
    24  H    3.407000   2.159305   1.085104   2.145299   9.479104
    25  H    3.887890   3.410123   2.164104   1.083430   7.656030
    26  H    7.745345   8.980246   9.207795   8.265934   2.121256
    27  H    8.372255   9.567015   9.791443   8.878225   2.099594
    28  H    9.209771  10.362370  10.434680   9.373542   2.122661
    29  H    8.094661   8.895106   8.604769   7.437548   2.122788
    30  H    9.384266  10.314234  10.116493   8.941964   2.118718
    31  H    8.566774   9.527439   9.475780   8.450220   2.097574
    32  H    6.562592   7.620039   7.646967   6.625573   1.037153
    33  H    6.672557   7.007215   6.210427   4.838776   5.410077
                   16         17         18         19         20
    16  C    0.000000
    17  C    2.503500   0.000000
    18  O    3.236940   3.022199   0.000000
    19  H    4.670533   3.366425   2.580576   0.000000
    20  H    4.507447   4.219299   5.017586   3.876552   0.000000
    21  H    6.120182   6.542994   6.954759   6.062080   2.524555
    22  H    8.348112   8.788928   9.431031   8.418873   4.768845
    23  H   10.319855  10.324670  10.925545   9.424712   6.163582
    24  H   10.535473  10.067227  10.447688   8.517235   6.066159
    25  H    8.864621   8.159444   8.274225   6.183639   4.503688
    26  H    1.087890   3.429125   3.583889   5.015372   4.401368
    27  H    1.089273   2.700163   4.206698   5.409646   4.800478
    28  H    1.089095   2.740962   2.924753   4.849599   5.412288
    29  H    3.433073   1.088308   3.267513   2.747176   3.891404
    30  H    2.744020   1.088064   2.676677   3.588180   5.168583
    31  H    2.697277   1.089693   4.046775   4.368410   4.544174
    32  H    2.078821   2.083231   3.450815   3.552845   2.556175
    33  H    6.639650   5.891398   4.686980   2.776134   4.220526
                   21         22         23         24         25
    21  H    0.000000
    22  H    2.480322   0.000000
    23  H    4.302921   2.485588   0.000000
    24  H    4.973940   4.306106   2.485885   0.000000
    25  H    4.312177   4.973143   4.306456   2.486942   0.000000
    26  H    5.612270   7.809368   9.887944  10.248842   8.686718
    27  H    6.367098   8.423800  10.445166  10.803400   9.275992
    28  H    7.094387   9.373958  11.315796  11.428209   9.637556
    29  H    6.368434   8.586395   9.895900   9.422206   7.433057
    30  H    7.462532   9.769791  11.316522  10.988544   8.980482
    31  H    6.769515   8.855429  10.456368  10.366415   8.629469
    32  H    4.585655   6.854528   8.583711   8.620908   6.939184
    33  H    5.469929   7.542903   8.069275   6.807122   4.399523
                   26         27         28         29         30
    26  H    0.000000
    27  H    1.787148   0.000000
    28  H    1.797919   1.789929   0.000000
    29  H    4.229501   3.672484   3.735158   0.000000
    30  H    3.731143   3.065718   2.530972   1.797583   0.000000
    31  H    3.671640   2.435048   3.055498   1.782233   1.790236
    32  H    2.385466   2.388418   2.970102   2.394154   2.971914
    33  H    6.586799   7.437655   6.990680   5.262032   6.268967
                   31         32         33
    31  H    0.000000
    32  H    2.395525   0.000000
    33  H    6.800252   5.276791   0.000000
 Symmetry turned off by external request.
 Stoichiometry    C10H15N5O2S(2+)
 Framework group  C1[X(C10H15N5O2S)]
 Deg. of freedom    93
 Full point group                 C1      NOp   1
 Rotational constants (GHZ):           0.9064450           0.1720727           0.1573911
 Leave Link  202 at Thu Sep 24 17:36:53 2020, MaxMem=  2147483648 cpu:               0.0 elap:               0.0
 (Enter /prod/apps/gaussian/g16b1/l301.exe)
 Standard basis: 6-31G(d) (6D, 7F)
 Ernie: Thresh=  0.10000D-02 Tol=  0.10000D-05 Strict=F.
   304 basis functions,   588 primitive gaussians,   304 cartesian basis functions
    70 alpha electrons       70 beta electrons
       nuclear repulsion energy      1496.2892168713 Hartrees.
 IExCor=  402 DFT=T Ex+Corr=B3LYP ExCW=0 ScaHFX=  0.200000
 ScaDFX=  0.800000  0.720000  1.000000  0.810000 ScalE2=  1.000000  1.000000
 IRadAn=      5 IRanWt=     -1 IRanGd=            0 ICorTp=0 IEmpDi=  4
 NAtoms=   33 NActive=   33 NUniq=   33 SFac= 1.00D+00 NAtFMM=   60 NAOKFM=F Big=F
 Integral buffers will be    131072 words long.
 Raffenetti 2 integral format.
 Two-electron integral symmetry is turned off.
 Using the following non-standard input for PCM:
 MSTModel=DFT cav MSTcharged
 --- end of non-standard input.
 MST model for solvation energy: B3LYP parametrization.
 MST cavity parameters:
 ISph   IAn     Re0     Alpha   Atom Type   QCorr
 ------------------------------------------------
   1      8     1.40     1.25      O          F
   2     16     1.75     1.25      S          F
   3      7     1.50     1.25      NH         F
   4      6     1.50     1.25      C          F
   5      7     1.50     1.15      NH         T
   6      7     1.40     1.25      N          F
   7      6     1.50     1.25      CH         F
   8      7     1.40     1.25      N          F
   9      6     1.50     1.25      C          F
  10      6     1.50     1.25      CH         F
  11      6     1.50     1.25      CH         F
  12      6     1.50     1.25      CH         F
  13      6     1.50     1.25      CH         F
  14      6     1.50     1.25      CH         F
  15      7     1.50     1.15      NH         T
  16      6     1.50     1.25      CH3        F
  17      6     1.50     1.25      CH3        F
  18      8     1.40     1.25      O          F
  19      1     0.90     1.25      NH         F
  20      1     1.20     1.25      CH         F
  21      1     1.20     1.25      CH         F
  22      1     1.20     1.25      CH         F
  23      1     1.20     1.25      CH         F
  24      1     1.20     1.25      CH         F
  25      1     1.20     1.25      CH         F
  26      1     1.20     1.25      CH3        F
  27      1     1.20     1.25      CH3        F
  28      1     1.20     1.25      CH3        F
  29      1     1.20     1.25      CH3        F
  30      1     1.20     1.25      CH3        F
  31      1     1.20     1.25      CH3        F
  32      1     0.90     1.15      NH         T
  33      1     0.90     1.15      NH         T
 ------------------------------------------------------------------------------
 Polarizable Continuum Model (PCM)
 =================================
 Model                : PCM.
 Atomic radii         : MST.
 Polarization charges : Total charges.
 Charge compensation  : None.
 Solution method      : On-the-fly selection.
 Cavity type          : Scaled VdW (van der Waals Surface) (Alpha=1.250).
 Cavity algorithm     : GePol (No added spheres)
                        Default sphere list used, NSphG=   33.
                        Lebedev-Laikov grids with approx.  5.0 points / Ang**2.
                        Smoothing algorithm: York/Karplus (Gamma=1.0000).
                        Polarization charges: spherical gaussians, with
                                              point-specific exponents (IZeta= 3).
                        Self-potential: point-specific (ISelfS= 7).
                        Self-field    : sphere-specific E.n sum rule (ISelfD= 2).
 1st derivatives      : Analytical E(r).r(x)/FMM algorithm (CHGder, D1EAlg=3).
                        Cavity 1st derivative terms included.
 Solvent              : Water, Eps=  78.355300 Eps(inf)=   1.777849
 ------------------------------------------------------------------------------
 GePol: Number of generator spheres                  =      33
 GePol: Total number of spheres                      =      33
 GePol: Number of exposed spheres                    =      33 (100.00%)
 GePol: Number of points                             =    2449
 GePol: Average weight of points                     =       0.13
 GePol: Minimum weight of points                     =   0.12D-10
 GePol: Maximum weight of points                     =    0.22001
 GePol: Number of points with low weight             =     147
 GePol: Fraction of low-weight points (<1% of avg)   =       6.00%
 GePol: Cavity surface area                          =    315.083 Ang**2
 GePol: Cavity volume                                =    294.744 Ang**3
 PCM non-electrostatic energy =         0.0022121871 Hartrees.
 Nuclear repulsion after PCM non-electrostatic terms =     1496.2914290584 Hartrees.
 Leave Link  301 at Thu Sep 24 17:36:53 2020, MaxMem=  2147483648 cpu:               0.3 elap:               0.1
 (Enter /prod/apps/gaussian/g16b1/l302.exe)
 NPDir=0 NMtPBC=     1 NCelOv=     1 NCel=       1 NClECP=     1 NCelD=      1
         NCelK=      1 NCelE2=     1 NClLst=     1 CellRange=     0.0.
 One-electron integrals computed using PRISM.
 NBasis=   304 RedAO= T EigKep=  4.77D-04  NBF=   304
 NBsUse=   304 1.00D-06 EigRej= -1.00D+00 NBFU=   304
 Precomputing XC quadrature grid using
 IXCGrd= 4 IRadAn=           5 IRanWt=          -1 IRanGd=           0 AccXCQ= 0.00D+00.
 Generated NRdTot=       0 NPtTot=           0 NUsed=           0 NTot=          32
 NSgBfM=   302   302   302   302   302 MxSgAt=    33 MxSgA2=    33.
 Leave Link  302 at Thu Sep 24 17:36:54 2020, MaxMem=  2147483648 cpu:               1.6 elap:               0.4
 (Enter /prod/apps/gaussian/g16b1/l303.exe)
 DipDrv:  MaxL=1.
 Leave Link  303 at Thu Sep 24 17:36:54 2020, MaxMem=  2147483648 cpu:               0.2 elap:               0.1
 (Enter /prod/apps/gaussian/g16b1/l401.exe)
 ExpMin= 1.17D-01 ExpMax= 2.19D+04 ExpMxC= 3.30D+03 IAcc=3 IRadAn=         5 AccDes= 0.00D+00
 Harris functional with IExCor=  402 and IRadAn=       5 diagonalized for initial guess.
 HarFok:  IExCor=  402 AccDes= 0.00D+00 IRadAn=         5 IDoV= 1 UseB2=F ITyADJ=14
 ICtDFT=  3500011 ScaDFX=  1.000000  1.000000  1.000000  1.000000
 FoFCou: FMM=F IPFlag=           0 FMFlag=      100000 FMFlg1=           0
         NFxFlg=           0 DoJE=T BraDBF=F KetDBF=T FulRan=T
         wScrn=  0.000000 ICntrl=       500 IOpCl=  0 I1Cent=   200000004 NGrid=           0
         NMat0=    1 NMatS0=      1 NMatT0=    0 NMatD0=    1 NMtDS0=    0 NMtDT0=    0
 Symmetry not used in FoFCou.
 Harris En= -1211.95755321999    
 JPrj=0 DoOrth=F DoCkMO=F.
 Leave Link  401 at Thu Sep 24 17:36:56 2020, MaxMem=  2147483648 cpu:               8.4 elap:               2.1
 (Enter /prod/apps/gaussian/g16b1/l502.exe)
 Two-electron integral symmetry not used.
 Closed shell SCF:
 Using DIIS extrapolation, IDIIS=  1040.
 NGot=  2147483648 LenX=  2147294283 LenY=  2147201426
 Requested convergence on RMS density matrix=1.00D-08 within2000 cycles.
 Requested convergence on MAX density matrix=1.00D-06.
 Requested convergence on             energy=1.00D-06.
 No special actions if energy rises.

 Cycle   1  Pass 1  IDiag  1:
 FoFJK:  IHMeth= 1 ICntrl=       0 DoSepK=F KAlg= 0 I1Cent=           0 FoldK=F
 IRaf= 760000000 NMat=       1 IRICut=       1 DoRegI=T DoRafI=F ISym2E= 0 IDoP0=0 IntGTp=1.
 FoFCou: FMM=F IPFlag=           0 FMFlag=      100000 FMFlg1=           0
         NFxFlg=           0 DoJE=F BraDBF=F KetDBF=F FulRan=T
         wScrn=  0.000000 ICntrl=         0 IOpCl=  0 I1Cent=           0 NGrid=           0
         NMat0=    1 NMatS0=      1 NMatT0=    0 NMatD0=    1 NMtDS0=    0 NMtDT0=    0
 Symmetry not used in FoFCou.
 Inv3:  Mode=1 IEnd=    17992803.
 Iteration    1 A*A^-1 deviation from unit magnitude is 3.33D-15 for   1742.
 Iteration    1 A*A^-1 deviation from orthogonality  is 3.11D-15 for   1652    908.
 Iteration    1 A^-1*A deviation from unit magnitude is 3.11D-15 for    224.
 Iteration    1 A^-1*A deviation from orthogonality  is 3.22D-15 for   2181   2158.
 E= -1211.53572208755    
 DIIS: error= 2.72D-02 at cycle   1 NSaved=   1.
 NSaved= 1 IEnMin= 1 EnMin= -1211.53572208755     IErMin= 1 ErrMin= 2.72D-02
 ErrMax= 2.72D-02  0.00D+00 EMaxC= 1.00D-01 BMatC= 6.06D-01 BMatP= 6.06D-01
 IDIUse=3 WtCom= 7.28D-01 WtEn= 2.72D-01
 Coeff-Com:  0.100D+01
 Coeff-En:   0.100D+01
 Coeff:      0.100D+01
 Gap=     0.390 Goal=   None    Shift=    0.000
 GapD=    0.390 DampG=1.000 DampE=0.500 DampFc=0.5000 IDamp=-1.
 Damping current iteration by 5.00D-01
 RMSDP=6.44D-03 MaxDP=6.61D-01              OVMax= 2.74D-01

 Cycle   2  Pass 1  IDiag  1:
 E= -1211.62453054584     Delta-E=       -0.088808458284 Rises=F Damp=T
 DIIS: error= 1.63D-02 at cycle   2 NSaved=   2.
 NSaved= 2 IEnMin= 2 EnMin= -1211.62453054584     IErMin= 2 ErrMin= 1.63D-02
 ErrMax= 1.63D-02  0.00D+00 EMaxC= 1.00D-01 BMatC= 1.22D-01 BMatP= 6.06D-01
 IDIUse=3 WtCom= 8.37D-01 WtEn= 1.63D-01
 Coeff-Com:  0.267D+00 0.733D+00
 Coeff-En:   0.420D+00 0.580D+00
 Coeff:      0.292D+00 0.708D+00
 Gap=     0.193 Goal=   None    Shift=    0.000
 RMSDP=1.81D-03 MaxDP=1.40D-01 DE=-8.88D-02 OVMax= 2.35D-01

 Cycle   3  Pass 1  IDiag  1:
 E= -1212.02216149315     Delta-E=       -0.397630947317 Rises=F Damp=F
 DIIS: error= 7.70D-03 at cycle   3 NSaved=   3.
 NSaved= 3 IEnMin= 3 EnMin= -1212.02216149315     IErMin= 3 ErrMin= 7.70D-03
 ErrMax= 7.70D-03  0.00D+00 EMaxC= 1.00D-01 BMatC= 4.64D-02 BMatP= 1.22D-01
 IDIUse=3 WtCom= 9.23D-01 WtEn= 7.70D-02
 Coeff-Com:  0.909D-01 0.385D+00 0.524D+00
 Coeff-En:   0.000D+00 0.000D+00 0.100D+01
 Coeff:      0.839D-01 0.356D+00 0.560D+00
 Gap=     0.198 Goal=   None    Shift=    0.000
 RMSDP=8.62D-04 MaxDP=3.09D-02 DE=-3.98D-01 OVMax= 5.67D-02

 Cycle   4  Pass 1  IDiag  1:
 E= -1212.05658155191     Delta-E=       -0.034420058754 Rises=F Damp=F
 DIIS: error= 2.65D-03 at cycle   4 NSaved=   4.
 NSaved= 4 IEnMin= 4 EnMin= -1212.05658155191     IErMin= 4 ErrMin= 2.65D-03
 ErrMax= 2.65D-03  0.00D+00 EMaxC= 1.00D-01 BMatC= 7.04D-03 BMatP= 4.64D-02
 IDIUse=3 WtCom= 9.73D-01 WtEn= 2.65D-02
 Coeff-Com:  0.240D-02 0.792D-01 0.296D+00 0.622D+00
 Coeff-En:   0.000D+00 0.000D+00 0.114D+00 0.886D+00
 Coeff:      0.234D-02 0.771D-01 0.292D+00 0.629D+00
 Gap=     0.186 Goal=   None    Shift=    0.000
 RMSDP=2.91D-04 MaxDP=1.28D-02 DE=-3.44D-02 OVMax= 1.69D-02

 Cycle   5  Pass 1  IDiag  1:
 E= -1212.06207049975     Delta-E=       -0.005488947847 Rises=F Damp=F
 DIIS: error= 9.58D-04 at cycle   5 NSaved=   5.
 NSaved= 5 IEnMin= 5 EnMin= -1212.06207049975     IErMin= 5 ErrMin= 9.58D-04
 ErrMax= 9.58D-04  0.00D+00 EMaxC= 1.00D-01 BMatC= 6.86D-04 BMatP= 7.04D-03
 IDIUse=3 WtCom= 9.90D-01 WtEn= 9.58D-03
 Coeff-Com: -0.533D-02 0.201D-01 0.122D+00 0.347D+00 0.516D+00
 Coeff-En:   0.000D+00 0.000D+00 0.000D+00 0.316D-02 0.997D+00
 Coeff:     -0.528D-02 0.199D-01 0.121D+00 0.344D+00 0.521D+00
 Gap=     0.187 Goal=   None    Shift=    0.000
 RMSDP=9.68D-05 MaxDP=4.44D-03 DE=-5.49D-03 OVMax= 8.80D-03

 Cycle   6  Pass 1  IDiag  1:
 E= -1212.06265187401     Delta-E=       -0.000581374257 Rises=F Damp=F
 DIIS: error= 4.49D-04 at cycle   6 NSaved=   6.
 NSaved= 6 IEnMin= 6 EnMin= -1212.06265187401     IErMin= 6 ErrMin= 4.49D-04
 ErrMax= 4.49D-04  0.00D+00 EMaxC= 1.00D-01 BMatC= 5.92D-05 BMatP= 6.86D-04
 IDIUse=3 WtCom= 9.96D-01 WtEn= 4.49D-03
 Coeff-Com: -0.330D-02 0.487D-02 0.389D-01 0.128D+00 0.286D+00 0.545D+00
 Coeff-En:   0.000D+00 0.000D+00 0.000D+00 0.000D+00 0.149D-01 0.985D+00
 Coeff:     -0.329D-02 0.485D-02 0.387D-01 0.128D+00 0.285D+00 0.547D+00
 Gap=     0.187 Goal=   None    Shift=    0.000
 RMSDP=2.88D-05 MaxDP=1.65D-03 DE=-5.81D-04 OVMax= 3.07D-03

 Cycle   7  Pass 1  IDiag  1:
 E= -1212.06270325190     Delta-E=       -0.000051377887 Rises=F Damp=F
 DIIS: error= 1.23D-04 at cycle   7 NSaved=   7.
 NSaved= 7 IEnMin= 7 EnMin= -1212.06270325190     IErMin= 7 ErrMin= 1.23D-04
 ErrMax= 1.23D-04  0.00D+00 EMaxC= 1.00D-01 BMatC= 7.75D-06 BMatP= 5.92D-05
 IDIUse=3 WtCom= 9.99D-01 WtEn= 1.23D-03
 Coeff-Com: -0.164D-02 0.107D-02 0.119D-01 0.451D-01 0.125D+00 0.330D+00
 Coeff-Com:  0.488D+00
 Coeff-En:   0.000D+00 0.000D+00 0.000D+00 0.000D+00 0.000D+00 0.472D-01
 Coeff-En:   0.953D+00
 Coeff:     -0.164D-02 0.107D-02 0.119D-01 0.451D-01 0.125D+00 0.330D+00
 Coeff:      0.489D+00
 Gap=     0.187 Goal=   None    Shift=    0.000
 RMSDP=8.40D-06 MaxDP=5.46D-04 DE=-5.14D-05 OVMax= 6.57D-04

 Cycle   8  Pass 1  IDiag  1:
 E= -1212.06270963797     Delta-E=       -0.000006386074 Rises=F Damp=F
 DIIS: error= 2.54D-05 at cycle   8 NSaved=   8.
 NSaved= 8 IEnMin= 8 EnMin= -1212.06270963797     IErMin= 8 ErrMin= 2.54D-05
 ErrMax= 2.54D-05  0.00D+00 EMaxC= 1.00D-01 BMatC= 3.44D-07 BMatP= 7.75D-06
 IDIUse=1 WtCom= 1.00D+00 WtEn= 0.00D+00
 Coeff-Com: -0.405D-03 0.212D-04 0.834D-03 0.553D-02 0.238D-01 0.896D-01
 Coeff-Com:  0.221D+00 0.660D+00
 Coeff:     -0.405D-03 0.212D-04 0.834D-03 0.553D-02 0.238D-01 0.896D-01
 Coeff:      0.221D+00 0.660D+00
 Gap=     0.187 Goal=   None    Shift=    0.000
 RMSDP=1.97D-06 MaxDP=1.28D-04 DE=-6.39D-06 OVMax= 1.19D-04

 Cycle   9  Pass 1  IDiag  1:
 E= -1212.06270989963     Delta-E=       -0.000000261660 Rises=F Damp=F
 DIIS: error= 8.16D-06 at cycle   9 NSaved=   9.
 NSaved= 9 IEnMin= 9 EnMin= -1212.06270989963     IErMin= 9 ErrMin= 8.16D-06
 ErrMax= 8.16D-06  0.00D+00 EMaxC= 1.00D-01 BMatC= 4.01D-08 BMatP= 3.44D-07
 IDIUse=1 WtCom= 1.00D+00 WtEn= 0.00D+00
 Coeff-Com: -0.471D-04-0.653D-04-0.750D-03-0.163D-02-0.438D-03 0.120D-01
 Coeff-Com:  0.606D-01 0.324D+00 0.607D+00
 Coeff:     -0.471D-04-0.653D-04-0.750D-03-0.163D-02-0.438D-03 0.120D-01
 Coeff:      0.606D-01 0.324D+00 0.607D+00
 Gap=     0.187 Goal=   None    Shift=    0.000
 RMSDP=6.46D-07 MaxDP=3.46D-05 DE=-2.62D-07 OVMax= 3.94D-05

 Cycle  10  Pass 1  IDiag  1:
 E= -1212.06270993211     Delta-E=       -0.000000032473 Rises=F Damp=F
 DIIS: error= 2.36D-06 at cycle  10 NSaved=  10.
 NSaved=10 IEnMin=10 EnMin= -1212.06270993211     IErMin=10 ErrMin= 2.36D-06
 ErrMax= 2.36D-06  0.00D+00 EMaxC= 1.00D-01 BMatC= 2.96D-09 BMatP= 4.01D-08
 IDIUse=1 WtCom= 1.00D+00 WtEn= 0.00D+00
 Coeff-Com: -0.363D-05-0.295D-04-0.416D-03-0.109D-02-0.167D-02 0.482D-03
 Coeff-Com:  0.159D-01 0.119D+00 0.294D+00 0.574D+00
 Coeff:     -0.363D-05-0.295D-04-0.416D-03-0.109D-02-0.167D-02 0.482D-03
 Coeff:      0.159D-01 0.119D+00 0.294D+00 0.574D+00
 Gap=     0.187 Goal=   None    Shift=    0.000
 RMSDP=2.06D-07 MaxDP=9.11D-06 DE=-3.25D-08 OVMax= 1.92D-05

 Cycle  11  Pass 1  IDiag  1:
 E= -1212.06270993460     Delta-E=       -0.000000002492 Rises=F Damp=F
 DIIS: error= 6.16D-07 at cycle  11 NSaved=  11.
 NSaved=11 IEnMin=11 EnMin= -1212.06270993460     IErMin=11 ErrMin= 6.16D-07
 ErrMax= 6.16D-07  0.00D+00 EMaxC= 1.00D-01 BMatC= 2.88D-10 BMatP= 2.96D-09
 IDIUse=1 WtCom= 1.00D+00 WtEn= 0.00D+00
 Coeff-Com:  0.297D-05-0.259D-05-0.117D-03-0.328D-03-0.768D-03-0.111D-02
 Coeff-Com:  0.729D-03 0.201D-01 0.645D-01 0.266D+00 0.651D+00
 Coeff:      0.297D-05-0.259D-05-0.117D-03-0.328D-03-0.768D-03-0.111D-02
 Coeff:      0.729D-03 0.201D-01 0.645D-01 0.266D+00 0.651D+00
 Gap=     0.187 Goal=   None    Shift=    0.000
 RMSDP=6.66D-08 MaxDP=2.68D-06 DE=-2.49D-09 OVMax= 6.30D-06

 Cycle  12  Pass 1  IDiag  1:
 E= -1212.06270993478     Delta-E=       -0.000000000187 Rises=F Damp=F
 DIIS: error= 4.56D-07 at cycle  12 NSaved=  12.
 NSaved=12 IEnMin=12 EnMin= -1212.06270993478     IErMin=12 ErrMin= 4.56D-07
 ErrMax= 4.56D-07  0.00D+00 EMaxC= 1.00D-01 BMatC= 7.80D-11 BMatP= 2.88D-10
 IDIUse=1 WtCom= 1.00D+00 WtEn= 0.00D+00
 Coeff-Com:  0.243D-05 0.851D-06-0.403D-04-0.116D-03-0.367D-03-0.847D-03
 Coeff-Com: -0.122D-02 0.118D-02 0.124D-01 0.118D+00 0.418D+00 0.454D+00
 Coeff:      0.243D-05 0.851D-06-0.403D-04-0.116D-03-0.367D-03-0.847D-03
 Coeff:     -0.122D-02 0.118D-02 0.124D-01 0.118D+00 0.418D+00 0.454D+00
 Gap=     0.187 Goal=   None    Shift=    0.000
 RMSDP=2.72D-08 MaxDP=1.40D-06 DE=-1.87D-10 OVMax= 2.00D-06

 Cycle  13  Pass 1  IDiag  1:
 E= -1212.06270993485     Delta-E=       -0.000000000062 Rises=F Damp=F
 DIIS: error= 9.33D-08 at cycle  13 NSaved=  13.
 NSaved=13 IEnMin=13 EnMin= -1212.06270993485     IErMin=13 ErrMin= 9.33D-08
 ErrMax= 9.33D-08  0.00D+00 EMaxC= 1.00D-01 BMatC= 3.44D-12 BMatP= 7.80D-11
 IDIUse=1 WtCom= 1.00D+00 WtEn= 0.00D+00
 Coeff-Com:  0.698D-06 0.564D-06-0.431D-05-0.114D-04-0.743D-04-0.264D-03
 Coeff-Com: -0.693D-03-0.230D-02-0.382D-02 0.194D-01 0.106D+00 0.209D+00
 Coeff-Com:  0.673D+00
 Coeff:      0.698D-06 0.564D-06-0.431D-05-0.114D-04-0.743D-04-0.264D-03
 Coeff:     -0.693D-03-0.230D-02-0.382D-02 0.194D-01 0.106D+00 0.209D+00
 Coeff:      0.673D+00
 Gap=     0.187 Goal=   None    Shift=    0.000
 RMSDP=7.79D-09 MaxDP=3.33D-07 DE=-6.18D-11 OVMax= 6.31D-07

 Error on total polarization charges =  0.01862
 SCF Done:  E(RB3LYP) =  -1212.06270993     A.U. after   13 cycles
            NFock= 13  Conv=0.78D-08     -V/T= 2.0079
 KE= 1.202544247995D+03 PE=-5.787155955995D+03 EE= 1.876257569006D+03
 Leave Link  502 at Thu Sep 24 17:37:59 2020, MaxMem=  2147483648 cpu:             252.1 elap:              63.1
 (Enter /prod/apps/gaussian/g16b1/l601.exe)
 Copying SCF densities to generalized density rwf, IOpCl= 0 IROHF=0.

 **********************************************************************

            Population analysis using the SCF Density.

 **********************************************************************

 Alpha  occ. eigenvalues --  -89.19699 -19.21949 -19.21930 -14.50419 -14.48936
 Alpha  occ. eigenvalues --  -14.48807 -14.47085 -14.44399 -10.33804 -10.29175
 Alpha  occ. eigenvalues --  -10.26842 -10.25641 -10.25607 -10.22129 -10.21956
 Alpha  occ. eigenvalues --  -10.21170 -10.21136 -10.21040  -8.22028  -6.18486
 Alpha  occ. eigenvalues --   -6.18477  -6.18387  -1.19513  -1.19083  -1.08238
 Alpha  occ. eigenvalues --   -1.02516  -1.01722  -0.99198  -0.88185  -0.88001
 Alpha  occ. eigenvalues --   -0.80043  -0.77391  -0.76702  -0.75487  -0.72036
 Alpha  occ. eigenvalues --   -0.71157  -0.68069  -0.65126  -0.63177  -0.62446
 Alpha  occ. eigenvalues --   -0.61239  -0.57129  -0.56520  -0.56186  -0.55977
 Alpha  occ. eigenvalues --   -0.54483  -0.51758  -0.51269  -0.50784  -0.50113
 Alpha  occ. eigenvalues --   -0.47427  -0.46529  -0.45690  -0.44564  -0.44545
 Alpha  occ. eigenvalues --   -0.43280  -0.42607  -0.41925  -0.41579  -0.39975
 Alpha  occ. eigenvalues --   -0.38982  -0.38265  -0.38195  -0.38016  -0.37562
 Alpha  occ. eigenvalues --   -0.36664  -0.36360  -0.31033  -0.27492  -0.27308
 Alpha virt. eigenvalues --   -0.08616  -0.05156  -0.03785  -0.02452  -0.01023
 Alpha virt. eigenvalues --    0.01896   0.03960   0.05058   0.05390   0.07834
 Alpha virt. eigenvalues --    0.08715   0.09627   0.09753   0.11149   0.12316
 Alpha virt. eigenvalues --    0.12736   0.13498   0.13823   0.14364   0.14566
 Alpha virt. eigenvalues --    0.15019   0.15363   0.16661   0.17125   0.17948
 Alpha virt. eigenvalues --    0.18288   0.18569   0.18983   0.21267   0.22238
 Alpha virt. eigenvalues --    0.27162   0.27352   0.28490   0.28774   0.31890
 Alpha virt. eigenvalues --    0.32370   0.34265   0.34759   0.39243   0.39616
 Alpha virt. eigenvalues --    0.41659   0.45118   0.45546   0.46323   0.46929
 Alpha virt. eigenvalues --    0.49064   0.49558   0.50936   0.51578   0.52424
 Alpha virt. eigenvalues --    0.53345   0.53887   0.54938   0.55270   0.55719
 Alpha virt. eigenvalues --    0.56818   0.57344   0.57491   0.59213   0.59562
 Alpha virt. eigenvalues --    0.60035   0.60600   0.60845   0.62323   0.63394
 Alpha virt. eigenvalues --    0.64414   0.65708   0.67964   0.70203   0.71239
 Alpha virt. eigenvalues --    0.72611   0.73602   0.73926   0.74772   0.75809
 Alpha virt. eigenvalues --    0.76504   0.76774   0.77245   0.78309   0.79415
 Alpha virt. eigenvalues --    0.80311   0.81895   0.82433   0.83190   0.83219
 Alpha virt. eigenvalues --    0.84450   0.85428   0.86268   0.87101   0.87921
 Alpha virt. eigenvalues --    0.89937   0.90255   0.90523   0.92125   0.92487
 Alpha virt. eigenvalues --    0.93538   0.94270   0.95291   0.96298   0.97471
 Alpha virt. eigenvalues --    0.97557   0.98676   0.99465   1.01334   1.01682
 Alpha virt. eigenvalues --    1.03432   1.05190   1.07021   1.09119   1.09375
 Alpha virt. eigenvalues --    1.10582   1.12232   1.12760   1.14168   1.15891
 Alpha virt. eigenvalues --    1.16653   1.17044   1.18906   1.20858   1.24334
 Alpha virt. eigenvalues --    1.25186   1.28962   1.30729   1.34507   1.35409
 Alpha virt. eigenvalues --    1.36485   1.39510   1.40651   1.41565   1.43654
 Alpha virt. eigenvalues --    1.44576   1.45680   1.46952   1.47903   1.49003
 Alpha virt. eigenvalues --    1.51055   1.54580   1.58346   1.60491   1.63969
 Alpha virt. eigenvalues --    1.67510   1.69214   1.71870   1.73263   1.73675
 Alpha virt. eigenvalues --    1.75570   1.76416   1.77588   1.78042   1.78816
 Alpha virt. eigenvalues --    1.80003   1.80708   1.82693   1.84204   1.86579
 Alpha virt. eigenvalues --    1.87663   1.88291   1.91651   1.92585   1.93100
 Alpha virt. eigenvalues --    1.94588   1.97622   1.98759   1.99920   2.01331
 Alpha virt. eigenvalues --    2.02944   2.03662   2.05372   2.05654   2.06656
 Alpha virt. eigenvalues --    2.08589   2.09541   2.11475   2.12534   2.13504
 Alpha virt. eigenvalues --    2.14041   2.16768   2.17216   2.19616   2.20944
 Alpha virt. eigenvalues --    2.22886   2.24648   2.25725   2.27132   2.28093
 Alpha virt. eigenvalues --    2.29452   2.29589   2.31545   2.34123   2.36429
 Alpha virt. eigenvalues --    2.39810   2.41601   2.49137   2.51722   2.52726
 Alpha virt. eigenvalues --    2.54197   2.56578   2.57730   2.60633   2.62640
 Alpha virt. eigenvalues --    2.64028   2.64804   2.68137   2.69828   2.71451
 Alpha virt. eigenvalues --    2.72471   2.73473   2.76778   2.77738   2.80196
 Alpha virt. eigenvalues --    2.85515   2.96073   3.02697   3.09829   3.20377
 Alpha virt. eigenvalues --    3.40174   3.56262   3.78068   3.88474   3.92761
 Alpha virt. eigenvalues --    3.96028   4.01006   4.05844   4.07196   4.09439
 Alpha virt. eigenvalues --    4.10088   4.13517   4.17205   4.21706   4.29617
 Alpha virt. eigenvalues --    4.30751   4.37318   4.44001   4.68839
          Condensed to atoms (all electrons):
               1          2          3          4          5          6
     1  O    8.151037   0.446798  -0.054764   0.008987  -0.000408  -0.000002
     2  S    0.446798  13.494011   0.167074  -0.005799  -0.001558   0.000189
     3  N   -0.054764   0.167074   7.353595   0.256985  -0.062106   0.004570
     4  C    0.008987  -0.005799   0.256985   4.501981   0.287278  -0.059502
     5  N   -0.000408  -0.001558  -0.062106   0.287278   6.701239   0.258045
     6  N   -0.000002   0.000189   0.004570  -0.059502   0.258045   6.657706
     7  C    0.000054  -0.005862  -0.057578   0.518937  -0.046108  -0.089491
     8  N   -0.000069  -0.000234   0.003335  -0.015253  -0.083325   0.270307
     9  C    0.000002  -0.000008  -0.000087   0.002137   0.006590  -0.052446
    10  C   -0.000002  -0.000001   0.000004   0.000966  -0.000302   0.003005
    11  C   -0.000000  -0.000000   0.000000  -0.000007   0.000002  -0.000069
    12  C    0.000000   0.000000  -0.000000  -0.000000  -0.000000   0.000014
    13  C   -0.000000  -0.000000  -0.000000   0.000005  -0.000003   0.000167
    14  C    0.000000   0.000000   0.000000  -0.000595   0.000456  -0.000331
    15  N   -0.044876   0.102732  -0.046455  -0.001789  -0.000008   0.000001
    16  C   -0.000725  -0.014082   0.001666   0.000030   0.000000  -0.000000
    17  C    0.001148  -0.011665  -0.002113   0.000577  -0.000003   0.000000
    18  O   -0.033009   0.448960  -0.046653   0.000304   0.000023   0.000000
    19  H    0.000544  -0.009647   0.293234  -0.013665  -0.001710   0.000027
    20  H   -0.000057   0.000473  -0.001111  -0.025168   0.003256   0.002904
    21  H    0.000001   0.000003  -0.000000  -0.000086  -0.000010  -0.000036
    22  H   -0.000000  -0.000000   0.000000   0.000000  -0.000000   0.000001
    23  H    0.000000  -0.000000  -0.000000   0.000000  -0.000000   0.000000
    24  H   -0.000000  -0.000000   0.000000  -0.000000   0.000000  -0.000006
    25  H    0.000000  -0.000000  -0.000000   0.000000  -0.000270   0.008451
    26  H    0.007319  -0.002575   0.000036   0.000008   0.000000   0.000000
    27  H    0.000044   0.001853  -0.000071  -0.000004  -0.000000   0.000000
    28  H   -0.000631  -0.000988  -0.000008   0.000001  -0.000000  -0.000000
    29  H    0.000002  -0.004252   0.006722   0.000105   0.000002  -0.000000
    30  H   -0.000003  -0.002616  -0.000143  -0.000005  -0.000000  -0.000000
    31  H   -0.000040   0.001916  -0.000034  -0.000020  -0.000000   0.000000
    32  H    0.000282  -0.004399   0.000771  -0.000006  -0.000002   0.000000
    33  H   -0.000010   0.000017   0.000265  -0.022563   0.307099  -0.025749
               7          8          9         10         11         12
     1  O    0.000054  -0.000069   0.000002  -0.000002  -0.000000   0.000000
     2  S   -0.005862  -0.000234  -0.000008  -0.000001  -0.000000   0.000000
     3  N   -0.057578   0.003335  -0.000087   0.000004   0.000000  -0.000000
     4  C    0.518937  -0.015253   0.002137   0.000966  -0.000007  -0.000000
     5  N   -0.046108  -0.083325   0.006590  -0.000302   0.000002  -0.000000
     6  N   -0.089491   0.270307  -0.052446   0.003005  -0.000069   0.000014
     7  C    4.908934   0.319674  -0.031482  -0.004385  -0.000034   0.000016
     8  N    0.319674   6.762338   0.207406  -0.049028   0.004345   0.000365
     9  C   -0.031482   0.207406   4.645685   0.531770  -0.012426  -0.036628
    10  C   -0.004385  -0.049028   0.531770   4.948984   0.530185  -0.041204
    11  C   -0.000034   0.004345  -0.012426   0.530185   4.854718   0.542204
    12  C    0.000016   0.000365  -0.036628  -0.041204   0.542204   4.856094
    13  C   -0.000078   0.004239  -0.011817  -0.041196  -0.023808   0.538534
    14  C    0.006006  -0.054784   0.521882  -0.063959  -0.040681  -0.040247
    15  N    0.000763   0.000011  -0.000000   0.000000   0.000000   0.000000
    16  C   -0.000009  -0.000000   0.000000   0.000000   0.000000  -0.000000
    17  C    0.000007  -0.000000   0.000000   0.000000   0.000000  -0.000000
    18  O   -0.000036   0.000000  -0.000000  -0.000000  -0.000000   0.000000
    19  H    0.001095  -0.000014   0.000000   0.000000   0.000000  -0.000000
    20  H    0.363748  -0.029467  -0.001113   0.001903   0.000061   0.000000
    21  H    0.004700  -0.008073  -0.040052   0.357172  -0.031473   0.004136
    22  H   -0.000004  -0.000113   0.003449  -0.036828   0.364497  -0.038139
    23  H   -0.000000   0.000003   0.000482   0.004851  -0.040452   0.366465
    24  H    0.000001  -0.000107   0.003499   0.000717   0.004257  -0.038411
    25  H    0.000151  -0.010506  -0.040491   0.004769   0.000120   0.004278
    26  H   -0.000007   0.000000   0.000000  -0.000000  -0.000000   0.000000
    27  H    0.000001  -0.000000  -0.000000   0.000000   0.000000   0.000000
    28  H   -0.000000   0.000000   0.000000  -0.000000  -0.000000   0.000000
    29  H    0.000058   0.000001  -0.000000   0.000000   0.000000   0.000000
    30  H    0.000000   0.000000   0.000000  -0.000000  -0.000000   0.000000
    31  H    0.000000   0.000000  -0.000000   0.000000   0.000000   0.000000
    32  H    0.000895  -0.000011  -0.000000  -0.000001   0.000000   0.000000
    33  H    0.004161   0.004042  -0.000053   0.000002  -0.000000  -0.000000
              13         14         15         16         17         18
     1  O   -0.000000   0.000000  -0.044876  -0.000725   0.001148  -0.033009
     2  S   -0.000000   0.000000   0.102732  -0.014082  -0.011665   0.448960
     3  N   -0.000000   0.000000  -0.046455   0.001666  -0.002113  -0.046653
     4  C    0.000005  -0.000595  -0.001789   0.000030   0.000577   0.000304
     5  N   -0.000003   0.000456  -0.000008   0.000000  -0.000003   0.000023
     6  N    0.000167  -0.000331   0.000001  -0.000000   0.000000   0.000000
     7  C   -0.000078   0.006006   0.000763  -0.000009   0.000007  -0.000036
     8  N    0.004239  -0.054784   0.000011  -0.000000  -0.000000   0.000000
     9  C   -0.011817   0.521882  -0.000000   0.000000   0.000000  -0.000000
    10  C   -0.041196  -0.063959   0.000000   0.000000   0.000000  -0.000000
    11  C   -0.023808  -0.040681   0.000000   0.000000   0.000000  -0.000000
    12  C    0.538534  -0.040247   0.000000  -0.000000  -0.000000   0.000000
    13  C    4.863717   0.526497   0.000000  -0.000000  -0.000000   0.000000
    14  C    0.526497   4.947409  -0.000000   0.000000  -0.000000   0.000000
    15  N    0.000000  -0.000000   7.124039   0.213108   0.207219  -0.047386
    16  C   -0.000000   0.000000   0.213108   5.069016  -0.039667  -0.001301
    17  C   -0.000000  -0.000000   0.207219  -0.039667   5.073367   0.001922
    18  O    0.000000   0.000000  -0.047386  -0.001301   0.001922   8.152865
    19  H    0.000000  -0.000000   0.000623  -0.000012  -0.000303   0.001441
    20  H   -0.000006   0.000012   0.000447   0.000014   0.000011   0.000000
    21  H    0.000181   0.004560  -0.000000   0.000000  -0.000000   0.000000
    22  H    0.004223   0.000750   0.000000   0.000000   0.000000  -0.000000
    23  H   -0.040444   0.004699  -0.000000  -0.000000  -0.000000   0.000000
    24  H    0.364787  -0.036910   0.000000  -0.000000   0.000000   0.000000
    25  H   -0.033795   0.360105  -0.000000   0.000000  -0.000000   0.000000
    26  H   -0.000000  -0.000000  -0.027076   0.375599   0.003529  -0.000275
    27  H    0.000000  -0.000000  -0.026280   0.378054  -0.002267  -0.000051
    28  H   -0.000000   0.000000  -0.032859   0.378517  -0.002332   0.003910
    29  H    0.000000  -0.000000  -0.027127   0.003458   0.376941  -0.000756
    30  H   -0.000000  -0.000000  -0.032711  -0.002107   0.379534   0.005065
    31  H    0.000000  -0.000000  -0.025004  -0.002403   0.375008   0.000090
    32  H    0.000000  -0.000000   0.273144  -0.018472  -0.019300   0.000786
    33  H   -0.000000  -0.000002   0.000001  -0.000000   0.000000  -0.000007
              19         20         21         22         23         24
     1  O    0.000544  -0.000057   0.000001  -0.000000   0.000000  -0.000000
     2  S   -0.009647   0.000473   0.000003  -0.000000  -0.000000  -0.000000
     3  N    0.293234  -0.001111  -0.000000   0.000000  -0.000000   0.000000
     4  C   -0.013665  -0.025168  -0.000086   0.000000   0.000000  -0.000000
     5  N   -0.001710   0.003256  -0.000010  -0.000000  -0.000000   0.000000
     6  N    0.000027   0.002904  -0.000036   0.000001   0.000000  -0.000006
     7  C    0.001095   0.363748   0.004700  -0.000004  -0.000000   0.000001
     8  N   -0.000014  -0.029467  -0.008073  -0.000113   0.000003  -0.000107
     9  C    0.000000  -0.001113  -0.040052   0.003449   0.000482   0.003499
    10  C    0.000000   0.001903   0.357172  -0.036828   0.004851   0.000717
    11  C    0.000000   0.000061  -0.031473   0.364497  -0.040452   0.004257
    12  C   -0.000000   0.000000   0.004136  -0.038139   0.366465  -0.038411
    13  C    0.000000  -0.000006   0.000181   0.004223  -0.040444   0.364787
    14  C   -0.000000   0.000012   0.004560   0.000750   0.004699  -0.036910
    15  N    0.000623   0.000447  -0.000000   0.000000  -0.000000   0.000000
    16  C   -0.000012   0.000014   0.000000   0.000000  -0.000000  -0.000000
    17  C   -0.000303   0.000011  -0.000000   0.000000  -0.000000   0.000000
    18  O    0.001441   0.000000   0.000000  -0.000000   0.000000   0.000000
    19  H    0.246215  -0.000031  -0.000000  -0.000000   0.000000  -0.000000
    20  H   -0.000031   0.403849   0.000973   0.000000  -0.000000   0.000000
    21  H   -0.000000   0.000973   0.522233  -0.004839  -0.000135   0.000013
    22  H   -0.000000   0.000000  -0.004839   0.536998  -0.004940  -0.000152
    23  H    0.000000  -0.000000  -0.000135  -0.004940   0.543360  -0.004933
    24  H   -0.000000   0.000000   0.000013  -0.000152  -0.004933   0.537211
    25  H    0.000000  -0.000006  -0.000118   0.000012  -0.000131  -0.004863
    26  H   -0.000002   0.000002  -0.000000  -0.000000   0.000000   0.000000
    27  H    0.000000  -0.000003  -0.000000  -0.000000  -0.000000  -0.000000
    28  H    0.000002   0.000000   0.000000  -0.000000  -0.000000  -0.000000
    29  H    0.000015   0.000039   0.000000   0.000000   0.000000  -0.000000
    30  H    0.000016   0.000000  -0.000000  -0.000000  -0.000000  -0.000000
    31  H    0.000004  -0.000002   0.000000   0.000000  -0.000000  -0.000000
    32  H    0.000023   0.001220  -0.000001  -0.000000   0.000000  -0.000000
    33  H    0.000601  -0.000045  -0.000000   0.000000  -0.000000   0.000000
              25         26         27         28         29         30
     1  O    0.000000   0.007319   0.000044  -0.000631   0.000002  -0.000003
     2  S   -0.000000  -0.002575   0.001853  -0.000988  -0.004252  -0.002616
     3  N   -0.000000   0.000036  -0.000071  -0.000008   0.006722  -0.000143
     4  C    0.000000   0.000008  -0.000004   0.000001   0.000105  -0.000005
     5  N   -0.000270   0.000000  -0.000000  -0.000000   0.000002  -0.000000
     6  N    0.008451   0.000000   0.000000  -0.000000  -0.000000  -0.000000
     7  C    0.000151  -0.000007   0.000001  -0.000000   0.000058   0.000000
     8  N   -0.010506   0.000000  -0.000000   0.000000   0.000001   0.000000
     9  C   -0.040491   0.000000  -0.000000   0.000000  -0.000000   0.000000
    10  C    0.004769  -0.000000   0.000000  -0.000000   0.000000  -0.000000
    11  C    0.000120  -0.000000   0.000000  -0.000000   0.000000  -0.000000
    12  C    0.004278   0.000000   0.000000   0.000000   0.000000   0.000000
    13  C   -0.033795  -0.000000   0.000000  -0.000000   0.000000  -0.000000
    14  C    0.360105  -0.000000  -0.000000   0.000000  -0.000000  -0.000000
    15  N   -0.000000  -0.027076  -0.026280  -0.032859  -0.027127  -0.032711
    16  C    0.000000   0.375599   0.378054   0.378517   0.003458  -0.002107
    17  C   -0.000000   0.003529  -0.002267  -0.002332   0.376941   0.379534
    18  O    0.000000  -0.000275  -0.000051   0.003910  -0.000756   0.005065
    19  H    0.000000  -0.000002   0.000000   0.000002   0.000015   0.000016
    20  H   -0.000006   0.000002  -0.000003   0.000000   0.000039   0.000000
    21  H   -0.000118  -0.000000  -0.000000   0.000000   0.000000  -0.000000
    22  H    0.000012  -0.000000  -0.000000  -0.000000   0.000000  -0.000000
    23  H   -0.000131   0.000000  -0.000000  -0.000000   0.000000  -0.000000
    24  H   -0.004863   0.000000  -0.000000  -0.000000  -0.000000  -0.000000
    25  H    0.522711  -0.000000  -0.000000  -0.000000   0.000000  -0.000000
    26  H   -0.000000   0.451742  -0.019474  -0.022222  -0.000154  -0.000016
    27  H   -0.000000  -0.019474   0.451128  -0.022071  -0.000025  -0.000540
    28  H   -0.000000  -0.022222  -0.022071   0.458604  -0.000005   0.003797
    29  H    0.000000  -0.000154  -0.000025  -0.000005   0.456609  -0.021938
    30  H   -0.000000  -0.000016  -0.000540   0.003797  -0.021938   0.455120
    31  H    0.000000  -0.000024   0.003089  -0.000500  -0.020653  -0.021166
    32  H    0.000000  -0.001945  -0.003005   0.002906  -0.001824   0.002848
    33  H   -0.000001  -0.000000   0.000000   0.000000  -0.000000   0.000000
              31         32         33
     1  O   -0.000040   0.000282  -0.000010
     2  S    0.001916  -0.004399   0.000017
     3  N   -0.000034   0.000771   0.000265
     4  C   -0.000020  -0.000006  -0.022563
     5  N   -0.000000  -0.000002   0.307099
     6  N    0.000000   0.000000  -0.025749
     7  C    0.000000   0.000895   0.004161
     8  N    0.000000  -0.000011   0.004042
     9  C   -0.000000  -0.000000  -0.000053
    10  C    0.000000  -0.000001   0.000002
    11  C    0.000000   0.000000  -0.000000
    12  C    0.000000   0.000000  -0.000000
    13  C    0.000000   0.000000  -0.000000
    14  C   -0.000000  -0.000000  -0.000002
    15  N   -0.025004   0.273144   0.000001
    16  C   -0.002403  -0.018472  -0.000000
    17  C    0.375008  -0.019300   0.000000
    18  O    0.000090   0.000786  -0.000007
    19  H    0.000004   0.000023   0.000601
    20  H   -0.000002   0.001220  -0.000045
    21  H    0.000000  -0.000001  -0.000000
    22  H    0.000000  -0.000000   0.000000
    23  H   -0.000000   0.000000  -0.000000
    24  H   -0.000000  -0.000000   0.000000
    25  H    0.000000   0.000000  -0.000001
    26  H   -0.000024  -0.001945  -0.000000
    27  H    0.003089  -0.003005   0.000000
    28  H   -0.000500   0.002906   0.000000
    29  H   -0.020653  -0.001824  -0.000000
    30  H   -0.021166   0.002848   0.000000
    31  H    0.453660  -0.002519  -0.000000
    32  H   -0.002519   0.253532   0.000000
    33  H   -0.000000   0.000000   0.248336
 Mulliken charges:
               1
     1  O   -0.481620
     2  S    1.399659
     3  N   -0.817133
     4  C    0.566159
     5  N   -0.368180
     6  N    0.022242
     7  C    0.105872
     8  N   -0.325082
     9  C    0.303703
    10  C   -0.147423
    11  C   -0.151438
    12  C   -0.117477
    13  C   -0.151203
    14  C   -0.134869
    15  N   -0.610516
    16  C   -0.340686
    17  C   -0.341613
    18  O   -0.485894
    19  H    0.481543
    20  H    0.278095
    21  H    0.190852
    22  H    0.175084
    23  H    0.171175
    24  H    0.174898
    25  H    0.189582
    26  H    0.235534
    27  H    0.239622
    28  H    0.233882
    29  H    0.232782
    30  H    0.234865
    31  H    0.238598
    32  H    0.515078
    33  H    0.483908
 Sum of Mulliken charges =   2.00000
 Mulliken charges with hydrogens summed into heavy atoms:
               1
     1  O   -0.481620
     2  S    1.399659
     3  N   -0.335590
     4  C    0.566159
     5  N    0.115728
     6  N    0.022242
     7  C    0.383967
     8  N   -0.325082
     9  C    0.303703
    10  C    0.043430
    11  C    0.023646
    12  C    0.053698
    13  C    0.023694
    14  C    0.054713
    15  N   -0.095438
    16  C    0.368352
    17  C    0.364632
    18  O   -0.485894
 Electronic spatial extent (au):  <R**2>=           6683.4057
 Charge=              2.0000 electrons
 Dipole moment (field-independent basis, Debye):
    X=             -7.1720    Y=              1.7808    Z=              6.0612  Tot=              9.5575
 Quadrupole moment (field-independent basis, Debye-Ang):
   XX=            -38.5205   YY=            -61.5844   ZZ=           -104.4957
   XY=            -15.7148   XZ=            -13.6757   YZ=             -1.7648
 Traceless Quadrupole moment (field-independent basis, Debye-Ang):
   XX=             29.6797   YY=              6.6158   ZZ=            -36.2955
   XY=            -15.7148   XZ=            -13.6757   YZ=             -1.7648
 Octapole moment (field-independent basis, Debye-Ang**2):
  XXX=              3.6866  YYY=            -27.0243  ZZZ=             35.1409  XYY=            -76.8938
  XXY=             97.2162  XXZ=             59.9104  XZZ=            -48.1986  YZZ=              1.2849
  YYZ=             10.8815  XYZ=            -20.9485
 Hexadecapole moment (field-independent basis, Debye-Ang**3):
 XXXX=          -5516.7879 YYYY=           -809.9323 ZZZZ=           -448.0199 XXXY=            -60.7477
 XXXZ=            -76.0049 YYYX=             98.9876 YYYZ=             11.8260 ZZZX=            -47.0152
 ZZZY=             29.7312 XXYY=          -1071.8496 XXZZ=          -1220.2585 YYZZ=           -235.0996
 XXYZ=            -62.1480 YYXZ=            -33.9198 ZZXY=             28.8959
 N-N= 1.496291429058D+03 E-N=-5.787155958514D+03  KE= 1.202544247995D+03
 No NMR shielding tensors so no spin-rotation constants.
 Leave Link  601 at Thu Sep 24 17:37:59 2020, MaxMem=  2147483648 cpu:               0.4 elap:               0.1
 (Enter /prod/apps/gaussian/g16b1/l701.exe)
 ... and contract with generalized density number  0.
 Compute integral first derivatives.
 D1PCM: PCM CHGder 1st derivatives, ID1Alg=3 FixD1E=F DoIter=F DoCFld=F I1PDM=0.
 GePol: Maximum number of non-zero 1st derivatives   =     176
 Leave Link  701 at Thu Sep 24 17:38:01 2020, MaxMem=  2147483648 cpu:               8.9 elap:               2.3
 (Enter /prod/apps/gaussian/g16b1/l702.exe)
 L702 exits ... SP integral derivatives will be done elsewhere.
 Leave Link  702 at Thu Sep 24 17:38:02 2020, MaxMem=  2147483648 cpu:               0.1 elap:               0.0
 (Enter /prod/apps/gaussian/g16b1/l703.exe)
 Integral derivatives from FoFJK, PRISM(SPDF).
 Compute integral first derivatives, UseDBF=F ICtDFT=           0.
 Calling FoFJK, ICntrl=      2127 FMM=F ISym2X=0 I1Cent= 0 IOpClX= 0 NMat=1 NMatS=1 NMatT=0.
 FoFJK:  IHMeth= 1 ICntrl=    2127 DoSepK=F KAlg= 0 I1Cent=           0 FoldK=F
 IRaf=         0 NMat=       1 IRICut=       1 DoRegI=T DoRafI=F ISym2E= 0 IDoP0=0 IntGTp=1.
 FoFCou: FMM=F IPFlag=           0 FMFlag=      100000 FMFlg1=         800
         NFxFlg=           0 DoJE=F BraDBF=F KetDBF=F FulRan=T
         wScrn=  0.000000 ICntrl=      2127 IOpCl=  0 I1Cent=           0 NGrid=           0
         NMat0=    1 NMatS0=      1 NMatT0=    0 NMatD0=    1 NMtDS0=    0 NMtDT0=    0
 Symmetry not used in FoFCou.
 Leave Link  703 at Thu Sep 24 17:38:14 2020, MaxMem=  2147483648 cpu:              51.4 elap:              12.9
 (Enter /prod/apps/gaussian/g16b1/l716.exe)
 Dipole        =-2.82168202D+00 7.00620443D-01 2.38464914D+00
 -------------------------------------------------------------------
 Center     Atomic                   Forces (Hartrees/Bohr)
 Number     Number              X              Y              Z
 -------------------------------------------------------------------
      1        8          -0.000594778    0.000337512    0.000629076
      2       16           0.000823616    0.001199509    0.000263239
      3        7           0.000272812   -0.000330284    0.000312330
      4        6           0.000066833    0.000967226   -0.000065688
      5        7          -0.001142250   -0.000982519   -0.000018654
      6        7           0.000803533    0.001098869    0.000214318
      7        6          -0.000010801   -0.000717666   -0.000220585
      8        7           0.000000693    0.000134611    0.000172741
      9        6           0.000042749   -0.000031632    0.000038603
     10        6          -0.000202103    0.000347856   -0.000261687
     11        6          -0.000777022    0.000478173   -0.000371532
     12        6           0.000860662    0.000016456    0.000189555
     13        6          -0.000517647   -0.000630700    0.000314408
     14        6           0.000065362    0.000367027   -0.000230028
     15        7          -0.000379822    0.000192571   -0.000014628
     16        6          -0.000032675   -0.000664081   -0.000145672
     17        6           0.000159523    0.000117887    0.000378353
     18        8          -0.000152265   -0.000002426    0.000010414
     19        1           0.000157643    0.000366237   -0.000264664
     20        1           0.000139004   -0.000722772   -0.000183346
[...]
 Alpha virt. eigenvalues --    3.49406   3.51944   3.52888   3.54166   3.55037
 Alpha virt. eigenvalues --    3.55998   3.57819   3.68010   3.74362   3.75534
 Alpha virt. eigenvalues --    4.04820   4.22544   4.69507
          Condensed to atoms (all electrons):
               1          2          3          4          5          6
     1  O    8.850644   0.029223  -0.035851   0.082502   0.021308   0.005433
     2  S    0.029223  13.939289   0.244888  -1.444814   0.142645  -0.048164
     3  N   -0.035851   0.244888   9.139183  -2.524884   0.250922  -0.246988
     4  C    0.082502  -1.444814  -2.524884  15.763775  -1.570147   0.743092
     5  N    0.021308   0.142645   0.250922  -1.570147   8.245970  -0.642723
     6  N    0.005433  -0.048164  -0.246988   0.743092  -0.642723   8.571104
     7  C   -0.014635   0.221888   0.915863  -5.830021   1.246580  -1.289484
     8  N    0.003783   0.128606   0.121640  -0.403897  -0.346022  -0.057982
     9  C    0.001279   0.059913   0.084975   0.432841  -0.301421  -0.115162
    10  C   -0.007203   0.003167   0.063174  -0.393035   0.118172   0.089050
    11  C   -0.000958   0.005431   0.018949  -0.036258   0.030146  -0.060001
    12  C   -0.000184   0.000031   0.001864  -0.034151  -0.002313   0.046667
    13  C   -0.000154  -0.002780  -0.019905   0.147823  -0.009873   0.009574
    14  C    0.000937  -0.010614  -0.045700   0.054575  -0.034231   0.442363
    15  N   -0.048929  -0.388124  -0.189593   0.297192  -0.017936  -0.001554
    16  C    0.015275   0.118392  -0.039914  -0.099321   0.013768  -0.000746
    17  C   -0.003326  -0.010968   0.019674   0.075108  -0.015643  -0.002438
    18  O    0.031401  -0.033089  -0.026924   0.108201  -0.007575   0.000621
    19  H    0.008125  -0.052765   0.317756   0.091427  -0.051402   0.007578
    20  H    0.012088   0.045453   0.015728  -0.224198  -0.111691  -0.073376
    21  H    0.000476  -0.009846  -0.013579   0.100698  -0.017459  -0.005924
    22  H   -0.000004   0.000571   0.000517  -0.001499  -0.000048  -0.001812
    23  H   -0.000005  -0.000032  -0.000009   0.000604  -0.000208   0.002684
    24  H   -0.000002   0.000019  -0.000171   0.001260   0.000676  -0.004068
    25  H   -0.000095  -0.000390   0.002010   0.002860   0.017487   0.013289
    26  H   -0.002504   0.016461   0.017605  -0.030697   0.001914  -0.000539
    27  H   -0.007350   0.070792  -0.013917  -0.022838   0.000928   0.000046
    28  H    0.018832  -0.050276   0.015424   0.007885  -0.000094  -0.000262
    29  H   -0.001567   0.013645   0.016611  -0.027319   0.009149  -0.002196
    30  H   -0.000656   0.046838  -0.030180  -0.007916  -0.000059  -0.000105
    31  H    0.000891  -0.025271   0.021638   0.005549  -0.001511   0.000373
    32  H    0.035422  -0.015836  -0.106934   0.148563  -0.013498   0.002778
    33  H   -0.000710  -0.009240  -0.034650   0.102254   0.410946  -0.183234
               7          8          9         10         11         12
     1  O   -0.014635   0.003783   0.001279  -0.007203  -0.000958  -0.000184
     2  S    0.221888   0.128606   0.059913   0.003167   0.005431   0.000031
     3  N    0.915863   0.121640   0.084975   0.063174   0.018949   0.001864
     4  C   -5.830021  -0.403897   0.432841  -0.393035  -0.036258  -0.034151
     5  N    1.246580  -0.346022  -0.301421   0.118172   0.030146  -0.002313
     6  N   -1.289484  -0.057982  -0.115162   0.089050  -0.060001   0.046667
     7  C   12.571595  -0.054973  -2.524720   0.479729  -0.149576  -0.000802
     8  N   -0.054973   9.324983  -0.855653   0.414070  -0.319230   0.311102
     9  C   -2.524720  -0.855653  15.352868  -5.795028   2.935876  -3.576253
    10  C    0.479729   0.414070  -5.795028  12.949991  -3.859869   3.087069
    11  C   -0.149576  -0.319230   2.935876  -3.859869  10.430994  -2.961281
    12  C   -0.000802   0.311102  -3.576253   3.087069  -2.961281   8.762389
    13  C   -0.011731  -0.214847   2.572354  -3.165541   2.885007  -2.812825
    14  C   -0.092487  -0.097207  -5.025588   2.177147  -3.207558   2.909870
    15  N   -0.175519  -0.010502  -0.037217  -0.002283   0.001699  -0.000731
    16  C    0.001897   0.005107   0.001618  -0.000972   0.000885  -0.000115
    17  C    0.006127  -0.008944  -0.003224  -0.001576  -0.000522  -0.000142
    18  O   -0.006361  -0.005415  -0.002011  -0.000105  -0.000095  -0.000000
    19  H   -0.112770  -0.015260   0.007582  -0.007287  -0.000369  -0.000004
    20  H   -0.453049   0.171352   0.239970  -0.029624   0.107280  -0.014524
    21  H    0.016655  -0.210300   0.899901  -0.990517   0.066825  -0.180609
    22  H    0.004955   0.003589  -0.141485   0.583595  -0.661768   0.294025
    23  H   -0.006410  -0.005095   0.111990  -0.152545   0.330749  -0.541942
    24  H   -0.003027  -0.007123  -0.131011   0.131588  -0.214431   0.295265
    25  H   -0.057633  -0.261244   0.862161  -0.132983   0.130917  -0.196374
    26  H    0.021283  -0.000672  -0.001023   0.000694   0.000425  -0.000015
    27  H    0.002051   0.000767   0.001057  -0.000460  -0.000108  -0.000037
    28  H   -0.000342   0.000867   0.000320   0.000377   0.000193   0.000020
    29  H    0.038570  -0.005360  -0.003557   0.001262   0.000589  -0.000059
    30  H   -0.007502  -0.000391  -0.000407  -0.000363  -0.000054  -0.000021
    31  H    0.004570   0.000682   0.001610  -0.000303  -0.000259  -0.000016
    32  H   -0.052014  -0.005901  -0.018699   0.002555  -0.001811   0.002227
    33  H   -0.126314   0.056621   0.010695  -0.005827  -0.000574  -0.000434
              13         14         15         16         17         18
     1  O   -0.000154   0.000937  -0.048929   0.015275  -0.003326   0.031401
     2  S   -0.002780  -0.010614  -0.388124   0.118392  -0.010968  -0.033089
     3  N   -0.019905  -0.045700  -0.189593  -0.039914   0.019674  -0.026924
     4  C    0.147823   0.054575   0.297192  -0.099321   0.075108   0.108201
     5  N   -0.009873  -0.034231  -0.017936   0.013768  -0.015643  -0.007575
     6  N    0.009574   0.442363  -0.001554  -0.000746  -0.002438   0.000621
     7  C   -0.011731  -0.092487  -0.175519   0.001897   0.006127  -0.006361
     8  N   -0.214847  -0.097207  -0.010502   0.005107  -0.008944  -0.005415
     9  C    2.572354  -5.025588  -0.037217   0.001618  -0.003224  -0.002011
    10  C   -3.165541   2.177147  -0.002283  -0.000972  -0.001576  -0.000105
    11  C    2.885007  -3.207558   0.001699   0.000885  -0.000522  -0.000095
    12  C   -2.812825   2.909870  -0.000731  -0.000115  -0.000142  -0.000000
    13  C    9.471377  -3.307294   0.000517   0.000007   0.000302   0.000003
    14  C   -3.307294  12.496197   0.001736  -0.000984   0.000479   0.000117
    15  N    0.000517   0.001736   8.810433  -0.083317  -0.045560  -0.009963
    16  C    0.000007  -0.000984  -0.083317   4.293212  -0.085536  -0.017974
    17  C    0.000302   0.000479  -0.045560  -0.085536   4.142670   0.017763
    18  O    0.000003   0.000117  -0.009963  -0.017974   0.017763   8.879356
    19  H    0.000167   0.004255  -0.028147   0.010824   0.003087   0.018053
    20  H   -0.003219  -0.200771  -0.052882   0.020411  -0.000230   0.001056
    21  H    0.126784  -0.115605  -0.001727  -0.003521   0.001084   0.000331
    22  H   -0.230133   0.118138   0.000170   0.000160  -0.000026  -0.000011
    23  H    0.367185  -0.121891  -0.000024  -0.000010  -0.000006   0.000000
    24  H   -0.627984   0.539163   0.000001  -0.000000   0.000010  -0.000001
    25  H    0.294152  -0.971780  -0.000179  -0.000034  -0.000162  -0.000000
    26  H   -0.000057   0.000043   0.055525   0.364440  -0.042255   0.000358
    27  H    0.000025  -0.000151  -0.188445   0.429792   0.016268  -0.011729
    28  H   -0.000019  -0.000178  -0.139787   0.299949   0.048612   0.036098
    29  H   -0.000056  -0.000771  -0.079739  -0.056830   0.341898   0.030026
    30  H    0.000033  -0.000022  -0.168545   0.069231   0.339943  -0.013105
    31  H    0.000057   0.000224  -0.052498   0.011473   0.386863  -0.000921
    32  H   -0.002070   0.009831   0.323095  -0.054025   0.006962   0.007746
    33  H    0.003201  -0.001878   0.002241  -0.000263   0.000364  -0.000015
              19         20         21         22         23         24
     1  O    0.008125   0.012088   0.000476  -0.000004  -0.000005  -0.000002
     2  S   -0.052765   0.045453  -0.009846   0.000571  -0.000032   0.000019
     3  N    0.317756   0.015728  -0.013579   0.000517  -0.000009  -0.000171
     4  C    0.091427  -0.224198   0.100698  -0.001499   0.000604   0.001260
     5  N   -0.051402  -0.111691  -0.017459  -0.000048  -0.000208   0.000676
     6  N    0.007578  -0.073376  -0.005924  -0.001812   0.002684  -0.004068
     7  C   -0.112770  -0.453049   0.016655   0.004955  -0.006410  -0.003027
     8  N   -0.015260   0.171352  -0.210300   0.003589  -0.005095  -0.007123
     9  C    0.007582   0.239970   0.899901  -0.141485   0.111990  -0.131011
    10  C   -0.007287  -0.029624  -0.990517   0.583595  -0.152545   0.131588
    11  C   -0.000369   0.107280   0.066825  -0.661768   0.330749  -0.214431
    12  C   -0.000004  -0.014524  -0.180609   0.294025  -0.541942   0.295265
    13  C    0.000167  -0.003219   0.126784  -0.230133   0.367185  -0.627984
    14  C    0.004255  -0.200771  -0.115605   0.118138  -0.121891   0.539163
    15  N   -0.028147  -0.052882  -0.001727   0.000170  -0.000024   0.000001
    16  C    0.010824   0.020411  -0.003521   0.000160  -0.000010  -0.000000
    17  C    0.003087  -0.000230   0.001084  -0.000026  -0.000006   0.000010
    18  O    0.018053   0.001056   0.000331  -0.000011   0.000000  -0.000001
    19  H    0.809238  -0.002109   0.000225  -0.000001   0.000008  -0.000013
    20  H   -0.002109   2.188779  -0.053513   0.002462   0.000022  -0.000078
    21  H    0.000225  -0.053513   2.116378  -0.083800  -0.014025   0.010217
    22  H   -0.000001   0.002462  -0.083800   1.596683  -0.061749  -0.017786
    23  H    0.000008   0.000022  -0.014025  -0.061749   1.569036  -0.064594
    24  H   -0.000013  -0.000078   0.010217  -0.017786  -0.064594   1.566883
    25  H    0.000327  -0.002869  -0.016493   0.009445  -0.011791  -0.077486
    26  H   -0.000067   0.003675  -0.001084   0.000038  -0.000001  -0.000002
    27  H    0.001315  -0.003222  -0.000001   0.000003  -0.000001   0.000000
    28  H   -0.000895   0.005576  -0.000235   0.000012  -0.000000   0.000000
    29  H   -0.008978  -0.004640   0.000673   0.000014  -0.000006   0.000006
    30  H    0.003961   0.004222  -0.000064   0.000001  -0.000001   0.000001
    31  H   -0.000422  -0.002110   0.000138  -0.000015   0.000002   0.000001
    32  H    0.003218  -0.031350   0.003029  -0.000109   0.000034  -0.000041
    33  H   -0.002258  -0.000486   0.000322  -0.000021  -0.000019   0.000009
              25         26         27         28         29         30
     1  O   -0.000095  -0.002504  -0.007350   0.018832  -0.001567  -0.000656
     2  S   -0.000390   0.016461   0.070792  -0.050276   0.013645   0.046838
     3  N    0.002010   0.017605  -0.013917   0.015424   0.016611  -0.030180
     4  C    0.002860  -0.030697  -0.022838   0.007885  -0.027319  -0.007916
     5  N    0.017487   0.001914   0.000928  -0.000094   0.009149  -0.000059
     6  N    0.013289  -0.000539   0.000046  -0.000262  -0.002196  -0.000105
     7  C   -0.057633   0.021283   0.002051  -0.000342   0.038570  -0.007502
     8  N   -0.261244  -0.000672   0.000767   0.000867  -0.005360  -0.000391
     9  C    0.862161  -0.001023   0.001057   0.000320  -0.003557  -0.000407
    10  C   -0.132983   0.000694  -0.000460   0.000377   0.001262  -0.000363
    11  C    0.130917   0.000425  -0.000108   0.000193   0.000589  -0.000054
    12  C   -0.196374  -0.000015  -0.000037   0.000020  -0.000059  -0.000021
    13  C    0.294152  -0.000057   0.000025  -0.000019  -0.000056   0.000033
    14  C   -0.971780   0.000043  -0.000151  -0.000178  -0.000771  -0.000022
    15  N   -0.000179   0.055525  -0.188445  -0.139787  -0.079739  -0.168545
    16  C   -0.000034   0.364440   0.429792   0.299949  -0.056830   0.069231
    17  C   -0.000162  -0.042255   0.016268   0.048612   0.341898   0.339943
    18  O   -0.000000   0.000358  -0.011729   0.036098   0.030026  -0.013105
    19  H    0.000327  -0.000067   0.001315  -0.000895  -0.008978   0.003961
    20  H   -0.002869   0.003675  -0.003222   0.005576  -0.004640   0.004222
    21  H   -0.016493  -0.001084  -0.000001  -0.000235   0.000673  -0.000064
    22  H    0.009445   0.000038   0.000003   0.000012   0.000014   0.000001
    23  H   -0.011791  -0.000001  -0.000001  -0.000000  -0.000006  -0.000001
    24  H   -0.077486  -0.000002   0.000000   0.000000   0.000006   0.000001
    25  H    1.914637  -0.000003  -0.000002  -0.000004  -0.000080  -0.000037
    26  H   -0.000003   1.159193  -0.271724  -0.182907  -0.006920   0.001574
    27  H   -0.000002  -0.271724   1.279770  -0.202321   0.001317   0.008825
    28  H   -0.000004  -0.182907  -0.202321   1.174943   0.007096   0.005744
    29  H   -0.000080  -0.006920   0.001317   0.007096   1.425846  -0.232224
    30  H   -0.000037   0.001574   0.008825   0.005744  -0.232224   1.166719
    31  H    0.000024   0.001744   0.003553  -0.001728  -0.283207  -0.173578
    32  H    0.000083  -0.019167  -0.002738   0.002585  -0.006375   0.002299
    33  H   -0.001772  -0.000065   0.000006  -0.000071  -0.000036   0.000199
              31         32         33
     1  O    0.000891   0.035422  -0.000710
     2  S   -0.025271  -0.015836  -0.009240
     3  N    0.021638  -0.106934  -0.034650
     4  C    0.005549   0.148563   0.102254
     5  N   -0.001511  -0.013498   0.410946
     6  N    0.000373   0.002778  -0.183234
     7  C    0.004570  -0.052014  -0.126314
     8  N    0.000682  -0.005901   0.056621
     9  C    0.001610  -0.018699   0.010695
    10  C   -0.000303   0.002555  -0.005827
    11  C   -0.000259  -0.001811  -0.000574
    12  C   -0.000016   0.002227  -0.000434
    13  C    0.000057  -0.002070   0.003201
    14  C    0.000224   0.009831  -0.001878
    15  N   -0.052498   0.323095   0.002241
    16  C    0.011473  -0.054025  -0.000263
    17  C    0.386863   0.006962   0.000364
    18  O   -0.000921   0.007746  -0.000015
    19  H   -0.000422   0.003218  -0.002258
    20  H   -0.002110  -0.031350  -0.000486
    21  H    0.000138   0.003029   0.000322
    22  H   -0.000015  -0.000109  -0.000021
    23  H    0.000002   0.000034  -0.000019
    24  H    0.000001  -0.000041   0.000009
    25  H    0.000024   0.000083  -0.001772
    26  H    0.001744  -0.019167  -0.000065
    27  H    0.003553  -0.002738   0.000006
    28  H   -0.001728   0.002585  -0.000071
    29  H   -0.283207  -0.006375  -0.000036
    30  H   -0.173578   0.002299   0.000199
    31  H    1.189401  -0.014963  -0.000012
    32  H   -0.014963   0.611104   0.000529
    33  H   -0.000012   0.000529   0.743414
 Mulliken charges:
               1
     1  O   -0.993483
     2  S    3.014957
     3  N   -0.939222
     4  C    0.484786
     5  N   -0.366758
     6  N   -0.197894
     7  C    1.437608
     8  N   -0.657151
     9  C    0.955453
    10  C    0.443880
    11  C    0.528757
    12  C    0.612303
    13  C    0.529919
    14  C    0.479638
    15  N   -0.769407
    16  C    0.787123
    17  C    0.813343
    18  O   -0.995835
    19  H   -0.004399
    20  H   -0.554134
    21  H   -0.625433
    22  H   -0.414112
    23  H   -0.401951
    24  H   -0.397280
    25  H   -0.515981
    26  H   -0.085268
    27  H   -0.091473
    28  H   -0.045417
    29  H   -0.166782
    30  H   -0.014358
    31  H   -0.071977
    32  H    0.183472
    33  H    0.037079
 Sum of Mulliken charges =   2.00000
 Mulliken charges with hydrogens summed into heavy atoms:
               1
     1  O   -0.993483
     2  S    3.014957
     3  N   -0.943621
     4  C    0.484786
     5  N   -0.329679
     6  N   -0.197894
     7  C    0.883474
     8  N   -0.657151
     9  C    0.955453
    10  C   -0.181553
    11  C    0.114645
    12  C    0.210351
    13  C    0.132639
    14  C   -0.036343
    15  N   -0.585935
    16  C    0.564965
    17  C    0.560226
    18  O   -0.995835
 Electronic spatial extent (au):  <R**2>=           6640.7598
 Charge=              2.0000 electrons
 Dipole moment (field-independent basis, Debye):
    X=             -5.5236    Y=              1.7336    Z=              5.5226  Tot=              8.0009
 Quadrupole moment (field-independent basis, Debye-Ang):
   XX=             -6.2351   YY=            -64.3783   ZZ=           -105.4513
   XY=            -13.9753   XZ=            -13.7624   YZ=             -1.4359
 Traceless Quadrupole moment (field-independent basis, Debye-Ang):
   XX=             52.4531   YY=             -5.6901   ZZ=            -46.7631
   XY=            -13.9753   XZ=            -13.7624   YZ=             -1.4359
 Octapole moment (field-independent basis, Debye-Ang**2):
  XXX=             65.7924  YYY=            -21.8046  ZZZ=             16.2595  XYY=            -48.3526
  XXY=            130.9664  XXZ=             61.3496  XZZ=            -56.6558  YZZ=              2.3150
  YYZ=             -0.1247  XYZ=            -19.8829
 Hexadecapole moment (field-independent basis, Debye-Ang**3):
 XXXX=          -4504.3494 YYYY=           -810.9197 ZZZZ=           -426.3985 XXXY=           -182.3548
 XXXZ=            -76.6042 YYYX=            -48.4919 YYYZ=            -10.2654 ZZZX=            -60.1926
 ZZZY=             15.8083 XXYY=          -1004.3855 XXZZ=          -1204.0228 YYZZ=           -239.6076
 XXYZ=            -60.3114 YYXZ=            -38.5731 ZZXY=            -42.5251
 N-N= 1.498122558178D+03 E-N=-5.791489046298D+03  KE= 1.204759617478D+03
 Leave Link  601 at Thu Sep 24 19:22:43 2020, MaxMem=   262144000 cpu:               0.9 elap:               0.3
 (Enter /prod/apps/gaussian/g16b1/l9999.exe)
 1\1\GINC-PIRINEUS8\SP\RMP2-FC\Aug-CC-pVDZ\C10H15N5O2S1(2+)\UBAFAR01\24
 -Sep-2020\0\\#p mp2/aug-cc-pVDZ scf=(MaxCycle=2000,NoVarAcc,NoIncFock)
  maxdisk=120GB geom=allcheck\\SM46_m3.b.1.pdb.xyz\\2,1\O,0,-2.13091979
 97,0.2385156654,-1.7771031146\S,0,-2.7872396854,-0.1448906394,-0.54569
 08674\N,0,-1.7686244609,-0.9989067581,0.4373023218\C,0,-0.3946516007,-
 1.0499750658,0.2379353982\N,0,0.2778220419,-2.1991887875,-0.0333604151
 \N,0,1.5715264494,-2.0203949085,-0.13699147\C,0,0.5714052512,-0.072600
 3619,0.2957544697\N,0,1.7410216825,-0.7207375831,0.0469012182\C,0,3.06
 23918544,-0.1625774598,-0.0110899461\C,0,3.2283897411,1.127558198,-0.5
 119668251\C,0,4.5158686412,1.6582195132,-0.5654872587\C,0,5.607714264,
 0.9017023772,-0.1353877139\C,0,5.4171299752,-0.3912712356,0.3576721748
 \C,0,4.1368199327,-0.9344788619,0.4294478061\N,0,-2.904044758,1.451046
 5797,0.3923083537\C,0,-3.6219191401,2.470250269,-0.446282484\C,0,-3.52
 72699639,1.2615589445,1.7426185622\O,0,-4.1119572351,-0.7198094338,-0.
 4510431177\H,0,-2.2223854192,-1.7457800938,0.9721550178\H,0,0.50123174
 04,0.9790861034,0.5115034284\H,0,2.3801416724,1.6972422741,-0.87110306
 14\H,0,4.6626486665,2.6586693846,-0.9552861992\H,0,6.607086693,1.31909
 58602,-0.1844822136\H,0,6.2631329488,-0.9776036565,0.6967516297\H,0,3.
 9680392828,-1.9279104921,0.8244525387\H,0,-3.1095264238,2.5522450638,-
 1.4009894388\H,0,-3.5774761744,3.413971129,0.0939615589\H,0,-4.6539184
 01,2.1526011207,-0.5771172706\H,0,-2.918266244,0.5684312573,2.31778324
 44\H,0,-4.5385335555,0.8848759029,1.6084234725\H,0,-3.5416769837,2.237
 0909838,2.2249648621\H,0,-1.9224255964,1.7616240716,0.5138384888\H,0,-
 0.105535396,-3.1436593604,-0.1393931497\\Version=ES64L-G16RevB.01\Stat
 e=1-A\HF=-1206.2820313\MP2=-1209.0858536\RMSD=3.198e-09\PG=C01 [X(C10H
 15N5O2S1)]\\@


 SUCCESS IS NEVER CERTAIN,
 FAILURE IS NEVER FINAL.
 Job cpu time:       0 days  2 hours  2 minutes 46.3 seconds.
 Elapsed time:       0 days  0 hours 33 minutes  6.5 seconds.
 File lengths (MBytes):  RWF=  81658 Int=      0 D2E=      0 Chk=     25 Scr=      1
 Normal termination of Gaussian 16 at Thu Sep 24 19:22:45 2020.
