 Entering Gaussian System, Link 0=g16
 Initial command:
 /prod/apps/gaussian/g16b1/l1.exe "/tmp/ubafar01/1461446/Gau-202925.inp" -scrdir="/tmp/ubafar01/1461446/"
 Entering Link 1 = /prod/apps/gaussian/g16b1/l1.exe PID=    202926.
  
 Copyright (c) 1988-2017, Gaussian, Inc.  All Rights Reserved.
  
 This is part of the Gaussian(R) 16 program.  It is based on
 the Gaussian(R) 09 system (copyright 2009, Gaussian, Inc.),
 the Gaussian(R) 03 system (copyright 2003, Gaussian, Inc.),
 the Gaussian(R) 98 system (copyright 1998, Gaussian, Inc.),
 the Gaussian(R) 94 system (copyright 1995, Gaussian, Inc.),
 the Gaussian 92(TM) system (copyright 1992, Gaussian, Inc.),
 the Gaussian 90(TM) system (copyright 1990, Gaussian, Inc.),
 the Gaussian 88(TM) system (copyright 1988, Gaussian, Inc.),
 the Gaussian 86(TM) system (copyright 1986, Carnegie Mellon
 University), and the Gaussian 82(TM) system (copyright 1983,
 Carnegie Mellon University). Gaussian is a federally registered
 trademark of Gaussian, Inc.
  
 This software contains proprietary and confidential information,
 including trade secrets, belonging to Gaussian, Inc.
  
 This software is provided under written license and may be
 used, copied, transmitted, or stored only in accord with that
 written license.
  
 The following legend is applicable only to US Government
 contracts under FAR:
  
                    RESTRICTED RIGHTS LEGEND
  
 Use, reproduction and disclosure by the US Government is
 subject to restrictions as set forth in subparagraphs (a)
 and (c) of the Commercial Computer Software - Restricted
 Rights clause in FAR 52.227-19.
  
 Gaussian, Inc.
 340 Quinnipiac St., Bldg. 40, Wallingford CT 06492
  
  
 ---------------------------------------------------------------
 Warning -- This program may not be used in any manner that
 competes with the business of Gaussian, Inc. or will provide
 assistance to any competitor of Gaussian, Inc.  The licensee
 of this program is prohibited from giving any competitor of
 Gaussian, Inc. access to this program.  By using this program,
 the user acknowledges that Gaussian, Inc. is engaged in the
 business of creating and licensing software in the field of
 computational chemistry and represents and warrants to the
 licensee that it is not a competitor of Gaussian, Inc. and that
 it will not use this program in any manner prohibited above.
 ---------------------------------------------------------------
  

 Cite this work as:
 Gaussian 16, Revision B.01,
 M. J. Frisch, G. W. Trucks, H. B. Schlegel, G. E. Scuseria, 
 M. A. Robb, J. R. Cheeseman, G. Scalmani, V. Barone, 
 G. A. Petersson, H. Nakatsuji, X. Li, M. Caricato, A. V. Marenich, 
 J. Bloino, B. G. Janesko, R. Gomperts, B. Mennucci, H. P. Hratchian, 
 J. V. Ortiz, A. F. Izmaylov, J. L. Sonnenberg, D. Williams-Young, 
 F. Ding, F. Lipparini, F. Egidi, J. Goings, B. Peng, A. Petrone, 
 T. Henderson, D. Ranasinghe, V. G. Zakrzewski, J. Gao, N. Rega, 
 G. Zheng, W. Liang, M. Hada, M. Ehara, K. Toyota, R. Fukuda, 
 J. Hasegawa, M. Ishida, T. Nakajima, Y. Honda, O. Kitao, H. Nakai, 
 T. Vreven, K. Throssell, J. A. Montgomery, Jr., J. E. Peralta, 
 F. Ogliaro, M. J. Bearpark, J. J. Heyd, E. N. Brothers, K. N. Kudin, 
 V. N. Staroverov, T. A. Keith, R. Kobayashi, J. Normand, 
 K. Raghavachari, A. P. Rendell, J. C. Burant, S. S. Iyengar, 
 J. Tomasi, M. Cossi, J. M. Millam, M. Klene, C. Adamo, R. Cammi, 
 J. W. Ochterski, R. L. Martin, K. Morokuma, O. Farkas, 
 J. B. Foresman, and D. J. Fox, Gaussian, Inc., Wallingford CT, 2016.
 
 ******************************************
 Gaussian 16:  ES64L-G16RevB.01 20-Dec-2017
                24-Sep-2020 
 ******************************************
 %nproc=4
 Will use up to    4 processors via shared memory.
 %Chk=SM46_m1.a.9.pdb.xyz.mst.a.w.chk
 %mem=16GB
 ----------------------------------------------------------------------
 #p b3lyp/6-31G(d) opt freq NoSymm scf=(MaxCycle=2000,NoVarAcc,NoIncFoc
 k) scrf=(iefpcm,read,solvent=water)
 ----------------------------------------------------------------------
 1/18=20,19=15,26=3,38=1,40=2/1,3;
 2/9=110,12=2,15=1,17=6,18=5,40=1/2;
 3/5=1,6=6,7=1,11=2,25=1,30=1,70=2203,71=1,72=1,74=-5/1,2,3;
 4//1;
 5/5=100002,7=2000,38=1,53=1/2;
 6/7=2,8=2,9=2,10=2,28=1/1;
 7/30=1/1,2,3,16;
 1/18=20,19=15,26=3/3(2);
 2/9=110,15=1/2;
 99//99;
 2/9=110,15=1/2;
 3/5=1,6=6,7=1,11=2,25=1,30=1,70=2205,71=1,72=1,74=-5/1,2,3;
 4/5=5,16=3,69=1/1;
 5/5=100002,7=2000,38=1,53=1/2;
 7/30=1/1,2,3,16;
 1/18=20,19=15,26=3/3(-5);
 2/9=110,15=1/2;
 6/7=2,8=2,9=2,10=2,19=2,28=1/1;
 99/9=1/99;
 Leave Link    1 at Thu Sep 24 16:20:56 2020, MaxMem=  2147483648 cpu:               0.1 elap:               0.0
 (Enter /prod/apps/gaussian/g16b1/l101.exe)
 -------------------
 SM46_m1.a.9.pdb.xyz
 -------------------
 Symbolic Z-matrix:
 Charge = -1 Multiplicity = 1
 O                    -2.128     0.732    -1.901 
 S                    -2.734     0.06     -0.719 
 N                    -1.938    -1.195    -0.16 
 C                    -0.565    -1.095    -0.018 
 N                     0.11     -2.149     0.554 
 N                     1.394    -1.878     0.605 
 C                     0.38     -0.124    -0.334 
 N                     1.572    -0.65      0.076 
 C                     2.872    -0.079    -0.014 
 C                     3.172     0.809    -1.052 
 C                     4.447     1.371    -1.125 
 C                     5.422     1.04     -0.182 
 C                     5.114     0.144     0.846 
 C                     3.839    -0.413     0.94 
 N                    -2.638     1.268     0.517 
 C                    -3.14      2.582     0.091 
 C                    -3.246     0.839     1.785 
 O                    -4.153    -0.347    -0.89 
 H                     0.292     0.857    -0.766 
 H                     2.426     1.046    -1.803 
 H                     4.678     2.061    -1.931 
 H                     6.415     1.476    -0.246 
 H                     5.865    -0.116     1.587 
 H                     3.587    -1.095     1.744 
 H                    -2.644     2.884    -0.832 
 H                    -2.898     3.307     0.875 
 H                    -4.23      2.59     -0.064 
 H                    -2.855    -0.139     2.068 
 H                    -4.344     0.785     1.729 
 H                    -2.971     1.564     2.558 
 
 ITRead=  0  0  0  0  0  0  0  0  0  0  0  0  0  0  0  0  0  0  0  0
 ITRead=  0  0  0  0  0  0  0  0  0  0
 MicOpt= -1 -1 -1 -1 -1 -1 -1 -1 -1 -1 -1 -1 -1 -1 -1 -1 -1 -1 -1 -1
 MicOpt= -1 -1 -1 -1 -1 -1 -1 -1 -1 -1
 NAtoms=     30 NQM=       30 NQMF=       0 NMMI=      0 NMMIF=      0
                NMic=       0 NMicF=      0.
                    Isotopes and Nuclear Properties:
 (Nuclear quadrupole moments (NQMom) in fm**2, nuclear magnetic moments (NMagM)
  in nuclear magnetons)

  Atom         1           2           3           4           5           6           7           8           9          10
 IAtWgt=          16          32          14          12          14          14          12          14          12          12
 AtmWgt=  15.9949146  31.9720718  14.0030740  12.0000000  14.0030740  14.0030740  12.0000000  14.0030740  12.0000000  12.0000000
 NucSpn=           0           0           2           0           2           2           0           2           0           0
 AtZEff=  -0.0000000  -0.0000000  -0.0000000  -0.0000000  -0.0000000  -0.0000000  -0.0000000  -0.0000000  -0.0000000  -0.0000000
 NQMom=    0.0000000   0.0000000   2.0440000   0.0000000   2.0440000   2.0440000   0.0000000   2.0440000   0.0000000   0.0000000
 NMagM=    0.0000000   0.0000000   0.4037610   0.0000000   0.4037610   0.4037610   0.0000000   0.4037610   0.0000000   0.0000000
 AtZNuc=   8.0000000  16.0000000   7.0000000   6.0000000   7.0000000   7.0000000   6.0000000   7.0000000   6.0000000   6.0000000

  Atom        11          12          13          14          15          16          17          18          19          20
 IAtWgt=          12          12          12          12          14          12          12          16           1           1
 AtmWgt=  12.0000000  12.0000000  12.0000000  12.0000000  14.0030740  12.0000000  12.0000000  15.9949146   1.0078250   1.0078250
 NucSpn=           0           0           0           0           2           0           0           0           1           1
 AtZEff=  -0.0000000  -0.0000000  -0.0000000  -0.0000000  -0.0000000  -0.0000000  -0.0000000  -0.0000000  -0.0000000  -0.0000000
 NQMom=    0.0000000   0.0000000   0.0000000   0.0000000   2.0440000   0.0000000   0.0000000   0.0000000   0.0000000   0.0000000
 NMagM=    0.0000000   0.0000000   0.0000000   0.0000000   0.4037610   0.0000000   0.0000000   0.0000000   2.7928460   2.7928460
 AtZNuc=   6.0000000   6.0000000   6.0000000   6.0000000   7.0000000   6.0000000   6.0000000   8.0000000   1.0000000   1.0000000

  Atom        21          22          23          24          25          26          27          28          29          30
 IAtWgt=           1           1           1           1           1           1           1           1           1           1
 AtmWgt=   1.0078250   1.0078250   1.0078250   1.0078250   1.0078250   1.0078250   1.0078250   1.0078250   1.0078250   1.0078250
 NucSpn=           1           1           1           1           1           1           1           1           1           1
 AtZEff=  -0.0000000  -0.0000000  -0.0000000  -0.0000000  -0.0000000  -0.0000000  -0.0000000  -0.0000000  -0.0000000  -0.0000000
 NQMom=    0.0000000   0.0000000   0.0000000   0.0000000   0.0000000   0.0000000   0.0000000   0.0000000   0.0000000   0.0000000
 NMagM=    2.7928460   2.7928460   2.7928460   2.7928460   2.7928460   2.7928460   2.7928460   2.7928460   2.7928460   2.7928460
 AtZNuc=   1.0000000   1.0000000   1.0000000   1.0000000   1.0000000   1.0000000   1.0000000   1.0000000   1.0000000   1.0000000
 Leave Link  101 at Thu Sep 24 16:20:56 2020, MaxMem=  2147483648 cpu:               1.3 elap:               0.3
 (Enter /prod/apps/gaussian/g16b1/l103.exe)

 GradGradGradGradGradGradGradGradGradGradGradGradGradGradGradGradGradGrad
 Berny optimization.
 Initialization pass.
                           ----------------------------
                           !    Initial Parameters    !
                           ! (Angstroms and Degrees)  !
 --------------------------                            --------------------------
 ! Name  Definition              Value          Derivative Info.                !
 --------------------------------------------------------------------------------
 ! R1    R(1,2)                  1.4886         estimate D2E/DX2                !
 ! R2    R(2,3)                  1.5878         estimate D2E/DX2                !
 ! R3    R(2,15)                 1.7309         estimate D2E/DX2                !
 ! R4    R(2,18)                 1.4861         estimate D2E/DX2                !
 ! R5    R(3,4)                  1.3839         estimate D2E/DX2                !
 ! R6    R(4,5)                  1.3761         estimate D2E/DX2                !
 ! R7    R(4,7)                  1.3913         estimate D2E/DX2                !
 ! R8    R(5,6)                  1.3133         estimate D2E/DX2                !
 ! R9    R(6,8)                  1.3489         estimate D2E/DX2                !
 ! R10   R(7,8)                  1.3659         estimate D2E/DX2                !
 ! R11   R(7,19)                 1.0755         estimate D2E/DX2                !
 ! R12   R(8,9)                  1.4227         estimate D2E/DX2                !
 ! R13   R(9,10)                 1.3986         estimate D2E/DX2                !
 ! R14   R(9,14)                 1.3988         estimate D2E/DX2                !
 ! R15   R(10,11)                1.3953         estimate D2E/DX2                !
 ! R16   R(10,20)                1.0848         estimate D2E/DX2                !
 ! R17   R(11,12)                1.3962         estimate D2E/DX2                !
 ! R18   R(11,21)                1.0859         estimate D2E/DX2                !
 ! R19   R(12,13)                1.398          estimate D2E/DX2                !
 ! R20   R(12,22)                1.0864         estimate D2E/DX2                !
 ! R21   R(13,14)                1.3945         estimate D2E/DX2                !
 ! R22   R(13,23)                1.0866         estimate D2E/DX2                !
 ! R23   R(14,24)                1.084          estimate D2E/DX2                !
 ! R24   R(15,16)                1.4697         estimate D2E/DX2                !
 ! R25   R(15,17)                1.4702         estimate D2E/DX2                !
 ! R26   R(16,25)                1.0905         estimate D2E/DX2                !
 ! R27   R(16,26)                1.0949         estimate D2E/DX2                !
 ! R28   R(16,27)                1.101          estimate D2E/DX2                !
 ! R29   R(17,28)                1.0906         estimate D2E/DX2                !
 ! R30   R(17,29)                1.1008         estimate D2E/DX2                !
 ! R31   R(17,30)                1.0949         estimate D2E/DX2                !
 ! A1    A(1,2,3)              115.6118         estimate D2E/DX2                !
 ! A2    A(1,2,15)             103.2596         estimate D2E/DX2                !
 ! A3    A(1,2,18)             114.8967         estimate D2E/DX2                !
 ! A4    A(3,2,15)             105.8079         estimate D2E/DX2                !
 ! A5    A(3,2,18)             107.6217         estimate D2E/DX2                !
 ! A6    A(15,2,18)            109.0416         estimate D2E/DX2                !
 ! A7    A(2,3,4)              118.4485         estimate D2E/DX2                !
 ! A8    A(3,4,5)              118.29           estimate D2E/DX2                !
 ! A9    A(3,4,7)              134.5053         estimate D2E/DX2                !
 ! A10   A(5,4,7)              107.2046         estimate D2E/DX2                !
 ! A11   A(4,5,6)              109.7346         estimate D2E/DX2                !
 ! A12   A(5,6,8)              107.5566         estimate D2E/DX2                !
 ! A13   A(4,7,8)              104.8217         estimate D2E/DX2                !
 ! A14   A(4,7,19)             132.2395         estimate D2E/DX2                !
 ! A15   A(8,7,19)             122.9039         estimate D2E/DX2                !
 ! A16   A(6,8,7)              110.6797         estimate D2E/DX2                !
 ! A17   A(6,8,9)              120.7144         estimate D2E/DX2                !
 ! A18   A(7,8,9)              128.5994         estimate D2E/DX2                !
 ! A19   A(8,9,10)             119.8532         estimate D2E/DX2                !
 ! A20   A(8,9,14)             119.5172         estimate D2E/DX2                !
 ! A21   A(10,9,14)            120.6296         estimate D2E/DX2                !
 ! A22   A(9,10,11)            119.3793         estimate D2E/DX2                !
 ! A23   A(9,10,20)            120.334          estimate D2E/DX2                !
 ! A24   A(11,10,20)           120.2788         estimate D2E/DX2                !
 ! A25   A(10,11,12)           120.4836         estimate D2E/DX2                !
 ! A26   A(10,11,21)           119.2866         estimate D2E/DX2                !
 ! A27   A(12,11,21)           120.2259         estimate D2E/DX2                !
 ! A28   A(11,12,13)           119.6517         estimate D2E/DX2                !
 ! A29   A(11,12,22)           120.2221         estimate D2E/DX2                !
 ! A30   A(13,12,22)           120.1262         estimate D2E/DX2                !
 ! A31   A(12,13,14)           120.4631         estimate D2E/DX2                !
 ! A32   A(12,13,23)           120.1683         estimate D2E/DX2                !
 ! A33   A(14,13,23)           119.365          estimate D2E/DX2                !
 ! A34   A(9,14,13)            119.3863         estimate D2E/DX2                !
 ! A35   A(9,14,24)            119.6929         estimate D2E/DX2                !
 ! A36   A(13,14,24)           120.9199         estimate D2E/DX2                !
 ! A37   A(2,15,16)            113.4549         estimate D2E/DX2                !
 ! A38   A(2,15,17)            112.9093         estimate D2E/DX2                !
 ! A39   A(16,15,17)           111.6917         estimate D2E/DX2                !
 ! A40   A(15,16,25)           109.7293         estimate D2E/DX2                !
 ! A41   A(15,16,26)           107.9964         estimate D2E/DX2                !
 ! A42   A(15,16,27)           112.6719         estimate D2E/DX2                !
 ! A43   A(25,16,26)           108.7934         estimate D2E/DX2                !
 ! A44   A(25,16,27)           109.216          estimate D2E/DX2                !
 ! A45   A(26,16,27)           108.3492         estimate D2E/DX2                !
 ! A46   A(15,17,28)           109.7062         estimate D2E/DX2                !
 ! A47   A(15,17,29)           112.5165         estimate D2E/DX2                !
 ! A48   A(15,17,30)           108.1688         estimate D2E/DX2                !
 ! A49   A(28,17,29)           109.0761         estimate D2E/DX2                !
 ! A50   A(28,17,30)           108.6959         estimate D2E/DX2                !
 ! A51   A(29,17,30)           108.5989         estimate D2E/DX2                !
 ! D1    D(1,2,3,4)             44.9684         estimate D2E/DX2                !
 ! D2    D(15,2,3,4)           -68.6144         estimate D2E/DX2                !
 ! D3    D(18,2,3,4)           174.9174         estimate D2E/DX2                !
 ! D4    D(1,2,15,16)           48.9838         estimate D2E/DX2                !
 ! D5    D(1,2,15,17)          177.3558         estimate D2E/DX2                !
 ! D6    D(3,2,15,16)          170.8734         estimate D2E/DX2                !
 ! D7    D(3,2,15,17)          -60.7547         estimate D2E/DX2                !
 ! D8    D(18,2,15,16)         -73.6236         estimate D2E/DX2                !
 ! D9    D(18,2,15,17)          54.7483         estimate D2E/DX2                !
 ! D10   D(2,3,4,5)            175.5093         estimate D2E/DX2                !
 ! D11   D(2,3,4,7)             -4.6493         estimate D2E/DX2                !
 ! D12   D(3,4,5,6)            179.9581         estimate D2E/DX2                !
 ! D13   D(7,4,5,6)              0.0765         estimate D2E/DX2                !
 ! D14   D(3,4,7,8)            179.7776         estimate D2E/DX2                !
 ! D15   D(3,4,7,19)             1.9428         estimate D2E/DX2                !
 ! D16   D(5,4,7,8)             -0.3686         estimate D2E/DX2                !
 ! D17   D(5,4,7,19)          -178.2035         estimate D2E/DX2                !
 ! D18   D(4,5,6,8)              0.2563         estimate D2E/DX2                !
 ! D19   D(5,6,8,7)             -0.5071         estimate D2E/DX2                !
 ! D20   D(5,6,8,9)           -179.6582         estimate D2E/DX2                !
 ! D21   D(4,7,8,6)              0.5396         estimate D2E/DX2                !
 ! D22   D(4,7,8,9)            179.6058         estimate D2E/DX2                !
 ! D23   D(19,7,8,6)           178.6304         estimate D2E/DX2                !
 ! D24   D(19,7,8,9)            -2.3033         estimate D2E/DX2                !
 ! D25   D(6,8,9,10)           149.6049         estimate D2E/DX2                !
 ! D26   D(6,8,9,14)           -30.4043         estimate D2E/DX2                !
 ! D27   D(7,8,9,10)           -29.3789         estimate D2E/DX2                !
 ! D28   D(7,8,9,14)           150.6118         estimate D2E/DX2                !
 ! D29   D(8,9,10,11)          179.5186         estimate D2E/DX2                !
 ! D30   D(8,9,10,20)           -1.5026         estimate D2E/DX2                !
 ! D31   D(14,9,10,11)          -0.4721         estimate D2E/DX2                !
 ! D32   D(14,9,10,20)         178.5068         estimate D2E/DX2                !
 ! D33   D(8,9,14,13)          179.737          estimate D2E/DX2                !
 ! D34   D(8,9,14,24)           -0.6169         estimate D2E/DX2                !
 ! D35   D(10,9,14,13)          -0.2723         estimate D2E/DX2                !
 ! D36   D(10,9,14,24)         179.3738         estimate D2E/DX2                !
 ! D37   D(9,10,11,12)           0.7759         estimate D2E/DX2                !
 ! D38   D(9,10,11,21)        -179.9421         estimate D2E/DX2                !
 ! D39   D(20,10,11,12)       -178.2035         estimate D2E/DX2                !
 ! D40   D(20,10,11,21)          1.0784         estimate D2E/DX2                !
 ! D41   D(10,11,12,13)         -0.3333         estimate D2E/DX2                !
 ! D42   D(10,11,12,22)        179.6693         estimate D2E/DX2                !
 ! D43   D(21,11,12,13)       -179.6085         estimate D2E/DX2                !
 ! D44   D(21,11,12,22)          0.3942         estimate D2E/DX2                !
 ! D45   D(11,12,13,14)         -0.4239         estimate D2E/DX2                !
 ! D46   D(11,12,13,23)       -179.7207         estimate D2E/DX2                !
 ! D47   D(22,12,13,14)        179.5735         estimate D2E/DX2                !
 ! D48   D(22,12,13,23)          0.2766         estimate D2E/DX2                !
 ! D49   D(12,13,14,9)           0.7224         estimate D2E/DX2                !
 ! D50   D(12,13,14,24)       -178.9192         estimate D2E/DX2                !
 ! D51   D(23,13,14,9)        -179.9751         estimate D2E/DX2                !
 ! D52   D(23,13,14,24)          0.3832         estimate D2E/DX2                !
 ! D53   D(2,15,16,25)         -52.9521         estimate D2E/DX2                !
 ! D54   D(2,15,16,26)        -171.3996         estimate D2E/DX2                !
 ! D55   D(2,15,16,27)          68.9688         estimate D2E/DX2                !
 ! D56   D(17,15,16,25)        178.0522         estimate D2E/DX2                !
 ! D57   D(17,15,16,26)         59.6048         estimate D2E/DX2                !
 ! D58   D(17,15,16,27)        -60.0269         estimate D2E/DX2                !
 ! D59   D(2,15,17,28)          50.4728         estimate D2E/DX2                !
 ! D60   D(2,15,17,29)         -71.1473         estimate D2E/DX2                !
 ! D61   D(2,15,17,30)         168.8907         estimate D2E/DX2                !
 ! D62   D(16,15,17,28)        179.7556         estimate D2E/DX2                !
 ! D63   D(16,15,17,29)         58.1354         estimate D2E/DX2                !
 ! D64   D(16,15,17,30)        -61.8265         estimate D2E/DX2                !
 --------------------------------------------------------------------------------
 Trust Radius=3.00D-01 FncErr=1.00D-07 GrdErr=1.00D-06 EigMax=2.50D+02 EigMin=1.00D-04
 Number of steps in this run=    156 maximum allowed number of steps=    180.
 GradGradGradGradGradGradGradGradGradGradGradGradGradGradGradGradGradGrad

 Leave Link  103 at Thu Sep 24 16:20:56 2020, MaxMem=  2147483648 cpu:               0.0 elap:               0.0
 (Enter /prod/apps/gaussian/g16b1/l202.exe)
                          Input orientation:                          
 ---------------------------------------------------------------------
 Center     Atomic      Atomic             Coordinates (Angstroms)
 Number     Number       Type             X           Y           Z
 ---------------------------------------------------------------------
      1          8           0       -2.128000    0.732000   -1.901000
      2         16           0       -2.734000    0.060000   -0.719000
      3          7           0       -1.938000   -1.195000   -0.160000
      4          6           0       -0.565000   -1.095000   -0.018000
      5          7           0        0.110000   -2.149000    0.554000
      6          7           0        1.394000   -1.878000    0.605000
      7          6           0        0.380000   -0.124000   -0.334000
      8          7           0        1.572000   -0.650000    0.076000
      9          6           0        2.872000   -0.079000   -0.014000
     10          6           0        3.172000    0.809000   -1.052000
     11          6           0        4.447000    1.371000   -1.125000
     12          6           0        5.422000    1.040000   -0.182000
     13          6           0        5.114000    0.144000    0.846000
     14          6           0        3.839000   -0.413000    0.940000
     15          7           0       -2.638000    1.268000    0.517000
     16          6           0       -3.140000    2.582000    0.091000
     17          6           0       -3.246000    0.839000    1.785000
     18          8           0       -4.153000   -0.347000   -0.890000
     19          1           0        0.292000    0.857000   -0.766000
     20          1           0        2.426000    1.046000   -1.803000
     21          1           0        4.678000    2.061000   -1.931000
     22          1           0        6.415000    1.476000   -0.246000
     23          1           0        5.865000   -0.116000    1.587000
     24          1           0        3.587000   -1.095000    1.744000
     25          1           0       -2.644000    2.884000   -0.832000
     26          1           0       -2.898000    3.307000    0.875000
     27          1           0       -4.230000    2.590000   -0.064000
     28          1           0       -2.855000   -0.139000    2.068000
     29          1           0       -4.344000    0.785000    1.729000
     30          1           0       -2.971000    1.564000    2.558000
 ---------------------------------------------------------------------
                    Distance matrix (angstroms):
                    1          2          3          4          5
     1  O    0.000000
     2  S    1.488605   0.000000
     3  N    2.603941   1.587804   0.000000
     4  C    3.053946   2.555384   1.383941   0.000000
     5  N    4.397253   3.819496   2.369434   1.376127   0.000000
     6  N    5.049418   4.748600   3.486250   2.199750   1.313278
     7  C    3.078683   3.143100   2.559383   1.391302   2.227570
     8  N    4.416837   4.435962   3.559891   2.184864   2.147773
     9  C    5.405413   5.651865   4.939926   3.584026   3.498023
    10  C    5.368122   5.962611   5.560915   4.319669   4.550258
    11  C    6.651400   7.310972   6.948655   5.694449   5.832582
    12  C    7.749344   8.232199   7.691899   6.358403   6.239292
    13  C    7.767774   8.002961   7.248149   5.876449   5.512089
    14  C    6.707264   6.795612   5.932559   4.558301   4.131360
    15  N    2.528660   1.730947   2.648528   3.188624   4.385061
    16  C    2.900812   2.679817   3.971591   4.490305   5.758405
    17  C    3.853306   2.671891   3.103392   3.765491   4.658996
    18  O    2.507386   1.486086   2.481578   3.767444   4.848248
    19  H    2.675864   3.129552   3.090443   2.259260   3.288094
    20  H    4.565864   5.364033   5.173589   4.088543   4.596448
    21  H    6.934607   7.772431   7.583497   6.411626   6.690736
    22  H    8.733579   9.270005   8.770077   7.441937   7.316669
    23  H    8.762037   8.904573   8.068647   6.699206   6.190331
    24  H    7.020340   6.881529   5.844728   4.510404   3.823159
    25  H    2.457666   2.827693   4.193836   4.562596   5.902254
    26  H    3.863897   3.620876   4.718138   5.061417   6.238513
    27  H    3.353377   3.011302   4.425913   5.197458   6.455668
    28  H    4.127969   2.796714   2.630591   3.241825   3.888897
    29  H    4.253277   3.018349   3.643838   4.568069   5.461419
    30  H    4.613627   3.613435   4.008328   4.415302   5.224457
                    6          7          8          9         10
     6  N    0.000000
     7  C    2.233032   0.000000
     8  N    1.348892   1.365884   0.000000
     9  C    2.409159   2.512865   1.422723   0.000000
    10  C    3.623107   3.030062   2.441529   1.398566   0.000000
    11  C    4.782229   4.404679   3.713821   2.411938   1.395277
    12  C    5.035760   5.176849   4.212501   2.789782   2.423378
    13  C    4.240868   4.886203   3.710674   2.411616   2.795710
    14  C    2.869926   3.697469   2.437612   1.398843   2.430275
    15  N    5.114888   3.430771   4.647290   5.697058   6.035606
    16  C    6.380670   4.460209   5.713930   6.575416   6.655173
    17  C    5.504915   4.308759   5.324559   6.442752   7.017136
    18  O    5.945435   4.572412   5.813827   7.084478   7.417426
    19  H    3.251810   1.075513   2.149049   2.845699   2.894564
    20  H    3.925973   2.777225   2.671399   2.159875   1.084752
    21  H    5.721160   5.079118   4.585281   3.393542   2.146667
    22  H    6.097865   6.244115   5.298888   3.876171   3.407576
    23  H    4.904978   5.811672   4.582371   3.394498   3.882292
    24  H    2.592231   3.942813   2.653389   2.152683   3.408087
    25  H    6.406798   4.294257   5.575686   6.314646   6.178987
    26  H    6.736348   4.896808   6.023052   6.748942   6.840923
    27  H    7.213873   5.356379   6.646834   7.587125   7.677090
    28  H    4.818557   4.029275   4.881343   6.094001   6.852579
    29  H    6.424919   5.234351   6.307986   7.473634   8.014037
    30  H    5.891927   4.737321   5.630361   6.592062   7.165094
                   11         12         13         14         15
    11  C    0.000000
    12  C    1.396222   0.000000
    13  C    2.415628   1.398021   0.000000
    14  C    2.795808   2.424042   1.394529   0.000000
    15  N    7.273513   8.093466   7.839969   6.704940   0.000000
    16  C    7.778673   8.704030   8.639582   7.641810   1.469720
    17  C    8.242170   8.890653   8.441229   7.244222   1.470214
    18  O    8.773070   9.700807   9.440978   8.199105   2.623566
    19  H    4.202035   5.166376   5.134062   4.135764   3.224889
    20  H    2.156328   3.406419   3.880225   3.413107   5.574565
    21  H    1.085862   2.157540   3.402457   3.881654   7.755347
    22  H    2.157937   1.086389   2.158539   3.407447   9.087477
    23  H    3.402475   2.159154   1.086592   2.147439   8.681092
    24  H    3.879680   3.411001   2.161771   1.083994   6.770519
    25  H    7.256535   8.299590   8.397014   7.485952   2.105064
    26  H    7.854751   8.687862   8.613800   7.696090   2.086453
    27  H    8.826212   9.776376   9.701616   8.668032   2.149351
    28  H    8.111384   8.658018   8.067114   6.793901   2.105312
    29  H    9.261231   9.954482   9.520732   8.307780   2.147713
    30  H    8.284230   8.844469   8.385378   7.273414   2.089063
                   16         17         18         19         20
    16  C    0.000000
    17  C    2.432883   0.000000
    18  O    3.250780   3.063474   0.000000
    19  H    3.935568   4.361808   4.606845   0.000000
    20  H    6.076750   6.714773   6.786550   2.380136   0.000000
    21  H    8.092036   8.836952   9.212421   4.695086   2.473482
    22  H    9.624699   9.892707  10.743402   6.176139   4.303635
    23  H    9.518784   9.163054  10.322268   6.127126   4.966796
    24  H    7.842529   7.101544   8.210058   4.579021   4.302675
    25  H    1.090481   3.375369   3.566484   3.568358   5.479597
    26  H    1.094918   2.653343   4.247584   4.344132   6.374071
    27  H    1.100995   2.730029   3.051913   4.893320   7.050560
    28  H    3.375440   1.090621   3.236948   4.350538   6.654159
    29  H    2.713276   1.100752   2.859557   5.265236   7.640422
    30  H    2.674131   1.094888   4.115550   4.711262   6.958035
                   21         22         23         24         25
    21  H    0.000000
    22  H    2.489703   0.000000
    23  H    4.304024   2.489348   0.000000
    24  H    4.965505   4.309028   2.484426   0.000000
    25  H    7.449618   9.186476   9.341019   7.829022   0.000000
    26  H    8.174468   9.557258   9.434725   7.885936   1.776878
    27  H    9.116907  10.704679  10.580986   8.829132   1.786521
    28  H    8.807843   9.689980   8.733286   6.520604   4.194407
    29  H    9.819382  10.960574  10.249666   8.150791   3.722166
    30  H    8.882867   9.796283   9.046554   7.123218   3.652592
                   26         27         28         29         30
    26  H    0.000000
    27  H    1.780459   0.000000
    28  H    3.646918   3.726056   0.000000
    29  H    3.029970   2.546737   1.784886   0.000000
    30  H    2.424019   3.084257   1.775884   1.783034   0.000000
 Symmetry turned off by external request.
 Stoichiometry    C10H12N5O2S(1-)
 Framework group  C1[X(C10H12N5O2S)]
 Deg. of freedom    84
 Full point group                 C1      NOp   1
 Rotational constants (GHZ):           0.8884139           0.1847771           0.1733936
 Leave Link  202 at Thu Sep 24 16:20:56 2020, MaxMem=  2147483648 cpu:               0.0 elap:               0.0
 (Enter /prod/apps/gaussian/g16b1/l301.exe)
 Standard basis: 6-31G(d) (6D, 7F)
 Ernie: Thresh=  0.10000D-02 Tol=  0.10000D-05 Strict=F.
   298 basis functions,   576 primitive gaussians,   298 cartesian basis functions
    70 alpha electrons       70 beta electrons
       nuclear repulsion energy      1450.9163767519 Hartrees.
 IExCor=  402 DFT=T Ex+Corr=B3LYP ExCW=0 ScaHFX=  0.200000
 ScaDFX=  0.800000  0.720000  1.000000  0.810000 ScalE2=  1.000000  1.000000
 IRadAn=      5 IRanWt=     -1 IRanGd=            0 ICorTp=0 IEmpDi=  4
 NAtoms=   30 NActive=   30 NUniq=   30 SFac= 1.00D+00 NAtFMM=   60 NAOKFM=F Big=F
 Integral buffers will be    131072 words long.
 Raffenetti 2 integral format.
 Two-electron integral symmetry is turned off.
 Using the following non-standard input for PCM:
 MSTModel=DFT cav MSTcharged
 --- end of non-standard input.
 MST model for solvation energy: B3LYP parametrization.
 MST cavity parameters:
 ISph   IAn     Re0     Alpha   Atom Type   QCorr
 ------------------------------------------------
   1      8     1.40     1.25      O          F
   2     16     1.75     1.25      S          F
   3      7     1.40     1.15      N          T
   4      6     1.50     1.25      C          F
   5      7     1.40     1.25      N          F
   6      7     1.40     1.25      N          F
   7      6     1.50     1.25      CH         F
   8      7     1.40     1.25      N          F
   9      6     1.50     1.25      C          F
  10      6     1.50     1.25      CH         F
  11      6     1.50     1.25      CH         F
  12      6     1.50     1.25      CH         F
  13      6     1.50     1.25      CH         F
  14      6     1.50     1.25      CH         F
  15      7     1.40     1.25      N          F
  16      6     1.50     1.25      CH3        F
  17      6     1.50     1.25      CH3        F
  18      8     1.40     1.25      O          F
  19      1     1.20     1.25      CH         F
  20      1     1.20     1.25      CH         F
  21      1     1.20     1.25      CH         F
  22      1     1.20     1.25      CH         F
  23      1     1.20     1.25      CH         F
  24      1     1.20     1.25      CH         F
  25      1     1.20     1.25      CH3        F
  26      1     1.20     1.25      CH3        F
  27      1     1.20     1.25      CH3        F
  28      1     1.20     1.25      CH3        F
  29      1     1.20     1.25      CH3        F
  30      1     1.20     1.25      CH3        F
 ------------------------------------------------------------------------------
 Polarizable Continuum Model (PCM)
 =================================
 Model                : PCM.
 Atomic radii         : MST.
 Polarization charges : Total charges.
 Charge compensation  : None.
 Solution method      : On-the-fly selection.
 Cavity type          : Scaled VdW (van der Waals Surface) (Alpha=1.250).
 Cavity algorithm     : GePol (No added spheres)
                        Default sphere list used, NSphG=   30.
                        Lebedev-Laikov grids with approx.  5.0 points / Ang**2.
                        Smoothing algorithm: York/Karplus (Gamma=1.0000).
                        Polarization charges: spherical gaussians, with
                                              point-specific exponents (IZeta= 3).
                        Self-potential: point-specific (ISelfS= 7).
                        Self-field    : sphere-specific E.n sum rule (ISelfD= 2).
 1st derivatives      : Analytical E(r).r(x)/FMM algorithm (CHGder, D1EAlg=3).
                        Cavity 1st derivative terms included.
 Solvent              : Water, Eps=  78.355300 Eps(inf)=   1.777849
 ------------------------------------------------------------------------------
 GePol: Number of generator spheres                  =      30
 GePol: Total number of spheres                      =      30
 GePol: Number of exposed spheres                    =      30 (100.00%)
 GePol: Number of points                             =    2287
 GePol: Average weight of points                     =       0.13
 GePol: Minimum weight of points                     =   0.75D-10
 GePol: Maximum weight of points                     =    0.22001
 GePol: Number of points with low weight             =     131
 GePol: Fraction of low-weight points (<1% of avg)   =       5.73%
 GePol: Cavity surface area                          =    306.136 Ang**2
 GePol: Cavity volume                                =    288.564 Ang**3
 PCM non-electrostatic energy =         0.0043321980 Hartrees.
 Nuclear repulsion after PCM non-electrostatic terms =     1450.9207089499 Hartrees.
 Leave Link  301 at Thu Sep 24 16:20:56 2020, MaxMem=  2147483648 cpu:               0.3 elap:               0.1
 (Enter /prod/apps/gaussian/g16b1/l302.exe)
 NPDir=0 NMtPBC=     1 NCelOv=     1 NCel=       1 NClECP=     1 NCelD=      1
         NCelK=      1 NCelE2=     1 NClLst=     1 CellRange=     0.0.
 One-electron integrals computed using PRISM.
 NBasis=   298 RedAO= T EigKep=  4.70D-04  NBF=   298
 NBsUse=   298 1.00D-06 EigRej= -1.00D+00 NBFU=   298
 Precomputing XC quadrature grid using
 IXCGrd= 4 IRadAn=           5 IRanWt=          -1 IRanGd=           0 AccXCQ= 0.00D+00.
 Generated NRdTot=       0 NPtTot=           0 NUsed=           0 NTot=          32
 NSgBfM=   297   297   297   297   297 MxSgAt=    30 MxSgA2=    30.
 Leave Link  302 at Thu Sep 24 16:20:57 2020, MaxMem=  2147483648 cpu:               1.4 elap:               0.4
 (Enter /prod/apps/gaussian/g16b1/l303.exe)
 DipDrv:  MaxL=1.
 Leave Link  303 at Thu Sep 24 16:20:57 2020, MaxMem=  2147483648 cpu:               0.1 elap:               0.1
 (Enter /prod/apps/gaussian/g16b1/l401.exe)
 ExpMin= 1.17D-01 ExpMax= 2.19D+04 ExpMxC= 3.30D+03 IAcc=3 IRadAn=         5 AccDes= 0.00D+00
 Harris functional with IExCor=  402 and IRadAn=       5 diagonalized for initial guess.
 HarFok:  IExCor=  402 AccDes= 0.00D+00 IRadAn=         5 IDoV= 1 UseB2=F ITyADJ=14
 ICtDFT=  3500011 ScaDFX=  1.000000  1.000000  1.000000  1.000000
 FoFCou: FMM=F IPFlag=           0 FMFlag=      100000 FMFlg1=           0
         NFxFlg=           0 DoJE=T BraDBF=F KetDBF=T FulRan=T
         wScrn=  0.000000 ICntrl=       500 IOpCl=  0 I1Cent=   200000004 NGrid=           0
         NMat0=    1 NMatS0=      1 NMatT0=    0 NMatD0=    1 NMtDS0=    0 NMtDT0=    0
 Symmetry not used in FoFCou.
 Harris En= -1210.75062496938    
 JPrj=0 DoOrth=F DoCkMO=F.
 Leave Link  401 at Thu Sep 24 16:20:59 2020, MaxMem=  2147483648 cpu:               7.8 elap:               2.0
 (Enter /prod/apps/gaussian/g16b1/l502.exe)
 Keep R1 ints in memory in canonical form, NReq=1005784643.
 FoFCou: FMM=F IPFlag=           0 FMFlag=           0 FMFlg1=           0
         NFxFlg=           0 DoJE=F BraDBF=F KetDBF=F FulRan=T
         wScrn=  0.000000 ICntrl=       600 IOpCl=  0 I1Cent=           0 NGrid=           0
         NMat0=    1 NMatS0=  44551 NMatT0=    0 NMatD0=    1 NMtDS0=    0 NMtDT0=    0
 Symmetry not used in FoFCou.
 Two-electron integral symmetry not used.
 Closed shell SCF:
 Using DIIS extrapolation, IDIIS=  1040.
 NGot=  2147483648 LenX=  1154883590 LenY=  1154794345
 Requested convergence on RMS density matrix=1.00D-08 within2000 cycles.
 Requested convergence on MAX density matrix=1.00D-06.
 Requested convergence on             energy=1.00D-06.
 No special actions if energy rises.

 Cycle   1  Pass 1  IDiag  1:
 Inv3:  Mode=1 IEnd=    15691107.
 Iteration    1 A*A^-1 deviation from unit magnitude is 3.11D-15 for    218.
 Iteration    1 A*A^-1 deviation from orthogonality  is 2.41D-15 for   1617     82.
 Iteration    1 A^-1*A deviation from unit magnitude is 3.55D-15 for   1263.
 Iteration    1 A^-1*A deviation from orthogonality  is 2.55D-12 for   1626   1619.
 E= -1210.15644524730    
 DIIS: error= 2.50D-02 at cycle   1 NSaved=   1.
 NSaved= 1 IEnMin= 1 EnMin= -1210.15644524730     IErMin= 1 ErrMin= 2.50D-02
 ErrMax= 2.50D-02  0.00D+00 EMaxC= 1.00D-01 BMatC= 6.54D-01 BMatP= 6.54D-01
 IDIUse=3 WtCom= 7.50D-01 WtEn= 2.50D-01
 Coeff-Com:  0.100D+01
 Coeff-En:   0.100D+01
 Coeff:      0.100D+01
 Gap=     0.241 Goal=   None    Shift=    0.000
 GapD=    0.241 DampG=1.000 DampE=0.500 DampFc=0.5000 IDamp=-1.
 Damping current iteration by 5.00D-01
 RMSDP=6.26D-03 MaxDP=5.43D-01              OVMax= 2.07D-01

 Cycle   2  Pass 1  IDiag  1:
 E= -1210.33342382977     Delta-E=       -0.176978582466 Rises=F Damp=T
 DIIS: error= 9.98D-03 at cycle   2 NSaved=   2.
 NSaved= 2 IEnMin= 2 EnMin= -1210.33342382977     IErMin= 2 ErrMin= 9.98D-03
 ErrMax= 9.98D-03  0.00D+00 EMaxC= 1.00D-01 BMatC= 7.64D-02 BMatP= 6.54D-01
 IDIUse=3 WtCom= 9.00D-01 WtEn= 9.98D-02
 Coeff-Com:  0.192D+00 0.808D+00
 Coeff-En:   0.309D+00 0.691D+00
 Coeff:      0.203D+00 0.797D+00
 Gap=     0.205 Goal=   None    Shift=    0.000
 RMSDP=1.64D-03 MaxDP=1.23D-01 DE=-1.77D-01 OVMax= 1.60D-01

 Cycle   3  Pass 1  IDiag  1:
 E= -1210.68397796838     Delta-E=       -0.350554138608 Rises=F Damp=F
 DIIS: error= 6.01D-03 at cycle   3 NSaved=   3.
 NSaved= 3 IEnMin= 3 EnMin= -1210.68397796838     IErMin= 3 ErrMin= 6.01D-03
 ErrMax= 6.01D-03  0.00D+00 EMaxC= 1.00D-01 BMatC= 3.70D-02 BMatP= 7.64D-02
 IDIUse=3 WtCom= 9.40D-01 WtEn= 6.01D-02
 Coeff-Com:  0.504D-01 0.410D+00 0.539D+00
 Coeff-En:   0.000D+00 0.000D+00 0.100D+01
 Coeff:      0.474D-01 0.386D+00 0.567D+00
 Gap=     0.165 Goal=   None    Shift=    0.000
 RMSDP=8.82D-04 MaxDP=2.95D-02 DE=-3.51D-01 OVMax= 4.46D-02

 Cycle   4  Pass 1  IDiag  1:
 E= -1210.71123759505     Delta-E=       -0.027259626669 Rises=F Damp=F
 DIIS: error= 2.71D-03 at cycle   4 NSaved=   4.
 NSaved= 4 IEnMin= 4 EnMin= -1210.71123759505     IErMin= 4 ErrMin= 2.71D-03
 ErrMax= 2.71D-03  0.00D+00 EMaxC= 1.00D-01 BMatC= 6.78D-03 BMatP= 3.70D-02
 IDIUse=3 WtCom= 9.73D-01 WtEn= 2.71D-02
 Coeff-Com:  0.279D-02 0.100D+00 0.319D+00 0.579D+00
 Coeff-En:   0.000D+00 0.000D+00 0.146D+00 0.854D+00
 Coeff:      0.271D-02 0.973D-01 0.314D+00 0.586D+00
 Gap=     0.163 Goal=   None    Shift=    0.000
 RMSDP=3.17D-04 MaxDP=1.50D-02 DE=-2.73D-02 OVMax= 1.88D-02

 Cycle   5  Pass 1  IDiag  1:
 E= -1210.71660400183     Delta-E=       -0.005366406778 Rises=F Damp=F
 DIIS: error= 9.07D-04 at cycle   5 NSaved=   5.
 NSaved= 5 IEnMin= 5 EnMin= -1210.71660400183     IErMin= 5 ErrMin= 9.07D-04
 ErrMax= 9.07D-04  0.00D+00 EMaxC= 1.00D-01 BMatC= 6.60D-04 BMatP= 6.78D-03
 IDIUse=3 WtCom= 9.91D-01 WtEn= 9.07D-03
 Coeff-Com: -0.243D-02 0.207D-01 0.121D+00 0.322D+00 0.539D+00
 Coeff-En:   0.000D+00 0.000D+00 0.000D+00 0.202D-01 0.980D+00
 Coeff:     -0.240D-02 0.205D-01 0.120D+00 0.319D+00 0.543D+00
 Gap=     0.164 Goal=   None    Shift=    0.000
 RMSDP=9.74D-05 MaxDP=6.14D-03 DE=-5.37D-03 OVMax= 6.92D-03

 Cycle   6  Pass 1  IDiag  1:
 E= -1210.71713329006     Delta-E=       -0.000529288236 Rises=F Damp=F
 DIIS: error= 2.63D-04 at cycle   6 NSaved=   6.
 NSaved= 6 IEnMin= 6 EnMin= -1210.71713329006     IErMin= 6 ErrMin= 2.63D-04
 ErrMax= 2.63D-04  0.00D+00 EMaxC= 1.00D-01 BMatC= 4.91D-05 BMatP= 6.60D-04
 IDIUse=3 WtCom= 9.97D-01 WtEn= 2.63D-03
 Coeff-Com: -0.162D-02 0.442D-02 0.448D-01 0.137D+00 0.299D+00 0.516D+00
 Coeff-En:   0.000D+00 0.000D+00 0.000D+00 0.000D+00 0.000D+00 0.100D+01
 Coeff:     -0.162D-02 0.441D-02 0.447D-01 0.137D+00 0.298D+00 0.517D+00
 Gap=     0.164 Goal=   None    Shift=    0.000
 RMSDP=2.71D-05 MaxDP=1.40D-03 DE=-5.29D-04 OVMax= 2.29D-03

 Cycle   7  Pass 1  IDiag  1:
 E= -1210.71716970450     Delta-E=       -0.000036414438 Rises=F Damp=F
 DIIS: error= 9.43D-05 at cycle   7 NSaved=   7.
 NSaved= 7 IEnMin= 7 EnMin= -1210.71716970450     IErMin= 7 ErrMin= 9.43D-05
 ErrMax= 9.43D-05  0.00D+00 EMaxC= 1.00D-01 BMatC= 6.36D-06 BMatP= 4.91D-05
 IDIUse=1 WtCom= 1.00D+00 WtEn= 0.00D+00
 Coeff-Com: -0.730D-03 0.600D-03 0.140D-01 0.480D-01 0.123D+00 0.317D+00
 Coeff-Com:  0.498D+00
 Coeff:     -0.730D-03 0.600D-03 0.140D-01 0.480D-01 0.123D+00 0.317D+00
 Coeff:      0.498D+00
 Gap=     0.164 Goal=   None    Shift=    0.000
 RMSDP=9.07D-06 MaxDP=4.84D-04 DE=-3.64D-05 OVMax= 7.45D-04

 Cycle   8  Pass 1  IDiag  1:
 E= -1210.71717498882     Delta-E=       -0.000005284324 Rises=F Damp=F
 DIIS: error= 2.30D-05 at cycle   8 NSaved=   8.
 NSaved= 8 IEnMin= 8 EnMin= -1210.71717498882     IErMin= 8 ErrMin= 2.30D-05
 ErrMax= 2.30D-05  0.00D+00 EMaxC= 1.00D-01 BMatC= 3.38D-07 BMatP= 6.36D-06
 IDIUse=1 WtCom= 1.00D+00 WtEn= 0.00D+00
 Coeff-Com: -0.229D-03-0.137D-03 0.295D-02 0.117D-01 0.355D-01 0.116D+00
 Coeff-Com:  0.253D+00 0.581D+00
 Coeff:     -0.229D-03-0.137D-03 0.295D-02 0.117D-01 0.355D-01 0.116D+00
 Coeff:      0.253D+00 0.581D+00
 Gap=     0.164 Goal=   None    Shift=    0.000
 RMSDP=2.50D-06 MaxDP=9.51D-05 DE=-5.28D-06 OVMax= 2.46D-04

 Cycle   9  Pass 1  IDiag  1:
 E= -1210.71717527435     Delta-E=       -0.000000285530 Rises=F Damp=F
 DIIS: error= 5.79D-06 at cycle   9 NSaved=   9.
 NSaved= 9 IEnMin= 9 EnMin= -1210.71717527435     IErMin= 9 ErrMin= 5.79D-06
 ErrMax= 5.79D-06  0.00D+00 EMaxC= 1.00D-01 BMatC= 3.50D-08 BMatP= 3.38D-07
 IDIUse=1 WtCom= 1.00D+00 WtEn= 0.00D+00
 Coeff-Com: -0.264D-04-0.123D-03-0.222D-03-0.543D-04 0.268D-02 0.188D-01
 Coeff-Com:  0.631D-01 0.289D+00 0.626D+00
 Coeff:     -0.264D-04-0.123D-03-0.222D-03-0.543D-04 0.268D-02 0.188D-01
 Coeff:      0.631D-01 0.289D+00 0.626D+00
 Gap=     0.164 Goal=   None    Shift=    0.000
 RMSDP=7.80D-07 MaxDP=3.45D-05 DE=-2.86D-07 OVMax= 6.89D-05

 Cycle  10  Pass 1  IDiag  1:
 E= -1210.71717530317     Delta-E=       -0.000000028818 Rises=F Damp=F
 DIIS: error= 3.11D-06 at cycle  10 NSaved=  10.
 NSaved=10 IEnMin=10 EnMin= -1210.71717530317     IErMin=10 ErrMin= 3.11D-06
 ErrMax= 3.11D-06  0.00D+00 EMaxC= 1.00D-01 BMatC= 4.91D-09 BMatP= 3.50D-08
 IDIUse=1 WtCom= 1.00D+00 WtEn= 0.00D+00
 Coeff-Com: -0.208D-05-0.599D-04-0.312D-03-0.779D-03-0.736D-03 0.302D-02
 Coeff-Com:  0.201D-01 0.131D+00 0.364D+00 0.484D+00
 Coeff:     -0.208D-05-0.599D-04-0.312D-03-0.779D-03-0.736D-03 0.302D-02
 Coeff:      0.201D-01 0.131D+00 0.364D+00 0.484D+00
 Gap=     0.164 Goal=   None    Shift=    0.000
 RMSDP=2.52D-07 MaxDP=1.19D-05 DE=-2.88D-08 OVMax= 1.81D-05

 Cycle  11  Pass 1  IDiag  1:
 E= -1210.71717530739     Delta-E=       -0.000000004221 Rises=F Damp=F
 DIIS: error= 6.74D-07 at cycle  11 NSaved=  11.
 NSaved=11 IEnMin=11 EnMin= -1210.71717530739     IErMin=11 ErrMin= 6.74D-07
 ErrMax= 6.74D-07  0.00D+00 EMaxC= 1.00D-01 BMatC= 1.82D-10 BMatP= 4.91D-09
 IDIUse=1 WtCom= 1.00D+00 WtEn= 0.00D+00
 Coeff-Com:  0.160D-05-0.730D-05-0.111D-03-0.344D-03-0.695D-03-0.129D-02
 Coeff-Com:  0.722D-03 0.188D-01 0.695D-01 0.191D+00 0.722D+00
 Coeff:      0.160D-05-0.730D-05-0.111D-03-0.344D-03-0.695D-03-0.129D-02
 Coeff:      0.722D-03 0.188D-01 0.695D-01 0.191D+00 0.722D+00
 Gap=     0.164 Goal=   None    Shift=    0.000
 RMSDP=5.75D-08 MaxDP=2.71D-06 DE=-4.22D-09 OVMax= 3.05D-06

 Cycle  12  Pass 1  IDiag  1:
 E= -1210.71717530752     Delta-E=       -0.000000000124 Rises=F Damp=F
 DIIS: error= 2.58D-07 at cycle  12 NSaved=  12.
 NSaved=12 IEnMin=12 EnMin= -1210.71717530752     IErMin=12 ErrMin= 2.58D-07
 ErrMax= 2.58D-07  0.00D+00 EMaxC= 1.00D-01 BMatC= 3.64D-11 BMatP= 1.82D-10
 IDIUse=1 WtCom= 1.00D+00 WtEn= 0.00D+00
 Coeff-Com:  0.906D-06 0.374D-06-0.422D-04-0.140D-03-0.337D-03-0.902D-03
 Coeff-Com: -0.794D-03 0.238D-02 0.148D-01 0.757D-01 0.401D+00 0.508D+00
 Coeff:      0.906D-06 0.374D-06-0.422D-04-0.140D-03-0.337D-03-0.902D-03
 Coeff:     -0.794D-03 0.238D-02 0.148D-01 0.757D-01 0.401D+00 0.508D+00
 Gap=     0.164 Goal=   None    Shift=    0.000
 RMSDP=2.28D-08 MaxDP=1.29D-06 DE=-1.24D-10 OVMax= 2.38D-06

 Cycle  13  Pass 1  IDiag  1:
 E= -1210.71717530756     Delta-E=       -0.000000000041 Rises=F Damp=F
 DIIS: error= 8.02D-08 at cycle  13 NSaved=  13.
 NSaved=13 IEnMin=13 EnMin= -1210.71717530756     IErMin=13 ErrMin= 8.02D-08
 ErrMax= 8.02D-08  0.00D+00 EMaxC= 1.00D-01 BMatC= 2.82D-12 BMatP= 3.64D-11
 IDIUse=1 WtCom= 1.00D+00 WtEn= 0.00D+00
 Coeff-Com:  0.188D-06 0.115D-05-0.662D-05-0.237D-04-0.822D-04-0.301D-03
 Coeff-Com: -0.559D-03-0.168D-02-0.354D-02 0.106D-01 0.963D-01 0.250D+00
 Coeff-Com:  0.650D+00
 Coeff:      0.188D-06 0.115D-05-0.662D-05-0.237D-04-0.822D-04-0.301D-03
 Coeff:     -0.559D-03-0.168D-02-0.354D-02 0.106D-01 0.963D-01 0.250D+00
 Coeff:      0.650D+00
 Gap=     0.164 Goal=   None    Shift=    0.000
 RMSDP=7.81D-09 MaxDP=4.08D-07 DE=-4.14D-11 OVMax= 5.46D-07

 Error on total polarization charges =  0.02352
 SCF Done:  E(RB3LYP) =  -1210.71717531     A.U. after   13 cycles
            NFock= 13  Conv=0.78D-08     -V/T= 2.0076
 KE= 1.201641063505D+03 PE=-5.759556189099D+03 EE= 1.896277241337D+03
 Leave Link  502 at Thu Sep 24 16:21:59 2020, MaxMem=  2147483648 cpu:             186.7 elap:              60.0
 (Enter /prod/apps/gaussian/g16b1/l601.exe)
 Copying SCF densities to generalized density rwf, IOpCl= 0 IROHF=0.

 **********************************************************************

            Population analysis using the SCF Density.

 **********************************************************************

 Alpha  occ. eigenvalues --  -89.09719 -19.11867 -19.11766 -14.42733 -14.38494
 Alpha  occ. eigenvalues --  -14.34793 -14.34476 -14.30069 -10.24460 -10.24011
 Alpha  occ. eigenvalues --  -10.21395 -10.20455 -10.20446 -10.20137 -10.19958
 Alpha  occ. eigenvalues --  -10.19837 -10.19811 -10.19531  -8.11935  -6.08430
 Alpha  occ. eigenvalues --   -6.08384  -6.08293  -1.09129  -1.08606  -0.96755
 Alpha  occ. eigenvalues --   -0.92697  -0.91177  -0.88437  -0.85205  -0.78355
 Alpha  occ. eigenvalues --   -0.75568  -0.75238  -0.70601  -0.67556  -0.65103
 Alpha  occ. eigenvalues --   -0.63120  -0.60340  -0.57859  -0.56293  -0.53663
 Alpha  occ. eigenvalues --   -0.51305  -0.49131  -0.48148  -0.47527  -0.46533
 Alpha  occ. eigenvalues --   -0.45779  -0.44725  -0.43926  -0.43912  -0.42946
 Alpha  occ. eigenvalues --   -0.42716  -0.40257  -0.39202  -0.38145  -0.36922
 Alpha  occ. eigenvalues --   -0.36821  -0.35553  -0.33957  -0.33444  -0.32385
 Alpha  occ. eigenvalues --   -0.31878  -0.30403  -0.29397  -0.28620  -0.27237
 Alpha  occ. eigenvalues --   -0.26055  -0.25541  -0.24673  -0.23464  -0.19599
 Alpha virt. eigenvalues --   -0.03203  -0.01056   0.02454   0.06070   0.09319
 Alpha virt. eigenvalues --    0.09574   0.10511   0.12763   0.13303   0.13725
 Alpha virt. eigenvalues --    0.14813   0.15374   0.15481   0.15684   0.16589
 Alpha virt. eigenvalues --    0.17046   0.18149   0.18779   0.19181   0.19876
 Alpha virt. eigenvalues --    0.20387   0.20707   0.21472   0.22945   0.24234
 Alpha virt. eigenvalues --    0.24801   0.29260   0.30242   0.31274   0.32232
 Alpha virt. eigenvalues --    0.33626   0.34432   0.37049   0.39880   0.41353
 Alpha virt. eigenvalues --    0.43540   0.45167   0.46615   0.49421   0.50185
 Alpha virt. eigenvalues --    0.51570   0.52013   0.52918   0.53396   0.54623
 Alpha virt. eigenvalues --    0.56325   0.56669   0.57828   0.58377   0.58767
 Alpha virt. eigenvalues --    0.59087   0.60144   0.60666   0.61004   0.61335
 Alpha virt. eigenvalues --    0.62715   0.63732   0.64783   0.64993   0.66045
 Alpha virt. eigenvalues --    0.67333   0.68147   0.69550   0.71281   0.72943
 Alpha virt. eigenvalues --    0.74264   0.76005   0.76852   0.77611   0.79193
 Alpha virt. eigenvalues --    0.79741   0.81636   0.82093   0.82926   0.83585
 Alpha virt. eigenvalues --    0.84044   0.84338   0.84674   0.85644   0.86402
 Alpha virt. eigenvalues --    0.87490   0.89375   0.89902   0.90993   0.91460
 Alpha virt. eigenvalues --    0.92514   0.93591   0.94616   0.94880   0.95732
 Alpha virt. eigenvalues --    0.96793   0.98101   0.98286   0.99041   1.00202
 Alpha virt. eigenvalues --    1.01284   1.03347   1.04649   1.05893   1.08428
 Alpha virt. eigenvalues --    1.09499   1.09897   1.11398   1.13939   1.14695
 Alpha virt. eigenvalues --    1.16109   1.16783   1.18021   1.19571   1.21134
 Alpha virt. eigenvalues --    1.22144   1.25105   1.25734   1.27742   1.29098
 Alpha virt. eigenvalues --    1.33220   1.35062   1.37989   1.38383   1.41213
 Alpha virt. eigenvalues --    1.42035   1.43567   1.44100   1.46391   1.46671
 Alpha virt. eigenvalues --    1.48234   1.48655   1.50319   1.53582   1.55387
 Alpha virt. eigenvalues --    1.57014   1.59064   1.60916   1.63553   1.68065
 Alpha virt. eigenvalues --    1.71609   1.74781   1.77736   1.80034   1.80359
 Alpha virt. eigenvalues --    1.81156   1.81763   1.82794   1.83479   1.84970
 Alpha virt. eigenvalues --    1.87244   1.87636   1.88411   1.89513   1.91690
 Alpha virt. eigenvalues --    1.94253   1.95025   1.96767   1.97574   1.99893
 Alpha virt. eigenvalues --    2.00709   2.01548   2.04151   2.04971   2.06728
 Alpha virt. eigenvalues --    2.09688   2.10127   2.11160   2.11909   2.12825
 Alpha virt. eigenvalues --    2.13345   2.13786   2.15447   2.18551   2.21284
 Alpha virt. eigenvalues --    2.21790   2.24250   2.25118   2.25663   2.26802
 Alpha virt. eigenvalues --    2.29611   2.30578   2.32140   2.32978   2.33407
 Alpha virt. eigenvalues --    2.37621   2.40186   2.43547   2.44928   2.48762
 Alpha virt. eigenvalues --    2.51220   2.52101   2.55231   2.58032   2.59876
 Alpha virt. eigenvalues --    2.60204   2.60353   2.64220   2.67198   2.67629
 Alpha virt. eigenvalues --    2.70687   2.72055   2.72594   2.73835   2.75728
 Alpha virt. eigenvalues --    2.79734   2.80873   2.84059   2.87870   2.90523
 Alpha virt. eigenvalues --    3.06132   3.08204   3.16477   3.27091   3.42128
 Alpha virt. eigenvalues --    3.62727   3.86041   3.93004   3.97475   4.03494
 Alpha virt. eigenvalues --    4.05563   4.08101   4.10828   4.13823   4.19259
 Alpha virt. eigenvalues --    4.22913   4.25819   4.26394   4.32122   4.36694
 Alpha virt. eigenvalues --    4.39763   4.52725   4.71337
          Condensed to atoms (all electrons):
               1          2          3          4          5          6
     1  O    8.416295   0.385119  -0.055625  -0.008436  -0.000023   0.000002
     2  S    0.385119  13.561402   0.297985  -0.010376  -0.002747  -0.000089
     3  N   -0.055625   0.297985   7.423905   0.369318  -0.063934   0.005510
     4  C   -0.008436  -0.010376   0.369318   4.582493   0.362766  -0.083550
     5  N   -0.000023  -0.002747  -0.063934   0.362766   7.027951   0.288360
     6  N    0.000002  -0.000089   0.005510  -0.083550   0.288360   6.805465
     7  C    0.006263  -0.002864  -0.099009   0.473684  -0.101812  -0.095995
     8  N    0.000138   0.000224   0.003442  -0.026853  -0.096801   0.239353
     9  C    0.000006  -0.000035  -0.000087   0.003523   0.006845  -0.042483
    10  C   -0.000003   0.000001  -0.000000   0.000829  -0.000312   0.002527
    11  C   -0.000000  -0.000000   0.000000  -0.000007   0.000002  -0.000074
    12  C    0.000000   0.000000  -0.000000   0.000000  -0.000000   0.000019
    13  C   -0.000000  -0.000000  -0.000000   0.000005  -0.000004   0.000251
    14  C    0.000000   0.000000   0.000000  -0.000370   0.000296   0.001041
    15  N   -0.052553   0.112178  -0.056417  -0.002873  -0.000191   0.000012
    16  C   -0.006106  -0.015007   0.002480   0.000080   0.000001  -0.000000
    17  C    0.001848  -0.012807  -0.010837  -0.000145   0.000062  -0.000004
    18  O   -0.051479   0.450055  -0.069581   0.001425  -0.000014   0.000000
    19  H    0.008456   0.003006  -0.002476  -0.032235   0.004286   0.003944
    20  H   -0.000003  -0.000004  -0.000001   0.000027  -0.000007  -0.000102
    21  H   -0.000000   0.000000   0.000000   0.000000  -0.000000   0.000001
    22  H    0.000000  -0.000000  -0.000000  -0.000000   0.000000   0.000000
    23  H   -0.000000  -0.000000   0.000000  -0.000000   0.000000  -0.000008
    24  H    0.000000   0.000000  -0.000000   0.000043  -0.000343   0.014916
    25  H    0.013654  -0.003101   0.000133   0.000011   0.000000  -0.000000
    26  H    0.000189   0.001397  -0.000098  -0.000010  -0.000000  -0.000000
    27  H   -0.000648  -0.003268  -0.000063   0.000001  -0.000000   0.000000
    28  H    0.000059  -0.002084   0.014995   0.000158  -0.000106   0.000007
    29  H   -0.000035  -0.005374  -0.000333   0.000049  -0.000000   0.000000
    30  H   -0.000056   0.002232  -0.000026  -0.000047  -0.000001   0.000000
               7          8          9         10         11         12
     1  O    0.006263   0.000138   0.000006  -0.000003  -0.000000   0.000000
     2  S   -0.002864   0.000224  -0.000035   0.000001  -0.000000   0.000000
     3  N   -0.099009   0.003442  -0.000087  -0.000000   0.000000  -0.000000
     4  C    0.473684  -0.026853   0.003523   0.000829  -0.000007   0.000000
     5  N   -0.101812  -0.096801   0.006845  -0.000312   0.000002  -0.000000
     6  N   -0.095995   0.239353  -0.042483   0.002527  -0.000074   0.000019
     7  C    5.177973   0.296997  -0.031522  -0.005813   0.000017   0.000015
     8  N    0.296997   6.894902   0.209143  -0.052000   0.004795   0.000307
     9  C   -0.031522   0.209143   4.631746   0.527024  -0.010857  -0.038118
    10  C   -0.005813  -0.052000   0.527024   4.999688   0.522767  -0.040918
    11  C    0.000017   0.004795  -0.010857   0.522767   4.874847   0.543145
    12  C    0.000015   0.000307  -0.038118  -0.040918   0.543145   4.879256
    13  C   -0.000093   0.004704  -0.011310  -0.041477  -0.025691   0.538378
    14  C    0.006647  -0.062043   0.510354  -0.070599  -0.041523  -0.039383
    15  N    0.005049  -0.000051  -0.000003   0.000001   0.000000  -0.000000
    16  C   -0.000263   0.000001  -0.000000  -0.000000   0.000000   0.000000
    17  C    0.000063  -0.000002   0.000000  -0.000000  -0.000000  -0.000000
    18  O   -0.000009   0.000000  -0.000000  -0.000000  -0.000000   0.000000
    19  H    0.361386  -0.037367  -0.000791   0.001980   0.000123  -0.000001
    20  H    0.006277  -0.008724  -0.038781   0.354206  -0.036746   0.004377
    21  H   -0.000004  -0.000108   0.003440  -0.037668   0.362911  -0.040186
    22  H   -0.000000   0.000003   0.000485   0.004772  -0.041421   0.365305
    23  H    0.000001  -0.000102   0.003540   0.000682   0.004477  -0.040466
    24  H    0.000171  -0.012434  -0.040869   0.005660   0.000087   0.004625
    25  H   -0.000064   0.000000   0.000000  -0.000000  -0.000000  -0.000000
    26  H    0.000037  -0.000000   0.000000   0.000000  -0.000000  -0.000000
    27  H    0.000005  -0.000000  -0.000000   0.000000   0.000000  -0.000000
    28  H   -0.000001  -0.000001   0.000000   0.000000   0.000000  -0.000000
    29  H    0.000016  -0.000000  -0.000000   0.000000   0.000000  -0.000000
    30  H   -0.000020  -0.000000   0.000000  -0.000000  -0.000000   0.000000
              13         14         15         16         17         18
     1  O   -0.000000   0.000000  -0.052553  -0.006106   0.001848  -0.051479
     2  S   -0.000000   0.000000   0.112178  -0.015007  -0.012807   0.450055
     3  N   -0.000000   0.000000  -0.056417   0.002480  -0.010837  -0.069581
     4  C    0.000005  -0.000370  -0.002873   0.000080  -0.000145   0.001425
     5  N   -0.000004   0.000296  -0.000191   0.000001   0.000062  -0.000014
     6  N    0.000251   0.001041   0.000012  -0.000000  -0.000004   0.000000
     7  C   -0.000093   0.006647   0.005049  -0.000263   0.000063  -0.000009
     8  N    0.004704  -0.062043  -0.000051   0.000001  -0.000002   0.000000
     9  C   -0.011310   0.510354  -0.000003  -0.000000   0.000000  -0.000000
    10  C   -0.041477  -0.070599   0.000001  -0.000000  -0.000000  -0.000000
    11  C   -0.025691  -0.041523   0.000000   0.000000  -0.000000  -0.000000
    12  C    0.538378  -0.039383  -0.000000   0.000000  -0.000000   0.000000
    13  C    4.888107   0.516143   0.000000   0.000000  -0.000000  -0.000000
    14  C    0.516143   5.009121  -0.000000   0.000000   0.000000   0.000000
    15  N    0.000000  -0.000000   7.280019   0.280974   0.279038  -0.061092
    16  C    0.000000   0.000000   0.280974   5.004040  -0.055209  -0.002794
    17  C   -0.000000   0.000000   0.279038  -0.055209   5.007403   0.000926
    18  O   -0.000000   0.000000  -0.061092  -0.002794   0.000926   8.352740
    19  H   -0.000007  -0.000091   0.001758  -0.000107   0.000024   0.000026
    20  H    0.000194   0.005505  -0.000001   0.000000  -0.000000  -0.000000
    21  H    0.004457   0.000709  -0.000000   0.000000  -0.000000  -0.000000
    22  H   -0.041530   0.004606  -0.000000   0.000000  -0.000000  -0.000000
    23  H    0.363098  -0.037718   0.000000  -0.000000   0.000000   0.000000
    24  H   -0.038770   0.356448  -0.000000   0.000000  -0.000000  -0.000000
    25  H   -0.000000   0.000000  -0.034018   0.373916   0.005361  -0.000364
    26  H   -0.000000  -0.000000  -0.036061   0.374884  -0.003039  -0.000096
    27  H    0.000000  -0.000000  -0.049425   0.363691  -0.004630   0.005357
    28  H    0.000000   0.000000  -0.033994   0.005377   0.371722  -0.001739
    29  H    0.000000  -0.000000  -0.048784  -0.004555   0.364070   0.007192
    30  H    0.000000   0.000000  -0.034905  -0.003980   0.375887   0.000019
              19         20         21         22         23         24
     1  O    0.008456  -0.000003  -0.000000   0.000000  -0.000000   0.000000
     2  S    0.003006  -0.000004   0.000000  -0.000000  -0.000000   0.000000
     3  N   -0.002476  -0.000001   0.000000  -0.000000   0.000000  -0.000000
     4  C   -0.032235   0.000027   0.000000  -0.000000  -0.000000   0.000043
     5  N    0.004286  -0.000007  -0.000000   0.000000   0.000000  -0.000343
     6  N    0.003944  -0.000102   0.000001   0.000000  -0.000008   0.014916
     7  C    0.361386   0.006277  -0.000004  -0.000000   0.000001   0.000171
     8  N   -0.037367  -0.008724  -0.000108   0.000003  -0.000102  -0.012434
     9  C   -0.000791  -0.038781   0.003440   0.000485   0.003540  -0.040869
    10  C    0.001980   0.354206  -0.037668   0.004772   0.000682   0.005660
    11  C    0.000123  -0.036746   0.362911  -0.041421   0.004477   0.000087
    12  C   -0.000001   0.004377  -0.040186   0.365305  -0.040466   0.004625
    13  C   -0.000007   0.000194   0.004457  -0.041530   0.363098  -0.038770
    14  C   -0.000091   0.005505   0.000709   0.004606  -0.037718   0.356448
    15  N    0.001758  -0.000001  -0.000000  -0.000000   0.000000  -0.000000
    16  C   -0.000107   0.000000   0.000000   0.000000  -0.000000   0.000000
    17  C    0.000024  -0.000000  -0.000000  -0.000000   0.000000  -0.000000
    18  O    0.000026  -0.000000  -0.000000  -0.000000   0.000000  -0.000000
    19  H    0.489395   0.001219  -0.000002  -0.000000   0.000000  -0.000013
    20  H    0.001219   0.546887  -0.005212  -0.000144   0.000013  -0.000128
    21  H   -0.000002  -0.005212   0.556288  -0.005078  -0.000167   0.000013
    22  H   -0.000000  -0.000144  -0.005078   0.561844  -0.005066  -0.000137
    23  H    0.000000   0.000013  -0.000167  -0.005066   0.556853  -0.005274
    24  H   -0.000013  -0.000128   0.000013  -0.000137  -0.005274   0.549040
    25  H    0.000210  -0.000000   0.000000   0.000000   0.000000  -0.000000
    26  H   -0.000009  -0.000000  -0.000000  -0.000000   0.000000  -0.000000
    27  H    0.000007  -0.000000  -0.000000  -0.000000   0.000000   0.000000
    28  H   -0.000011   0.000000  -0.000000   0.000000  -0.000000   0.000000
    29  H    0.000002  -0.000000  -0.000000  -0.000000   0.000000  -0.000000
    30  H   -0.000011   0.000000  -0.000000   0.000000  -0.000000  -0.000000
              25         26         27         28         29         30
     1  O    0.013654   0.000189  -0.000648   0.000059  -0.000035  -0.000056
     2  S   -0.003101   0.001397  -0.003268  -0.002084  -0.005374   0.002232
     3  N    0.000133  -0.000098  -0.000063   0.014995  -0.000333  -0.000026
     4  C    0.000011  -0.000010   0.000001   0.000158   0.000049  -0.000047
     5  N    0.000000  -0.000000  -0.000000  -0.000106  -0.000000  -0.000001
     6  N   -0.000000  -0.000000   0.000000   0.000007   0.000000   0.000000
     7  C   -0.000064   0.000037   0.000005  -0.000001   0.000016  -0.000020
     8  N    0.000000  -0.000000  -0.000000  -0.000001  -0.000000  -0.000000
     9  C    0.000000   0.000000  -0.000000   0.000000  -0.000000   0.000000
    10  C   -0.000000   0.000000   0.000000   0.000000   0.000000  -0.000000
    11  C   -0.000000  -0.000000   0.000000   0.000000   0.000000  -0.000000
    12  C   -0.000000  -0.000000  -0.000000  -0.000000  -0.000000   0.000000
    13  C   -0.000000  -0.000000   0.000000   0.000000   0.000000   0.000000
    14  C    0.000000  -0.000000  -0.000000   0.000000  -0.000000   0.000000
    15  N   -0.034018  -0.036061  -0.049425  -0.033994  -0.048784  -0.034905
    16  C    0.373916   0.374884   0.363691   0.005377  -0.004555  -0.003980
    17  C    0.005361  -0.003039  -0.004630   0.371722   0.364070   0.375887
    18  O   -0.000364  -0.000096   0.005357  -0.001739   0.007192   0.000019
    19  H    0.000210  -0.000009   0.000007  -0.000011   0.000002  -0.000011
    20  H   -0.000000  -0.000000  -0.000000   0.000000  -0.000000   0.000000
    21  H    0.000000  -0.000000  -0.000000  -0.000000  -0.000000  -0.000000
    22  H    0.000000  -0.000000  -0.000000   0.000000  -0.000000   0.000000
    23  H    0.000000   0.000000   0.000000  -0.000000   0.000000  -0.000000
    24  H   -0.000000  -0.000000   0.000000   0.000000  -0.000000  -0.000000
    25  H    0.524355  -0.023079  -0.033817  -0.000226  -0.000223  -0.000035
    26  H   -0.023079   0.554225  -0.039964   0.000003  -0.001797   0.005207
    27  H   -0.033817  -0.039964   0.605130  -0.000202   0.011577  -0.001509
    28  H   -0.000226   0.000003  -0.000202   0.529149  -0.033355  -0.023985
    29  H   -0.000223  -0.001797   0.011577  -0.033355   0.601182  -0.038289
    30  H   -0.000035   0.005207  -0.001509  -0.023985  -0.038289   0.550645
 Mulliken charges:
               1
     1  O   -0.657061
     2  S    1.244153
     3  N   -0.759282
     4  C    0.370490
     5  N   -0.424274
     6  N   -0.139105
     7  C    0.002867
     8  N   -0.357525
     9  C    0.318748
    10  C   -0.171349
    11  C   -0.156854
    12  C   -0.136355
    13  C   -0.156456
    14  C   -0.159146
    15  N   -0.548660
    16  C   -0.317424
    17  C   -0.319729
    18  O   -0.630572
    19  H    0.197297
    20  H    0.171150
    21  H    0.160606
    22  H    0.156361
    23  H    0.160135
    24  H    0.166965
    25  H    0.177287
    26  H    0.168208
    27  H    0.147757
    28  H    0.174234
    29  H    0.148658
    30  H    0.168875
 Sum of Mulliken charges =  -1.00000
 Mulliken charges with hydrogens summed into heavy atoms:
               1
     1  O   -0.657061
     2  S    1.244153
     3  N   -0.759282
     4  C    0.370490
     5  N   -0.424274
     6  N   -0.139105
     7  C    0.200164
     8  N   -0.357525
     9  C    0.318748
    10  C   -0.000200
    11  C    0.003752
    12  C    0.020006
    13  C    0.003679
    14  C    0.007819
    15  N   -0.548660
    16  C    0.175828
    17  C    0.172037
    18  O   -0.630572
 Electronic spatial extent (au):  <R**2>=           6290.7528
 Charge=             -1.0000 electrons
 Dipole moment (field-independent basis, Debye):
    X=             12.2425    Y=              9.1931    Z=              3.7001  Tot=             15.7506
 Quadrupole moment (field-independent basis, Debye-Ang):
   XX=           -135.2795   YY=           -126.3845   ZZ=           -117.3602
   XY=             -4.4352   XZ=            -17.3082   YZ=              2.5523
 Traceless Quadrupole moment (field-independent basis, Debye-Ang):
   XX=             -8.9381   YY=             -0.0431   ZZ=              8.9812
   XY=             -4.4352   XZ=            -17.3082   YZ=              2.5523
 Octapole moment (field-independent basis, Debye-Ang**2):
  XXX=            184.2208  YYY=             16.5836  ZZZ=             43.6063  XYY=            -20.3187
  XXY=             54.8860  XXZ=             72.2971  XZZ=             10.3456  YZZ=             -9.1922
  YYZ=             -3.3579  XYZ=            -18.3739
 Hexadecapole moment (field-independent basis, Debye-Ang**3):
 XXXX=          -6613.6836 YYYY=          -1148.5442 ZZZZ=           -692.5613 XXXY=            110.7134
 XXXZ=           -168.6656 YYYX=             54.9417 YYYZ=             93.1425 ZZZX=            -98.2128
 ZZZY=             76.8392 XXYY=          -1275.9068 XXZZ=          -1220.9182 YYZZ=           -288.2978
 XXYZ=            -30.8116 YYXZ=            -53.2584 ZZXY=             39.3804
 N-N= 1.450920708950D+03 E-N=-5.759556193669D+03  KE= 1.201641063505D+03
 No NMR shielding tensors so no spin-rotation constants.
 Leave Link  601 at Thu Sep 24 16:21:59 2020, MaxMem=  2147483648 cpu:               0.4 elap:               0.1
 (Enter /prod/apps/gaussian/g16b1/l701.exe)
 ... and contract with generalized density number  0.
 Compute integral first derivatives.
 D1PCM: PCM CHGder 1st derivatives, ID1Alg=3 FixD1E=F DoIter=F DoCFld=F I1PDM=0.
 GePol: Maximum number of non-zero 1st derivatives   =     165
 Leave Link  701 at Thu Sep 24 16:22:01 2020, MaxMem=  2147483648 cpu:               8.3 elap:               2.1
 (Enter /prod/apps/gaussian/g16b1/l702.exe)
 L702 exits ... SP integral derivatives will be done elsewhere.
 Leave Link  702 at Thu Sep 24 16:22:01 2020, MaxMem=  2147483648 cpu:               0.1 elap:               0.0
 (Enter /prod/apps/gaussian/g16b1/l703.exe)
 Integral derivatives from FoFJK, PRISM(SPDF).
 Compute integral first derivatives, UseDBF=F ICtDFT=           0.
 Calling FoFJK, ICntrl=      2127 FMM=F ISym2X=0 I1Cent= 0 IOpClX= 0 NMat=1 NMatS=1 NMatT=0.
 FoFJK:  IHMeth= 1 ICntrl=    2127 DoSepK=F KAlg= 0 I1Cent=           0 FoldK=F
 IRaf=         0 NMat=       1 IRICut=       1 DoRegI=T DoRafI=F ISym2E= 0 IDoP0=0 IntGTp=1.
 FoFCou: FMM=F IPFlag=           0 FMFlag=      100000 FMFlg1=         800
         NFxFlg=           0 DoJE=F BraDBF=F KetDBF=F FulRan=T
         wScrn=  0.000000 ICntrl=      2127 IOpCl=  0 I1Cent=           0 NGrid=           0
         NMat0=    1 NMatS0=      1 NMatT0=    0 NMatD0=    1 NMtDS0=    0 NMtDT0=    0
 Symmetry not used in FoFCou.
 Leave Link  703 at Thu Sep 24 16:22:15 2020, MaxMem=  2147483648 cpu:              56.2 elap:              14.1
 (Enter /prod/apps/gaussian/g16b1/l716.exe)
 Dipole        = 4.81657989D+00 3.61683016D+00 1.45572730D+00
 -------------------------------------------------------------------
 Center     Atomic                   Forces (Hartrees/Bohr)
 Number     Number              X              Y              Z
 -------------------------------------------------------------------
      1        8          -0.000436827   -0.000426790    0.002059764
      2       16          -0.001369703    0.003316357   -0.000956093
      3        7           0.000002296   -0.001125152    0.000347544
      4        6           0.001076981    0.000649860   -0.000084694
      5        7           0.000139429    0.000433546   -0.000125619
      6        7          -0.000042731    0.000496566   -0.000139027
      7        6          -0.000187006    0.000229311   -0.000061380
      8        7          -0.000478791   -0.000278856   -0.000008569
      9        6           0.000049988    0.000356645   -0.000498944
     10        6           0.000058448    0.000148147   -0.000015847
     11        6          -0.000122217    0.000279608   -0.000548945
     12        6           0.000554263   -0.000092076    0.000501902
     13        6           0.000517547    0.000066000    0.000001014
     14        6           0.000333034   -0.000528576    0.000968745
     15        7          -0.000562424   -0.000764866   -0.000042225
     16        6           0.000395602    0.000281977   -0.000292986
     17        6          -0.000313668    0.000594498    0.000221431
     18        8           0.001615952   -0.000021434    0.000270724
     19        1           0.000293717   -0.000790643    0.000028542
     20        1           0.000072207   -0.000272374    0.000850215
     21        1          -0.000225314   -0.000614315    0.000689582
     22        1          -0.001172972   -0.000418453    0.000002982
     23        1          -0.000917465    0.000294354   -0.000863496
     24        1          -0.000127600    0.000545544   -0.000902472
     25        1          -0.000403447   -0.001248614    0.000743761
     26        1          -0.000257473   -0.001025426   -0.000653622
     27        1           0.000778150   -0.000059469    0.000110310
     28        1          -0.000032787    0.000479885   -0.000564777
     29        1           0.000970060    0.000063646    0.000062763
     30        1          -0.000207251   -0.000568897   -0.001100585
 -------------------------------------------------------------------
 Cartesian Forces:  Max     0.003316357 RMS     0.000698710
 Leave Link  716 at Thu Sep 24 16:22:15 2020, MaxMem=  2147483648 cpu:               0.1 elap:               0.0
 (Enter /prod/apps/gaussian/g16b1/l103.exe)

 GradGradGradGradGradGradGradGradGradGradGradGradGradGradGradGradGradGrad
 Berny optimization.
 FormGI is forming the generalized inverse of G from B-inverse, IUseBI=4.
 Internal  Forces:  Max     0.002604762 RMS     0.000629140
 Search for a local minimum.
 Step number   1 out of a maximum of  156
 All quantities printed in internal units (Hartrees-Bohrs-Radians)
 RMS Force = .62914D-03 SwitMx=.10000D-02 MixMth= 2
 Mixed Optimization -- En-DIIS/RFO-DIIS
 Second derivative matrix not updated -- first step.
 ITU=  0
     Eigenvalues ---    0.00763   0.00770   0.00887   0.01391   0.01812
     Eigenvalues ---    0.01891   0.01904   0.02087   0.02110   0.02116
     Eigenvalues ---    0.02124   0.02129   0.02130   0.02136   0.02139
     Eigenvalues ---    0.02142   0.02145   0.02146   0.02181   0.02339
     Eigenvalues ---    0.02780   0.07144   0.07160   0.07632   0.07651
     Eigenvalues ---    0.11320   0.11948   0.15982   0.15997   0.15999
     Eigenvalues ---    0.15999   0.16000   0.16000   0.16000   0.16000
     Eigenvalues ---    0.16000   0.16000   0.16000   0.16000   0.16367
     Eigenvalues ---    0.17881   0.18219   0.21127   0.21999   0.22000
     Eigenvalues ---    0.23490   0.23790   0.24997   0.25000   0.25000
     Eigenvalues ---    0.25000   0.25000   0.25000   0.32409   0.33572
     Eigenvalues ---    0.33599   0.34250   0.34254   0.34741   0.34757
     Eigenvalues ---    0.35209   0.35233   0.35295   0.35426   0.35516
     Eigenvalues ---    0.35715   0.35774   0.36542   0.41885   0.42011
     Eigenvalues ---    0.42053   0.44204   0.45763   0.45899   0.45961
     Eigenvalues ---    0.46228   0.46481   0.48389   0.50674   0.53509
     Eigenvalues ---    0.53650   0.61150   0.80578   0.81476
 RFO step:  Lambda=-2.52304095D-04 EMin= 7.62984703D-03
 Linear search not attempted -- first point.
 Iteration  1 RMS(Cart)=  0.02897469 RMS(Int)=  0.00019795
 Iteration  2 RMS(Cart)=  0.00032840 RMS(Int)=  0.00000299
 Iteration  3 RMS(Cart)=  0.00000003 RMS(Int)=  0.00000299
 ITry= 1 IFail=0 DXMaxC= 9.96D-02 DCOld= 1.00D+10 DXMaxT= 3.00D-01 DXLimC= 3.00D+00 Rises=F
 Variable       Old X    -DE/DX   Delta X   Delta X   Delta X     New X
                                 (Linear)    (Quad)   (Total)
    R1        2.81306  -0.00200   0.00000  -0.00249  -0.00249   2.81057
    R2        3.00051   0.00048   0.00000   0.00090   0.00090   3.00142
    R3        3.27101  -0.00260   0.00000  -0.00803  -0.00803   3.26298
    R4        2.80830  -0.00157   0.00000  -0.00192  -0.00192   2.80637
    R5        2.61527  -0.00017   0.00000  -0.00036  -0.00036   2.61491
    R6        2.60050  -0.00039   0.00000  -0.00072  -0.00072   2.59978
    R7        2.62918  -0.00103   0.00000  -0.00221  -0.00221   2.62698
    R8        2.48173  -0.00040   0.00000  -0.00059  -0.00059   2.48115
    R9        2.54904  -0.00069   0.00000  -0.00126  -0.00126   2.54777
   R10        2.58115  -0.00100   0.00000  -0.00200  -0.00200   2.57915
   R11        2.03243  -0.00076   0.00000  -0.00207  -0.00207   2.03036
   R12        2.68856  -0.00102   0.00000  -0.00243  -0.00243   2.68613
   R13        2.64291  -0.00118   0.00000  -0.00260  -0.00260   2.64031
   R14        2.64343  -0.00046   0.00000  -0.00102  -0.00102   2.64241
   R15        2.63669  -0.00083   0.00000  -0.00181  -0.00181   2.63488
   R16        2.04988  -0.00070   0.00000  -0.00197  -0.00197   2.04791
   R17        2.63848  -0.00026   0.00000  -0.00056  -0.00056   2.63792
   R18        2.05198  -0.00095   0.00000  -0.00270  -0.00270   2.04928
   R19        2.64188  -0.00073   0.00000  -0.00156  -0.00156   2.64031
   R20        2.05298  -0.00124   0.00000  -0.00352  -0.00352   2.04946
   R21        2.63528  -0.00061   0.00000  -0.00128  -0.00128   2.63400
   R22        2.05336  -0.00129   0.00000  -0.00367  -0.00367   2.04969
   R23        2.04845  -0.00098   0.00000  -0.00276  -0.00276   2.04569
   R24        2.77737  -0.00197   0.00000  -0.00551  -0.00551   2.77186
   R25        2.77830  -0.00153   0.00000  -0.00429  -0.00429   2.77401
   R26        2.06071  -0.00116   0.00000  -0.00333  -0.00333   2.05738
   R27        2.06909  -0.00120   0.00000  -0.00350  -0.00350   2.06559
   R28        2.08058  -0.00079   0.00000  -0.00235  -0.00235   2.07823
   R29        2.06097  -0.00059   0.00000  -0.00170  -0.00170   2.05927
   R30        2.08012  -0.00097   0.00000  -0.00290  -0.00290   2.07722
   R31        2.06904  -0.00120   0.00000  -0.00351  -0.00351   2.06553
    A1        2.01781   0.00007   0.00000  -0.00101  -0.00102   2.01679
    A2        1.80222  -0.00109   0.00000  -0.00596  -0.00597   1.79625
    A3        2.00532   0.00050   0.00000   0.00346   0.00346   2.00879
    A4        1.84670   0.00019   0.00000  -0.00009  -0.00009   1.84661
    A5        1.87835  -0.00030   0.00000  -0.00032  -0.00033   1.87803
    A6        1.90313   0.00065   0.00000   0.00384   0.00384   1.90698
    A7        2.06732  -0.00201   0.00000  -0.00803  -0.00803   2.05929
    A8        2.06455   0.00024   0.00000   0.00094   0.00093   2.06548
    A9        2.34756  -0.00047   0.00000  -0.00189  -0.00189   2.34567
   A10        1.87107   0.00022   0.00000   0.00095   0.00095   1.87202
   A11        1.91523  -0.00016   0.00000  -0.00036  -0.00036   1.91487
   A12        1.87722  -0.00033   0.00000  -0.00125  -0.00125   1.87597
   A13        1.82948  -0.00021   0.00000  -0.00111  -0.00111   1.82837
   A14        2.30802   0.00031   0.00000   0.00189   0.00189   2.30990
   A15        2.14508  -0.00009   0.00000  -0.00059  -0.00059   2.14448
   A16        1.93173   0.00048   0.00000   0.00174   0.00174   1.93347
   A17        2.10686   0.00016   0.00000   0.00072   0.00072   2.10759
   A18        2.24448  -0.00064   0.00000  -0.00249  -0.00250   2.24199
   A19        2.09183  -0.00063   0.00000  -0.00251  -0.00251   2.08932
   A20        2.08597   0.00012   0.00000   0.00050   0.00050   2.08647
   A21        2.10538   0.00051   0.00000   0.00202   0.00202   2.10740
   A22        2.08356  -0.00005   0.00000  -0.00030  -0.00030   2.08327
   A23        2.10022  -0.00049   0.00000  -0.00307  -0.00307   2.09715
   A24        2.09926   0.00055   0.00000   0.00343   0.00343   2.10269
   A25        2.10284  -0.00022   0.00000  -0.00099  -0.00099   2.10185
   A26        2.08194   0.00008   0.00000   0.00033   0.00033   2.08227
   A27        2.09834   0.00014   0.00000   0.00068   0.00068   2.09901
[...]
 Alpha virt. eigenvalues --    1.64120   1.65083   1.65887   1.67107   1.67645
 Alpha virt. eigenvalues --    1.67986   1.68511   1.69131   1.70081   1.70663
 Alpha virt. eigenvalues --    1.71077   1.72201   1.72514   1.73269   1.74425
 Alpha virt. eigenvalues --    1.74905   1.75418   1.77714   1.78222   1.79667
 Alpha virt. eigenvalues --    1.80049   1.80424   1.81603   1.81819   1.82077
 Alpha virt. eigenvalues --    1.83221   1.84923   1.85421   1.86068   1.86451
 Alpha virt. eigenvalues --    1.88422   1.88655   1.90058   1.90655   1.92814
 Alpha virt. eigenvalues --    1.92890   1.94393   1.95063   1.96538   1.97118
 Alpha virt. eigenvalues --    1.97480   1.99429   1.99897   2.00732   2.01761
 Alpha virt. eigenvalues --    2.02283   2.02660   2.03423   2.04284   2.05359
 Alpha virt. eigenvalues --    2.06177   2.06706   2.07223   2.08217   2.08442
 Alpha virt. eigenvalues --    2.10335   2.11573   2.13155   2.13258   2.14963
 Alpha virt. eigenvalues --    2.15939   2.18076   2.18327   2.19027   2.20033
 Alpha virt. eigenvalues --    2.21152   2.21452   2.23355   2.24041   2.27216
 Alpha virt. eigenvalues --    2.28527   2.28648   2.28938   2.30376   2.31464
 Alpha virt. eigenvalues --    2.31632   2.32118   2.33220   2.33775   2.34810
 Alpha virt. eigenvalues --    2.35726   2.36397   2.36722   2.37817   2.38938
 Alpha virt. eigenvalues --    2.40126   2.41410   2.41674   2.42727   2.42884
 Alpha virt. eigenvalues --    2.44297   2.44921   2.46226   2.46751   2.47511
 Alpha virt. eigenvalues --    2.48042   2.50116   2.51632   2.52887   2.53902
 Alpha virt. eigenvalues --    2.54503   2.56614   2.57729   2.58253   2.60753
 Alpha virt. eigenvalues --    2.61437   2.62136   2.62630   2.64158   2.66078
 Alpha virt. eigenvalues --    2.68718   2.70614   2.71433   2.71680   2.72892
 Alpha virt. eigenvalues --    2.74717   2.75437   2.77714   2.79792   2.81871
 Alpha virt. eigenvalues --    2.84388   2.84696   2.85275   2.86244   2.88926
 Alpha virt. eigenvalues --    2.90187   2.90403   2.92799   2.94538   2.95164
 Alpha virt. eigenvalues --    2.96432   2.99711   3.00608   3.01213   3.02191
 Alpha virt. eigenvalues --    3.03434   3.05803   3.06380   3.07911   3.08258
 Alpha virt. eigenvalues --    3.09791   3.12331   3.14316   3.16193   3.17225
 Alpha virt. eigenvalues --    3.18598   3.21731   3.22969   3.23736   3.24053
 Alpha virt. eigenvalues --    3.24239   3.25189   3.26438   3.30318   3.33451
 Alpha virt. eigenvalues --    3.34892   3.36878   3.38287   3.43052   3.43973
 Alpha virt. eigenvalues --    3.47835   3.50058   3.52484   3.56010   3.59604
 Alpha virt. eigenvalues --    3.64572   3.66420   3.72145   3.72910   3.77327
 Alpha virt. eigenvalues --    3.86275   3.86561   3.94882   3.95247   3.96681
 Alpha virt. eigenvalues --    3.99670   4.01335   4.02361   4.04293   4.05277
 Alpha virt. eigenvalues --    4.07366   4.13172   4.19281   4.41451   4.47319
 Alpha virt. eigenvalues --    4.97621
          Condensed to atoms (all electrons):
               1          2          3          4          5          6
     1  O    9.524932  -0.546896   0.002790   0.357465  -0.020130   0.002289
     2  S   -0.546896  15.496247  -0.053092  -1.464506   0.142835  -0.127014
     3  N    0.002790  -0.053092   8.717902  -0.833158   0.099183  -0.177824
     4  C    0.357465  -1.464506  -0.833158  12.494756  -0.861699   0.883381
     5  N   -0.020130   0.142835   0.099183  -0.861699   8.785491  -0.846092
     6  N    0.002289  -0.127014  -0.177824   0.883381  -0.846092   9.397321
     7  C   -0.223152   0.793018   0.713813  -6.244257   0.939308  -1.400126
     8  N    0.033407  -0.088141  -0.136064   0.102268  -0.202479  -0.522472
     9  C    0.005394  -0.135381  -0.084439   0.953201  -0.256474   0.008748
    10  C   -0.012902   0.060969   0.033878  -0.491166   0.130857  -0.210436
    11  C   -0.000597   0.016850   0.002042  -0.023044   0.017534  -0.015556
    12  C   -0.000330   0.001300   0.000588  -0.019651  -0.000660   0.022251
    13  C    0.000267  -0.006900  -0.003658   0.058510  -0.037360  -0.009461
    14  C    0.002779  -0.036607  -0.001805   0.060476  -0.071303   0.588665
    15  N    0.078974  -0.279988  -0.047386   0.346627  -0.018275   0.014960
    16  C    0.010945  -0.065403  -0.004853   0.057266  -0.011311  -0.000466
    17  C    0.039496  -0.228935   0.068464   0.011671   0.011829  -0.005827
    18  O    0.018628  -0.500085  -0.002130   0.161256  -0.006090   0.003068
    19  H   -0.000613   0.027097  -0.125316   0.003591  -0.075628  -0.119836
    20  H   -0.003092  -0.011941   0.005657  -0.026129   0.004533  -0.020153
    21  H    0.000100   0.000187  -0.000120   0.003996  -0.000810   0.001286
    22  H   -0.000013  -0.000067   0.000046  -0.000948   0.000360   0.002633
    23  H   -0.000010  -0.000011  -0.000080  -0.000206   0.000342  -0.002404
    24  H    0.000047  -0.002193  -0.000897   0.024419  -0.015781   0.012280
    25  H   -0.022916   0.040081  -0.000158  -0.014385  -0.000264  -0.000098
    26  H   -0.002582   0.055144  -0.001732  -0.029115   0.000663  -0.000627
    27  H    0.012963  -0.071410   0.000606   0.027551  -0.000399   0.000302
    28  H    0.008207  -0.063847   0.002790  -0.003986  -0.009802  -0.000721
    29  H   -0.001295  -0.000980   0.004468   0.024329  -0.002786  -0.000898
    30  H   -0.002752   0.014587   0.002836  -0.011874   0.003077   0.000841
               7          8          9         10         11         12
     1  O   -0.223152   0.033407   0.005394  -0.012902  -0.000597  -0.000330
     2  S    0.793018  -0.088141  -0.135381   0.060969   0.016850   0.001300
     3  N    0.713813  -0.136064  -0.084439   0.033878   0.002042   0.000588
     4  C   -6.244257   0.102268   0.953201  -0.491166  -0.023044  -0.019651
     5  N    0.939308  -0.202479  -0.256474   0.130857   0.017534  -0.000660
     6  N   -1.400126  -0.522472   0.008748  -0.210436  -0.015556   0.022251
     7  C   13.818943  -0.087179  -2.423813   0.715540  -0.140560  -0.067864
     8  N   -0.087179   9.476412  -0.662167   0.582830  -0.280556   0.265900
     9  C   -2.423813  -0.662167  14.226998  -5.377218   2.564572  -3.380117
    10  C    0.715540   0.582830  -5.377218  12.702347  -3.886559   2.945311
    11  C   -0.140560  -0.280556   2.564572  -3.886559  10.800496  -2.984819
    12  C   -0.067864   0.265900  -3.380117   2.945311  -2.984819   9.023545
    13  C    0.144112  -0.181005   2.703865  -3.265906   2.918399  -2.920143
    14  C   -0.588620  -0.369536  -4.444071   2.177262  -3.200635   2.858113
    15  N   -0.345511   0.044282   0.035558  -0.014200  -0.000404  -0.000317
    16  C   -0.091849   0.013443   0.014262  -0.009259  -0.000506  -0.000151
    17  C    0.006699  -0.004672  -0.015046   0.000206   0.000642  -0.000529
    18  O   -0.056245   0.009824   0.005934  -0.002172  -0.000256  -0.000003
    19  H   -0.705675   0.110413   0.296818  -0.032585   0.093184  -0.003954
    20  H    0.106879  -0.189601   0.715091  -0.936239   0.125210  -0.163339
    21  H    0.013724   0.001250  -0.128656   0.718778  -0.840412   0.302059
    22  H   -0.003540  -0.002524   0.106228  -0.153385   0.362564  -0.664596
    23  H    0.002978  -0.002020  -0.099953   0.116942  -0.216614   0.283541
    24  H   -0.025341  -0.194449   0.696160  -0.119582   0.109098  -0.169240
    25  H    0.015938   0.000096   0.002304  -0.001252  -0.000823   0.000097
    26  H    0.008958   0.001217   0.000466   0.000670   0.000238   0.000068
    27  H   -0.014256  -0.000275   0.000147  -0.000076   0.000022  -0.000039
    28  H   -0.004123   0.008495   0.001398  -0.004372   0.000351  -0.000387
    29  H   -0.023904   0.000714   0.000124   0.000059  -0.000021   0.000021
    30  H    0.011904  -0.003130  -0.001923   0.000076   0.000020  -0.000050
              13         14         15         16         17         18
     1  O    0.000267   0.002779   0.078974   0.010945   0.039496   0.018628
     2  S   -0.006900  -0.036607  -0.279988  -0.065403  -0.228935  -0.500085
     3  N   -0.003658  -0.001805  -0.047386  -0.004853   0.068464  -0.002130
     4  C    0.058510   0.060476   0.346627   0.057266   0.011671   0.161256
     5  N   -0.037360  -0.071303  -0.018275  -0.011311   0.011829  -0.006090
     6  N   -0.009461   0.588665   0.014960  -0.000466  -0.005827   0.003068
     7  C    0.144112  -0.588620  -0.345511  -0.091849   0.006699  -0.056245
     8  N   -0.181005  -0.369536   0.044282   0.013443  -0.004672   0.009824
     9  C    2.703865  -4.444071   0.035558   0.014262  -0.015046   0.005934
    10  C   -3.265906   2.177262  -0.014200  -0.009259   0.000206  -0.002172
    11  C    2.918399  -3.200635  -0.000404  -0.000506   0.000642  -0.000256
    12  C   -2.920143   2.858113  -0.000317  -0.000151  -0.000529  -0.000003
    13  C   10.098535  -3.905975   0.000418   0.000257   0.000669   0.000075
    14  C   -3.905975  12.748271  -0.003036  -0.001691  -0.002017   0.000944
    15  N    0.000418  -0.003036   8.043671   0.097592   0.193955   0.090539
    16  C    0.000257  -0.001691   0.097592   4.368012  -0.182649   0.017948
    17  C    0.000669  -0.002017   0.193955  -0.182649   4.302882   0.045999
    18  O    0.000075   0.000944   0.090539   0.017948   0.045999   9.428365
    19  H   -0.011440  -0.151213  -0.018789  -0.032815  -0.008724   0.003717
    20  H    0.118300  -0.076494   0.001372   0.000933  -0.000342  -0.000428
    21  H   -0.220599   0.099596   0.000097   0.000003   0.000058   0.000001
    22  H    0.397908  -0.113671  -0.000012  -0.000006  -0.000025   0.000001
    23  H   -0.759500   0.628060  -0.000017   0.000002   0.000024  -0.000001
    24  H    0.373551  -0.973868   0.000560   0.000076  -0.000282   0.000086
    25  H   -0.000131   0.001143  -0.035285   0.501302  -0.071877  -0.003979
    26  H   -0.000114  -0.000309  -0.230110   0.386211   0.040340  -0.009410
    27  H    0.000054  -0.000113   0.178444   0.158654   0.045911   0.021834
    28  H    0.000668  -0.001419   0.011449  -0.069272   0.435867   0.035410
    29  H   -0.000041  -0.000035   0.079757   0.054793   0.217108  -0.014809
    30  H    0.000118   0.000329  -0.154613   0.033852   0.373156  -0.006137
              19         20         21         22         23         24
     1  O   -0.000613  -0.003092   0.000100  -0.000013  -0.000010   0.000047
     2  S    0.027097  -0.011941   0.000187  -0.000067  -0.000011  -0.002193
     3  N   -0.125316   0.005657  -0.000120   0.000046  -0.000080  -0.000897
     4  C    0.003591  -0.026129   0.003996  -0.000948  -0.000206   0.024419
     5  N   -0.075628   0.004533  -0.000810   0.000360   0.000342  -0.015781
     6  N   -0.119836  -0.020153   0.001286   0.002633  -0.002404   0.012280
     7  C   -0.705675   0.106879   0.013724  -0.003540   0.002978  -0.025341
     8  N    0.110413  -0.189601   0.001250  -0.002524  -0.002020  -0.194449
     9  C    0.296818   0.715091  -0.128656   0.106228  -0.099953   0.696160
    10  C   -0.032585  -0.936239   0.718778  -0.153385   0.116942  -0.119582
    11  C    0.093184   0.125210  -0.840412   0.362564  -0.216614   0.109098
    12  C   -0.003954  -0.163339   0.302059  -0.664596   0.283541  -0.169240
    13  C   -0.011440   0.118300  -0.220599   0.397908  -0.759500   0.373551
    14  C   -0.151213  -0.076494   0.099596  -0.113671   0.628060  -0.973868
    15  N   -0.018789   0.001372   0.000097  -0.000012  -0.000017   0.000560
    16  C   -0.032815   0.000933   0.000003  -0.000006   0.000002   0.000076
    17  C   -0.008724  -0.000342   0.000058  -0.000025   0.000024  -0.000282
    18  O    0.003717  -0.000428   0.000001   0.000001  -0.000001   0.000086
    19  H    2.630162  -0.198224   0.003402   0.000246   0.000489  -0.005368
    20  H   -0.198224   2.293959  -0.091094  -0.015316   0.009784  -0.015696
    21  H    0.003402  -0.091094   1.663595  -0.050878  -0.018184   0.008853
    22  H    0.000246  -0.015316  -0.050878   1.664767  -0.057010  -0.010757
    23  H    0.000489   0.009784  -0.018184  -0.057010   1.654051  -0.083807
    24  H   -0.005368  -0.015696   0.008853  -0.010757  -0.083807   1.926618
    25  H   -0.009009   0.000910   0.000007   0.000003  -0.000005   0.000069
    26  H   -0.001203   0.000131  -0.000019   0.000004  -0.000000  -0.000012
    27  H   -0.000270   0.000011   0.000004  -0.000001   0.000002  -0.000007
    28  H    0.011999  -0.001630   0.000062  -0.000025   0.000028  -0.000240
    29  H   -0.004643   0.000200  -0.000009   0.000001  -0.000002   0.000044
    30  H   -0.004010   0.000303   0.000001   0.000002   0.000003  -0.000068
              25         26         27         28         29         30
     1  O   -0.022916  -0.002582   0.012963   0.008207  -0.001295  -0.002752
     2  S    0.040081   0.055144  -0.071410  -0.063847  -0.000980   0.014587
     3  N   -0.000158  -0.001732   0.000606   0.002790   0.004468   0.002836
     4  C   -0.014385  -0.029115   0.027551  -0.003986   0.024329  -0.011874
     5  N   -0.000264   0.000663  -0.000399  -0.009802  -0.002786   0.003077
     6  N   -0.000098  -0.000627   0.000302  -0.000721  -0.000898   0.000841
     7  C    0.015938   0.008958  -0.014256  -0.004123  -0.023904   0.011904
     8  N    0.000096   0.001217  -0.000275   0.008495   0.000714  -0.003130
     9  C    0.002304   0.000466   0.000147   0.001398   0.000124  -0.001923
    10  C   -0.001252   0.000670  -0.000076  -0.004372   0.000059   0.000076
    11  C   -0.000823   0.000238   0.000022   0.000351  -0.000021   0.000020
    12  C    0.000097   0.000068  -0.000039  -0.000387   0.000021  -0.000050
    13  C   -0.000131  -0.000114   0.000054   0.000668  -0.000041   0.000118
    14  C    0.001143  -0.000309  -0.000113  -0.001419  -0.000035   0.000329
    15  N   -0.035285  -0.230110   0.178444   0.011449   0.079757  -0.154613
    16  C    0.501302   0.386211   0.158654  -0.069272   0.054793   0.033852
    17  C   -0.071877   0.040340   0.045911   0.435867   0.217108   0.373156
    18  O   -0.003979  -0.009410   0.021834   0.035410  -0.014809  -0.006137
    19  H   -0.009009  -0.001203  -0.000270   0.011999  -0.004643  -0.004010
    20  H    0.000910   0.000131   0.000011  -0.001630   0.000200   0.000303
    21  H    0.000007  -0.000019   0.000004   0.000062  -0.000009   0.000001
    22  H    0.000003   0.000004  -0.000001  -0.000025   0.000001   0.000002
    23  H   -0.000005  -0.000000   0.000002   0.000028  -0.000002   0.000003
    24  H    0.000069  -0.000012  -0.000007  -0.000240   0.000044  -0.000068
    25  H    1.265477  -0.308322  -0.195905  -0.010020   0.000424   0.007061
    26  H   -0.308322   1.435072  -0.175384   0.007846  -0.006732   0.008474
    27  H   -0.195905  -0.175384   1.074904  -0.000061  -0.001949  -0.003808
    28  H   -0.010020   0.007846  -0.000061   1.369560  -0.224680  -0.341063
    29  H    0.000424  -0.006732  -0.001949  -0.224680   1.082781  -0.137244
    30  H    0.007061   0.008474  -0.003808  -0.341063  -0.137244   1.391431
 Mulliken charges:
               1
     1  O   -1.261403
     2  S    3.035082
     3  N   -1.182352
     4  C    0.453362
     5  N   -0.698669
     6  N   -0.478014
     7  C    1.154199
     8  N   -0.724282
     9  C    0.671990
    10  C    0.331583
    11  C    0.580139
    12  C    0.673395
    13  C    0.506527
    14  C    0.776779
    15  N   -1.070312
    16  C    0.754681
    17  C    0.725948
    18  O   -1.241880
    19  H   -0.671803
    20  H   -0.633555
    21  H   -0.466280
    22  H   -0.461987
    23  H   -0.456424
    24  H   -0.534274
    25  H   -0.160484
    26  H   -0.179830
    27  H   -0.057459
    28  H   -0.158482
    29  H   -0.044793
    30  H   -0.181400
 Sum of Mulliken charges =  -1.00000
 Mulliken charges with hydrogens summed into heavy atoms:
               1
     1  O   -1.261403
     2  S    3.035082
     3  N   -1.182352
     4  C    0.453362
     5  N   -0.698669
     6  N   -0.478014
     7  C    0.482396
     8  N   -0.724282
     9  C    0.671990
    10  C   -0.301972
    11  C    0.113859
    12  C    0.211408
    13  C    0.050103
    14  C    0.242505
    15  N   -1.070312
    16  C    0.356908
    17  C    0.341273
    18  O   -1.241880
 Electronic spatial extent (au):  <R**2>=           6282.8214
 Charge=             -1.0000 electrons
 Dipole moment (field-independent basis, Debye):
    X=              9.4122    Y=              5.7002    Z=              4.8106  Tot=             12.0093
 Quadrupole moment (field-independent basis, Debye-Ang):
   XX=           -156.4992   YY=           -132.7369   ZZ=           -124.5881
   XY=             -1.7612   XZ=            -14.9423   YZ=             -2.1866
 Traceless Quadrupole moment (field-independent basis, Debye-Ang):
   XX=            -18.5578   YY=              5.2045   ZZ=             13.3533
   XY=             -1.7612   XZ=            -14.9423   YZ=             -2.1866
 Octapole moment (field-independent basis, Debye-Ang**2):
  XXX=            120.4912  YYY=             52.4883  ZZZ=              5.4262  XYY=              1.7180
  XXY=             24.5358  XXZ=             69.1752  XZZ=             -3.6903  YZZ=             -5.8958
  YYZ=              0.9691  XYZ=            -14.2619
 Hexadecapole moment (field-independent basis, Debye-Ang**3):
 XXXX=          -7481.1387 YYYY=          -1285.9286 ZZZZ=           -668.3978 XXXY=            -66.5877
 XXXZ=            -79.5256 YYYX=              2.9592 YYYZ=            -25.8423 ZZZX=            -11.1868
 ZZZY=              3.1479 XXYY=          -1361.1011 XXZZ=          -1364.1595 YYZZ=           -310.3978
 XXYZ=            -62.3885 YYXZ=            -26.1172 ZZXY=             -6.6191
 N-N= 1.453318910814D+03 E-N=-5.760737940057D+03  KE= 1.203629152605D+03
 Leave Link  601 at Thu Sep 24 17:46:05 2020, MaxMem=   262144000 cpu:               0.5 elap:               0.2
 (Enter /prod/apps/gaussian/g16b1/l9999.exe)
 1\1\GINC-PIRINEUS25\SP\RMP2-FC\Aug-CC-pVDZ\C10H12N5O2S1(1-)\UBAFAR01\2
 4-Sep-2020\0\\#p mp2/aug-cc-pVDZ scf=(MaxCycle=2000,NoVarAcc,NoIncFock
 ) maxdisk=120GB geom=allcheck\\SM46_m1.a.9.pdb.xyz\\-1,1\O,0,-2.060278
 2933,0.7212860348,-1.870717778\S,0,-2.7093935573,0.0517734289,-0.71230
 37909\N,0,-1.9293224806,-1.2033157349,-0.123165214\C,0,-0.5591388517,-
 1.0896101603,0.040432844\N,0,0.1059357495,-2.0890175957,0.7126424836\N
 ,0,1.38873596,-1.8138734352,0.7569894525\C,0,0.389819721,-0.1504259633
 ,-0.3457743763\N,0,1.5751127745,-0.6372767031,0.1258264984\C,0,2.87433
 28402,-0.0726964875,0.0084599682\C,0,3.1308170076,0.8789762671,-0.9824
 856096\C,0,4.405616774,1.4343281287,-1.0854335833\C,0,5.4230218388,1.0
 370530994,-0.2163005125\C,0,5.1572664736,0.0798606035,0.7662190282\C,0
 ,3.8844918558,-0.4743788348,0.889025847\N,0,-2.6538985499,1.2566287497
 ,0.5195009005\C,0,-3.1109871573,2.5762525164,0.0672328611\C,0,-3.31158
 40613,0.8431267935,1.7645704048\O,0,-4.1184513036,-0.36056113,-0.93176
 19349\H,0,0.3031573925,0.7775579551,-0.8796596424\H,0,2.3482965169,1.1
 737044377,-1.6713917773\H,0,4.601643374,2.1732313128,-1.8545419727\H,0
 ,6.4138815066,1.4694840893,-0.3029207769\H,0,5.940342233,-0.2324219654
 ,1.4489277982\H,0,3.6636255475,-1.2070459294,1.6541433372\H,0,-2.58277
 26116,2.8477383743,-0.8449497795\H,0,-2.872276934,3.3023749695,0.84873
 2803\H,0,-4.1947671311,2.6089238711,-0.1177868812\H,0,-2.9422616801,-0
 .1378078637,2.0631426182\H,0,-4.4060159632,0.8030241116,1.6703831587\H
 ,0,-3.0539489907,1.5681070599,2.5409636261\\Version=ES64L-G16RevB.01\S
 tate=1-A\HF=-1205.1536265\MP2=-1207.9798317\RMSD=6.047e-09\PG=C01 [X(C
 10H12N5O2S1)]\\@


 POCKETA-POCKETA
 BARON VON RICHTOFEN
 SLAUGHTERED THE ALLIES WITH
 HARDLY A CARE.
 KILLED EIGHTY-ONE WITH HIS
 BLOOD-COLORED TRIPLANE, THEN
 UN-AEROBATICALLY
 PLUNGED FROM THE AIR.
   -- TONY HOFFMAN
 Job cpu time:       0 days  1 hours 39 minutes 17.6 seconds.
 Elapsed time:       0 days  0 hours 27 minutes  0.3 seconds.
 File lengths (MBytes):  RWF=  70920 Int=      0 D2E=      0 Chk=     23 Scr=      1
 Normal termination of Gaussian 16 at Thu Sep 24 17:46:06 2020.
