 Entering Gaussian System, Link 0=g16
 Initial command:
 /prod/apps/gaussian/g16b1/l1.exe "/tmp/ubafar01/1462021/Gau-121501.inp" -scrdir="/tmp/ubafar01/1462021/"
 Entering Link 1 = /prod/apps/gaussian/g16b1/l1.exe PID=    121502.
  
 Copyright (c) 1988-2017, Gaussian, Inc.  All Rights Reserved.
  
 This is part of the Gaussian(R) 16 program.  It is based on
 the Gaussian(R) 09 system (copyright 2009, Gaussian, Inc.),
 the Gaussian(R) 03 system (copyright 2003, Gaussian, Inc.),
 the Gaussian(R) 98 system (copyright 1998, Gaussian, Inc.),
 the Gaussian(R) 94 system (copyright 1995, Gaussian, Inc.),
 the Gaussian 92(TM) system (copyright 1992, Gaussian, Inc.),
 the Gaussian 90(TM) system (copyright 1990, Gaussian, Inc.),
 the Gaussian 88(TM) system (copyright 1988, Gaussian, Inc.),
 the Gaussian 86(TM) system (copyright 1986, Carnegie Mellon
 University), and the Gaussian 82(TM) system (copyright 1983,
 Carnegie Mellon University). Gaussian is a federally registered
 trademark of Gaussian, Inc.
  
 This software contains proprietary and confidential information,
 including trade secrets, belonging to Gaussian, Inc.
  
 This software is provided under written license and may be
 used, copied, transmitted, or stored only in accord with that
 written license.
  
 The following legend is applicable only to US Government
 contracts under FAR:
  
                    RESTRICTED RIGHTS LEGEND
  
 Use, reproduction and disclosure by the US Government is
 subject to restrictions as set forth in subparagraphs (a)
 and (c) of the Commercial Computer Software - Restricted
 Rights clause in FAR 52.227-19.
  
 Gaussian, Inc.
 340 Quinnipiac St., Bldg. 40, Wallingford CT 06492
  
  
 ---------------------------------------------------------------
 Warning -- This program may not be used in any manner that
 competes with the business of Gaussian, Inc. or will provide
 assistance to any competitor of Gaussian, Inc.  The licensee
 of this program is prohibited from giving any competitor of
 Gaussian, Inc. access to this program.  By using this program,
 the user acknowledges that Gaussian, Inc. is engaged in the
 business of creating and licensing software in the field of
 computational chemistry and represents and warrants to the
 licensee that it is not a competitor of Gaussian, Inc. and that
 it will not use this program in any manner prohibited above.
 ---------------------------------------------------------------
  

 Cite this work as:
 Gaussian 16, Revision B.01,
 M. J. Frisch, G. W. Trucks, H. B. Schlegel, G. E. Scuseria, 
 M. A. Robb, J. R. Cheeseman, G. Scalmani, V. Barone, 
 G. A. Petersson, H. Nakatsuji, X. Li, M. Caricato, A. V. Marenich, 
 J. Bloino, B. G. Janesko, R. Gomperts, B. Mennucci, H. P. Hratchian, 
 J. V. Ortiz, A. F. Izmaylov, J. L. Sonnenberg, D. Williams-Young, 
 F. Ding, F. Lipparini, F. Egidi, J. Goings, B. Peng, A. Petrone, 
 T. Henderson, D. Ranasinghe, V. G. Zakrzewski, J. Gao, N. Rega, 
 G. Zheng, W. Liang, M. Hada, M. Ehara, K. Toyota, R. Fukuda, 
 J. Hasegawa, M. Ishida, T. Nakajima, Y. Honda, O. Kitao, H. Nakai, 
 T. Vreven, K. Throssell, J. A. Montgomery, Jr., J. E. Peralta, 
 F. Ogliaro, M. J. Bearpark, J. J. Heyd, E. N. Brothers, K. N. Kudin, 
 V. N. Staroverov, T. A. Keith, R. Kobayashi, J. Normand, 
 K. Raghavachari, A. P. Rendell, J. C. Burant, S. S. Iyengar, 
 J. Tomasi, M. Cossi, J. M. Millam, M. Klene, C. Adamo, R. Cammi, 
 J. W. Ochterski, R. L. Martin, K. Morokuma, O. Farkas, 
 J. B. Foresman, and D. J. Fox, Gaussian, Inc., Wallingford CT, 2016.
 
 ******************************************
 Gaussian 16:  ES64L-G16RevB.01 20-Dec-2017
                28-Sep-2020 
 ******************************************
 %nproc=4
 Will use up to    4 processors via shared memory.
 %Chk=SM46_m2.b.4.pdb.xyz.mst.b.w.chk
 %mem=16GB
 ----------------------------------------------------------------------
 #p b3lyp/6-31G(d) opt freq NoSymm scf=(MaxCycle=2000,NoVarAcc,NoIncFoc
 k) scrf=(iefpcm,read,solvent=water)
 ----------------------------------------------------------------------
 1/18=20,19=15,26=3,38=1,40=2/1,3;
 2/9=110,12=2,15=1,17=6,18=5,40=1/2;
 3/5=1,6=6,7=1,11=2,25=1,30=1,70=2203,71=1,72=1,74=-5/1,2,3;
 4//1;
 5/5=100002,7=2000,38=1,53=1/2;
 6/7=2,8=2,9=2,10=2,28=1/1;
 7/30=1/1,2,3,16;
 1/18=20,19=15,26=3/3(2);
 2/9=110,15=1/2;
 99//99;
 2/9=110,15=1/2;
 3/5=1,6=6,7=1,11=2,25=1,30=1,70=2205,71=1,72=1,74=-5/1,2,3;
 4/5=5,16=3,69=1/1;
 5/5=100002,7=2000,38=1,53=1/2;
 7/30=1/1,2,3,16;
 1/18=20,19=15,26=3/3(-5);
 2/9=110,15=1/2;
 6/7=2,8=2,9=2,10=2,19=2,28=1/1;
 99/9=1/99;
 Leave Link    1 at Mon Sep 28 08:22:32 2020, MaxMem=  2147483648 cpu:               0.2 elap:               0.0
 (Enter /prod/apps/gaussian/g16b1/l101.exe)
 -------------------
 SM46_m2.b.4.pdb.xyz
 -------------------
 Symbolic Z-matrix:
 Charge =  1 Multiplicity = 1
 O                    -3.957    -1.278    -0.692 
 S                    -2.8      -0.713    -0.009 
 N                    -1.838    -0.107    -1.297 
 C                    -0.495     0.157    -1.185 
 N                     0.148     1.051    -1.982 
 N                     1.451     1.111    -1.758 
 C                     0.501    -0.372    -0.381 
 N                     1.643     0.256    -0.775 
 C                     2.96      0.069    -0.238 
 C                     3.852     1.141    -0.243 
 C                     5.128     0.948     0.28 
 C                     5.495    -0.292     0.806 
 C                     4.585    -1.351     0.805 
 C                     3.307    -1.179     0.277 
 N                    -3.345     0.506     0.963 
 C                    -2.368     1.167     1.843 
 C                    -4.383     1.392     0.412 
 O                    -1.878    -1.531     0.775 
 H                    -2.358     0.434    -1.989 
 H                     0.456    -1.089     0.416 
 H                     3.546     2.101    -0.639 
 H                     5.831     1.774     0.285 
 H                     6.489    -0.434     1.216 
 H                     4.869    -2.317     1.207 
 H                     2.603    -2.002     0.252 
 H                    -1.679     0.426     2.244 
 H                    -2.928     1.614     2.666 
 H                    -1.812     1.953     1.32 
 H                    -5.105     0.804    -0.149 
 H                    -3.956     2.174    -0.226 
 H                    -4.887     1.86      1.259 
 H                    -0.252     1.633    -2.72 
 
 ITRead=  0  0  0  0  0  0  0  0  0  0  0  0  0  0  0  0  0  0  0  0
 ITRead=  0  0  0  0  0  0  0  0  0  0  0  0
 MicOpt= -1 -1 -1 -1 -1 -1 -1 -1 -1 -1 -1 -1 -1 -1 -1 -1 -1 -1 -1 -1
 MicOpt= -1 -1 -1 -1 -1 -1 -1 -1 -1 -1 -1 -1
 NAtoms=     32 NQM=       32 NQMF=       0 NMMI=      0 NMMIF=      0
                NMic=       0 NMicF=      0.
                    Isotopes and Nuclear Properties:
 (Nuclear quadrupole moments (NQMom) in fm**2, nuclear magnetic moments (NMagM)
  in nuclear magnetons)

  Atom         1           2           3           4           5           6           7           8           9          10
 IAtWgt=          16          32          14          12          14          14          12          14          12          12
 AtmWgt=  15.9949146  31.9720718  14.0030740  12.0000000  14.0030740  14.0030740  12.0000000  14.0030740  12.0000000  12.0000000
 NucSpn=           0           0           2           0           2           2           0           2           0           0
 AtZEff=  -0.0000000  -0.0000000  -0.0000000  -0.0000000  -0.0000000  -0.0000000  -0.0000000  -0.0000000  -0.0000000  -0.0000000
 NQMom=    0.0000000   0.0000000   2.0440000   0.0000000   2.0440000   2.0440000   0.0000000   2.0440000   0.0000000   0.0000000
 NMagM=    0.0000000   0.0000000   0.4037610   0.0000000   0.4037610   0.4037610   0.0000000   0.4037610   0.0000000   0.0000000
 AtZNuc=   8.0000000  16.0000000   7.0000000   6.0000000   7.0000000   7.0000000   6.0000000   7.0000000   6.0000000   6.0000000

  Atom        11          12          13          14          15          16          17          18          19          20
 IAtWgt=          12          12          12          12          14          12          12          16           1           1
 AtmWgt=  12.0000000  12.0000000  12.0000000  12.0000000  14.0030740  12.0000000  12.0000000  15.9949146   1.0078250   1.0078250
 NucSpn=           0           0           0           0           2           0           0           0           1           1
 AtZEff=  -0.0000000  -0.0000000  -0.0000000  -0.0000000  -0.0000000  -0.0000000  -0.0000000  -0.0000000  -0.0000000  -0.0000000
 NQMom=    0.0000000   0.0000000   0.0000000   0.0000000   2.0440000   0.0000000   0.0000000   0.0000000   0.0000000   0.0000000
 NMagM=    0.0000000   0.0000000   0.0000000   0.0000000   0.4037610   0.0000000   0.0000000   0.0000000   2.7928460   2.7928460
 AtZNuc=   6.0000000   6.0000000   6.0000000   6.0000000   7.0000000   6.0000000   6.0000000   8.0000000   1.0000000   1.0000000

  Atom        21          22          23          24          25          26          27          28          29          30
 IAtWgt=           1           1           1           1           1           1           1           1           1           1
 AtmWgt=   1.0078250   1.0078250   1.0078250   1.0078250   1.0078250   1.0078250   1.0078250   1.0078250   1.0078250   1.0078250
 NucSpn=           1           1           1           1           1           1           1           1           1           1
 AtZEff=  -0.0000000  -0.0000000  -0.0000000  -0.0000000  -0.0000000  -0.0000000  -0.0000000  -0.0000000  -0.0000000  -0.0000000
 NQMom=    0.0000000   0.0000000   0.0000000   0.0000000   0.0000000   0.0000000   0.0000000   0.0000000   0.0000000   0.0000000
 NMagM=    2.7928460   2.7928460   2.7928460   2.7928460   2.7928460   2.7928460   2.7928460   2.7928460   2.7928460   2.7928460
 AtZNuc=   1.0000000   1.0000000   1.0000000   1.0000000   1.0000000   1.0000000   1.0000000   1.0000000   1.0000000   1.0000000

  Atom        31          32
 IAtWgt=           1           1
 AtmWgt=   1.0078250   1.0078250
 NucSpn=           1           1
 AtZEff=  -0.0000000  -0.0000000
 NQMom=    0.0000000   0.0000000
 NMagM=    2.7928460   2.7928460
 AtZNuc=   1.0000000   1.0000000
 Leave Link  101 at Mon Sep 28 08:22:33 2020, MaxMem=  2147483648 cpu:               1.5 elap:               0.4
 (Enter /prod/apps/gaussian/g16b1/l103.exe)

 GradGradGradGradGradGradGradGradGradGradGradGradGradGradGradGradGradGrad
 Berny optimization.
 Initialization pass.
                           ----------------------------
                           !    Initial Parameters    !
                           ! (Angstroms and Degrees)  !
 --------------------------                            --------------------------
 ! Name  Definition              Value          Derivative Info.                !
 --------------------------------------------------------------------------------
 ! R1    R(1,2)                  1.4575         estimate D2E/DX2                !
 ! R2    R(2,3)                  1.718          estimate D2E/DX2                !
 ! R3    R(2,15)                 1.6516         estimate D2E/DX2                !
 ! R4    R(2,18)                 1.4608         estimate D2E/DX2                !
 ! R5    R(3,4)                  1.3733         estimate D2E/DX2                !
 ! R6    R(3,19)                 1.0208         estimate D2E/DX2                !
 ! R7    R(4,5)                  1.3594         estimate D2E/DX2                !
 ! R8    R(4,7)                  1.385          estimate D2E/DX2                !
 ! R9    R(5,6)                  1.3235         estimate D2E/DX2                !
 ! R10   R(5,32)                 1.0215         estimate D2E/DX2                !
 ! R11   R(6,8)                  1.3169         estimate D2E/DX2                !
 ! R12   R(7,8)                  1.3615         estimate D2E/DX2                !
 ! R13   R(7,20)                 1.073          estimate D2E/DX2                !
 ! R14   R(8,9)                  1.4345         estimate D2E/DX2                !
 ! R15   R(9,10)                 1.3946         estimate D2E/DX2                !
 ! R16   R(9,14)                 1.394          estimate D2E/DX2                !
 ! R17   R(10,11)                1.3925         estimate D2E/DX2                !
 ! R18   R(10,21)                1.0826         estimate D2E/DX2                !
 ! R19   R(11,12)                1.3961         estimate D2E/DX2                !
 ! R20   R(11,22)                1.0847         estimate D2E/DX2                !
 ! R21   R(12,13)                1.3963         estimate D2E/DX2                !
 ! R22   R(12,23)                1.0846         estimate D2E/DX2                !
 ! R23   R(13,14)                1.3934         estimate D2E/DX2                !
 ! R24   R(13,24)                1.0842         estimate D2E/DX2                !
 ! R25   R(14,25)                1.0833         estimate D2E/DX2                !
 ! R26   R(15,16)                1.4717         estimate D2E/DX2                !
 ! R27   R(15,17)                1.4717         estimate D2E/DX2                !
 ! R28   R(16,26)                1.0884         estimate D2E/DX2                !
 ! R29   R(16,27)                1.0912         estimate D2E/DX2                !
 ! R30   R(16,28)                1.0957         estimate D2E/DX2                !
 ! R31   R(17,29)                1.0871         estimate D2E/DX2                !
 ! R32   R(17,30)                1.0959         estimate D2E/DX2                !
 ! R33   R(17,31)                1.0911         estimate D2E/DX2                !
 ! A1    A(1,2,3)              103.292          estimate D2E/DX2                !
 ! A2    A(1,2,15)             107.4545         estimate D2E/DX2                !
 ! A3    A(1,2,18)             122.3752         estimate D2E/DX2                !
 ! A4    A(3,2,15)             111.4472         estimate D2E/DX2                !
 ! A5    A(3,2,18)             104.2683         estimate D2E/DX2                !
 ! A6    A(15,2,18)            107.8015         estimate D2E/DX2                !
 ! A7    A(2,3,4)              123.6601         estimate D2E/DX2                !
 ! A8    A(2,3,19)             114.2009         estimate D2E/DX2                !
 ! A9    A(4,3,19)             116.8462         estimate D2E/DX2                !
 ! A10   A(3,4,5)              122.7651         estimate D2E/DX2                !
 ! A11   A(3,4,7)              132.6243         estimate D2E/DX2                !
 ! A12   A(5,4,7)              104.5592         estimate D2E/DX2                !
 ! A13   A(4,5,6)              113.3457         estimate D2E/DX2                !
 ! A14   A(4,5,32)             127.8131         estimate D2E/DX2                !
 ! A15   A(6,5,32)             118.8157         estimate D2E/DX2                !
 ! A16   A(5,6,8)              103.913          estimate D2E/DX2                !
 ! A17   A(4,7,8)              105.0118         estimate D2E/DX2                !
 ! A18   A(4,7,20)             131.0142         estimate D2E/DX2                !
 ! A19   A(8,7,20)             123.9406         estimate D2E/DX2                !
 ! A20   A(6,8,7)              113.153          estimate D2E/DX2                !
 ! A21   A(6,8,9)              119.8627         estimate D2E/DX2                !
 ! A22   A(7,8,9)              126.9842         estimate D2E/DX2                !
 ! A23   A(8,9,10)             119.0566         estimate D2E/DX2                !
 ! A24   A(8,9,14)             118.9173         estimate D2E/DX2                !
 ! A25   A(10,9,14)            122.0258         estimate D2E/DX2                !
 ! A26   A(9,10,11)            118.5699         estimate D2E/DX2                !
 ! A27   A(9,10,21)            120.1425         estimate D2E/DX2                !
 ! A28   A(11,10,21)           121.2853         estimate D2E/DX2                !
 ! A29   A(10,11,12)           120.366          estimate D2E/DX2                !
 ! A30   A(10,11,22)           119.347          estimate D2E/DX2                !
 ! A31   A(12,11,22)           120.2835         estimate D2E/DX2                !
 ! A32   A(11,12,13)           120.1368         estimate D2E/DX2                !
 ! A33   A(11,12,23)           119.9771         estimate D2E/DX2                !
 ! A34   A(13,12,23)           119.8861         estimate D2E/DX2                !
 ! A35   A(12,13,14)           120.2913         estimate D2E/DX2                !
 ! A36   A(12,13,24)           120.3176         estimate D2E/DX2                !
 ! A37   A(14,13,24)           119.3889         estimate D2E/DX2                !
 ! A38   A(9,14,13)            118.6078         estimate D2E/DX2                !
 ! A39   A(9,14,25)            120.6545         estimate D2E/DX2                !
 ! A40   A(13,14,25)           120.73           estimate D2E/DX2                !
 ! A41   A(2,15,16)            117.668          estimate D2E/DX2                !
 ! A42   A(2,15,17)            117.1759         estimate D2E/DX2                !
 ! A43   A(16,15,17)           114.9414         estimate D2E/DX2                !
 ! A44   A(15,16,26)           109.5588         estimate D2E/DX2                !
 ! A45   A(15,16,27)           107.1143         estimate D2E/DX2                !
 ! A46   A(15,16,28)           111.9418         estimate D2E/DX2                !
 ! A47   A(26,16,27)           109.0193         estimate D2E/DX2                !
 ! A48   A(26,16,28)           110.0616         estimate D2E/DX2                !
 ! A49   A(27,16,28)           109.0609         estimate D2E/DX2                !
 ! A50   A(15,17,29)           109.6337         estimate D2E/DX2                !
 ! A51   A(15,17,30)           111.8847         estimate D2E/DX2                !
 ! A52   A(15,17,31)           107.0603         estimate D2E/DX2                !
 ! A53   A(29,17,30)           110.1407         estimate D2E/DX2                !
 ! A54   A(29,17,31)           109.0158         estimate D2E/DX2                !
 ! A55   A(30,17,31)           109.0177         estimate D2E/DX2                !
 ! D1    D(1,2,3,4)           -160.0886         estimate D2E/DX2                !
 ! D2    D(1,2,3,19)            46.5151         estimate D2E/DX2                !
 ! D3    D(15,2,3,4)            84.8276         estimate D2E/DX2                !
 ! D4    D(15,2,3,19)          -68.5687         estimate D2E/DX2                !
 ! D5    D(18,2,3,4)           -31.2012         estimate D2E/DX2                !
 ! D6    D(18,2,3,19)          175.4025         estimate D2E/DX2                !
 ! D7    D(1,2,15,16)          175.2891         estimate D2E/DX2                !
 ! D8    D(1,2,15,17)          -41.1593         estimate D2E/DX2                !
 ! D9    D(3,2,15,16)          -72.2246         estimate D2E/DX2                !
 ! D10   D(3,2,15,17)           71.3271         estimate D2E/DX2                !
 ! D11   D(18,2,15,16)          41.6199         estimate D2E/DX2                !
 ! D12   D(18,2,15,17)        -174.8284         estimate D2E/DX2                !
 ! D13   D(2,3,4,5)           -155.4061         estimate D2E/DX2                !
 ! D14   D(2,3,4,7)             27.6318         estimate D2E/DX2                !
 ! D15   D(19,3,4,5)            -2.6514         estimate D2E/DX2                !
 ! D16   D(19,3,4,7)          -179.6135         estimate D2E/DX2                !
 ! D17   D(3,4,5,6)           -176.8395         estimate D2E/DX2                !
 ! D18   D(3,4,5,32)             1.2795         estimate D2E/DX2                !
 ! D19   D(7,4,5,6)              0.8515         estimate D2E/DX2                !
 ! D20   D(7,4,5,32)           178.9706         estimate D2E/DX2                !
 ! D21   D(3,4,7,8)            177.3364         estimate D2E/DX2                !
 ! D22   D(3,4,7,20)            -4.7484         estimate D2E/DX2                !
 ! D23   D(5,4,7,8)             -0.0247         estimate D2E/DX2                !
 ! D24   D(5,4,7,20)           177.8906         estimate D2E/DX2                !
 ! D25   D(4,5,6,8)             -1.3153         estimate D2E/DX2                !
 ! D26   D(32,5,6,8)          -179.6194         estimate D2E/DX2                !
 ! D27   D(5,6,8,7)              1.2936         estimate D2E/DX2                !
 ! D28   D(5,6,8,9)           -178.8278         estimate D2E/DX2                !
 ! D29   D(4,7,8,6)             -0.8112         estimate D2E/DX2                !
 ! D30   D(4,7,8,9)            179.3207         estimate D2E/DX2                !
 ! D31   D(20,7,8,6)          -178.9152         estimate D2E/DX2                !
 ! D32   D(20,7,8,9)             1.2167         estimate D2E/DX2                !
 ! D33   D(6,8,9,10)            30.9218         estimate D2E/DX2                !
 ! D34   D(6,8,9,14)          -149.2808         estimate D2E/DX2                !
 ! D35   D(7,8,9,10)          -149.2179         estimate D2E/DX2                !
 ! D36   D(7,8,9,14)            30.5794         estimate D2E/DX2                !
 ! D37   D(8,9,10,11)         -179.9611         estimate D2E/DX2                !
 ! D38   D(8,9,10,21)            0.5913         estimate D2E/DX2                !
 ! D39   D(14,9,10,11)           0.2481         estimate D2E/DX2                !
 ! D40   D(14,9,10,21)        -179.1995         estimate D2E/DX2                !
 ! D41   D(8,9,14,13)         -179.5839         estimate D2E/DX2                !
 ! D42   D(8,9,14,25)            1.416          estimate D2E/DX2                !
 ! D43   D(10,9,14,13)           0.2072         estimate D2E/DX2                !
 ! D44   D(10,9,14,25)        -178.7929         estimate D2E/DX2                !
 ! D45   D(9,10,11,12)          -0.5092         estimate D2E/DX2                !
 ! D46   D(9,10,11,22)        -179.8277         estimate D2E/DX2                !
 ! D47   D(21,10,11,12)        178.9318         estimate D2E/DX2                !
 ! D48   D(21,10,11,22)         -0.3867         estimate D2E/DX2                !
 ! D49   D(10,11,12,13)          0.3182         estimate D2E/DX2                !
 ! D50   D(10,11,12,23)       -179.7125         estimate D2E/DX2                !
 ! D51   D(22,11,12,13)        179.6303         estimate D2E/DX2                !
 ! D52   D(22,11,12,23)         -0.4005         estimate D2E/DX2                !
 ! D53   D(11,12,13,14)          0.1487         estimate D2E/DX2                !
 ! D54   D(11,12,13,24)        179.6105         estimate D2E/DX2                !
 ! D55   D(23,12,13,14)       -179.8206         estimate D2E/DX2                !
 ! D56   D(23,12,13,24)         -0.3588         estimate D2E/DX2                !
 ! D57   D(12,13,14,9)          -0.4046         estimate D2E/DX2                !
 ! D58   D(12,13,14,25)        178.5947         estimate D2E/DX2                !
 ! D59   D(24,13,14,9)        -179.8714         estimate D2E/DX2                !
 ! D60   D(24,13,14,25)         -0.8721         estimate D2E/DX2                !
 ! D61   D(2,15,16,26)         -38.8423         estimate D2E/DX2                !
 ! D62   D(2,15,16,27)        -156.9584         estimate D2E/DX2                !
 ! D63   D(2,15,16,28)          83.5412         estimate D2E/DX2                !
 ! D64   D(17,15,16,26)        176.8106         estimate D2E/DX2                !
 ! D65   D(17,15,16,27)         58.6945         estimate D2E/DX2                !
 ! D66   D(17,15,16,28)        -60.8059         estimate D2E/DX2                !
 ! D67   D(2,15,17,29)          40.4896         estimate D2E/DX2                !
 ! D68   D(2,15,17,30)         -82.0087         estimate D2E/DX2                !
 ! D69   D(2,15,17,31)         158.6112         estimate D2E/DX2                !
 ! D70   D(16,15,17,29)       -174.9808         estimate D2E/DX2                !
 ! D71   D(16,15,17,30)         62.5209         estimate D2E/DX2                !
 ! D72   D(16,15,17,31)        -56.8592         estimate D2E/DX2                !
 --------------------------------------------------------------------------------
 Trust Radius=3.00D-01 FncErr=1.00D-07 GrdErr=1.00D-06 EigMax=2.50D+02 EigMin=1.00D-04
 Number of steps in this run=    170 maximum allowed number of steps=    192.
 GradGradGradGradGradGradGradGradGradGradGradGradGradGradGradGradGradGrad

 Leave Link  103 at Mon Sep 28 08:22:33 2020, MaxMem=  2147483648 cpu:               0.1 elap:               0.0
 (Enter /prod/apps/gaussian/g16b1/l202.exe)
                          Input orientation:                          
 ---------------------------------------------------------------------
 Center     Atomic      Atomic             Coordinates (Angstroms)
 Number     Number       Type             X           Y           Z
 ---------------------------------------------------------------------
      1          8           0       -3.957000   -1.278000   -0.692000
      2         16           0       -2.800000   -0.713000   -0.009000
      3          7           0       -1.838000   -0.107000   -1.297000
      4          6           0       -0.495000    0.157000   -1.185000
      5          7           0        0.148000    1.051000   -1.982000
      6          7           0        1.451000    1.111000   -1.758000
      7          6           0        0.501000   -0.372000   -0.381000
      8          7           0        1.643000    0.256000   -0.775000
      9          6           0        2.960000    0.069000   -0.238000
     10          6           0        3.852000    1.141000   -0.243000
     11          6           0        5.128000    0.948000    0.280000
     12          6           0        5.495000   -0.292000    0.806000
     13          6           0        4.585000   -1.351000    0.805000
     14          6           0        3.307000   -1.179000    0.277000
     15          7           0       -3.345000    0.506000    0.963000
     16          6           0       -2.368000    1.167000    1.843000
     17          6           0       -4.383000    1.392000    0.412000
     18          8           0       -1.878000   -1.531000    0.775000
     19          1           0       -2.358000    0.434000   -1.989000
     20          1           0        0.456000   -1.089000    0.416000
     21          1           0        3.546000    2.101000   -0.639000
     22          1           0        5.831000    1.774000    0.285000
     23          1           0        6.489000   -0.434000    1.216000
     24          1           0        4.869000   -2.317000    1.207000
     25          1           0        2.603000   -2.002000    0.252000
     26          1           0       -1.679000    0.426000    2.244000
     27          1           0       -2.928000    1.614000    2.666000
     28          1           0       -1.812000    1.953000    1.320000
     29          1           0       -5.105000    0.804000   -0.149000
     30          1           0       -3.956000    2.174000   -0.226000
     31          1           0       -4.887000    1.860000    1.259000
     32          1           0       -0.252000    1.633000   -2.720000
 ---------------------------------------------------------------------
                    Distance matrix (angstroms):
                    1          2          3          4          5
     1  O    0.000000
     2  S    1.457519   0.000000
     3  N    2.495481   1.718029   0.000000
     4  C    3.779910   2.730000   1.373277   0.000000
     5  N    4.892787   3.961708   2.398830   1.359373   0.000000
     6  N    6.007507   4.945400   3.537452   2.241732   1.323475
     7  C    4.559750   3.339351   2.525906   1.385017   2.170884
     8  N    5.806896   4.611504   3.538589   2.179207   2.079399
     9  C    7.061545   5.817350   4.916631   3.583515   3.451551
    10  C    8.187408   6.909499   5.919841   4.555439   4.092901
    11  C    9.404099   8.105284   7.219772   5.864302   5.470617
    12  C    9.620629   8.345567   7.630840   6.328174   6.177945
    13  C    8.672491   7.457068   6.871744   5.660438   5.764021
    14  C    7.329015   6.131427   5.486136   4.286904   4.478310
    15  N    2.509228   1.651596   2.784676   3.585834   4.601206
    16  C    3.863829   2.674122   3.429807   3.700948   4.579775
    17  C    2.920478   2.667237   3.412434   4.380888   5.135901
    18  O    2.557018   1.460775   2.514470   2.933195   4.286309
    19  H    2.677677   2.330531   1.020757   2.047905   2.580848
    20  H    4.553894   3.305077   3.026736   2.240562   3.228756
    21  H    8.228940   6.970453   5.856252   4.517403   3.801651
    22  H   10.299232   8.986978   8.053226   6.692822   6.161048
    23  H   10.652310   9.373579   8.704081   7.408801   7.255392
    24  H    9.087574   7.928747   7.492527   6.372977   6.618231
    25  H    6.667002   5.560760   5.070790   4.040279   4.509833
    26  H    4.088153   2.762240   3.584418   3.637617   4.646249
    27  H    4.549579   3.547807   4.455930   4.782524   5.602022
    28  H    4.369042   3.138462   3.330610   3.351885   3.944415
    29  H    2.438745   2.762954   3.580658   4.769068   5.569103
    30  H    3.483312   3.117402   3.291797   4.119040   4.602986
    31  H    3.810295   3.547354   4.438313   5.306883   6.042333
    32  H    5.129691   4.398357   2.750986   2.143327   1.021454
                    6          7          8          9         10
     6  N    0.000000
     7  C    2.235602   0.000000
     8  N    1.316882   1.361537   0.000000
     9  C    2.381857   2.502321   1.434513   0.000000
    10  C    2.839177   3.679322   2.438428   1.394587   0.000000
    11  C    4.207177   4.856794   3.706361   2.396078   1.392463
    12  C    4.989633   5.133752   4.199734   2.765227   2.419367
    13  C    4.738393   4.363954   3.705970   2.396847   2.801010
    14  C    3.581907   2.992967   2.436150   1.393965   2.439226
    15  N    5.547205   4.167606   5.288033   6.433226   7.324921
    16  C    5.249295   3.942824   4.875650   5.824410   6.560524
    17  C    6.230844   5.252999   6.245970   7.489491   8.264820
    18  O    4.947575   2.887777   4.241852   5.195422   6.403812
    19  H    3.875587   3.377748   4.184911   5.610735   6.489412
    20  H    3.249046   1.072997   2.153248   2.835259   4.115823
    21  H    2.573186   3.931198   2.654040   2.152492   1.082614
    22  H    4.878301   5.784269   4.579003   3.379822   2.143808
    23  H    6.050880   6.197612   5.284307   3.849801   3.400452
    24  H    5.676719   5.038273   4.577743   3.380133   3.885171
    25  H    3.880460   2.734226   2.659867   2.157913   3.418110
    26  H    5.126610   3.504259   4.492098   5.273338   6.106419
    27  H    6.245032   4.998644   5.880364   6.744537   7.392862
    28  H    4.564013   3.694455   4.382449   5.361791   5.931544
    29  H    6.757534   5.732716   6.799094   8.098912   8.963830
    30  H    5.719497   5.135269   5.943814   7.229262   7.876055
    31  H    7.059287   6.058215   7.025018   8.186825   8.896240
    32  H    2.024386   3.171428   3.044697   4.350099   4.818756
                   11         12         13         14         15
    11  C    0.000000
    12  C    1.396053   0.000000
    13  C    2.419892   1.396274   0.000000
    14  C    2.800032   2.419495   1.393432   0.000000
    15  N    8.511967   8.877334   8.146061   6.896298   0.000000
    16  C    7.660349   8.064169   7.467394   6.337326   1.471683
    17  C    9.522273  10.028259   9.386348   8.109523   1.471748
    18  O    7.448121   7.476444   6.465576   5.220741   2.517301
    19  H    7.839181   8.367121   7.694018   6.311002   3.113464
    20  H    5.098573   5.116525   4.155551   2.855805   4.158225
    21  H    2.162567   3.407796   3.883421   3.413880   7.252331
    22  H    1.084670   2.157010   3.404195   3.884694   9.287975
    23  H    2.153681   1.084574   2.152911   3.400275   9.882063
    24  H    3.403915   2.157151   1.084166   2.144712   8.688997
    25  H    3.883157   3.405096   2.158225   1.083314   6.494173
    26  H    7.103874   7.351846   6.668294   5.595115   2.103073
    27  H    8.428267   8.833989   8.288529   7.237637   2.074069
    28  H    7.089092   7.661362   7.218258   6.091095   2.138071
    29  H   10.243001  10.699217   9.972474   8.653064   2.103081
    30  H    9.180314   9.821791   9.297164   8.015409   2.137584
    31  H   10.103980  10.612362  10.011764   8.794401   2.073330
    32  H    6.197873   7.011869   6.687784   5.436528   4.939764
                   16         17         18         19         20
    16  C    0.000000
    17  C    2.481655   0.000000
    18  O    2.942776   3.866616   0.000000
    19  H    3.901489   3.283777   3.425102   0.000000
    20  H    3.885980   5.437950   2.402457   4.002768   0.000000
    21  H    6.481364   8.029715   6.679116   6.281608   4.564781
    22  H    8.367760  10.221930   8.401893   8.603859   6.091351
    23  H    9.022349  11.053555   8.450123   9.449596   6.120957
    24  H    8.057104   9.999410   6.806352   8.367314   4.648466
    25  H    6.106118   7.768464   4.535938   5.963866   2.338819
    26  H    1.088395   3.406023   2.455079   4.287120   3.192966
    27  H    1.091209   2.691993   3.816989   4.835941   4.880591
    28  H    1.095656   2.783743   3.526987   3.681706   3.900616
    29  H    3.404556   1.087083   4.088952   3.326937   5.901474
    30  H    2.795810   1.095854   4.364299   2.947774   5.524950
    31  H    2.677063   1.091077   4.559300   4.356469   6.160755
    32  H    5.051295   5.189669   4.986963   2.531244   4.212487
                   21         22         23         24         25
    21  H    0.000000
    22  H    2.486349   0.000000
    23  H    4.304474   2.484953   0.000000
    24  H    4.967572   4.302535   2.483983   0.000000
    25  H    4.303224   4.967821   4.299874   2.479114   0.000000
    26  H    6.198221   7.877492   8.277234   7.174658   5.310252
    27  H    7.285113   9.078262   9.745599   8.852946   7.035255
    28  H    5.706816   7.714837   8.638008   7.929781   6.022863
    29  H    8.761399  10.987509  11.739536  10.538503   8.212655
    30  H    7.513714   9.808491  10.861816  10.005158   7.790247
    31  H    8.647310  10.762509  11.605070  10.612708   8.487001
    32  H    4.355960   6.786221   8.075003   7.566272   5.495183
                   26         27         28         29         30
    26  H    0.000000
    27  H    1.774663   0.000000
    28  H    1.789747   1.781037   0.000000
    29  H    4.196047   3.649610   3.784443   0.000000
    30  H    3.786969   3.119944   2.652488   1.789701   0.000000
    31  H    3.649362   2.424427   3.077011   1.773450   1.780613
    32  H    5.304194   6.014178   4.342534   5.554178   4.498037
                   31         32
    31  H    0.000000
    32  H    6.112871   0.000000
 Symmetry turned off by external request.
 Stoichiometry    C10H14N5O2S(1+)
 Framework group  C1[X(C10H14N5O2S)]
 Deg. of freedom    90
 Full point group                 C1      NOp   1
 Rotational constants (GHZ):           0.9556914           0.1739960           0.1688933
 Leave Link  202 at Mon Sep 28 08:22:33 2020, MaxMem=  2147483648 cpu:               0.0 elap:               0.0
 (Enter /prod/apps/gaussian/g16b1/l301.exe)
 Standard basis: 6-31G(d) (6D, 7F)
 Ernie: Thresh=  0.10000D-02 Tol=  0.10000D-05 Strict=F.
   302 basis functions,   584 primitive gaussians,   302 cartesian basis functions
    70 alpha electrons       70 beta electrons
       nuclear repulsion energy      1490.3478742148 Hartrees.
 IExCor=  402 DFT=T Ex+Corr=B3LYP ExCW=0 ScaHFX=  0.200000
 ScaDFX=  0.800000  0.720000  1.000000  0.810000 ScalE2=  1.000000  1.000000
 IRadAn=      5 IRanWt=     -1 IRanGd=            0 ICorTp=0 IEmpDi=  4
 NAtoms=   32 NActive=   32 NUniq=   32 SFac= 1.00D+00 NAtFMM=   60 NAOKFM=F Big=F
 Integral buffers will be    131072 words long.
 Raffenetti 2 integral format.
 Two-electron integral symmetry is turned off.
 Using the following non-standard input for PCM:
 MSTModel=DFT cav MSTcharged
 --- end of non-standard input.
 MST model for solvation energy: B3LYP parametrization.
 MST cavity parameters:
 ISph   IAn     Re0     Alpha   Atom Type   QCorr
 ------------------------------------------------
   1      8     1.40     1.25      O          F
   2     16     1.75     1.25      S          F
   3      7     1.50     1.25      NH         F
   4      6     1.50     1.25      C          F
   5      7     1.50     1.15      NH         T
   6      7     1.40     1.25      N          F
   7      6     1.50     1.25      CH         F
   8      7     1.40     1.25      N          F
   9      6     1.50     1.25      C          F
  10      6     1.50     1.25      CH         F
  11      6     1.50     1.25      CH         F
  12      6     1.50     1.25      CH         F
  13      6     1.50     1.25      CH         F
  14      6     1.50     1.25      CH         F
  15      7     1.40     1.25      N          F
  16      6     1.50     1.25      CH3        F
  17      6     1.50     1.25      CH3        F
  18      8     1.40     1.25      O          F
  19      1     0.90     1.25      NH         F
  20      1     1.20     1.25      CH         F
  21      1     1.20     1.25      CH         F
  22      1     1.20     1.25      CH         F
  23      1     1.20     1.25      CH         F
  24      1     1.20     1.25      CH         F
  25      1     1.20     1.25      CH         F
  26      1     1.20     1.25      CH3        F
  27      1     1.20     1.25      CH3        F
  28      1     1.20     1.25      CH3        F
  29      1     1.20     1.25      CH3        F
  30      1     1.20     1.25      CH3        F
  31      1     1.20     1.25      CH3        F
  32      1     0.90     1.15      NH         T
 ------------------------------------------------------------------------------
 Polarizable Continuum Model (PCM)
 =================================
 Model                : PCM.
 Atomic radii         : MST.
 Polarization charges : Total charges.
 Charge compensation  : None.
 Solution method      : On-the-fly selection.
 Cavity type          : Scaled VdW (van der Waals Surface) (Alpha=1.250).
 Cavity algorithm     : GePol (No added spheres)
                        Default sphere list used, NSphG=   32.
                        Lebedev-Laikov grids with approx.  5.0 points / Ang**2.
                        Smoothing algorithm: York/Karplus (Gamma=1.0000).
                        Polarization charges: spherical gaussians, with
                                              point-specific exponents (IZeta= 3).
                        Self-potential: point-specific (ISelfS= 7).
                        Self-field    : sphere-specific E.n sum rule (ISelfD= 2).
 1st derivatives      : Analytical E(r).r(x)/FMM algorithm (CHGder, D1EAlg=3).
                        Cavity 1st derivative terms included.
 Solvent              : Water, Eps=  78.355300 Eps(inf)=   1.777849
 ------------------------------------------------------------------------------
 GePol: Number of generator spheres                  =      32
 GePol: Total number of spheres                      =      32
 GePol: Number of exposed spheres                    =      32 (100.00%)
 GePol: Number of points                             =    2411
 GePol: Average weight of points                     =       0.13
 GePol: Minimum weight of points                     =   0.14D-09
 GePol: Maximum weight of points                     =    0.22001
 GePol: Number of points with low weight             =     163
 GePol: Fraction of low-weight points (<1% of avg)   =       6.76%
 GePol: Cavity surface area                          =    308.326 Ang**2
 GePol: Cavity volume                                =    290.890 Ang**3
 PCM non-electrostatic energy =         0.0023993131 Hartrees.
 Nuclear repulsion after PCM non-electrostatic terms =     1490.3502735279 Hartrees.
 Leave Link  301 at Mon Sep 28 08:22:33 2020, MaxMem=  2147483648 cpu:               0.3 elap:               0.1
 (Enter /prod/apps/gaussian/g16b1/l302.exe)
 NPDir=0 NMtPBC=     1 NCelOv=     1 NCel=       1 NClECP=     1 NCelD=      1
         NCelK=      1 NCelE2=     1 NClLst=     1 CellRange=     0.0.
 One-electron integrals computed using PRISM.
 NBasis=   302 RedAO= T EigKep=  4.71D-04  NBF=   302
 NBsUse=   302 1.00D-06 EigRej= -1.00D+00 NBFU=   302
 Precomputing XC quadrature grid using
 IXCGrd= 4 IRadAn=           5 IRanWt=          -1 IRanGd=           0 AccXCQ= 0.00D+00.
 Generated NRdTot=       0 NPtTot=           0 NUsed=           0 NTot=          32
 NSgBfM=   301   301   301   301   301 MxSgAt=    32 MxSgA2=    32.
 Leave Link  302 at Mon Sep 28 08:22:33 2020, MaxMem=  2147483648 cpu:               1.7 elap:               0.4
 (Enter /prod/apps/gaussian/g16b1/l303.exe)
 DipDrv:  MaxL=1.
 Leave Link  303 at Mon Sep 28 08:22:33 2020, MaxMem=  2147483648 cpu:               0.1 elap:               0.1
 (Enter /prod/apps/gaussian/g16b1/l401.exe)
 ExpMin= 1.17D-01 ExpMax= 2.19D+04 ExpMxC= 3.30D+03 IAcc=3 IRadAn=         5 AccDes= 0.00D+00
 Harris functional with IExCor=  402 and IRadAn=       5 diagonalized for initial guess.
 HarFok:  IExCor=  402 AccDes= 0.00D+00 IRadAn=         5 IDoV= 1 UseB2=F ITyADJ=14
 ICtDFT=  3500011 ScaDFX=  1.000000  1.000000  1.000000  1.000000
 FoFCou: FMM=F IPFlag=           0 FMFlag=      100000 FMFlg1=           0
         NFxFlg=           0 DoJE=T BraDBF=F KetDBF=T FulRan=T
         wScrn=  0.000000 ICntrl=       500 IOpCl=  0 I1Cent=   200000004 NGrid=           0
         NMat0=    1 NMatS0=      1 NMatT0=    0 NMatD0=    1 NMtDS0=    0 NMtDT0=    0
 Symmetry not used in FoFCou.
 Harris En= -1211.56557422693    
 JPrj=0 DoOrth=F DoCkMO=F.
 Leave Link  401 at Mon Sep 28 08:22:36 2020, MaxMem=  2147483648 cpu:               9.3 elap:               2.3
 (Enter /prod/apps/gaussian/g16b1/l502.exe)
 Two-electron integral symmetry not used.
 Closed shell SCF:
 Using DIIS extrapolation, IDIIS=  1040.
 NGot=  2147483648 LenX=  2147296760 LenY=  2147205115
 Requested convergence on RMS density matrix=1.00D-08 within2000 cycles.
 Requested convergence on MAX density matrix=1.00D-06.
 Requested convergence on             energy=1.00D-06.
 No special actions if energy rises.

 Cycle   1  Pass 1  IDiag  1:
 FoFJK:  IHMeth= 1 ICntrl=       0 DoSepK=F KAlg= 0 I1Cent=           0 FoldK=F
 IRaf= 780000000 NMat=       1 IRICut=       1 DoRegI=T DoRafI=F ISym2E= 0 IDoP0=0 IntGTp=1.
 FoFCou: FMM=F IPFlag=           0 FMFlag=      100000 FMFlg1=           0
         NFxFlg=           0 DoJE=F BraDBF=F KetDBF=F FulRan=T
         wScrn=  0.000000 ICntrl=         0 IOpCl=  0 I1Cent=           0 NGrid=           0
         NMat0=    1 NMatS0=      1 NMatT0=    0 NMatD0=    1 NMtDS0=    0 NMtDT0=    0
 Symmetry not used in FoFCou.
 Inv3:  Mode=1 IEnd=    17438763.
 Iteration    1 A*A^-1 deviation from unit magnitude is 3.11D-15 for    763.
 Iteration    1 A*A^-1 deviation from orthogonality  is 2.15D-15 for   1733     37.
 Iteration    1 A^-1*A deviation from unit magnitude is 3.11D-15 for     12.
 Iteration    1 A^-1*A deviation from orthogonality  is 1.88D-12 for   2305   2290.
 E= -1211.10931726603    
 DIIS: error= 2.80D-02 at cycle   1 NSaved=   1.
 NSaved= 1 IEnMin= 1 EnMin= -1211.10931726603     IErMin= 1 ErrMin= 2.80D-02
 ErrMax= 2.80D-02  0.00D+00 EMaxC= 1.00D-01 BMatC= 6.10D-01 BMatP= 6.10D-01
 IDIUse=3 WtCom= 7.20D-01 WtEn= 2.80D-01
 Coeff-Com:  0.100D+01
 Coeff-En:   0.100D+01
 Coeff:      0.100D+01
 Gap=     0.278 Goal=   None    Shift=    0.000
 GapD=    0.278 DampG=1.000 DampE=0.500 DampFc=0.5000 IDamp=-1.
 Damping current iteration by 5.00D-01
 RMSDP=6.24D-03 MaxDP=5.95D-01              OVMax= 2.50D-01

 Cycle   2  Pass 1  IDiag  1:
 E= -1211.24410128235     Delta-E=       -0.134784016314 Rises=F Damp=T
 DIIS: error= 1.17D-02 at cycle   2 NSaved=   2.
 NSaved= 2 IEnMin= 2 EnMin= -1211.24410128235     IErMin= 2 ErrMin= 1.17D-02
 ErrMax= 1.17D-02  0.00D+00 EMaxC= 1.00D-01 BMatC= 8.88D-02 BMatP= 6.10D-01
 IDIUse=3 WtCom= 8.83D-01 WtEn= 1.17D-01
 Coeff-Com:  0.223D+00 0.777D+00
 Coeff-En:   0.361D+00 0.639D+00
 Coeff:      0.239D+00 0.761D+00
 Gap=     0.189 Goal=   None    Shift=    0.000
 RMSDP=1.67D-03 MaxDP=1.32D-01 DE=-1.35D-01 OVMax= 1.71D-01

 Cycle   3  Pass 1  IDiag  1:
 E= -1211.60508363239     Delta-E=       -0.360982350038 Rises=F Damp=F
 DIIS: error= 6.59D-03 at cycle   3 NSaved=   3.
 NSaved= 3 IEnMin= 3 EnMin= -1211.60508363239     IErMin= 3 ErrMin= 6.59D-03
 ErrMax= 6.59D-03  0.00D+00 EMaxC= 1.00D-01 BMatC= 3.58D-02 BMatP= 8.88D-02
 IDIUse=3 WtCom= 9.34D-01 WtEn= 6.59D-02
 Coeff-Com:  0.638D-01 0.391D+00 0.545D+00
 Coeff-En:   0.000D+00 0.000D+00 0.100D+01
 Coeff:      0.596D-01 0.366D+00 0.575D+00
 Gap=     0.186 Goal=   None    Shift=    0.000
 RMSDP=7.92D-04 MaxDP=2.80D-02 DE=-3.61D-01 OVMax= 3.87D-02

 Cycle   4  Pass 1  IDiag  1:
 E= -1211.63058110415     Delta-E=       -0.025497471763 Rises=F Damp=F
 DIIS: error= 2.71D-03 at cycle   4 NSaved=   4.
 NSaved= 4 IEnMin= 4 EnMin= -1211.63058110415     IErMin= 4 ErrMin= 2.71D-03
 ErrMax= 2.71D-03  0.00D+00 EMaxC= 1.00D-01 BMatC= 6.47D-03 BMatP= 3.58D-02
 IDIUse=3 WtCom= 9.73D-01 WtEn= 2.71D-02
 Coeff-Com: -0.348D-03 0.876D-01 0.316D+00 0.597D+00
 Coeff-En:   0.000D+00 0.000D+00 0.141D+00 0.859D+00
 Coeff:     -0.338D-03 0.852D-01 0.311D+00 0.604D+00
 Gap=     0.177 Goal=   None    Shift=    0.000
 RMSDP=2.76D-04 MaxDP=1.21D-02 DE=-2.55D-02 OVMax= 1.67D-02

 Cycle   5  Pass 1  IDiag  1:
 E= -1211.63568435695     Delta-E=       -0.005103252799 Rises=F Damp=F
 DIIS: error= 7.03D-04 at cycle   5 NSaved=   5.
 NSaved= 5 IEnMin= 5 EnMin= -1211.63568435695     IErMin= 5 ErrMin= 7.03D-04
 ErrMax= 7.03D-04  0.00D+00 EMaxC= 1.00D-01 BMatC= 4.88D-04 BMatP= 6.47D-03
 IDIUse=3 WtCom= 9.93D-01 WtEn= 7.03D-03
 Coeff-Com: -0.503D-02 0.195D-01 0.119D+00 0.314D+00 0.553D+00
 Coeff-En:   0.000D+00 0.000D+00 0.000D+00 0.000D+00 0.100D+01
 Coeff:     -0.500D-02 0.193D-01 0.118D+00 0.311D+00 0.556D+00
 Gap=     0.180 Goal=   None    Shift=    0.000
 RMSDP=7.82D-05 MaxDP=3.03D-03 DE=-5.10D-03 OVMax= 6.19D-03

 Cycle   6  Pass 1  IDiag  1:
 E= -1211.63608437540     Delta-E=       -0.000400018453 Rises=F Damp=F
 DIIS: error= 2.25D-04 at cycle   6 NSaved=   6.
 NSaved= 6 IEnMin= 6 EnMin= -1211.63608437540     IErMin= 6 ErrMin= 2.25D-04
 ErrMax= 2.25D-04  0.00D+00 EMaxC= 1.00D-01 BMatC= 3.09D-05 BMatP= 4.88D-04
 IDIUse=3 WtCom= 9.98D-01 WtEn= 2.25D-03
 Coeff-Com: -0.258D-02 0.410D-02 0.354D-01 0.109D+00 0.276D+00 0.578D+00
 Coeff-En:   0.000D+00 0.000D+00 0.000D+00 0.000D+00 0.000D+00 0.100D+01
 Coeff:     -0.257D-02 0.409D-02 0.354D-01 0.108D+00 0.276D+00 0.579D+00
 Gap=     0.179 Goal=   None    Shift=    0.000
 RMSDP=2.04D-05 MaxDP=9.20D-04 DE=-4.00D-04 OVMax= 1.40D-03

 Cycle   7  Pass 1  IDiag  1:
 E= -1211.63611007514     Delta-E=       -0.000025699739 Rises=F Damp=F
 DIIS: error= 9.83D-05 at cycle   7 NSaved=   7.
 NSaved= 7 IEnMin= 7 EnMin= -1211.63611007514     IErMin= 7 ErrMin= 9.83D-05
 ErrMax= 9.83D-05  0.00D+00 EMaxC= 1.00D-01 BMatC= 2.98D-06 BMatP= 3.09D-05
 IDIUse=1 WtCom= 1.00D+00 WtEn= 0.00D+00
 Coeff-Com: -0.115D-02 0.763D-03 0.107D-01 0.370D-01 0.113D+00 0.315D+00
 Coeff-Com:  0.524D+00
 Coeff:     -0.115D-02 0.763D-03 0.107D-01 0.370D-01 0.113D+00 0.315D+00
 Coeff:      0.524D+00
 Gap=     0.180 Goal=   None    Shift=    0.000
 RMSDP=6.87D-06 MaxDP=3.61D-04 DE=-2.57D-05 OVMax= 4.47D-04

 Cycle   8  Pass 1  IDiag  1:
 E= -1211.63611261882     Delta-E=       -0.000002543679 Rises=F Damp=F
 DIIS: error= 3.85D-05 at cycle   8 NSaved=   8.
 NSaved= 8 IEnMin= 8 EnMin= -1211.63611261882     IErMin= 8 ErrMin= 3.85D-05
 ErrMax= 3.85D-05  0.00D+00 EMaxC= 1.00D-01 BMatC= 3.76D-07 BMatP= 2.98D-06
 IDIUse=1 WtCom= 1.00D+00 WtEn= 0.00D+00
 Coeff-Com: -0.330D-03-0.508D-05 0.142D-02 0.660D-02 0.288D-01 0.107D+00
 Coeff-Com:  0.298D+00 0.559D+00
 Coeff:     -0.330D-03-0.508D-05 0.142D-02 0.660D-02 0.288D-01 0.107D+00
 Coeff:      0.298D+00 0.559D+00
 Gap=     0.179 Goal=   None    Shift=    0.000
 RMSDP=2.26D-06 MaxDP=1.07D-04 DE=-2.54D-06 OVMax= 1.51D-04

 Cycle   9  Pass 1  IDiag  1:
 E= -1211.63611292737     Delta-E=       -0.000000308552 Rises=F Damp=F
 DIIS: error= 1.10D-05 at cycle   9 NSaved=   9.
 NSaved= 9 IEnMin= 9 EnMin= -1211.63611292737     IErMin= 9 ErrMin= 1.10D-05
 ErrMax= 1.10D-05  0.00D+00 EMaxC= 1.00D-01 BMatC= 4.07D-08 BMatP= 3.76D-07
 IDIUse=1 WtCom= 1.00D+00 WtEn= 0.00D+00
 Coeff-Com: -0.308D-04-0.928D-04-0.654D-03-0.135D-02 0.494D-03 0.147D-01
 Coeff-Com:  0.864D-01 0.303D+00 0.598D+00
 Coeff:     -0.308D-04-0.928D-04-0.654D-03-0.135D-02 0.494D-03 0.147D-01
 Coeff:      0.864D-01 0.303D+00 0.598D+00
 Gap=     0.179 Goal=   None    Shift=    0.000
 RMSDP=6.31D-07 MaxDP=3.25D-05 DE=-3.09D-07 OVMax= 3.75D-05

 Cycle  10  Pass 1  IDiag  1:
 E= -1211.63611295934     Delta-E=       -0.000000031963 Rises=F Damp=F
 DIIS: error= 1.81D-06 at cycle  10 NSaved=  10.
 NSaved=10 IEnMin=10 EnMin= -1211.63611295934     IErMin=10 ErrMin= 1.81D-06
 ErrMax= 1.81D-06  0.00D+00 EMaxC= 1.00D-01 BMatC= 2.55D-09 BMatP= 4.07D-08
 IDIUse=1 WtCom= 1.00D+00 WtEn= 0.00D+00
 Coeff-Com: -0.429D-06-0.449D-04-0.412D-03-0.104D-02-0.134D-02 0.155D-02
 Coeff-Com:  0.270D-01 0.127D+00 0.302D+00 0.545D+00
 Coeff:     -0.429D-06-0.449D-04-0.412D-03-0.104D-02-0.134D-02 0.155D-02
 Coeff:      0.270D-01 0.127D+00 0.302D+00 0.545D+00
 Gap=     0.179 Goal=   None    Shift=    0.000
 RMSDP=1.91D-07 MaxDP=7.51D-06 DE=-3.20D-08 OVMax= 1.60D-05

 Cycle  11  Pass 1  IDiag  1:
 E= -1211.63611296133     Delta-E=       -0.000000001992 Rises=F Damp=F
 DIIS: error= 6.52D-07 at cycle  11 NSaved=  11.
 NSaved=11 IEnMin=11 EnMin= -1211.63611296133     IErMin=11 ErrMin= 6.52D-07
 ErrMax= 6.52D-07  0.00D+00 EMaxC= 1.00D-01 BMatC= 3.10D-10 BMatP= 2.55D-09
 IDIUse=1 WtCom= 1.00D+00 WtEn= 0.00D+00
 Coeff-Com:  0.370D-05-0.718D-05-0.129D-03-0.358D-03-0.798D-03-0.125D-02
 Coeff-Com:  0.218D-02 0.255D-01 0.694D-01 0.279D+00 0.626D+00
 Coeff:      0.370D-05-0.718D-05-0.129D-03-0.358D-03-0.798D-03-0.125D-02
 Coeff:      0.218D-02 0.255D-01 0.694D-01 0.279D+00 0.626D+00
 Gap=     0.179 Goal=   None    Shift=    0.000
 RMSDP=7.12D-08 MaxDP=3.65D-06 DE=-1.99D-09 OVMax= 7.77D-06

 Cycle  12  Pass 1  IDiag  1:
 E= -1211.63611296159     Delta-E=       -0.000000000259 Rises=F Damp=F
 DIIS: error= 3.11D-07 at cycle  12 NSaved=  12.
 NSaved=12 IEnMin=12 EnMin= -1211.63611296159     IErMin=12 ErrMin= 3.11D-07
 ErrMax= 3.11D-07  0.00D+00 EMaxC= 1.00D-01 BMatC= 7.14D-11 BMatP= 3.10D-10
 IDIUse=1 WtCom= 1.00D+00 WtEn= 0.00D+00
 Coeff-Com:  0.256D-05-0.407D-06-0.455D-04-0.133D-03-0.400D-03-0.102D-02
 Coeff-Com: -0.143D-02 0.373D-02 0.142D-01 0.125D+00 0.403D+00 0.457D+00
 Coeff:      0.256D-05-0.407D-06-0.455D-04-0.133D-03-0.400D-03-0.102D-02
 Coeff:     -0.143D-02 0.373D-02 0.142D-01 0.125D+00 0.403D+00 0.457D+00
 Gap=     0.179 Goal=   None    Shift=    0.000
 RMSDP=2.71D-08 MaxDP=1.45D-06 DE=-2.59D-10 OVMax= 2.83D-06

 Cycle  13  Pass 1  IDiag  1:
 E= -1211.63611296163     Delta-E=       -0.000000000046 Rises=F Damp=F
 DIIS: error= 4.94D-08 at cycle  13 NSaved=  13.
 NSaved=13 IEnMin=13 EnMin= -1211.63611296163     IErMin=13 ErrMin= 4.94D-08
 ErrMax= 4.94D-08  0.00D+00 EMaxC= 1.00D-01 BMatC= 2.40D-12 BMatP= 7.14D-11
 IDIUse=1 WtCom= 1.00D+00 WtEn= 0.00D+00
 Coeff-Com:  0.682D-06 0.579D-06-0.423D-05-0.135D-04-0.809D-04-0.326D-03
 Coeff-Com: -0.989D-03-0.199D-02-0.399D-02 0.169D-01 0.965D-01 0.191D+00
 Coeff-Com:  0.703D+00
 Coeff:      0.682D-06 0.579D-06-0.423D-05-0.135D-04-0.809D-04-0.326D-03
 Coeff:     -0.989D-03-0.199D-02-0.399D-02 0.169D-01 0.965D-01 0.191D+00
 Coeff:      0.703D+00
 Gap=     0.179 Goal=   None    Shift=    0.000
 RMSDP=7.25D-09 MaxDP=2.82D-07 DE=-4.59D-11 OVMax= 6.24D-07

 Error on total polarization charges =  0.02003
 SCF Done:  E(RB3LYP) =  -1211.63611296     A.U. after   13 cycles
            NFock= 13  Conv=0.72D-08     -V/T= 2.0077
 KE= 1.202338621332D+03 PE=-5.796274345182D+03 EE= 1.891949337360D+03
 Leave Link  502 at Mon Sep 28 08:23:42 2020, MaxMem=  2147483648 cpu:             263.2 elap:              65.8
 (Enter /prod/apps/gaussian/g16b1/l601.exe)
 Copying SCF densities to generalized density rwf, IOpCl= 0 IROHF=0.

 **********************************************************************

            Population analysis using the SCF Density.

 **********************************************************************

 Alpha  occ. eigenvalues --  -89.16068 -19.17546 -19.17356 -14.49295 -14.46930
 Alpha  occ. eigenvalues --  -14.45269 -14.40924 -14.39513 -10.32546 -10.26921
 Alpha  occ. eigenvalues --  -10.26388 -10.22697 -10.22658 -10.21734 -10.21561
 Alpha  occ. eigenvalues --  -10.20899 -10.20861 -10.20750  -8.18202  -6.14741
 Alpha  occ. eigenvalues --   -6.14617  -6.14579  -1.17662  -1.15275  -1.03792
 Alpha  occ. eigenvalues --   -1.00693  -0.96532  -0.95569  -0.87784  -0.85874
 Alpha  occ. eigenvalues --   -0.79439  -0.77007  -0.73455  -0.73398  -0.71141
 Alpha  occ. eigenvalues --   -0.69812  -0.63931  -0.63327  -0.62173  -0.59937
 Alpha  occ. eigenvalues --   -0.55896  -0.55457  -0.55119  -0.53921  -0.52339
 Alpha  occ. eigenvalues --   -0.50522  -0.49644  -0.49167  -0.47340  -0.46898
 Alpha  occ. eigenvalues --   -0.45804  -0.45351  -0.44249  -0.43064  -0.41682
 Alpha  occ. eigenvalues --   -0.41279  -0.39703  -0.38940  -0.38443  -0.37893
 Alpha  occ. eigenvalues --   -0.37553  -0.36724  -0.35741  -0.34972  -0.34484
 Alpha  occ. eigenvalues --   -0.33248  -0.29446  -0.27265  -0.27039  -0.25547
 Alpha virt. eigenvalues --   -0.07599  -0.02246  -0.01562   0.00294   0.04192
 Alpha virt. eigenvalues --    0.06347   0.07374   0.08163   0.08388   0.09146
 Alpha virt. eigenvalues --    0.10259   0.10399   0.13101   0.13707   0.14098
 Alpha virt. eigenvalues --    0.14464   0.15404   0.16013   0.16204   0.16639
 Alpha virt. eigenvalues --    0.17479   0.18295   0.18771   0.19068   0.19534
 Alpha virt. eigenvalues --    0.19959   0.21340   0.22110   0.24358   0.27341
 Alpha virt. eigenvalues --    0.28743   0.28978   0.31144   0.32357   0.32817
 Alpha virt. eigenvalues --    0.33663   0.35860   0.38207   0.41445   0.44855
 Alpha virt. eigenvalues --    0.46660   0.47593   0.48453   0.48905   0.49983
 Alpha virt. eigenvalues --    0.51179   0.52059   0.53308   0.54878   0.55385
 Alpha virt. eigenvalues --    0.55813   0.56010   0.57077   0.57777   0.57942
 Alpha virt. eigenvalues --    0.59687   0.59803   0.60014   0.60129   0.60340
 Alpha virt. eigenvalues --    0.61264   0.63021   0.63746   0.64320   0.65700
 Alpha virt. eigenvalues --    0.67722   0.70492   0.71654   0.72575   0.73798
 Alpha virt. eigenvalues --    0.73993   0.75225   0.76528   0.77781   0.78535
 Alpha virt. eigenvalues --    0.79375   0.80145   0.81198   0.82936   0.83054
 Alpha virt. eigenvalues --    0.83535   0.83742   0.84887   0.85391   0.86250
 Alpha virt. eigenvalues --    0.87240   0.88291   0.89370   0.90095   0.90480
 Alpha virt. eigenvalues --    0.92354   0.93037   0.93882   0.94682   0.95330
 Alpha virt. eigenvalues --    0.96452   0.97738   0.98387   0.99936   1.01010
 Alpha virt. eigenvalues --    1.02469   1.03433   1.04417   1.05834   1.08238
 Alpha virt. eigenvalues --    1.10213   1.11294   1.13093   1.14362   1.14439
 Alpha virt. eigenvalues --    1.16464   1.16768   1.17559   1.21845   1.22263
 Alpha virt. eigenvalues --    1.23441   1.24542   1.25648   1.28542   1.29529
 Alpha virt. eigenvalues --    1.33773   1.34858   1.36013   1.37305   1.40626
 Alpha virt. eigenvalues --    1.41202   1.42464   1.43680   1.44461   1.45112
 Alpha virt. eigenvalues --    1.47067   1.47211   1.48758   1.49346   1.54514
 Alpha virt. eigenvalues --    1.59481   1.60352   1.63617   1.65542   1.67522
 Alpha virt. eigenvalues --    1.71898   1.73935   1.76806   1.77492   1.78150
 Alpha virt. eigenvalues --    1.78813   1.79309   1.81700   1.82049   1.84287
 Alpha virt. eigenvalues --    1.86562   1.86847   1.87263   1.90735   1.93395
 Alpha virt. eigenvalues --    1.94079   1.94650   1.95368   1.96716   1.97639
 Alpha virt. eigenvalues --    1.99783   2.01736   2.04208   2.04942   2.06344
 Alpha virt. eigenvalues --    2.07014   2.08172   2.08527   2.10773   2.10930
 Alpha virt. eigenvalues --    2.12010   2.13225   2.14669   2.16943   2.19232
 Alpha virt. eigenvalues --    2.20209   2.21120   2.22250   2.24160   2.25573
 Alpha virt. eigenvalues --    2.26896   2.28536   2.29403   2.30433   2.32104
 Alpha virt. eigenvalues --    2.34684   2.41002   2.41501   2.44468   2.47233
 Alpha virt. eigenvalues --    2.49033   2.50543   2.54457   2.57009   2.57711
 Alpha virt. eigenvalues --    2.58390   2.61942   2.63505   2.65256   2.68579
 Alpha virt. eigenvalues --    2.69641   2.70970   2.72700   2.73227   2.75083
 Alpha virt. eigenvalues --    2.79126   2.81349   2.84005   2.87861   2.99274
 Alpha virt. eigenvalues --    3.03389   3.12548   3.23198   3.41143   3.57763
 Alpha virt. eigenvalues --    3.69945   3.92041   3.96410   3.97718   4.01946
 Alpha virt. eigenvalues --    4.06852   4.09533   4.09995   4.11681   4.14631
 Alpha virt. eigenvalues --    4.17700   4.28716   4.30857   4.31121   4.37803
 Alpha virt. eigenvalues --    4.46193   4.69547
          Condensed to atoms (all electrons):
               1          2          3          4          5          6
     1  O    8.221529   0.466827  -0.053731   0.001445  -0.000018   0.000000
     2  S    0.466827  13.531428   0.112190  -0.012669  -0.001757   0.000171
     3  N   -0.053731   0.112190   7.390801   0.295322  -0.056159   0.004888
     4  C    0.001445  -0.012669   0.295322   4.475769   0.270260  -0.055140
     5  N   -0.000018  -0.001757  -0.056159   0.270260   6.778825   0.237837
     6  N    0.000000   0.000171   0.004888  -0.055140   0.237837   6.700921
     7  C   -0.000006  -0.006950  -0.068918   0.508201  -0.044799  -0.093525
     8  N   -0.000000   0.000012   0.003424  -0.015143  -0.083739   0.280118
     9  C   -0.000000  -0.000015  -0.000083   0.002370   0.006965  -0.052632
    10  C    0.000000   0.000000   0.000000  -0.000624   0.000368  -0.001015
    11  C    0.000000   0.000000  -0.000000   0.000006  -0.000005   0.000227
    12  C   -0.000000   0.000000  -0.000000   0.000000  -0.000000   0.000015
    13  C    0.000000  -0.000000  -0.000000  -0.000011   0.000003  -0.000073
    14  C    0.000000  -0.000001   0.000003   0.001318  -0.000337   0.003200
    15  N   -0.056062   0.202466  -0.059452  -0.000816  -0.000012  -0.000001
    16  C    0.001474  -0.018594   0.000736   0.000493  -0.000021  -0.000003
    17  C   -0.006024  -0.017980   0.000547   0.000207   0.000001  -0.000000
    18  O   -0.038132   0.423986  -0.054944  -0.000430   0.000184  -0.000002
    19  H    0.001028  -0.007084   0.292560  -0.015797  -0.003090  -0.000027
    20  H    0.000013   0.000490  -0.001067  -0.026865   0.003568   0.003073
    21  H   -0.000000  -0.000000  -0.000000   0.000018  -0.000324   0.010733
    22  H    0.000000  -0.000000   0.000000  -0.000000   0.000000  -0.000006
    23  H   -0.000000  -0.000000  -0.000000  -0.000000  -0.000000   0.000000
    24  H   -0.000000   0.000000   0.000000   0.000000  -0.000000   0.000001
    25  H   -0.000000  -0.000002  -0.000001   0.000076  -0.000015  -0.000083
    26  H    0.000040  -0.001466  -0.000529   0.000066   0.000009  -0.000002
    27  H   -0.000045   0.002322  -0.000148   0.000005   0.000001  -0.000000
    28  H   -0.000043  -0.008714   0.002586   0.001170  -0.000025   0.000010
    29  H    0.009683  -0.001142  -0.000403  -0.000022   0.000001  -0.000000
    30  H   -0.000084  -0.008897   0.003339   0.000199  -0.000014   0.000000
    31  H    0.000116   0.002778  -0.000128  -0.000007  -0.000000   0.000000
    32  H   -0.000001  -0.000041  -0.001644  -0.022117   0.311885  -0.026190
               7          8          9         10         11         12
     1  O   -0.000006  -0.000000  -0.000000   0.000000   0.000000  -0.000000
     2  S   -0.006950   0.000012  -0.000015   0.000000   0.000000   0.000000
     3  N   -0.068918   0.003424  -0.000083   0.000000  -0.000000  -0.000000
     4  C    0.508201  -0.015143   0.002370  -0.000624   0.000006   0.000000
     5  N   -0.044799  -0.083739   0.006965   0.000368  -0.000005  -0.000000
     6  N   -0.093525   0.280118  -0.052632  -0.001015   0.000227   0.000015
     7  C    4.979854   0.313361  -0.035334   0.006464  -0.000082   0.000016
     8  N    0.313361   6.759892   0.210857  -0.054788   0.004420   0.000355
     9  C   -0.035334   0.210857   4.635327   0.519153  -0.011282  -0.037241
    10  C    0.006464  -0.054788   0.519153   4.964611   0.523964  -0.039993
    11  C   -0.000082   0.004420  -0.011282   0.523964   4.866983   0.539047
    12  C    0.000016   0.000355  -0.037241  -0.039993   0.539047   4.858912
    13  C    0.000011   0.004482  -0.011523  -0.040766  -0.023946   0.542074
    14  C   -0.004820  -0.048678   0.530459  -0.068232  -0.041335  -0.040823
    15  N    0.000106  -0.000003   0.000000  -0.000000  -0.000000  -0.000000
    16  C    0.000277  -0.000011  -0.000000  -0.000000   0.000000   0.000000
    17  C   -0.000003  -0.000000   0.000000  -0.000000  -0.000000  -0.000000
    18  O    0.002498   0.000222  -0.000000   0.000000  -0.000000   0.000000
    19  H    0.003014  -0.000005   0.000001  -0.000000   0.000000  -0.000000
    20  H    0.360887  -0.031012  -0.002255  -0.000012  -0.000006  -0.000001
    21  H    0.000128  -0.011552  -0.039976   0.359025  -0.034760   0.004324
    22  H    0.000001  -0.000107   0.003497  -0.037203   0.364767  -0.038882
    23  H   -0.000000   0.000004   0.000477   0.004724  -0.040767   0.366551
    24  H   -0.000003  -0.000112   0.003440   0.000754   0.004290  -0.038566
    25  H    0.005699  -0.008729  -0.039953   0.004695   0.000204   0.004149
    26  H    0.000481  -0.000018   0.000000  -0.000000  -0.000000  -0.000000
    27  H    0.000021   0.000000   0.000000  -0.000000  -0.000000   0.000000
    28  H    0.000017  -0.000004  -0.000000   0.000000   0.000000  -0.000000
    29  H   -0.000001   0.000000   0.000000  -0.000000  -0.000000   0.000000
    30  H    0.000005   0.000000   0.000000   0.000000   0.000000  -0.000000
    31  H   -0.000000  -0.000000  -0.000000  -0.000000  -0.000000   0.000000
    32  H    0.004527   0.004095  -0.000074   0.000000  -0.000000  -0.000000
              13         14         15         16         17         18
     1  O    0.000000   0.000000  -0.056062   0.001474  -0.006024  -0.038132
     2  S   -0.000000  -0.000001   0.202466  -0.018594  -0.017980   0.423986
     3  N   -0.000000   0.000003  -0.059452   0.000736   0.000547  -0.054944
     4  C   -0.000011   0.001318  -0.000816   0.000493   0.000207  -0.000430
     5  N    0.000003  -0.000337  -0.000012  -0.000021   0.000001   0.000184
     6  N   -0.000073   0.003200  -0.000001  -0.000003  -0.000000  -0.000002
     7  C    0.000011  -0.004820   0.000106   0.000277  -0.000003   0.002498
     8  N    0.004482  -0.048678  -0.000003  -0.000011  -0.000000   0.000222
     9  C   -0.011523   0.530459   0.000000  -0.000000   0.000000  -0.000000
    10  C   -0.040766  -0.068232  -0.000000  -0.000000  -0.000000   0.000000
    11  C   -0.023946  -0.041335  -0.000000   0.000000  -0.000000  -0.000000
    12  C    0.542074  -0.040823  -0.000000   0.000000  -0.000000   0.000000
    13  C    4.858133   0.528775  -0.000000   0.000000   0.000000  -0.000000
    14  C    0.528775   4.963018  -0.000000  -0.000000   0.000000   0.000001
    15  N   -0.000000  -0.000000   7.153424   0.263744   0.264192  -0.051975
    16  C    0.000000  -0.000000   0.263744   5.000186  -0.046606  -0.005342
    17  C    0.000000   0.000000   0.264192  -0.046606   4.999148   0.001462
    18  O   -0.000000   0.000001  -0.051975  -0.005342   0.001462   8.266309
    19  H    0.000000   0.000000  -0.000397   0.000130   0.000377   0.001265
    20  H    0.000128   0.002299   0.000051  -0.000078  -0.000001   0.010743
    21  H    0.000113   0.004996  -0.000000   0.000000   0.000000   0.000000
    22  H    0.004329   0.000715   0.000000  -0.000000   0.000000   0.000000
    23  H   -0.040743   0.004883  -0.000000   0.000000   0.000000  -0.000000
    24  H    0.364485  -0.036913  -0.000000  -0.000000  -0.000000   0.000000
    25  H   -0.032110   0.356137  -0.000000   0.000000   0.000000  -0.000009
    26  H   -0.000000  -0.000000  -0.031851   0.375440   0.004162   0.009667
    27  H   -0.000000  -0.000000  -0.034129   0.378331  -0.003617   0.000099
    28  H    0.000000   0.000000  -0.044023   0.379280  -0.000553  -0.000060
    29  H   -0.000000  -0.000000  -0.031896   0.004093   0.376105   0.000044
    30  H    0.000000   0.000000  -0.044640  -0.000587   0.378127  -0.000043
    31  H   -0.000000  -0.000000  -0.033759  -0.003582   0.379131  -0.000044
    32  H   -0.000000   0.000003  -0.000001   0.000001  -0.000000   0.000003
              19         20         21         22         23         24
     1  O    0.001028   0.000013  -0.000000   0.000000  -0.000000  -0.000000
     2  S   -0.007084   0.000490  -0.000000  -0.000000  -0.000000   0.000000
     3  N    0.292560  -0.001067  -0.000000   0.000000  -0.000000   0.000000
     4  C   -0.015797  -0.026865   0.000018  -0.000000  -0.000000   0.000000
     5  N   -0.003090   0.003568  -0.000324   0.000000  -0.000000  -0.000000
     6  N   -0.000027   0.003073   0.010733  -0.000006   0.000000   0.000001
     7  C    0.003014   0.360887   0.000128   0.000001  -0.000000  -0.000003
     8  N   -0.000005  -0.031012  -0.011552  -0.000107   0.000004  -0.000112
     9  C    0.000001  -0.002255  -0.039976   0.003497   0.000477   0.003440
    10  C   -0.000000  -0.000012   0.359025  -0.037203   0.004724   0.000754
    11  C    0.000000  -0.000006  -0.034760   0.364767  -0.040767   0.004290
    12  C   -0.000000  -0.000001   0.004324  -0.038882   0.366551  -0.038566
    13  C    0.000000   0.000128   0.000113   0.004329  -0.040743   0.364485
    14  C    0.000000   0.002299   0.004996   0.000715   0.004883  -0.036913
    15  N   -0.000397   0.000051  -0.000000   0.000000  -0.000000  -0.000000
    16  C    0.000130  -0.000078   0.000000  -0.000000   0.000000  -0.000000
    17  C    0.000377  -0.000001   0.000000   0.000000   0.000000  -0.000000
    18  O    0.001265   0.010743   0.000000   0.000000  -0.000000   0.000000
    19  H    0.278558  -0.000039  -0.000000  -0.000000   0.000000  -0.000000
    20  H   -0.000039   0.418628  -0.000008   0.000000  -0.000000  -0.000001
    21  H   -0.000000  -0.000008   0.525526  -0.004934  -0.000132   0.000013
    22  H   -0.000000   0.000000  -0.004934   0.540681  -0.004998  -0.000155
    23  H    0.000000  -0.000000  -0.000132  -0.004998   0.546317  -0.004987
    24  H   -0.000000  -0.000001   0.000013  -0.000155  -0.004987   0.539686
    25  H   -0.000000   0.001201  -0.000122   0.000013  -0.000137  -0.004900
    26  H   -0.000017   0.000208  -0.000000   0.000000  -0.000000   0.000000
    27  H   -0.000003   0.000000  -0.000000   0.000000  -0.000000   0.000000
    28  H    0.000080   0.000047   0.000000  -0.000000   0.000000  -0.000000
    29  H    0.000002  -0.000000  -0.000000   0.000000  -0.000000  -0.000000
    30  H    0.000930   0.000000   0.000000  -0.000000   0.000000  -0.000000
    31  H   -0.000019   0.000000  -0.000000  -0.000000   0.000000  -0.000000
    32  H    0.001794  -0.000052  -0.000001   0.000000  -0.000000   0.000000
              25         26         27         28         29         30
     1  O   -0.000000   0.000040  -0.000045  -0.000043   0.009683  -0.000084
     2  S   -0.000002  -0.001466   0.002322  -0.008714  -0.001142  -0.008897
     3  N   -0.000001  -0.000529  -0.000148   0.002586  -0.000403   0.003339
     4  C    0.000076   0.000066   0.000005   0.001170  -0.000022   0.000199
     5  N   -0.000015   0.000009   0.000001  -0.000025   0.000001  -0.000014
     6  N   -0.000083  -0.000002  -0.000000   0.000010  -0.000000   0.000000
     7  C    0.005699   0.000481   0.000021   0.000017  -0.000001   0.000005
     8  N   -0.008729  -0.000018   0.000000  -0.000004   0.000000   0.000000
     9  C   -0.039953   0.000000   0.000000  -0.000000   0.000000   0.000000
    10  C    0.004695  -0.000000  -0.000000   0.000000  -0.000000   0.000000
    11  C    0.000204  -0.000000  -0.000000   0.000000  -0.000000   0.000000
    12  C    0.004149  -0.000000   0.000000  -0.000000   0.000000  -0.000000
    13  C   -0.032110  -0.000000  -0.000000   0.000000  -0.000000   0.000000
    14  C    0.356137  -0.000000  -0.000000   0.000000  -0.000000   0.000000
    15  N   -0.000000  -0.031851  -0.034129  -0.044023  -0.031896  -0.044640
    16  C    0.000000   0.375440   0.378331   0.379280   0.004093  -0.000587
    17  C    0.000000   0.004162  -0.003617  -0.000553   0.376105   0.378127
    18  O   -0.000009   0.009667   0.000099  -0.000060   0.000044  -0.000043
    19  H   -0.000000  -0.000017  -0.000003   0.000080   0.000002   0.000930
    20  H    0.001201   0.000208   0.000000   0.000047  -0.000000   0.000000
    21  H   -0.000122  -0.000000  -0.000000   0.000000  -0.000000   0.000000
    22  H    0.000013   0.000000   0.000000  -0.000000   0.000000  -0.000000
    23  H   -0.000137  -0.000000  -0.000000   0.000000  -0.000000   0.000000
    24  H   -0.004900   0.000000   0.000000  -0.000000  -0.000000  -0.000000
    25  H    0.524941  -0.000000  -0.000000   0.000000   0.000000   0.000000
    26  H   -0.000000   0.490485  -0.020184  -0.028370  -0.000183  -0.000153
    27  H   -0.000000  -0.020184   0.510804  -0.034225   0.000031  -0.001310
    28  H    0.000000  -0.028370  -0.034225   0.543677  -0.000134   0.006452
    29  H    0.000000  -0.000183   0.000031  -0.000134   0.489401  -0.028382
    30  H    0.000000  -0.000153  -0.001310   0.006452  -0.028382   0.547015
    31  H   -0.000000   0.000028   0.004825  -0.001357  -0.020495  -0.034334
    32  H    0.000000  -0.000000   0.000000   0.000003  -0.000000   0.000003
              31         32
     1  O    0.000116  -0.000001
     2  S    0.002778  -0.000041
     3  N   -0.000128  -0.001644
     4  C   -0.000007  -0.022117
     5  N   -0.000000   0.311885
     6  N    0.000000  -0.026190
     7  C   -0.000000   0.004527
     8  N   -0.000000   0.004095
     9  C   -0.000000  -0.000074
    10  C   -0.000000   0.000000
    11  C   -0.000000  -0.000000
    12  C    0.000000  -0.000000
    13  C   -0.000000  -0.000000
    14  C   -0.000000   0.000003
    15  N   -0.033759  -0.000001
    16  C   -0.003582   0.000001
    17  C    0.379131  -0.000000
    18  O   -0.000044   0.000003
    19  H   -0.000019   0.001794
    20  H    0.000000  -0.000052
    21  H   -0.000000  -0.000001
    22  H   -0.000000   0.000000
    23  H    0.000000  -0.000000
    24  H   -0.000000   0.000000
    25  H   -0.000000   0.000000
    26  H    0.000028  -0.000000
    27  H    0.004825   0.000000
    28  H   -0.001357   0.000003
    29  H   -0.020495  -0.000000
    30  H   -0.034334   0.000003
    31  H    0.509906   0.000000
    32  H    0.000000   0.256858
 Mulliken charges:
               1
     1  O   -0.548011
     2  S    1.342640
     3  N   -0.809191
     4  C    0.592716
     5  N   -0.419590
     6  N   -0.012495
     7  C    0.068870
     8  N   -0.327342
     9  C    0.317822
    10  C   -0.141125
    11  C   -0.151727
    12  C   -0.119936
    13  C   -0.153358
    14  C   -0.154670
    15  N   -0.494967
    16  C   -0.329360
    17  C   -0.328673
    18  O   -0.565502
    19  H    0.446740
    20  H    0.260062
    21  H    0.186933
    22  H    0.172283
    23  H    0.168808
    24  H    0.172969
    25  H    0.188947
    26  H    0.202188
    27  H    0.197222
    28  H    0.184187
    29  H    0.203297
    30  H    0.182372
    31  H    0.196941
    32  H    0.470951
 Sum of Mulliken charges =   1.00000
 Mulliken charges with hydrogens summed into heavy atoms:
               1
     1  O   -0.548011
     2  S    1.342640
     3  N   -0.362451
     4  C    0.592716
     5  N    0.051361
     6  N   -0.012495
     7  C    0.328932
     8  N   -0.327342
     9  C    0.317822
    10  C    0.045808
    11  C    0.020555
    12  C    0.048872
    13  C    0.019610
    14  C    0.034277
    15  N   -0.494967
    16  C    0.254237
    17  C    0.253938
    18  O   -0.565502
 Electronic spatial extent (au):  <R**2>=           6427.5919
 Charge=              1.0000 electrons
 Dipole moment (field-independent basis, Debye):
    X=              2.3719    Y=              8.1487    Z=             -4.2615  Tot=              9.4967
 Quadrupole moment (field-independent basis, Debye-Ang):
   XX=            -75.5505   YY=           -100.2249   ZZ=            -92.3098
   XY=            -23.6860   XZ=              7.5130   YZ=             -8.1482
 Traceless Quadrupole moment (field-independent basis, Debye-Ang):
   XX=             13.8113   YY=            -10.8632   ZZ=             -2.9481
   XY=            -23.6860   XZ=              7.5130   YZ=             -8.1482
 Octapole moment (field-independent basis, Debye-Ang**2):
  XXX=             82.6101  YYY=              4.4661  ZZZ=            -10.5511  XYY=              4.9831
  XXY=             71.8387  XXZ=             53.3411  XZZ=            -47.5317  YZZ=             26.5118
  YYZ=              3.3494  XYZ=             -6.4709
 Hexadecapole moment (field-independent basis, Debye-Ang**3):
 XXXX=          -5857.9696 YYYY=           -730.8961 ZZZZ=           -640.1779 XXXY=           -228.8179
 XXXZ=            164.8765 YYYX=            -31.0109 YYYZ=             17.6597 ZZZX=             33.8747
 ZZZY=             -9.3700 XXYY=          -1165.6709 XXZZ=          -1260.8593 YYZZ=           -215.4138
 XXYZ=            -23.9746 YYXZ=             10.6837 ZZXY=            -55.0639
 N-N= 1.490350273528D+03 E-N=-5.796274345715D+03  KE= 1.202338621332D+03
 No NMR shielding tensors so no spin-rotation constants.
 Leave Link  601 at Mon Sep 28 08:23:42 2020, MaxMem=  2147483648 cpu:               0.4 elap:               0.1
 (Enter /prod/apps/gaussian/g16b1/l701.exe)
 ... and contract with generalized density number  0.
 Compute integral first derivatives.
 D1PCM: PCM CHGder 1st derivatives, ID1Alg=3 FixD1E=F DoIter=F DoCFld=F I1PDM=0.
 GePol: Maximum number of non-zero 1st derivatives   =     189
 Leave Link  701 at Mon Sep 28 08:23:44 2020, MaxMem=  2147483648 cpu:               9.0 elap:               2.3
 (Enter /prod/apps/gaussian/g16b1/l702.exe)
 L702 exits ... SP integral derivatives will be done elsewhere.
 Leave Link  702 at Mon Sep 28 08:23:44 2020, MaxMem=  2147483648 cpu:               0.1 elap:               0.0
 (Enter /prod/apps/gaussian/g16b1/l703.exe)
 Integral derivatives from FoFJK, PRISM(SPDF).
 Compute integral first derivatives, UseDBF=F ICtDFT=           0.
 Calling FoFJK, ICntrl=      2127 FMM=F ISym2X=0 I1Cent= 0 IOpClX= 0 NMat=1 NMatS=1 NMatT=0.
 FoFJK:  IHMeth= 1 ICntrl=    2127 DoSepK=F KAlg= 0 I1Cent=           0 FoldK=F
 IRaf=         0 NMat=       1 IRICut=       1 DoRegI=T DoRafI=F ISym2E= 0 IDoP0=0 IntGTp=1.
 FoFCou: FMM=F IPFlag=           0 FMFlag=      100000 FMFlg1=         800
         NFxFlg=           0 DoJE=F BraDBF=F KetDBF=F FulRan=T
         wScrn=  0.000000 ICntrl=      2127 IOpCl=  0 I1Cent=           0 NGrid=           0
         NMat0=    1 NMatS0=      1 NMatT0=    0 NMatD0=    1 NMtDS0=    0 NMtDT0=    0
 Symmetry not used in FoFCou.
 Leave Link  703 at Mon Sep 28 08:23:59 2020, MaxMem=  2147483648 cpu:              58.6 elap:              14.7
 (Enter /prod/apps/gaussian/g16b1/l716.exe)
 Dipole        = 9.33158566D-01 3.20593222D+00-1.67659647D+00
 -------------------------------------------------------------------
 Center     Atomic                   Forces (Hartrees/Bohr)
 Number     Number              X              Y              Z
 -------------------------------------------------------------------
      1        8          -0.000001994    0.000029931   -0.000061042
      2       16           0.000418714   -0.000310550    0.000456508
      3        7           0.000550774   -0.000285235    0.000422097
      4        6          -0.000545029   -0.000139030   -0.000225382
      5        7           0.000634478   -0.000517452    0.000797063
      6        7           0.000002074    0.000125535   -0.000281469
      7        6          -0.000175398    0.000169170   -0.000155920
      8        7          -0.000009541   -0.000077542    0.000216946
      9        6          -0.000043911    0.000218025   -0.000136388
     10        6          -0.000301518    0.000128143   -0.000231944
     11        6           0.000473886    0.000959590   -0.000065500
     12        6           0.000432513   -0.000704641    0.000228228
     13        6           0.000110303   -0.000240177    0.000234200
     14        6          -0.000175394   -0.000371953    0.000012672
     15        7          -0.000248086    0.000107089   -0.000024061
     16        6           0.000407260   -0.000223244   -0.000036555
     17        6           0.000554440    0.000501567    0.000277095
     18        8          -0.000286240    0.000274917   -0.000290115
     19        1          -0.000158121    0.000210591   -0.000245363
     20        1           0.000140544   -0.000103369    0.000049395
     21        1           0.000000216   -0.000045965    0.000005527
     22        1          -0.000286492   -0.000365159   -0.000029251
     23        1          -0.000280893    0.000109900   -0.000098200
     24        1          -0.000081025    0.000200532   -0.000100131
     25        1          -0.000011691    0.000172597    0.000021419
     26        1          -0.000179337    0.000223924   -0.000072915
     27        1          -0.000011732    0.000046066   -0.000073801
     28        1          -0.000131470   -0.000031415    0.000110702
     29        1          -0.000303458   -0.000249786   -0.000265940
     30        1          -0.000181665   -0.000160991    0.000085112
     31        1           0.000000150   -0.000018257   -0.000026437
     32        1          -0.000312357    0.000367190   -0.000496551
 -------------------------------------------------------------------
 Cartesian Forces:  Max     0.000959590 RMS     0.000288581
 Leave Link  716 at Mon Sep 28 08:23:59 2020, MaxMem=  2147483648 cpu:               0.1 elap:               0.0
 (Enter /prod/apps/gaussian/g16b1/l103.exe)

 GradGradGradGradGradGradGradGradGradGradGradGradGradGradGradGradGradGrad
 Berny optimization.
 FormGI is forming the generalized inverse of G from B-inverse, IUseBI=4.
 Internal  Forces:  Max     0.000694069 RMS     0.000144657
 Search for a local minimum.
 Step number   1 out of a maximum of  170
 All quantities printed in internal units (Hartrees-Bohrs-Radians)
 RMS Force = .14466D-03 SwitMx=.10000D-02 MixMth= 2
 Mixed Optimization -- En-DIIS/RFO-DIIS
 Second derivative matrix not updated -- first step.
 ITU=  0
     Eigenvalues ---    0.00743   0.00744   0.01058   0.01235   0.01770
     Eigenvalues ---    0.01813   0.01852   0.01890   0.01936   0.02045
     Eigenvalues ---    0.02139   0.02148   0.02156   0.02163   0.02168
     Eigenvalues ---    0.02170   0.02173   0.02177   0.02181   0.02247
     Eigenvalues ---    0.02248   0.02259   0.02311   0.07225   0.07226
     Eigenvalues ---    0.07767   0.07771   0.09295   0.10641   0.14834
     Eigenvalues ---    0.15050   0.15983   0.15993   0.15997   0.15999
     Eigenvalues ---    0.15999   0.15999   0.16000   0.16000   0.16000
     Eigenvalues ---    0.16000   0.16000   0.16000   0.16000   0.20186
     Eigenvalues ---    0.20848   0.21310   0.22000   0.22000   0.22284
     Eigenvalues ---    0.23362   0.23500   0.24069   0.24958   0.25000
     Eigenvalues ---    0.25000   0.25000   0.33805   0.34145   0.34167
     Eigenvalues ---    0.34673   0.34688   0.34999   0.35152   0.35436
     Eigenvalues ---    0.35447   0.35496   0.35532   0.35540   0.35597
     Eigenvalues ---    0.35680   0.36854   0.40348   0.42189   0.42370
[...]
      2         16           0       -2.849103   -0.580352   -0.486195
      3          7           0       -1.883885    0.767171   -0.938592
      4          6           0       -0.542709    0.869197   -0.664734
      5          7           0        0.101128    2.062683   -0.569130
      6          7           0        1.403087    1.942229   -0.365389
      7          6           0        0.451798   -0.077441   -0.484195
      8          7           0        1.593753    0.640682   -0.299421
      9          6           0        2.909162    0.121740   -0.059596
     10          6           0        3.813801    0.880923    0.682184
     11          6           0        5.087681    0.365207    0.908230
     12          6           0        5.440047   -0.890407    0.407733
     13          6           0        4.517300   -1.635744   -0.328778
     14          6           0        3.241479   -1.131273   -0.572748
     15          7           0       -3.401516   -0.434157    1.063432
     16          6           0       -2.428584   -0.608239    2.153973
     17          6           0       -4.441241    0.576386    1.314793
     18          8           0       -1.927939   -1.712701   -0.527378
     19          1           0       -2.403301    1.641720   -1.029880
     20          1           0        0.407036   -1.149085   -0.452043
     21          1           0        3.519196    1.844804    1.077074
     22          1           0        5.800309    0.943020    1.485594
     23          1           0        6.431817   -1.287500    0.592263
     24          1           0        4.789308   -2.607692   -0.723762
     25          1           0        2.526967   -1.693331   -1.161389
     26          1           0       -1.736782   -1.408996    1.901241
     27          1           0       -2.992145   -0.892648    3.044039
     28          1           0       -1.876497    0.314942    2.360986
     29          1           0       -5.158706    0.573399    0.497143
     30          1           0       -4.016257    1.578464    1.438929
     31          1           0       -4.951051    0.289272    2.235672
     32          1           0       -0.298479    2.998836   -0.663453
 ---------------------------------------------------------------------
 Rotational constants (GHZ):           0.9564319           0.1741580           0.1687729
 Leave Link  202 at Mon Sep 28 08:40:47 2020, MaxMem=   262144000 cpu:               0.0 elap:               0.0
 (Enter /prod/apps/gaussian/g16b1/l301.exe)
 Standard basis: Aug-CC-pVDZ (5D, 7F)
 Ernie: Thresh=  0.10000D-02 Tol=  0.10000D-05 Strict=F.
 Ernie:  44 primitive shells out of 576 were deleted.
 There are   580 symmetry adapted cartesian basis functions of A   symmetry.
 There are   544 symmetry adapted basis functions of A   symmetry.
   544 basis functions,   966 primitive gaussians,   580 cartesian basis functions
    70 alpha electrons       70 beta electrons
       nuclear repulsion energy      1490.4761831323 Hartrees.
 IExCor=    0 DFT=F Ex=HF Corr=None ExCW=0 ScaHFX=  1.000000
 ScaDFX=  1.000000  1.000000  1.000000  1.000000 ScalE2=  1.000000  1.000000
 IRadAn=      5 IRanWt=     -1 IRanGd=            0 ICorTp=0 IEmpDi=  4
 NAtoms=   32 NActive=   32 NUniq=   32 SFac= 1.00D+00 NAtFMM=   60 NAOKFM=F Big=F
 Integral buffers will be    131072 words long.
 Raffenetti 1 integral format.
 Two-electron integral symmetry is turned on.
 Leave Link  301 at Mon Sep 28 08:40:47 2020, MaxMem=   262144000 cpu:               0.2 elap:               0.1
 (Enter /prod/apps/gaussian/g16b1/l302.exe)
 NPDir=0 NMtPBC=     1 NCelOv=     1 NCel=       1 NClECP=     1 NCelD=      1
         NCelK=      1 NCelE2=     1 NClLst=     1 CellRange=     0.0.
 One-electron integrals computed using PRISM.
 One-electron integral symmetry used in STVInt
 NBasis=   544 RedAO= T EigKep=  1.96D-06  NBF=   544
 NBsUse=   544 1.00D-06 EigRej= -1.00D+00 NBFU=   544
 Leave Link  302 at Mon Sep 28 08:40:48 2020, MaxMem=   262144000 cpu:               1.8 elap:               0.5
 (Enter /prod/apps/gaussian/g16b1/l303.exe)
 DipDrv:  MaxL=1.
 Leave Link  303 at Mon Sep 28 08:40:48 2020, MaxMem=   262144000 cpu:               0.4 elap:               0.1
 (Enter /prod/apps/gaussian/g16b1/l401.exe)
 ExpMin= 2.97D-02 ExpMax= 1.11D+05 ExpMxC= 1.07D+03 IAcc=3 IRadAn=         5 AccDes= 0.00D+00
 Harris functional with IExCor=  205 and IRadAn=       5 diagonalized for initial guess.
 HarFok:  IExCor=  205 AccDes= 0.00D+00 IRadAn=         5 IDoV= 1 UseB2=F ITyADJ=14
 ICtDFT=  3500011 ScaDFX=  1.000000  1.000000  1.000000  1.000000
 FoFCou: FMM=F IPFlag=           0 FMFlag=      100000 FMFlg1=           0
         NFxFlg=           0 DoJE=T BraDBF=F KetDBF=T FulRan=T
         wScrn=  0.000000 ICntrl=       500 IOpCl=  0 I1Cent=   200000004 NGrid=           0
         NMat0=    1 NMatS0=      1 NMatT0=    0 NMatD0=    1 NMtDS0=    0 NMtDT0=    0
 Petite list used in FoFCou.
 Harris En= -1206.64013062502    
 JPrj=0 DoOrth=F DoCkMO=F.
 Leave Link  401 at Mon Sep 28 08:40:51 2020, MaxMem=   262144000 cpu:              12.8 elap:               3.2
 (Enter /prod/apps/gaussian/g16b1/l502.exe)
 Integral symmetry usage will be decided dynamically.
 Closed shell SCF:
 Using DIIS extrapolation, IDIIS=  1040.
 NGot=   262144000 LenX=   261462304 LenY=   261125324
 Requested convergence on RMS density matrix=1.00D-08 within2000 cycles.
 Requested convergence on MAX density matrix=1.00D-06.
 Requested convergence on             energy=1.00D-06.
 No special actions if energy rises.

 Cycle   1  Pass 1  IDiag  1:
 FoFJK:  IHMeth= 1 ICntrl=       0 DoSepK=F KAlg= 0 I1Cent=           0 FoldK=F
 IRaf= 920000000 NMat=       1 IRICut=       1 DoRegI=T DoRafI=F ISym2E= 0 IDoP0=0 IntGTp=1.
 FoFCou: FMM=F IPFlag=           0 FMFlag=      100000 FMFlg1=           0
         NFxFlg=           0 DoJE=F BraDBF=F KetDBF=F FulRan=T
         wScrn=  0.000000 ICntrl=         0 IOpCl=  0 I1Cent=           0 NGrid=           0
         NMat0=    1 NMatS0=      1 NMatT0=    0 NMatD0=    1 NMtDS0=    0 NMtDT0=    0
 Symmetry not used in FoFCou.
 E= -1205.32768900843    
 DIIS: error= 2.06D-02 at cycle   1 NSaved=   1.
 NSaved= 1 IEnMin= 1 EnMin= -1205.32768900843     IErMin= 1 ErrMin= 2.06D-02
 ErrMax= 2.06D-02  0.00D+00 EMaxC= 1.00D-01 BMatC= 1.04D+00 BMatP= 1.04D+00
 IDIUse=3 WtCom= 7.94D-01 WtEn= 2.06D-01
 Coeff-Com:  0.100D+01
 Coeff-En:   0.100D+01
 Coeff:      0.100D+01
 Gap=     0.610 Goal=   None    Shift=    0.000
 GapD=    0.610 DampG=2.000 DampE=0.500 DampFc=1.0000 IDamp=-1.
 RMSDP=4.50D-02 MaxDP=4.42D+00              OVMax= 2.11D-01

 Cycle   2  Pass 1  IDiag  1:
 E= -1205.84182724506     Delta-E=       -0.514138236631 Rises=F Damp=F
 DIIS: error= 1.42D-02 at cycle   2 NSaved=   2.
 NSaved= 2 IEnMin= 2 EnMin= -1205.84182724506     IErMin= 2 ErrMin= 1.42D-02
 ErrMax= 1.42D-02  0.00D+00 EMaxC= 1.00D-01 BMatC= 2.60D-01 BMatP= 1.04D+00
 IDIUse=3 WtCom= 8.58D-01 WtEn= 1.42D-01
 Coeff-Com:  0.294D+00 0.706D+00
 Coeff-En:   0.000D+00 0.100D+01
 Coeff:      0.252D+00 0.748D+00
 Gap=     0.421 Goal=   None    Shift=    0.000
 RMSDP=3.30D-03 MaxDP=2.20D-01 DE=-5.14D-01 OVMax= 1.04D-01

 Cycle   3  Pass 1  IDiag  1:
 E= -1206.03780811677     Delta-E=       -0.195980871712 Rises=F Damp=F
 DIIS: error= 3.35D-03 at cycle   3 NSaved=   3.
 NSaved= 3 IEnMin= 3 EnMin= -1206.03780811677     IErMin= 3 ErrMin= 3.35D-03
 ErrMax= 3.35D-03  0.00D+00 EMaxC= 1.00D-01 BMatC= 2.79D-02 BMatP= 2.60D-01
 IDIUse=3 WtCom= 9.66D-01 WtEn= 3.35D-02
 Coeff-Com: -0.149D-01 0.222D+00 0.793D+00
 Coeff-En:   0.000D+00 0.000D+00 0.100D+01
 Coeff:     -0.144D-01 0.214D+00 0.800D+00
 Gap=     0.393 Goal=   None    Shift=    0.000
 RMSDP=1.26D-03 MaxDP=1.16D-01 DE=-1.96D-01 OVMax= 2.89D-02

 Cycle   4  Pass 1  IDiag  1:
 E= -1206.05973051278     Delta-E=       -0.021922396012 Rises=F Damp=F
 DIIS: error= 5.16D-04 at cycle   4 NSaved=   4.
 NSaved= 4 IEnMin= 4 EnMin= -1206.05973051278     IErMin= 4 ErrMin= 5.16D-04
 ErrMax= 5.16D-04  0.00D+00 EMaxC= 1.00D-01 BMatC= 9.59D-04 BMatP= 2.79D-02
 IDIUse=3 WtCom= 9.95D-01 WtEn= 5.16D-03
 Coeff-Com: -0.150D-01 0.280D-01 0.206D+00 0.781D+00
 Coeff-En:   0.000D+00 0.000D+00 0.000D+00 0.100D+01
 Coeff:     -0.149D-01 0.278D-01 0.205D+00 0.782D+00
 Gap=     0.377 Goal=   None    Shift=    0.000
 RMSDP=4.13D-04 MaxDP=4.36D-02 DE=-2.19D-02 OVMax= 5.97D-03

 Cycle   5  Pass 1  IDiag  1:
 E= -1206.06077017715     Delta-E=       -0.001039664370 Rises=F Damp=F
 DIIS: error= 2.81D-04 at cycle   5 NSaved=   5.
 NSaved= 5 IEnMin= 5 EnMin= -1206.06077017715     IErMin= 5 ErrMin= 2.81D-04
 ErrMax= 2.81D-04  0.00D+00 EMaxC= 1.00D-01 BMatC= 7.85D-05 BMatP= 9.59D-04
 IDIUse=3 WtCom= 9.97D-01 WtEn= 2.81D-03
 Coeff-Com: -0.273D-03-0.144D-01-0.492D-01 0.901D-01 0.974D+00
 Coeff-En:   0.000D+00 0.000D+00 0.000D+00 0.000D+00 0.100D+01
 Coeff:     -0.272D-03-0.143D-01-0.490D-01 0.898D-01 0.974D+00
 Gap=     0.379 Goal=   None    Shift=    0.000
 RMSDP=9.55D-05 MaxDP=6.33D-03 DE=-1.04D-03 OVMax= 3.97D-03

 Cycle   6  Pass 1  IDiag  1:
 E= -1206.06091169462     Delta-E=       -0.000141517468 Rises=F Damp=F
 DIIS: error= 7.78D-05 at cycle   6 NSaved=   6.
 NSaved= 6 IEnMin= 6 EnMin= -1206.06091169462     IErMin= 6 ErrMin= 7.78D-05
 ErrMax= 7.78D-05  0.00D+00 EMaxC= 1.00D-01 BMatC= 1.06D-05 BMatP= 7.85D-05
 IDIUse=1 WtCom= 1.00D+00 WtEn= 0.00D+00
 Coeff-Com:  0.162D-02-0.609D-02-0.334D-01-0.705D-01 0.145D+00 0.963D+00
 Coeff:      0.162D-02-0.609D-02-0.334D-01-0.705D-01 0.145D+00 0.963D+00
 Gap=     0.379 Goal=   None    Shift=    0.000
 RMSDP=4.29D-05 MaxDP=3.97D-03 DE=-1.42D-04 OVMax= 1.91D-03

 Cycle   7  Pass 1  IDiag  1:
 E= -1206.06093681650     Delta-E=       -0.000025121878 Rises=F Damp=F
 DIIS: error= 4.59D-05 at cycle   7 NSaved=   7.
 NSaved= 7 IEnMin= 7 EnMin= -1206.06093681650     IErMin= 7 ErrMin= 4.59D-05
 ErrMax= 4.59D-05  0.00D+00 EMaxC= 1.00D-01 BMatC= 1.82D-06 BMatP= 1.06D-05
 IDIUse=1 WtCom= 1.00D+00 WtEn= 0.00D+00
 Coeff-Com:  0.281D-03 0.749D-03 0.123D-02-0.192D-01-0.991D-01 0.144D+00
 Coeff-Com:  0.972D+00
 Coeff:      0.281D-03 0.749D-03 0.123D-02-0.192D-01-0.991D-01 0.144D+00
 Coeff:      0.972D+00
 Gap=     0.380 Goal=   None    Shift=    0.000
 RMSDP=2.30D-05 MaxDP=1.78D-03 DE=-2.51D-05 OVMax= 1.06D-03

 Cycle   8  Pass 1  IDiag  1:
 E= -1206.06094215185     Delta-E=       -0.000005335355 Rises=F Damp=F
 DIIS: error= 2.93D-05 at cycle   8 NSaved=   8.
 NSaved= 8 IEnMin= 8 EnMin= -1206.06094215185     IErMin= 8 ErrMin= 2.93D-05
 ErrMax= 2.93D-05  0.00D+00 EMaxC= 1.00D-01 BMatC= 4.39D-07 BMatP= 1.82D-06
 IDIUse=1 WtCom= 1.00D+00 WtEn= 0.00D+00
 Coeff-Com: -0.273D-03 0.135D-02 0.715D-02 0.122D-01-0.487D-01-0.170D+00
 Coeff-Com:  0.125D+00 0.107D+01
 Coeff:     -0.273D-03 0.135D-02 0.715D-02 0.122D-01-0.487D-01-0.170D+00
 Coeff:      0.125D+00 0.107D+01
 Gap=     0.380 Goal=   None    Shift=    0.000
 RMSDP=1.41D-05 MaxDP=1.55D-03 DE=-5.34D-06 OVMax= 6.98D-04

 Cycle   9  Pass 1  IDiag  1:
 E= -1206.06094391864     Delta-E=       -0.000001766791 Rises=F Damp=F
 DIIS: error= 1.45D-05 at cycle   9 NSaved=   9.
 NSaved= 9 IEnMin= 9 EnMin= -1206.06094391864     IErMin= 9 ErrMin= 1.45D-05
 ErrMax= 1.45D-05  0.00D+00 EMaxC= 1.00D-01 BMatC= 1.10D-07 BMatP= 4.39D-07
 IDIUse=1 WtCom= 1.00D+00 WtEn= 0.00D+00
 Coeff-Com: -0.125D-03 0.156D-03 0.145D-02 0.749D-02 0.970D-02-0.650D-01
 Coeff-Com: -0.199D+00 0.228D+00 0.102D+01
 Coeff:     -0.125D-03 0.156D-03 0.145D-02 0.749D-02 0.970D-02-0.650D-01
 Coeff:     -0.199D+00 0.228D+00 0.102D+01
 Gap=     0.380 Goal=   None    Shift=    0.000
 RMSDP=8.40D-06 MaxDP=8.10D-04 DE=-1.77D-06 OVMax= 4.54D-04

 Cycle  10  Pass 1  IDiag  1:
 E= -1206.06094439572     Delta-E=       -0.000000477080 Rises=F Damp=F
 DIIS: error= 7.61D-06 at cycle  10 NSaved=  10.
 NSaved=10 IEnMin=10 EnMin= -1206.06094439572     IErMin=10 ErrMin= 7.61D-06
 ErrMax= 7.61D-06  0.00D+00 EMaxC= 1.00D-01 BMatC= 1.99D-08 BMatP= 1.10D-07
 IDIUse=1 WtCom= 1.00D+00 WtEn= 0.00D+00
 Coeff-Com:  0.644D-04-0.304D-03-0.163D-02-0.322D-02 0.801D-02 0.446D-01
 Coeff-Com: -0.280D-02-0.274D+00-0.100D+00 0.133D+01
 Coeff:      0.644D-04-0.304D-03-0.163D-02-0.322D-02 0.801D-02 0.446D-01
 Coeff:     -0.280D-02-0.274D+00-0.100D+00 0.133D+01
 Gap=     0.380 Goal=   None    Shift=    0.000
 RMSDP=4.81D-06 MaxDP=2.96D-04 DE=-4.77D-07 OVMax= 2.56D-04

 Cycle  11  Pass 1  IDiag  1:
 E= -1206.06094451357     Delta-E=       -0.000000117843 Rises=F Damp=F
 DIIS: error= 2.02D-06 at cycle  11 NSaved=  11.
 NSaved=11 IEnMin=11 EnMin= -1206.06094451357     IErMin=11 ErrMin= 2.02D-06
 ErrMax= 2.02D-06  0.00D+00 EMaxC= 1.00D-01 BMatC= 2.79D-09 BMatP= 1.99D-08
 IDIUse=1 WtCom= 1.00D+00 WtEn= 0.00D+00
 Coeff-Com:  0.316D-04-0.768D-04-0.476D-03-0.173D-02-0.537D-03 0.174D-01
 Coeff-Com:  0.386D-01-0.815D-01-0.196D+00 0.159D+00 0.106D+01
 Coeff:      0.316D-04-0.768D-04-0.476D-03-0.173D-02-0.537D-03 0.174D-01
 Coeff:      0.386D-01-0.815D-01-0.196D+00 0.159D+00 0.106D+01
 Gap=     0.380 Goal=   None    Shift=    0.000
 RMSDP=1.58D-06 MaxDP=6.99D-05 DE=-1.18D-07 OVMax= 9.39D-05

 Cycle  12  Pass 1  IDiag  1:
 E= -1206.06094452598     Delta-E=       -0.000000012417 Rises=F Damp=F
 DIIS: error= 5.51D-07 at cycle  12 NSaved=  12.
 NSaved=12 IEnMin=12 EnMin= -1206.06094452598     IErMin=12 ErrMin= 5.51D-07
 ErrMax= 5.51D-07  0.00D+00 EMaxC= 1.00D-01 BMatC= 2.89D-10 BMatP= 2.79D-09
 IDIUse=1 WtCom= 1.00D+00 WtEn= 0.00D+00
 Coeff-Com: -0.508D-05 0.273D-04 0.161D-03 0.274D-03-0.952D-03-0.500D-02
 Coeff-Com:  0.360D-02 0.241D-01 0.584D-02-0.152D+00 0.921D-01 0.103D+01
 Coeff:     -0.508D-05 0.273D-04 0.161D-03 0.274D-03-0.952D-03-0.500D-02
 Coeff:      0.360D-02 0.241D-01 0.584D-02-0.152D+00 0.921D-01 0.103D+01
 Gap=     0.380 Goal=   None    Shift=    0.000
 RMSDP=4.64D-07 MaxDP=4.86D-05 DE=-1.24D-08 OVMax= 1.95D-05

 Cycle  13  Pass 1  IDiag  1:
 E= -1206.06094452684     Delta-E=       -0.000000000855 Rises=F Damp=F
 DIIS: error= 1.64D-07 at cycle  13 NSaved=  13.
 NSaved=13 IEnMin=13 EnMin= -1206.06094452684     IErMin=13 ErrMin= 1.64D-07
 ErrMax= 1.64D-07  0.00D+00 EMaxC= 1.00D-01 BMatC= 5.14D-11 BMatP= 2.89D-10
 IDIUse=1 WtCom= 1.00D+00 WtEn= 0.00D+00
 Coeff-Com: -0.453D-05 0.135D-04 0.874D-04 0.255D-03-0.391D-04-0.315D-02
 Coeff-Com: -0.320D-02 0.133D-01 0.262D-01-0.529D-01-0.108D+00 0.193D+00
 Coeff-Com:  0.934D+00
 Coeff:     -0.453D-05 0.135D-04 0.874D-04 0.255D-03-0.391D-04-0.315D-02
 Coeff:     -0.320D-02 0.133D-01 0.262D-01-0.529D-01-0.108D+00 0.193D+00
 Coeff:      0.934D+00
 Gap=     0.380 Goal=   None    Shift=    0.000
 RMSDP=1.09D-07 MaxDP=7.37D-06 DE=-8.55D-10 OVMax= 5.20D-06

 Cycle  14  Pass 1  IDiag  1:
 E= -1206.06094452695     Delta-E=       -0.000000000108 Rises=F Damp=F
 DIIS: error= 6.63D-08 at cycle  14 NSaved=  14.
 NSaved=14 IEnMin=14 EnMin= -1206.06094452695     IErMin=14 ErrMin= 6.63D-08
 ErrMax= 6.63D-08  0.00D+00 EMaxC= 1.00D-01 BMatC= 9.66D-12 BMatP= 5.14D-11
 IDIUse=1 WtCom= 1.00D+00 WtEn= 0.00D+00
 Coeff-Com:  0.494D-06-0.393D-05-0.193D-04-0.348D-04 0.202D-03 0.510D-03
 Coeff-Com: -0.515D-03-0.404D-02 0.238D-02 0.222D-01-0.219D-01-0.162D+00
 Coeff-Com:  0.635D-01 0.110D+01
 Coeff:      0.494D-06-0.393D-05-0.193D-04-0.348D-04 0.202D-03 0.510D-03
 Coeff:     -0.515D-03-0.404D-02 0.238D-02 0.222D-01-0.219D-01-0.162D+00
 Coeff:      0.635D-01 0.110D+01
 Gap=     0.380 Goal=   None    Shift=    0.000
 RMSDP=3.81D-08 MaxDP=3.11D-06 DE=-1.08D-10 OVMax= 3.30D-06

 Cycle  15  Pass 1  IDiag  1:
 E= -1206.06094452698     Delta-E=       -0.000000000035 Rises=F Damp=F
 DIIS: error= 4.09D-08 at cycle  15 NSaved=  15.
 NSaved=15 IEnMin=15 EnMin= -1206.06094452698     IErMin=15 ErrMin= 4.09D-08
 ErrMax= 4.09D-08  0.00D+00 EMaxC= 1.00D-01 BMatC= 3.24D-12 BMatP= 9.66D-12
 IDIUse=1 WtCom= 1.00D+00 WtEn= 0.00D+00
 Coeff-Com:  0.117D-05-0.424D-05-0.249D-04-0.757D-04 0.725D-04 0.830D-03
 Coeff-Com:  0.767D-03-0.469D-02-0.496D-02 0.181D-01 0.184D-01-0.899D-01
 Coeff-Com: -0.208D+00 0.327D+00 0.942D+00
 Coeff:      0.117D-05-0.424D-05-0.249D-04-0.757D-04 0.725D-04 0.830D-03
 Coeff:      0.767D-03-0.469D-02-0.496D-02 0.181D-01 0.184D-01-0.899D-01
 Coeff:     -0.208D+00 0.327D+00 0.942D+00
 Gap=     0.380 Goal=   None    Shift=    0.000
 RMSDP=2.52D-08 MaxDP=2.06D-06 DE=-3.55D-11 OVMax= 1.35D-06

 Cycle  16  Pass 1  IDiag  1:
 E= -1206.06094452701     Delta-E=       -0.000000000027 Rises=F Damp=F
 DIIS: error= 1.62D-08 at cycle  16 NSaved=  16.
 NSaved=16 IEnMin=16 EnMin= -1206.06094452701     IErMin=16 ErrMin= 1.62D-08
 ErrMax= 1.62D-08  0.00D+00 EMaxC= 1.00D-01 BMatC= 3.69D-13 BMatP= 3.24D-12
 IDIUse=1 WtCom= 1.00D+00 WtEn= 0.00D+00
 Coeff-Com:  0.453D-07 0.197D-06 0.982D-06-0.365D-05-0.206D-04-0.195D-04
 Coeff-Com:  0.281D-03 0.368D-04-0.801D-03-0.237D-02 0.695D-02 0.220D-01
 Coeff-Com: -0.480D-01-0.144D+00 0.568D-01 0.111D+01
 Coeff:      0.453D-07 0.197D-06 0.982D-06-0.365D-05-0.206D-04-0.195D-04
 Coeff:      0.281D-03 0.368D-04-0.801D-03-0.237D-02 0.695D-02 0.220D-01
 Coeff:     -0.480D-01-0.144D+00 0.568D-01 0.111D+01
 Gap=     0.380 Goal=   None    Shift=    0.000
 RMSDP=1.28D-08 MaxDP=1.64D-06 DE=-2.73D-11 OVMax= 8.95D-07

 Cycle  17  Pass 1  IDiag  1:
 E= -1206.06094452697     Delta-E=        0.000000000040 Rises=F Damp=F
 DIIS: error= 5.46D-09 at cycle  17 NSaved=  17.
 NSaved=17 IEnMin=16 EnMin= -1206.06094452701     IErMin=17 ErrMin= 5.46D-09
 ErrMax= 5.46D-09  0.00D+00 EMaxC= 1.00D-01 BMatC= 9.16D-14 BMatP= 3.69D-13
 IDIUse=1 WtCom= 1.00D+00 WtEn= 0.00D+00
 Coeff-Com: -0.179D-06 0.689D-06 0.408D-05 0.115D-04-0.103D-04-0.143D-03
 Coeff-Com: -0.856D-04 0.696D-03 0.870D-03-0.303D-02-0.287D-02 0.161D-01
 Coeff-Com:  0.293D-01-0.474D-01-0.210D+00 0.115D+00 0.110D+01
 Coeff:     -0.179D-06 0.689D-06 0.408D-05 0.115D-04-0.103D-04-0.143D-03
 Coeff:     -0.856D-04 0.696D-03 0.870D-03-0.303D-02-0.287D-02 0.161D-01
 Coeff:      0.293D-01-0.474D-01-0.210D+00 0.115D+00 0.110D+01
 Gap=     0.380 Goal=   None    Shift=    0.000
 RMSDP=5.54D-09 MaxDP=4.60D-07 DE= 3.96D-11 OVMax= 3.44D-07

 SCF Done:  E(RHF) =  -1206.06094453     A.U. after   17 cycles
            NFock= 17  Conv=0.55D-08     -V/T= 2.0013
 KE= 1.204523132307D+03 PE=-5.796023016722D+03 EE= 1.894962756756D+03
 Leave Link  502 at Mon Sep 28 08:54:02 2020, MaxMem=   262144000 cpu:            3159.9 elap:             790.4
 (Enter /prod/apps/gaussian/g16b1/l801.exe)
 ExpMin= 2.97D-02 ExpMax= 1.11D+05 ExpMxC= 1.07D+03 IAcc=3 IRadAn=         5 AccDes= 0.00D+00
 HarFok:  IExCor=  205 AccDes= 0.00D+00 IRadAn=         5 IDoV=-2 UseB2=F ITyADJ=14
 ICtDFT= 12500011 ScaDFX=  1.000000  1.000000  1.000000  1.000000
 GSVD:  LWork=        -660 too small for GESVD, short by        2750 words or        2750 for optimal perf.
 Largest valence mixing into a core orbital is  3.54D-04
 Largest core mixing into a valence orbital is  9.31D-05
 Range of M.O.s used for correlation:    23   544
 NBasis=   544 NAE=    70 NBE=    70 NFC=    22 NFV=     0
 NROrb=    522 NOA=    48 NOB=    48 NVA=   474 NVB=   474

 **** Warning!!: The largest alpha MO coefficient is  0.12347948D+03

 Leave Link  801 at Mon Sep 28 08:54:02 2020, MaxMem=   262144000 cpu:               1.0 elap:               0.3
 (Enter /prod/apps/gaussian/g16b1/l906.exe)
 FulOut=F Deriv=F AODrv=F NAtomX=    32
   MMem=           4  MDisk=          48 MDiskD=          48
  W3Min=    13196160 MinDsk=    13694138 NBas6D=         580
 NBas2D=      169279    NTT=      168490    LW2=     2000000
    MDV=   260094196 MDiskM=        6180 NBas2p=      150430
 Disk-based method using OVN memory for 48 occupieds at a time.
 Estimated scratch disk usage= 10527609408 words.
 IMap=   1   2   3   4   5   6   7   8   9  10  11  12  13  14  15  16  17  18  19  20
 IMap=  21  22  23  24  25  26  27  28  29  30  31  32  33  34  35  36  37  38  39  40
 IMap=  41  42  43  44  45  46  47  48
 Actual    scratch disk usage= 10294600768 words.
 JobTyp=1 Pass  1:  I=   1 to  48 NPSUse=  4 ParTrn=T ParDer=T DoDerP=F.
Erroneous write. Write -1 instead of 650957216.
fd = 4
orig len = 2071120240 left = 650957216
g_write
