 Entering Gaussian System, Link 0=g16
 Initial command:
 /prod/apps/gaussian/g16b1/l1.exe "/tmp/ubafar01/1461147/Gau-109589.inp" -scrdir="/tmp/ubafar01/1461147/"
 Entering Link 1 = /prod/apps/gaussian/g16b1/l1.exe PID=    109590.
  
 Copyright (c) 1988-2017, Gaussian, Inc.  All Rights Reserved.
  
 This is part of the Gaussian(R) 16 program.  It is based on
 the Gaussian(R) 09 system (copyright 2009, Gaussian, Inc.),
 the Gaussian(R) 03 system (copyright 2003, Gaussian, Inc.),
 the Gaussian(R) 98 system (copyright 1998, Gaussian, Inc.),
 the Gaussian(R) 94 system (copyright 1995, Gaussian, Inc.),
 the Gaussian 92(TM) system (copyright 1992, Gaussian, Inc.),
 the Gaussian 90(TM) system (copyright 1990, Gaussian, Inc.),
 the Gaussian 88(TM) system (copyright 1988, Gaussian, Inc.),
 the Gaussian 86(TM) system (copyright 1986, Carnegie Mellon
 University), and the Gaussian 82(TM) system (copyright 1983,
 Carnegie Mellon University). Gaussian is a federally registered
 trademark of Gaussian, Inc.
  
 This software contains proprietary and confidential information,
 including trade secrets, belonging to Gaussian, Inc.
  
 This software is provided under written license and may be
 used, copied, transmitted, or stored only in accord with that
 written license.
  
 The following legend is applicable only to US Government
 contracts under FAR:
  
                    RESTRICTED RIGHTS LEGEND
  
 Use, reproduction and disclosure by the US Government is
 subject to restrictions as set forth in subparagraphs (a)
 and (c) of the Commercial Computer Software - Restricted
 Rights clause in FAR 52.227-19.
  
 Gaussian, Inc.
 340 Quinnipiac St., Bldg. 40, Wallingford CT 06492
  
  
 ---------------------------------------------------------------
 Warning -- This program may not be used in any manner that
 competes with the business of Gaussian, Inc. or will provide
 assistance to any competitor of Gaussian, Inc.  The licensee
 of this program is prohibited from giving any competitor of
 Gaussian, Inc. access to this program.  By using this program,
 the user acknowledges that Gaussian, Inc. is engaged in the
 business of creating and licensing software in the field of
 computational chemistry and represents and warrants to the
 licensee that it is not a competitor of Gaussian, Inc. and that
 it will not use this program in any manner prohibited above.
 ---------------------------------------------------------------
  

 Cite this work as:
 Gaussian 16, Revision B.01,
 M. J. Frisch, G. W. Trucks, H. B. Schlegel, G. E. Scuseria, 
 M. A. Robb, J. R. Cheeseman, G. Scalmani, V. Barone, 
 G. A. Petersson, H. Nakatsuji, X. Li, M. Caricato, A. V. Marenich, 
 J. Bloino, B. G. Janesko, R. Gomperts, B. Mennucci, H. P. Hratchian, 
 J. V. Ortiz, A. F. Izmaylov, J. L. Sonnenberg, D. Williams-Young, 
 F. Ding, F. Lipparini, F. Egidi, J. Goings, B. Peng, A. Petrone, 
 T. Henderson, D. Ranasinghe, V. G. Zakrzewski, J. Gao, N. Rega, 
 G. Zheng, W. Liang, M. Hada, M. Ehara, K. Toyota, R. Fukuda, 
 J. Hasegawa, M. Ishida, T. Nakajima, Y. Honda, O. Kitao, H. Nakai, 
 T. Vreven, K. Throssell, J. A. Montgomery, Jr., J. E. Peralta, 
 F. Ogliaro, M. J. Bearpark, J. J. Heyd, E. N. Brothers, K. N. Kudin, 
 V. N. Staroverov, T. A. Keith, R. Kobayashi, J. Normand, 
 K. Raghavachari, A. P. Rendell, J. C. Burant, S. S. Iyengar, 
 J. Tomasi, M. Cossi, J. M. Millam, M. Klene, C. Adamo, R. Cammi, 
 J. W. Ochterski, R. L. Martin, K. Morokuma, O. Farkas, 
 J. B. Foresman, and D. J. Fox, Gaussian, Inc., Wallingford CT, 2016.
 
 ******************************************
 Gaussian 16:  ES64L-G16RevB.01 20-Dec-2017
                24-Sep-2020 
 ******************************************
 %nproc=4
 Will use up to    4 processors via shared memory.
 %Chk=SM42_m1.a.4.pdb.xyz.mst.a.w.chk
 %mem=16GB
 ----------------------------------------------------------------------
 #p b3lyp/6-31G(d) opt freq NoSymm scf=(MaxCycle=2000,NoVarAcc,NoIncFoc
 k) scrf=(iefpcm,read,solvent=water)
 ----------------------------------------------------------------------
 1/18=20,19=15,26=3,38=1,40=2/1,3;
 2/9=110,12=2,15=1,17=6,18=5,40=1/2;
 3/5=1,6=6,7=1,11=2,25=1,30=1,70=2203,71=1,72=1,74=-5/1,2,3;
 4//1;
 5/5=100002,7=2000,38=1,53=1/2;
 6/7=2,8=2,9=2,10=2,28=1/1;
 7/30=1/1,2,3,16;
 1/18=20,19=15,26=3/3(2);
 2/9=110,15=1/2;
 99//99;
 2/9=110,15=1/2;
 3/5=1,6=6,7=1,11=2,25=1,30=1,70=2205,71=1,72=1,74=-5/1,2,3;
 4/5=5,16=3,69=1/1;
 5/5=100002,7=2000,38=1,53=1/2;
 7/30=1/1,2,3,16;
 1/18=20,19=15,26=3/3(-5);
 2/9=110,15=1/2;
 6/7=2,8=2,9=2,10=2,19=2,28=1/1;
 99/9=1/99;
 Leave Link    1 at Thu Sep 24 05:43:45 2020, MaxMem=  2147483648 cpu:               0.1 elap:               0.0
 (Enter /prod/apps/gaussian/g16b1/l101.exe)
 -------------------
 SM42_m1.a.4.pdb.xyz
 -------------------
 Symbolic Z-matrix:
 Charge = -1 Multiplicity = 1
 O                     3.492    -2.094     0.754 
 S                     2.515    -1.335    -0.066 
 N                     1.097    -1.482     0.688 
 C                    -0.031    -0.898     0.171 
 N                    -0.118    -0.161    -0.939 
 O                    -1.485     0.224    -1.029 
 C                    -2.167    -0.297     0.021 
 C                    -3.601    -0.012     0.099 
 C                    -4.366    -0.512     1.168 
 C                    -5.731    -0.244     1.244 
 C                    -6.355     0.526     0.257 
 C                    -5.602     1.026    -0.808 
 C                    -4.235     0.761    -0.89 
 C                    -1.314    -1.009     0.809 
 C                     3.029     0.395     0.029 
 C                     3.057     1.189    -1.118 
 C                     3.448     2.527    -1.018 
 C                     3.803     3.063     0.221 
 C                     3.773     2.261     1.367 
 C                     3.386     0.924     1.275 
 O                     2.493    -1.686    -1.513 
 H                    -3.892    -1.109     1.94 
 H                    -6.309    -0.637     2.076 
 H                    -7.419     0.733     0.319 
 H                    -6.079     1.624    -1.579 
 H                    -3.655     1.151    -1.719 
 H                    -1.528    -1.548     1.72 
 H                     2.782     0.76     -2.075 
 H                     3.475     3.147    -1.909 
 H                     4.106     4.104     0.296 
 H                     4.053     2.675     2.331 
 H                     3.368     0.296     2.16 
 
 ITRead=  0  0  0  0  0  0  0  0  0  0  0  0  0  0  0  0  0  0  0  0
 ITRead=  0  0  0  0  0  0  0  0  0  0  0  0
 MicOpt= -1 -1 -1 -1 -1 -1 -1 -1 -1 -1 -1 -1 -1 -1 -1 -1 -1 -1 -1 -1
 MicOpt= -1 -1 -1 -1 -1 -1 -1 -1 -1 -1 -1 -1
 NAtoms=     32 NQM=       32 NQMF=       0 NMMI=      0 NMMIF=      0
                NMic=       0 NMicF=      0.
                    Isotopes and Nuclear Properties:
 (Nuclear quadrupole moments (NQMom) in fm**2, nuclear magnetic moments (NMagM)
  in nuclear magnetons)

  Atom         1           2           3           4           5           6           7           8           9          10
 IAtWgt=          16          32          14          12          14          16          12          12          12          12
 AtmWgt=  15.9949146  31.9720718  14.0030740  12.0000000  14.0030740  15.9949146  12.0000000  12.0000000  12.0000000  12.0000000
 NucSpn=           0           0           2           0           2           0           0           0           0           0
 AtZEff=  -0.0000000  -0.0000000  -0.0000000  -0.0000000  -0.0000000  -0.0000000  -0.0000000  -0.0000000  -0.0000000  -0.0000000
 NQMom=    0.0000000   0.0000000   2.0440000   0.0000000   2.0440000   0.0000000   0.0000000   0.0000000   0.0000000   0.0000000
 NMagM=    0.0000000   0.0000000   0.4037610   0.0000000   0.4037610   0.0000000   0.0000000   0.0000000   0.0000000   0.0000000
 AtZNuc=   8.0000000  16.0000000   7.0000000   6.0000000   7.0000000   8.0000000   6.0000000   6.0000000   6.0000000   6.0000000

  Atom        11          12          13          14          15          16          17          18          19          20
 IAtWgt=          12          12          12          12          12          12          12          12          12          12
 AtmWgt=  12.0000000  12.0000000  12.0000000  12.0000000  12.0000000  12.0000000  12.0000000  12.0000000  12.0000000  12.0000000
 NucSpn=           0           0           0           0           0           0           0           0           0           0
 AtZEff=  -0.0000000  -0.0000000  -0.0000000  -0.0000000  -0.0000000  -0.0000000  -0.0000000  -0.0000000  -0.0000000  -0.0000000
 NQMom=    0.0000000   0.0000000   0.0000000   0.0000000   0.0000000   0.0000000   0.0000000   0.0000000   0.0000000   0.0000000
 NMagM=    0.0000000   0.0000000   0.0000000   0.0000000   0.0000000   0.0000000   0.0000000   0.0000000   0.0000000   0.0000000
 AtZNuc=   6.0000000   6.0000000   6.0000000   6.0000000   6.0000000   6.0000000   6.0000000   6.0000000   6.0000000   6.0000000

  Atom        21          22          23          24          25          26          27          28          29          30
 IAtWgt=          16           1           1           1           1           1           1           1           1           1
 AtmWgt=  15.9949146   1.0078250   1.0078250   1.0078250   1.0078250   1.0078250   1.0078250   1.0078250   1.0078250   1.0078250
 NucSpn=           0           1           1           1           1           1           1           1           1           1
 AtZEff=  -0.0000000  -0.0000000  -0.0000000  -0.0000000  -0.0000000  -0.0000000  -0.0000000  -0.0000000  -0.0000000  -0.0000000
 NQMom=    0.0000000   0.0000000   0.0000000   0.0000000   0.0000000   0.0000000   0.0000000   0.0000000   0.0000000   0.0000000
 NMagM=    0.0000000   2.7928460   2.7928460   2.7928460   2.7928460   2.7928460   2.7928460   2.7928460   2.7928460   2.7928460
 AtZNuc=   8.0000000   1.0000000   1.0000000   1.0000000   1.0000000   1.0000000   1.0000000   1.0000000   1.0000000   1.0000000

  Atom        31          32
 IAtWgt=           1           1
 AtmWgt=   1.0078250   1.0078250
 NucSpn=           1           1
 AtZEff=  -0.0000000  -0.0000000
 NQMom=    0.0000000   0.0000000
 NMagM=    2.7928460   2.7928460
 AtZNuc=   1.0000000   1.0000000
 Leave Link  101 at Thu Sep 24 05:43:45 2020, MaxMem=  2147483648 cpu:               1.3 elap:               0.3
 (Enter /prod/apps/gaussian/g16b1/l103.exe)

 GradGradGradGradGradGradGradGradGradGradGradGradGradGradGradGradGradGrad
 Berny optimization.
 Initialization pass.
                           ----------------------------
                           !    Initial Parameters    !
                           ! (Angstroms and Degrees)  !
 --------------------------                            --------------------------
 ! Name  Definition              Value          Derivative Info.                !
 --------------------------------------------------------------------------------
 ! R1    R(1,2)                  1.4843         estimate D2E/DX2                !
 ! R2    R(2,3)                  1.6127         estimate D2E/DX2                !
 ! R3    R(2,15)                 1.8072         estimate D2E/DX2                !
 ! R4    R(2,21)                 1.4891         estimate D2E/DX2                !
 ! R5    R(3,4)                  1.3714         estimate D2E/DX2                !
 ! R6    R(4,5)                  1.3352         estimate D2E/DX2                !
 ! R7    R(4,14)                 1.4372         estimate D2E/DX2                !
 ! R8    R(5,6)                  1.423          estimate D2E/DX2                !
 ! R9    R(6,7)                  1.3561         estimate D2E/DX2                !
 ! R10   R(7,8)                  1.4641         estimate D2E/DX2                !
 ! R11   R(7,14)                 1.3622         estimate D2E/DX2                !
 ! R12   R(8,9)                  1.4064         estimate D2E/DX2                !
 ! R13   R(8,13)                 1.4063         estimate D2E/DX2                !
 ! R14   R(9,10)                 1.3931         estimate D2E/DX2                !
 ! R15   R(9,22)                 1.0849         estimate D2E/DX2                !
 ! R16   R(10,11)                1.3987         estimate D2E/DX2                !
 ! R17   R(10,23)                1.0866         estimate D2E/DX2                !
 ! R18   R(11,12)                1.3969         estimate D2E/DX2                !
 ! R19   R(11,24)                1.0857         estimate D2E/DX2                !
 ! R20   R(12,13)                1.3949         estimate D2E/DX2                !
 ! R21   R(12,25)                1.0861         estimate D2E/DX2                !
 ! R22   R(13,26)                1.0843         estimate D2E/DX2                !
 ! R23   R(14,27)                1.0799         estimate D2E/DX2                !
 ! R24   R(15,16)                1.3953         estimate D2E/DX2                !
 ! R25   R(15,20)                1.3999         estimate D2E/DX2                !
 ! R26   R(16,17)                1.3975         estimate D2E/DX2                !
 ! R27   R(16,28)                1.0842         estimate D2E/DX2                !
 ! R28   R(17,18)                1.3959         estimate D2E/DX2                !
 ! R29   R(17,29)                1.0858         estimate D2E/DX2                !
 ! R30   R(18,19)                1.3991         estimate D2E/DX2                !
 ! R31   R(18,30)                1.0868         estimate D2E/DX2                !
 ! R32   R(19,20)                1.3949         estimate D2E/DX2                !
 ! R33   R(19,31)                1.0859         estimate D2E/DX2                !
 ! R34   R(20,32)                1.0853         estimate D2E/DX2                !
 ! A1    A(1,2,3)              105.8941         estimate D2E/DX2                !
 ! A2    A(1,2,15)             105.8583         estimate D2E/DX2                !
 ! A3    A(1,2,21)             115.2158         estimate D2E/DX2                !
 ! A4    A(3,2,15)             108.2251         estimate D2E/DX2                !
 ! A5    A(3,2,21)             114.8241         estimate D2E/DX2                !
 ! A6    A(15,2,21)            106.3149         estimate D2E/DX2                !
 ! A7    A(2,3,4)              120.54           estimate D2E/DX2                !
 ! A8    A(3,4,5)              127.0162         estimate D2E/DX2                !
 ! A9    A(3,4,14)             122.2788         estimate D2E/DX2                !
 ! A10   A(5,4,14)             110.7021         estimate D2E/DX2                !
 ! A11   A(4,5,6)              105.3374         estimate D2E/DX2                !
 ! A12   A(5,6,7)              109.2806         estimate D2E/DX2                !
 ! A13   A(6,7,8)              117.324          estimate D2E/DX2                !
 ! A14   A(6,7,14)             109.4992         estimate D2E/DX2                !
 ! A15   A(8,7,14)             133.1767         estimate D2E/DX2                !
 ! A16   A(7,8,9)              120.2674         estimate D2E/DX2                !
 ! A17   A(7,8,13)             120.7366         estimate D2E/DX2                !
 ! A18   A(9,8,13)             118.9959         estimate D2E/DX2                !
 ! A19   A(8,9,10)             120.3996         estimate D2E/DX2                !
 ! A20   A(8,9,22)             119.9234         estimate D2E/DX2                !
 ! A21   A(10,9,22)            119.677          estimate D2E/DX2                !
 ! A22   A(9,10,11)            120.2992         estimate D2E/DX2                !
 ! A23   A(9,10,23)            119.5626         estimate D2E/DX2                !
 ! A24   A(11,10,23)           120.1382         estimate D2E/DX2                !
 ! A25   A(10,11,12)           119.6405         estimate D2E/DX2                !
 ! A26   A(10,11,24)           120.1228         estimate D2E/DX2                !
 ! A27   A(12,11,24)           120.2367         estimate D2E/DX2                !
 ! A28   A(11,12,13)           120.3389         estimate D2E/DX2                !
 ! A29   A(11,12,25)           120.1038         estimate D2E/DX2                !
 ! A30   A(13,12,25)           119.5573         estimate D2E/DX2                !
 ! A31   A(8,13,12)            120.3259         estimate D2E/DX2                !
 ! A32   A(8,13,26)            119.6193         estimate D2E/DX2                !
 ! A33   A(12,13,26)           120.0548         estimate D2E/DX2                !
 ! A34   A(4,14,7)             105.1801         estimate D2E/DX2                !
 ! A35   A(4,14,27)            126.1528         estimate D2E/DX2                !
 ! A36   A(7,14,27)            128.667          estimate D2E/DX2                !
 ! A37   A(2,15,16)            120.4796         estimate D2E/DX2                !
 ! A38   A(2,15,20)            118.7534         estimate D2E/DX2                !
 ! A39   A(16,15,20)           120.7646         estimate D2E/DX2                !
 ! A40   A(15,16,17)           119.4462         estimate D2E/DX2                !
 ! A41   A(15,16,28)           119.6926         estimate D2E/DX2                !
 ! A42   A(17,16,28)           120.86           estimate D2E/DX2                !
 ! A43   A(16,17,18)           120.1521         estimate D2E/DX2                !
 ! A44   A(16,17,29)           119.6638         estimate D2E/DX2                !
 ! A45   A(18,17,29)           120.1841         estimate D2E/DX2                !
 ! A46   A(17,18,19)           120.0986         estimate D2E/DX2                !
 ! A47   A(17,18,30)           119.9982         estimate D2E/DX2                !
 ! A48   A(19,18,30)           119.903          estimate D2E/DX2                !
 ! A49   A(18,19,20)           120.0899         estimate D2E/DX2                !
 ! A50   A(18,19,31)           120.2055         estimate D2E/DX2                !
 ! A51   A(20,19,31)           119.7044         estimate D2E/DX2                !
 ! A52   A(15,20,19)           119.4482         estimate D2E/DX2                !
 ! A53   A(15,20,32)           120.191          estimate D2E/DX2                !
 ! A54   A(19,20,32)           120.3594         estimate D2E/DX2                !
 ! D1    D(1,2,3,4)           -179.347          estimate D2E/DX2                !
 ! D2    D(15,2,3,4)            67.5188         estimate D2E/DX2                !
 ! D3    D(21,2,3,4)           -51.0473         estimate D2E/DX2                !
 ! D4    D(1,2,15,16)          135.7023         estimate D2E/DX2                !
 ! D5    D(1,2,15,20)          -44.8587         estimate D2E/DX2                !
 ! D6    D(3,2,15,16)         -111.1398         estimate D2E/DX2                !
 ! D7    D(3,2,15,20)           68.2992         estimate D2E/DX2                !
 ! D8    D(21,2,15,16)          12.7039         estimate D2E/DX2                !
 ! D9    D(21,2,15,20)        -167.857          estimate D2E/DX2                !
 ! D10   D(2,3,4,5)             -0.9076         estimate D2E/DX2                !
 ! D11   D(2,3,4,14)           179.7747         estimate D2E/DX2                !
 ! D12   D(3,4,5,6)           -179.1659         estimate D2E/DX2                !
 ! D13   D(14,4,5,6)             0.2174         estimate D2E/DX2                !
 ! D14   D(3,4,14,7)           179.3012         estimate D2E/DX2                !
 ! D15   D(3,4,14,27)           -0.6398         estimate D2E/DX2                !
 ! D16   D(5,4,14,7)            -0.1164         estimate D2E/DX2                !
 ! D17   D(5,4,14,27)          179.9426         estimate D2E/DX2                !
 ! D18   D(4,5,6,7)             -0.2443         estimate D2E/DX2                !
 ! D19   D(5,6,7,8)           -179.7617         estimate D2E/DX2                !
 ! D20   D(5,6,7,14)             0.1783         estimate D2E/DX2                !
 ! D21   D(6,7,8,9)           -179.4604         estimate D2E/DX2                !
 ! D22   D(6,7,8,13)             0.6404         estimate D2E/DX2                !
 ! D23   D(14,7,8,9)             0.6171         estimate D2E/DX2                !
 ! D24   D(14,7,8,13)         -179.2821         estimate D2E/DX2                !
 ! D25   D(6,7,14,4)            -0.0434         estimate D2E/DX2                !
 ! D26   D(6,7,14,27)          179.8956         estimate D2E/DX2                !
 ! D27   D(8,7,14,4)           179.8836         estimate D2E/DX2                !
 ! D28   D(8,7,14,27)           -0.1774         estimate D2E/DX2                !
 ! D29   D(7,8,9,10)          -179.9141         estimate D2E/DX2                !
 ! D30   D(7,8,9,22)             0.1778         estimate D2E/DX2                !
 ! D31   D(13,8,9,10)           -0.0132         estimate D2E/DX2                !
 ! D32   D(13,8,9,22)         -179.9212         estimate D2E/DX2                !
 ! D33   D(7,8,13,12)          179.9269         estimate D2E/DX2                !
 ! D34   D(7,8,13,26)           -0.0586         estimate D2E/DX2                !
 ! D35   D(9,8,13,12)            0.0264         estimate D2E/DX2                !
 ! D36   D(9,8,13,26)         -179.9591         estimate D2E/DX2                !
 ! D37   D(8,9,10,11)           -0.0095         estimate D2E/DX2                !
 ! D38   D(8,9,10,23)         -179.991          estimate D2E/DX2                !
 ! D39   D(22,9,10,11)         179.8987         estimate D2E/DX2                !
 ! D40   D(22,9,10,23)          -0.0828         estimate D2E/DX2                !
 ! D41   D(9,10,11,12)           0.0191         estimate D2E/DX2                !
 ! D42   D(9,10,11,24)         179.9922         estimate D2E/DX2                !
 ! D43   D(23,10,11,12)       -179.9995         estimate D2E/DX2                !
 ! D44   D(23,10,11,24)         -0.0264         estimate D2E/DX2                !
 ! D45   D(10,11,12,13)         -0.0058         estimate D2E/DX2                !
 ! D46   D(10,11,12,25)        179.946          estimate D2E/DX2                !
 ! D47   D(24,11,12,13)       -179.9789         estimate D2E/DX2                !
 ! D48   D(24,11,12,25)         -0.027          estimate D2E/DX2                !
 ! D49   D(11,12,13,8)          -0.0171         estimate D2E/DX2                !
 ! D50   D(11,12,13,26)        179.9684         estimate D2E/DX2                !
 ! D51   D(25,12,13,8)        -179.9692         estimate D2E/DX2                !
 ! D52   D(25,12,13,26)          0.0163         estimate D2E/DX2                !
 ! D53   D(2,15,16,17)         179.5018         estimate D2E/DX2                !
 ! D54   D(2,15,16,28)          -0.8914         estimate D2E/DX2                !
 ! D55   D(20,15,16,17)          0.0741         estimate D2E/DX2                !
 ! D56   D(20,15,16,28)        179.6809         estimate D2E/DX2                !
 ! D57   D(2,15,20,19)        -179.4051         estimate D2E/DX2                !
 ! D58   D(2,15,20,32)           1.0204         estimate D2E/DX2                !
 ! D59   D(16,15,20,19)          0.0323         estimate D2E/DX2                !
 ! D60   D(16,15,20,32)       -179.5422         estimate D2E/DX2                !
 ! D61   D(15,16,17,18)         -0.199          estimate D2E/DX2                !
 ! D62   D(15,16,17,29)        179.7489         estimate D2E/DX2                !
 ! D63   D(28,16,17,18)       -179.8011         estimate D2E/DX2                !
 ! D64   D(28,16,17,29)          0.1468         estimate D2E/DX2                !
 ! D65   D(16,17,18,19)          0.218          estimate D2E/DX2                !
 ! D66   D(16,17,18,30)       -179.9569         estimate D2E/DX2                !
 ! D67   D(29,17,18,19)       -179.7296         estimate D2E/DX2                !
 ! D68   D(29,17,18,30)          0.0955         estimate D2E/DX2                !
 ! D69   D(17,18,19,20)         -0.1104         estimate D2E/DX2                !
 ! D70   D(17,18,19,31)        179.7309         estimate D2E/DX2                !
 ! D71   D(30,18,19,20)       -179.9357         estimate D2E/DX2                !
 ! D72   D(30,18,19,31)         -0.0944         estimate D2E/DX2                !
 ! D73   D(18,19,20,15)         -0.0143         estimate D2E/DX2                !
 ! D74   D(18,19,20,32)        179.5594         estimate D2E/DX2                !
 ! D75   D(31,19,20,15)       -179.8564         estimate D2E/DX2                !
 ! D76   D(31,19,20,32)         -0.2827         estimate D2E/DX2                !
 --------------------------------------------------------------------------------
 Trust Radius=3.00D-01 FncErr=1.00D-07 GrdErr=1.00D-06 EigMax=2.50D+02 EigMin=1.00D-04
 Number of steps in this run=    174 maximum allowed number of steps=    192.
 GradGradGradGradGradGradGradGradGradGradGradGradGradGradGradGradGradGrad

 Leave Link  103 at Thu Sep 24 05:43:45 2020, MaxMem=  2147483648 cpu:               0.0 elap:               0.0
 (Enter /prod/apps/gaussian/g16b1/l202.exe)
                          Input orientation:                          
 ---------------------------------------------------------------------
 Center     Atomic      Atomic             Coordinates (Angstroms)
 Number     Number       Type             X           Y           Z
 ---------------------------------------------------------------------
      1          8           0        3.492000   -2.094000    0.754000
      2         16           0        2.515000   -1.335000   -0.066000
      3          7           0        1.097000   -1.482000    0.688000
      4          6           0       -0.031000   -0.898000    0.171000
      5          7           0       -0.118000   -0.161000   -0.939000
      6          8           0       -1.485000    0.224000   -1.029000
      7          6           0       -2.167000   -0.297000    0.021000
      8          6           0       -3.601000   -0.012000    0.099000
      9          6           0       -4.366000   -0.512000    1.168000
     10          6           0       -5.731000   -0.244000    1.244000
     11          6           0       -6.355000    0.526000    0.257000
     12          6           0       -5.602000    1.026000   -0.808000
     13          6           0       -4.235000    0.761000   -0.890000
     14          6           0       -1.314000   -1.009000    0.809000
     15          6           0        3.029000    0.395000    0.029000
     16          6           0        3.057000    1.189000   -1.118000
     17          6           0        3.448000    2.527000   -1.018000
     18          6           0        3.803000    3.063000    0.221000
     19          6           0        3.773000    2.261000    1.367000
     20          6           0        3.386000    0.924000    1.275000
     21          8           0        2.493000   -1.686000   -1.513000
     22          1           0       -3.892000   -1.109000    1.940000
     23          1           0       -6.309000   -0.637000    2.076000
     24          1           0       -7.419000    0.733000    0.319000
     25          1           0       -6.079000    1.624000   -1.579000
     26          1           0       -3.655000    1.151000   -1.719000
     27          1           0       -1.528000   -1.548000    1.720000
     28          1           0        2.782000    0.760000   -2.075000
     29          1           0        3.475000    3.147000   -1.909000
     30          1           0        4.106000    4.104000    0.296000
     31          1           0        4.053000    2.675000    2.331000
     32          1           0        3.368000    0.296000    2.160000
 ---------------------------------------------------------------------
                    Distance matrix (angstroms):
                    1          2          3          4          5
     1  O    0.000000
     2  S    1.484254   0.000000
     3  N    2.472837   1.612715   0.000000
     4  C    3.765878   2.594081   1.371397   0.000000
     5  N    4.431122   3.012158   2.422477   1.335230   0.000000
     6  O    5.772585   4.399756   3.539103   2.193855   1.423030
     7  C    5.982540   4.796471   3.535931   2.224005   2.266825
     8  C    7.421213   6.259633   4.957724   3.679005   3.637435
     9  C    8.026349   7.039051   5.569171   4.464889   4.754803
    10  C    9.419465   8.420386   6.961563   5.836869   6.023134
    11  C   10.201707   9.068878   7.729821   6.482912   6.387688
    12  C    9.740384   8.485904   7.307851   5.974635   5.612520
    13  C    8.400017   7.115806   5.995945   4.642372   4.219262
    14  C    4.927259   3.941211   2.459937   1.437169   2.281452
    15  C    2.633461   1.807241   2.773091   3.324998   3.339127
    16  C    3.804169   2.787659   3.773258   3.943708   3.454731
    17  C    4.949299   4.085564   4.950729   5.024718   4.466312
    18  C    5.193790   4.591701   5.310137   5.512856   5.207112
    19  C    4.406899   4.070291   4.651028   5.087250   5.130653
    20  C    3.064474   2.767671   3.372377   4.026709   4.284511
    21  O    2.510728   1.489125   2.614351   3.134865   3.077730
    22  H    7.543227   6.717497   5.157204   4.252200   4.840498
    23  H    9.996506   9.107049   7.582177   6.565853   6.902556
    24  H   11.279675  10.154270   8.807079   7.567338   7.462332
    25  H   10.529504   9.214211   8.141345   6.782425   6.255345
    26  H    8.229542   6.854306   5.942040   4.572076   3.852287
    27  H    5.141174   4.425044   2.821348   2.250091   3.313933
    28  H    4.080767   2.914858   3.936999   3.963136   3.247882
    29  H    5.878770   4.940301   5.816093   5.742862   4.979298
    30  H    6.245155   5.678472   6.356976   6.492334   6.128428
    31  H    5.054207   4.918450   5.358921   5.840461   6.011076
    32  H    2.775664   2.888399   3.238134   4.115211   4.686667
                    6          7          8          9         10
     6  O    0.000000
     7  C    1.356121   0.000000
     8  C    2.409468   1.464126   0.000000
     9  C    3.697116   2.489465   1.406409   0.000000
    10  C    4.838809   3.768373   2.429352   1.393135   0.000000
    11  C    5.045979   4.274619   2.810502   2.421464   1.398730
    12  C    4.200206   3.773168   2.429834   2.792439   2.416660
    13  C    2.805386   2.495177   1.406274   2.423438   2.793206
    14  C    2.219859   1.362166   2.593931   3.112972   4.503814
    15  C    4.639483   5.241884   6.642849   7.536975   8.866913
    16  C    4.644234   5.549387   6.874042   7.951108   9.212029
    17  C    5.444118   6.370457   7.575131   8.664451   9.851351
    18  C    6.130690   6.853503   8.018087   8.967162  10.142975
    19  C    6.126724   6.605958   7.819861   8.600724   9.829352
    20  C    5.433696   5.822299   7.146834   7.884608   9.191565
    21  O    4.439239   5.098831   6.522090   7.457340   8.792871
    22  H    4.047901   2.705093   2.162723   1.084928   2.148153
    23  H    5.801148   4.636247   3.410633   2.148334   1.086626
    24  H    6.106434   5.360337   3.896222   3.404649   2.158587
    25  H    4.833977   4.642627   3.410669   3.878514   3.402919
    26  H    2.458522   2.708957   2.158844   3.406737   3.877521
    27  H    3.270907   2.204523   3.047009   3.071196   4.426308
    28  H    4.425912   5.477505   6.787116   7.951663   9.192113
    29  H    5.824082   6.886087   8.005068   9.183545  10.304888
    30  H    6.933203   7.667787   8.739457   9.687240  10.796776
    31  H    6.925781   7.270302   8.413412   9.076844  10.267852
    32  H    5.807453   5.963488   7.273895   7.839112   9.160920
                   11         12         13         14         15
    11  C    0.000000
    12  C    1.396866   0.000000
    13  C    2.421825   1.394861   0.000000
    14  C    5.298359   5.014265   3.814675   0.000000
    15  C    9.387683   8.694417   7.331044   4.630471   0.000000
    16  C    9.534985   8.666080   7.308107   5.258343   1.395288
    17  C   10.086052   9.176034   7.884391   6.206277   2.411886
    18  C   10.470083   9.677925   8.434629   6.565868   2.784630
    19  C   10.335314   9.702911   8.454118   6.073041   2.413656
    20  C    9.802133   9.226778   7.924231   5.103297   1.399931
    21  O    9.290476   8.566271   7.186231   4.510351   2.644924
    22  H    3.401776   3.877348   3.409318   2.816957   7.335815
    23  H    2.159501   3.403362   3.879824   5.166594   9.615273
    24  H    1.085720   2.158117   3.405924   6.367550  10.457488
    25  H    2.157006   1.086082   2.149378   5.944784   9.330154
    26  H    3.403704   2.153220   1.084316   4.066530   6.950028
    27  H    5.453602   5.441850   4.412644   1.079925   5.234594
    28  H    9.432802   8.483366   7.116355   5.312630   2.149663
    29  H   10.401447   9.386308   8.134830   6.898868   3.395330
    30  H   11.056045  10.243933   9.063913   7.468757   3.871421
    31  H   10.828026  10.285502   9.095558   6.685285   3.397967
    32  H    9.910148   9.476435   8.205141   5.044735   2.160066
                   16         17         18         19         20
    16  C    0.000000
    17  C    1.397542   0.000000
    18  C    2.421015   1.395866   0.000000
    19  C    2.799476   2.421695   1.399078   0.000000
    20  C    2.430003   2.798446   2.420770   1.394920   0.000000
    21  O    2.956306   4.348151   5.222629   5.050902   3.922052
    22  H    7.932261   8.708953   8.920402   8.392702   7.585816
    23  H   10.062697  10.713673  10.926279  10.514172   9.852479
    24  H   10.583926  11.094940  11.461753  11.344336  10.848891
    25  H    9.157961   9.586128  10.147150  10.302747   9.910678
    26  H    6.738961   7.268933   7.939843   8.119771   7.654492
    27  H    6.047118   6.990196   7.206100   6.537101   5.518714
    28  H    1.084212   2.164046   3.408499   3.883612   3.407963
    29  H    2.152712   1.085822   2.156743   3.406754   3.884264
    30  H    3.405440   2.155572   1.086791   2.157447   3.404297
    31  H    3.885333   3.406425   2.159894   1.085860   2.150820
    32  H    3.411664   3.883741   3.406646   2.157336   1.085326
                   21         22         23         24         25
    21  O    0.000000
    22  H    7.281783   0.000000
    23  H    9.563291   2.466408   0.000000
    24  H   10.366076   4.296549   2.489186   0.000000
    25  H    9.189104   4.963428   4.303957   2.488350   0.000000
    26  H    6.774135   4.307209   4.964140   4.300682   2.473682
    27  H    5.161373   2.414460   4.880022   6.470676   6.454191
    28  H    2.526318   8.009723  10.091020  10.478185   8.916829
    29  H    4.947629   9.338149  11.221655  11.378516   9.680255
    30  H    6.276810   9.687420  11.580920  12.007906  10.648955
    31  H    6.018991   8.808778  10.881425  11.807891  10.911009
    32  H    4.264373   7.397974   9.722236  10.951695  10.246439
                   26         27         28         29         30
    26  H    0.000000
    27  H    4.861630   0.000000
    28  H    6.458683   6.189102   0.000000
    29  H    7.406552   7.761615   2.491099   0.000000
    30  H    8.544797   8.106469   4.307778   2.485163   0.000000
    31  H    8.839589   7.025284   4.969457   4.305168   2.487182
    32  H    8.068469   5.250214   4.300455   4.969548   4.303487
                   31         32
    31  H    0.000000
    32  H    2.481553   0.000000
 Symmetry turned off by external request.
 Stoichiometry    C15H11N2O3S(1-)
 Framework group  C1[X(C15H11N2O3S)]
 Deg. of freedom    90
 Full point group                 C1      NOp   1
 Rotational constants (GHZ):           0.6140975           0.1328729           0.1221429
 Leave Link  202 at Thu Sep 24 05:43:45 2020, MaxMem=  2147483648 cpu:               0.0 elap:               0.0
 (Enter /prod/apps/gaussian/g16b1/l301.exe)
 Standard basis: 6-31G(d) (6D, 7F)
 Ernie: Thresh=  0.10000D-02 Tol=  0.10000D-05 Strict=F.
   341 basis functions,   656 primitive gaussians,   341 cartesian basis functions
    78 alpha electrons       78 beta electrons
       nuclear repulsion energy      1682.1582910442 Hartrees.
 IExCor=  402 DFT=T Ex+Corr=B3LYP ExCW=0 ScaHFX=  0.200000
 ScaDFX=  0.800000  0.720000  1.000000  0.810000 ScalE2=  1.000000  1.000000
 IRadAn=      5 IRanWt=     -1 IRanGd=            0 ICorTp=0 IEmpDi=  4
 NAtoms=   32 NActive=   32 NUniq=   32 SFac= 1.00D+00 NAtFMM=   60 NAOKFM=F Big=F
 Integral buffers will be    131072 words long.
 Raffenetti 2 integral format.
 Two-electron integral symmetry is turned off.
 Using the following non-standard input for PCM:
 MSTModel=DFT cav MSTcharged
 --- end of non-standard input.
 MST model for solvation energy: B3LYP parametrization.
 MST cavity parameters:
 ISph   IAn     Re0     Alpha   Atom Type   QCorr
 ------------------------------------------------
   1      8     1.40     1.25      O          F
   2     16     1.75     1.25      S          F
   3      7     1.40     1.15      N          T
   4      6     1.50     1.25      C          F
   5      7     1.40     1.25      N          F
   6      8     1.40     1.25      O          F
   7      6     1.50     1.25      C          F
   8      6     1.50     1.25      C          F
   9      6     1.50     1.25      CH         F
  10      6     1.50     1.25      CH         F
  11      6     1.50     1.25      CH         F
  12      6     1.50     1.25      CH         F
  13      6     1.50     1.25      CH         F
  14      6     1.50     1.25      CH         F
  15      6     1.50     1.25      C          F
  16      6     1.50     1.25      CH         F
  17      6     1.50     1.25      CH         F
  18      6     1.50     1.25      CH         F
  19      6     1.50     1.25      CH         F
  20      6     1.50     1.25      CH         F
  21      8     1.40     1.25      O          F
  22      1     1.20     1.25      CH         F
  23      1     1.20     1.25      CH         F
  24      1     1.20     1.25      CH         F
  25      1     1.20     1.25      CH         F
  26      1     1.20     1.25      CH         F
  27      1     1.20     1.25      CH         F
  28      1     1.20     1.25      CH         F
  29      1     1.20     1.25      CH         F
  30      1     1.20     1.25      CH         F
  31      1     1.20     1.25      CH         F
  32      1     1.20     1.25      CH         F
 ------------------------------------------------------------------------------
 Polarizable Continuum Model (PCM)
 =================================
 Model                : PCM.
 Atomic radii         : MST.
 Polarization charges : Total charges.
 Charge compensation  : None.
 Solution method      : On-the-fly selection.
 Cavity type          : Scaled VdW (van der Waals Surface) (Alpha=1.250).
 Cavity algorithm     : GePol (No added spheres)
                        Default sphere list used, NSphG=   32.
                        Lebedev-Laikov grids with approx.  5.0 points / Ang**2.
                        Smoothing algorithm: York/Karplus (Gamma=1.0000).
                        Polarization charges: spherical gaussians, with
                                              point-specific exponents (IZeta= 3).
                        Self-potential: point-specific (ISelfS= 7).
                        Self-field    : sphere-specific E.n sum rule (ISelfD= 2).
 1st derivatives      : Analytical E(r).r(x)/FMM algorithm (CHGder, D1EAlg=3).
                        Cavity 1st derivative terms included.
 Solvent              : Water, Eps=  78.355300 Eps(inf)=   1.777849
 ------------------------------------------------------------------------------
 GePol: Number of generator spheres                  =      32
 GePol: Total number of spheres                      =      32
 GePol: Number of exposed spheres                    =      32 (100.00%)
 GePol: Number of points                             =    2626
 GePol: Average weight of points                     =       0.13
 GePol: Minimum weight of points                     =   0.72D-09
 GePol: Maximum weight of points                     =    0.22001
 GePol: Number of points with low weight             =     159
 GePol: Fraction of low-weight points (<1% of avg)   =       6.05%
 GePol: Cavity surface area                          =    337.903 Ang**2
 GePol: Cavity volume                                =    321.115 Ang**3
 PCM non-electrostatic energy =         0.0037405373 Hartrees.
 Nuclear repulsion after PCM non-electrostatic terms =     1682.1620315815 Hartrees.
 Leave Link  301 at Thu Sep 24 05:43:45 2020, MaxMem=  2147483648 cpu:               0.3 elap:               0.1
 (Enter /prod/apps/gaussian/g16b1/l302.exe)
 NPDir=0 NMtPBC=     1 NCelOv=     1 NCel=       1 NClECP=     1 NCelD=      1
         NCelK=      1 NCelE2=     1 NClLst=     1 CellRange=     0.0.
 One-electron integrals computed using PRISM.
 NBasis=   341 RedAO= T EigKep=  4.61D-04  NBF=   341
 NBsUse=   341 1.00D-06 EigRej= -1.00D+00 NBFU=   341
 Precomputing XC quadrature grid using
 IXCGrd= 4 IRadAn=           5 IRanWt=          -1 IRanGd=           0 AccXCQ= 0.00D+00.
 Generated NRdTot=       0 NPtTot=           0 NUsed=           0 NTot=          32
 NSgBfM=   335   335   335   335   335 MxSgAt=    32 MxSgA2=    32.
 Leave Link  302 at Thu Sep 24 05:43:46 2020, MaxMem=  2147483648 cpu:               1.4 elap:               0.4
 (Enter /prod/apps/gaussian/g16b1/l303.exe)
 DipDrv:  MaxL=1.
 Leave Link  303 at Thu Sep 24 05:43:46 2020, MaxMem=  2147483648 cpu:               0.2 elap:               0.1
 (Enter /prod/apps/gaussian/g16b1/l401.exe)
 ExpMin= 1.17D-01 ExpMax= 2.19D+04 ExpMxC= 3.30D+03 IAcc=3 IRadAn=         5 AccDes= 0.00D+00
 Harris functional with IExCor=  402 and IRadAn=       5 diagonalized for initial guess.
 HarFok:  IExCor=  402 AccDes= 0.00D+00 IRadAn=         5 IDoV= 1 UseB2=F ITyADJ=14
 ICtDFT=  3500011 ScaDFX=  1.000000  1.000000  1.000000  1.000000
 FoFCou: FMM=F IPFlag=           0 FMFlag=      100000 FMFlg1=           0
         NFxFlg=           0 DoJE=T BraDBF=F KetDBF=T FulRan=T
         wScrn=  0.000000 ICntrl=       500 IOpCl=  0 I1Cent=   200000004 NGrid=           0
         NMat0=    1 NMatS0=      1 NMatT0=    0 NMatD0=    1 NMtDS0=    0 NMtDT0=    0
 Symmetry not used in FoFCou.
 Harris En= -1311.69192673912    
 JPrj=0 DoOrth=F DoCkMO=F.
 Leave Link  401 at Thu Sep 24 05:43:50 2020, MaxMem=  2147483648 cpu:              13.2 elap:               3.8
 (Enter /prod/apps/gaussian/g16b1/l502.exe)
 Two-electron integral symmetry not used.
 Closed shell SCF:
 Using DIIS extrapolation, IDIIS=  1040.
 NGot=  2147483648 LenX=  2147246177 LenY=  2147129455
 Requested convergence on RMS density matrix=1.00D-08 within2000 cycles.
 Requested convergence on MAX density matrix=1.00D-06.
 Requested convergence on             energy=1.00D-06.
 No special actions if energy rises.

 Cycle   1  Pass 1  IDiag  1:
 FoFJK:  IHMeth= 1 ICntrl=       0 DoSepK=F KAlg= 0 I1Cent=           0 FoldK=F
 IRaf= 700000000 NMat=       1 IRICut=       1 DoRegI=T DoRafI=F ISym2E= 0 IDoP0=0 IntGTp=1.
 FoFCou: FMM=F IPFlag=           0 FMFlag=      100000 FMFlg1=           0
         NFxFlg=           0 DoJE=F BraDBF=F KetDBF=F FulRan=T
         wScrn=  0.000000 ICntrl=         0 IOpCl=  0 I1Cent=           0 NGrid=           0
         NMat0=    1 NMatS0=      1 NMatT0=    0 NMatD0=    1 NMtDS0=    0 NMtDT0=    0
 Symmetry not used in FoFCou.
 Inv3:  Mode=1 IEnd=    20687628.
 Iteration    1 A*A^-1 deviation from unit magnitude is 3.22D-15 for    366.
 Iteration    1 A*A^-1 deviation from orthogonality  is 2.44D-15 for   2498    884.
 Iteration    1 A^-1*A deviation from unit magnitude is 2.66D-15 for    119.
 Iteration    1 A^-1*A deviation from orthogonality  is 2.06D-14 for   1738   1513.
 E= -1311.02805842358    
 DIIS: error= 3.15D-02 at cycle   1 NSaved=   1.
 NSaved= 1 IEnMin= 1 EnMin= -1311.02805842358     IErMin= 1 ErrMin= 3.15D-02
 ErrMax= 3.15D-02  0.00D+00 EMaxC= 1.00D-01 BMatC= 6.71D-01 BMatP= 6.71D-01
 IDIUse=3 WtCom= 6.85D-01 WtEn= 3.15D-01
 Coeff-Com:  0.100D+01
 Coeff-En:   0.100D+01
 Coeff:      0.100D+01
 Gap=     0.207 Goal=   None    Shift=    0.000
 GapD=    0.207 DampG=1.000 DampE=0.500 DampFc=0.5000 IDamp=-1.
 Damping current iteration by 5.00D-01
 RMSDP=5.82D-03 MaxDP=5.26D-01              OVMax= 2.01D-01

 Cycle   2  Pass 1  IDiag  1:
 E= -1311.22316771119     Delta-E=       -0.195109287615 Rises=F Damp=T
 DIIS: error= 1.14D-02 at cycle   2 NSaved=   2.
 NSaved= 2 IEnMin= 2 EnMin= -1311.22316771119     IErMin= 2 ErrMin= 1.14D-02
 ErrMax= 1.14D-02  0.00D+00 EMaxC= 1.00D-01 BMatC= 7.96D-02 BMatP= 6.71D-01
 IDIUse=3 WtCom= 8.86D-01 WtEn= 1.14D-01
 Coeff-Com:  0.182D+00 0.818D+00
 Coeff-En:   0.290D+00 0.710D+00
 Coeff:      0.194D+00 0.806D+00
 Gap=     0.205 Goal=   None    Shift=    0.000
 RMSDP=1.71D-03 MaxDP=1.33D-01 DE=-1.95D-01 OVMax= 1.68D-01

 Cycle   3  Pass 1  IDiag  1:
 E= -1311.58226110356     Delta-E=       -0.359093392367 Rises=F Damp=F
 DIIS: error= 8.46D-03 at cycle   3 NSaved=   3.
 NSaved= 3 IEnMin= 3 EnMin= -1311.58226110356     IErMin= 3 ErrMin= 8.46D-03
 ErrMax= 8.46D-03  0.00D+00 EMaxC= 1.00D-01 BMatC= 4.45D-02 BMatP= 7.96D-02
 IDIUse=3 WtCom= 9.15D-01 WtEn= 8.46D-02
 Coeff-Com:  0.354D-01 0.424D+00 0.541D+00
 Coeff-En:   0.000D+00 0.000D+00 0.100D+01
 Coeff:      0.324D-01 0.388D+00 0.580D+00
 Gap=     0.171 Goal=   None    Shift=    0.000
 RMSDP=9.06D-04 MaxDP=3.99D-02 DE=-3.59D-01 OVMax= 5.18D-02

 Cycle   4  Pass 1  IDiag  1:
 E= -1311.61690877125     Delta-E=       -0.034647667693 Rises=F Damp=F
 DIIS: error= 4.17D-03 at cycle   4 NSaved=   4.
 NSaved= 4 IEnMin= 4 EnMin= -1311.61690877125     IErMin= 4 ErrMin= 4.17D-03
 ErrMax= 4.17D-03  0.00D+00 EMaxC= 1.00D-01 BMatC= 6.79D-03 BMatP= 4.45D-02
 IDIUse=3 WtCom= 9.58D-01 WtEn= 4.17D-02
 Coeff-Com:  0.468D-03 0.988D-01 0.308D+00 0.593D+00
 Coeff-En:   0.000D+00 0.000D+00 0.115D+00 0.885D+00
 Coeff:      0.449D-03 0.947D-01 0.300D+00 0.605D+00
 Gap=     0.167 Goal=   None    Shift=    0.000
 RMSDP=3.05D-04 MaxDP=1.57D-02 DE=-3.46D-02 OVMax= 2.14D-02

 Cycle   5  Pass 1  IDiag  1:
 E= -1311.62247990334     Delta-E=       -0.005571132084 Rises=F Damp=F
 DIIS: error= 1.57D-03 at cycle   5 NSaved=   5.
 NSaved= 5 IEnMin= 5 EnMin= -1311.62247990334     IErMin= 5 ErrMin= 1.57D-03
 ErrMax= 1.57D-03  0.00D+00 EMaxC= 1.00D-01 BMatC= 6.96D-04 BMatP= 6.79D-03
 IDIUse=3 WtCom= 9.84D-01 WtEn= 1.57D-02
 Coeff-Com: -0.285D-02 0.178D-01 0.113D+00 0.332D+00 0.540D+00
 Coeff-En:   0.000D+00 0.000D+00 0.000D+00 0.355D-01 0.964D+00
 Coeff:     -0.280D-02 0.175D-01 0.111D+00 0.327D+00 0.547D+00
 Gap=     0.169 Goal=   None    Shift=    0.000
 RMSDP=9.72D-05 MaxDP=4.76D-03 DE=-5.57D-03 OVMax= 8.06D-03

 Cycle   6  Pass 1  IDiag  1:
 E= -1311.62308595708     Delta-E=       -0.000606053741 Rises=F Damp=F
 DIIS: error= 3.46D-04 at cycle   6 NSaved=   6.
 NSaved= 6 IEnMin= 6 EnMin= -1311.62308595708     IErMin= 6 ErrMin= 3.46D-04
 ErrMax= 3.46D-04  0.00D+00 EMaxC= 1.00D-01 BMatC= 6.26D-05 BMatP= 6.96D-04
 IDIUse=3 WtCom= 9.97D-01 WtEn= 3.46D-03
 Coeff-Com: -0.162D-02 0.402D-02 0.424D-01 0.141D+00 0.312D+00 0.502D+00
 Coeff-En:   0.000D+00 0.000D+00 0.000D+00 0.000D+00 0.770D-02 0.992D+00
 Coeff:     -0.161D-02 0.401D-02 0.422D-01 0.141D+00 0.311D+00 0.503D+00
 Gap=     0.168 Goal=   None    Shift=    0.000
 RMSDP=2.89D-05 MaxDP=1.38D-03 DE=-6.06D-04 OVMax= 3.49D-03

 Cycle   7  Pass 1  IDiag  1:
 E= -1311.62314106800     Delta-E=       -0.000055110921 Rises=F Damp=F
 DIIS: error= 1.03D-04 at cycle   7 NSaved=   7.
 NSaved= 7 IEnMin= 7 EnMin= -1311.62314106800     IErMin= 7 ErrMin= 1.03D-04
 ErrMax= 1.03D-04  0.00D+00 EMaxC= 1.00D-01 BMatC= 5.95D-06 BMatP= 6.26D-05
 IDIUse=3 WtCom= 9.99D-01 WtEn= 1.03D-03
 Coeff-Com: -0.749D-03 0.455D-03 0.144D-01 0.525D-01 0.135D+00 0.300D+00
 Coeff-Com:  0.498D+00
 Coeff-En:   0.000D+00 0.000D+00 0.000D+00 0.000D+00 0.000D+00 0.363D-02
 Coeff-En:   0.996D+00
 Coeff:     -0.748D-03 0.455D-03 0.144D-01 0.524D-01 0.135D+00 0.300D+00
 Coeff:      0.498D+00
 Gap=     0.168 Goal=   None    Shift=    0.000
 RMSDP=8.07D-06 MaxDP=4.06D-04 DE=-5.51D-05 OVMax= 9.34D-04

 Cycle   8  Pass 1  IDiag  1:
 E= -1311.62314591297     Delta-E=       -0.000004844971 Rises=F Damp=F
 DIIS: error= 3.32D-05 at cycle   8 NSaved=   8.
 NSaved= 8 IEnMin= 8 EnMin= -1311.62314591297     IErMin= 8 ErrMin= 3.32D-05
 ErrMax= 3.32D-05  0.00D+00 EMaxC= 1.00D-01 BMatC= 4.85D-07 BMatP= 5.95D-06
 IDIUse=1 WtCom= 1.00D+00 WtEn= 0.00D+00
 Coeff-Com: -0.210D-03-0.222D-03 0.263D-02 0.113D-01 0.369D-01 0.108D+00
 Coeff-Com:  0.268D+00 0.574D+00
 Coeff:     -0.210D-03-0.222D-03 0.263D-02 0.113D-01 0.369D-01 0.108D+00
 Coeff:      0.268D+00 0.574D+00
 Gap=     0.168 Goal=   None    Shift=    0.000
 RMSDP=2.58D-06 MaxDP=1.29D-04 DE=-4.84D-06 OVMax= 2.43D-04

 Cycle   9  Pass 1  IDiag  1:
 E= -1311.62314632387     Delta-E=       -0.000000410898 Rises=F Damp=F
 DIIS: error= 1.13D-05 at cycle   9 NSaved=   9.
 NSaved= 9 IEnMin= 9 EnMin= -1311.62314632387     IErMin= 9 ErrMin= 1.13D-05
 ErrMax= 1.13D-05  0.00D+00 EMaxC= 1.00D-01 BMatC= 4.02D-08 BMatP= 4.85D-07
 IDIUse=1 WtCom= 1.00D+00 WtEn= 0.00D+00
 Coeff-Com: -0.101D-04-0.130D-03-0.455D-03-0.115D-02 0.746D-03 0.130D-01
 Coeff-Com:  0.562D-01 0.272D+00 0.660D+00
 Coeff:     -0.101D-04-0.130D-03-0.455D-03-0.115D-02 0.746D-03 0.130D-01
 Coeff:      0.562D-01 0.272D+00 0.660D+00
 Gap=     0.168 Goal=   None    Shift=    0.000
 RMSDP=7.07D-07 MaxDP=3.16D-05 DE=-4.11D-07 OVMax= 5.32D-05

 Cycle  10  Pass 1  IDiag  1:
 E= -1311.62314635812     Delta-E=       -0.000000034251 Rises=F Damp=F
 DIIS: error= 2.76D-06 at cycle  10 NSaved=  10.
 NSaved=10 IEnMin=10 EnMin= -1311.62314635812     IErMin=10 ErrMin= 2.76D-06
 ErrMax= 2.76D-06  0.00D+00 EMaxC= 1.00D-01 BMatC= 3.51D-09 BMatP= 4.02D-08
 IDIUse=1 WtCom= 1.00D+00 WtEn= 0.00D+00
 Coeff-Com:  0.214D-05-0.582D-04-0.371D-03-0.117D-02-0.129D-02 0.232D-02
 Coeff-Com:  0.171D-01 0.126D+00 0.360D+00 0.497D+00
 Coeff:      0.214D-05-0.582D-04-0.371D-03-0.117D-02-0.129D-02 0.232D-02
 Coeff:      0.171D-01 0.126D+00 0.360D+00 0.497D+00
 Gap=     0.168 Goal=   None    Shift=    0.000
 RMSDP=2.13D-07 MaxDP=6.74D-06 DE=-3.43D-08 OVMax= 2.08D-05

 Cycle  11  Pass 1  IDiag  1:
 E= -1311.62314636133     Delta-E=       -0.000000003210 Rises=F Damp=F
 DIIS: error= 5.69D-07 at cycle  11 NSaved=  11.
 NSaved=11 IEnMin=11 EnMin= -1311.62314636133     IErMin=11 ErrMin= 5.69D-07
 ErrMax= 5.69D-07  0.00D+00 EMaxC= 1.00D-01 BMatC= 2.51D-10 BMatP= 3.51D-09
 IDIUse=1 WtCom= 1.00D+00 WtEn= 0.00D+00
 Coeff-Com:  0.167D-05-0.227D-05-0.103D-03-0.380D-03-0.786D-03-0.114D-02
 Coeff-Com: -0.258D-02 0.144D-01 0.511D-01 0.214D+00 0.725D+00
 Coeff:      0.167D-05-0.227D-05-0.103D-03-0.380D-03-0.786D-03-0.114D-02
 Coeff:     -0.258D-02 0.144D-01 0.511D-01 0.214D+00 0.725D+00
 Gap=     0.168 Goal=   None    Shift=    0.000
 RMSDP=6.20D-08 MaxDP=2.37D-06 DE=-3.21D-09 OVMax= 4.42D-06

 Cycle  12  Pass 1  IDiag  1:
 E= -1311.62314636154     Delta-E=       -0.000000000209 Rises=F Damp=F
 DIIS: error= 2.67D-07 at cycle  12 NSaved=  12.
 NSaved=12 IEnMin=12 EnMin= -1311.62314636154     IErMin=12 ErrMin= 2.67D-07
 ErrMax= 2.67D-07  0.00D+00 EMaxC= 1.00D-01 BMatC= 4.50D-11 BMatP= 2.51D-10
 IDIUse=1 WtCom= 1.00D+00 WtEn= 0.00D+00
 Coeff-Com:  0.558D-06 0.281D-05-0.315D-04-0.129D-03-0.330D-03-0.692D-03
 Coeff-Com: -0.248D-02 0.786D-03 0.501D-02 0.831D-01 0.401D+00 0.513D+00
 Coeff:      0.558D-06 0.281D-05-0.315D-04-0.129D-03-0.330D-03-0.692D-03
 Coeff:     -0.248D-02 0.786D-03 0.501D-02 0.831D-01 0.401D+00 0.513D+00
 Gap=     0.168 Goal=   None    Shift=    0.000
 RMSDP=2.35D-08 MaxDP=9.74D-07 DE=-2.09D-10 OVMax= 1.55D-06

 Cycle  13  Pass 1  IDiag  1:
 E= -1311.62314636158     Delta-E=       -0.000000000040 Rises=F Damp=F
 DIIS: error= 7.96D-08 at cycle  13 NSaved=  13.
 NSaved=13 IEnMin=13 EnMin= -1311.62314636158     IErMin=13 ErrMin= 7.96D-08
 ErrMax= 7.96D-08  0.00D+00 EMaxC= 1.00D-01 BMatC= 4.50D-12 BMatP= 4.50D-11
 IDIUse=1 WtCom= 1.00D+00 WtEn= 0.00D+00
 Coeff-Com:  0.793D-07 0.175D-05-0.169D-05-0.128D-04-0.651D-04-0.215D-03
 Coeff-Com: -0.102D-02-0.186D-02-0.621D-02 0.805D-02 0.935D-01 0.268D+00
 Coeff-Com:  0.639D+00
 Coeff:      0.793D-07 0.175D-05-0.169D-05-0.128D-04-0.651D-04-0.215D-03
 Coeff:     -0.102D-02-0.186D-02-0.621D-02 0.805D-02 0.935D-01 0.268D+00
 Coeff:      0.639D+00
 Gap=     0.168 Goal=   None    Shift=    0.000
 RMSDP=8.22D-09 MaxDP=3.77D-07 DE=-4.00D-11 OVMax= 4.57D-07

 Error on total polarization charges =  0.02441
 SCF Done:  E(RB3LYP) =  -1311.62314636     A.U. after   13 cycles
            NFock= 13  Conv=0.82D-08     -V/T= 2.0077
 KE= 1.301614689456D+03 PE=-6.458804064866D+03 EE= 2.163404197467D+03
 Leave Link  502 at Thu Sep 24 05:45:02 2020, MaxMem=  2147483648 cpu:             278.5 elap:              72.2
 (Enter /prod/apps/gaussian/g16b1/l601.exe)
 Copying SCF densities to generalized density rwf, IOpCl= 0 IROHF=0.

 **********************************************************************

            Population analysis using the SCF Density.

 **********************************************************************

 Alpha  occ. eigenvalues --  -89.08918 -19.21726 -19.12029 -19.11816 -14.35498
 Alpha  occ. eigenvalues --  -14.30409 -10.25339 -10.24791 -10.21419 -10.21146
 Alpha  occ. eigenvalues --  -10.20163 -10.19998 -10.19773 -10.19755 -10.19678
 Alpha  occ. eigenvalues --  -10.19637 -10.19631 -10.19519 -10.19470 -10.19432
 Alpha  occ. eigenvalues --  -10.18214  -8.11340  -6.07829  -6.07736  -6.07703
 Alpha  occ. eigenvalues --   -1.11631  -1.08149  -0.96864  -0.90833  -0.86435
 Alpha  occ. eigenvalues --   -0.86190  -0.81954  -0.79160  -0.76058  -0.75221
 Alpha  occ. eigenvalues --   -0.74957  -0.74116  -0.65865  -0.63151  -0.61601
 Alpha  occ. eigenvalues --   -0.61105  -0.59874  -0.58044  -0.55166  -0.53875
 Alpha  occ. eigenvalues --   -0.51038  -0.49008  -0.47398  -0.46825  -0.46239
 Alpha  occ. eigenvalues --   -0.45681  -0.45271  -0.44523  -0.44032  -0.43341
 Alpha  occ. eigenvalues --   -0.42702  -0.42516  -0.41289  -0.38686  -0.37891
 Alpha  occ. eigenvalues --   -0.37453  -0.36976  -0.35660  -0.35110  -0.34549
 Alpha  occ. eigenvalues --   -0.34227  -0.32616  -0.31782  -0.30157  -0.29381
 Alpha  occ. eigenvalues --   -0.28836  -0.28161  -0.26089  -0.25865  -0.25745
 Alpha  occ. eigenvalues --   -0.25215  -0.22608  -0.21034
 Alpha virt. eigenvalues --   -0.04195  -0.02151  -0.00795  -0.00632   0.03974
 Alpha virt. eigenvalues --    0.08102   0.08596   0.09086   0.10941   0.11743
 Alpha virt. eigenvalues --    0.12777   0.13227   0.13434   0.14882   0.15468
 Alpha virt. eigenvalues --    0.15910   0.16849   0.17358   0.17440   0.18061
 Alpha virt. eigenvalues --    0.19059   0.19349   0.19583   0.20290   0.24199
 Alpha virt. eigenvalues --    0.26481   0.26691   0.28760   0.30139   0.30319
 Alpha virt. eigenvalues --    0.30383   0.31503   0.31823   0.33548   0.34125
 Alpha virt. eigenvalues --    0.34874   0.37296   0.38817   0.40329   0.44092
 Alpha virt. eigenvalues --    0.45248   0.47380   0.48782   0.50501   0.50710
 Alpha virt. eigenvalues --    0.52370   0.53319   0.53478   0.54235   0.54350
 Alpha virt. eigenvalues --    0.55539   0.55946   0.56332   0.57042   0.57859
 Alpha virt. eigenvalues --    0.58335   0.58480   0.58867   0.59141   0.59663
 Alpha virt. eigenvalues --    0.60492   0.60634   0.60964   0.61227   0.61297
 Alpha virt. eigenvalues --    0.62006   0.63071   0.63449   0.64085   0.64706
 Alpha virt. eigenvalues --    0.65379   0.66014   0.68767   0.70237   0.72169
 Alpha virt. eigenvalues --    0.72608   0.74838   0.76902   0.78461   0.78839
 Alpha virt. eigenvalues --    0.79238   0.79714   0.80638   0.82640   0.83125
 Alpha virt. eigenvalues --    0.83860   0.84090   0.84565   0.85148   0.85732
 Alpha virt. eigenvalues --    0.86349   0.87071   0.88206   0.89396   0.90318
 Alpha virt. eigenvalues --    0.90997   0.91408   0.91950   0.92397   0.93051
 Alpha virt. eigenvalues --    0.93968   0.94737   0.96843   0.97781   0.98350
 Alpha virt. eigenvalues --    0.98794   1.01783   1.02358   1.03807   1.04387
 Alpha virt. eigenvalues --    1.05627   1.06429   1.08996   1.09451   1.10287
 Alpha virt. eigenvalues --    1.12006   1.13703   1.15174   1.16572   1.17269
 Alpha virt. eigenvalues --    1.17761   1.19257   1.20802   1.22047   1.22879
 Alpha virt. eigenvalues --    1.24736   1.25792   1.26177   1.27656   1.28553
 Alpha virt. eigenvalues --    1.31460   1.33000   1.35515   1.35939   1.38684
 Alpha virt. eigenvalues --    1.40866   1.41901   1.42772   1.43044   1.43277
 Alpha virt. eigenvalues --    1.44897   1.46464   1.47083   1.47757   1.48465
 Alpha virt. eigenvalues --    1.48582   1.50195   1.50549   1.50604   1.52886
 Alpha virt. eigenvalues --    1.55872   1.56358   1.59121   1.60314   1.70184
 Alpha virt. eigenvalues --    1.70939   1.75087   1.77374   1.78047   1.79518
 Alpha virt. eigenvalues --    1.79842   1.80234   1.80807   1.82599   1.83186
 Alpha virt. eigenvalues --    1.85982   1.86565   1.88034   1.88607   1.88976
 Alpha virt. eigenvalues --    1.90733   1.92154   1.92913   1.94410   1.95959
 Alpha virt. eigenvalues --    1.96426   1.97416   1.99084   2.00920   2.01657
 Alpha virt. eigenvalues --    2.02127   2.03621   2.05455   2.10008   2.11000
 Alpha virt. eigenvalues --    2.11672   2.12258   2.13369   2.13563   2.14138
 Alpha virt. eigenvalues --    2.14458   2.14670   2.15853   2.16401   2.16917
 Alpha virt. eigenvalues --    2.20469   2.22831   2.24008   2.24598   2.27866
 Alpha virt. eigenvalues --    2.28514   2.29609   2.30317   2.30466   2.32330
 Alpha virt. eigenvalues --    2.33510   2.33780   2.35603   2.49735   2.53035
 Alpha virt. eigenvalues --    2.53340   2.54029   2.55736   2.58148   2.58444
 Alpha virt. eigenvalues --    2.58746   2.61967   2.64125   2.65078   2.66011
 Alpha virt. eigenvalues --    2.66428   2.67286   2.70929   2.72135   2.73087
 Alpha virt. eigenvalues --    2.73806   2.74599   2.75003   2.76252   2.77900
 Alpha virt. eigenvalues --    2.81213   2.85243   2.89034   2.91357   2.93670
 Alpha virt. eigenvalues --    3.03595   3.04613   3.06818   3.15329   3.28245
 Alpha virt. eigenvalues --    3.37646   3.42878   3.80874   3.82481   4.01877
 Alpha virt. eigenvalues --    4.05547   4.07847   4.08652   4.09848   4.11090
 Alpha virt. eigenvalues --    4.11224   4.14795   4.16379   4.24206   4.29991
 Alpha virt. eigenvalues --    4.32027   4.32995   4.35844   4.39170   4.42397
 Alpha virt. eigenvalues --    4.59144   4.66389   4.74814
          Condensed to atoms (all electrons):
               1          2          3          4          5          6
     1  O    8.358009   0.448416  -0.068949   0.001153  -0.000031   0.000000
     2  S    0.448416  13.675232   0.272320  -0.017168   0.001042  -0.000150
     3  N   -0.068949   0.272320   7.479303   0.349330  -0.090682   0.005242
     4  C    0.001153  -0.017168   0.349330   4.454422   0.375361  -0.037636
     5  N   -0.000031   0.001042  -0.090682   0.375361   7.093761   0.086592
     6  O    0.000000  -0.000150   0.005242  -0.037636   0.086592   8.265424
     7  C   -0.000000   0.000344  -0.000248  -0.015416  -0.074248   0.237364
     8  C   -0.000000  -0.000008  -0.000183   0.002976   0.004380  -0.040410
     9  C   -0.000000   0.000000   0.000002   0.000516  -0.000089   0.003101
    10  C   -0.000000  -0.000000   0.000000  -0.000006   0.000001  -0.000060
    11  C    0.000000  -0.000000   0.000000   0.000000  -0.000000   0.000001
    12  C   -0.000000  -0.000000  -0.000000   0.000004   0.000000   0.000323
    13  C   -0.000000  -0.000000  -0.000001  -0.000332   0.000119  -0.005684
    14  C   -0.000047   0.000269  -0.055433   0.437171  -0.067381  -0.082535
    15  C   -0.064279   0.145825  -0.066225  -0.001988  -0.001387   0.000020
    16  C    0.000657  -0.021675  -0.000950  -0.000128   0.002718  -0.000042
    17  C   -0.000053   0.001916  -0.000094  -0.000033  -0.000127   0.000001
    18  C   -0.000007  -0.000511  -0.000001   0.000007   0.000003   0.000000
    19  C    0.000382   0.002476  -0.000067  -0.000011  -0.000008  -0.000000
    20  C    0.001647  -0.018825  -0.001480  -0.000119  -0.000028  -0.000001
    21  O   -0.051198   0.394856  -0.054843  -0.002411   0.001579   0.000022
    22  H   -0.000000  -0.000000  -0.000001   0.000044  -0.000003   0.000022
    23  H   -0.000000   0.000000  -0.000000  -0.000000  -0.000000   0.000000
    24  H   -0.000000  -0.000000  -0.000000  -0.000000   0.000000   0.000000
    25  H    0.000000   0.000000   0.000000  -0.000000   0.000000  -0.000002
    26  H   -0.000000  -0.000000  -0.000000   0.000041  -0.000234   0.010538
    27  H   -0.000002  -0.000122  -0.000040  -0.030138   0.006000   0.003633
    28  H    0.000083  -0.002910   0.000195   0.000003   0.001489  -0.000008
    29  H    0.000000  -0.000025   0.000001   0.000000  -0.000008   0.000000
    30  H   -0.000000   0.000006  -0.000000  -0.000000   0.000000  -0.000000
    31  H    0.000002  -0.000035   0.000002  -0.000000  -0.000000   0.000000
    32  H    0.005011   0.001472   0.000755   0.000030  -0.000012   0.000000
               7          8          9         10         11         12
     1  O   -0.000000  -0.000000  -0.000000  -0.000000   0.000000  -0.000000
     2  S    0.000344  -0.000008   0.000000  -0.000000  -0.000000  -0.000000
     3  N   -0.000248  -0.000183   0.000002   0.000000   0.000000  -0.000000
     4  C   -0.015416   0.002976   0.000516  -0.000006   0.000000   0.000004
     5  N   -0.074248   0.004380  -0.000089   0.000001  -0.000000   0.000000
     6  O    0.237364  -0.040410   0.003101  -0.000060   0.000001   0.000323
     7  C    4.751166   0.348845  -0.043875   0.006201   0.000815   0.004547
     8  C    0.348845   4.786925   0.536005  -0.011326  -0.033790  -0.010393
     9  C   -0.043875   0.536005   5.023425   0.516757  -0.040268  -0.041256
    10  C    0.006201  -0.011326   0.516757   4.890423   0.539026  -0.026777
    11  C    0.000815  -0.033790  -0.040268   0.539026   4.880748   0.539239
    12  C    0.004547  -0.010393  -0.041256  -0.026777   0.539239   4.897846
    13  C   -0.042461   0.470459  -0.082615  -0.042008  -0.038217   0.503338
    14  C    0.492085  -0.056768  -0.019863   0.000230   0.000014  -0.000224
    15  C    0.000009   0.000000  -0.000000   0.000000  -0.000000   0.000000
    16  C    0.000015   0.000000   0.000000  -0.000000   0.000000   0.000000
    17  C   -0.000000   0.000000  -0.000000   0.000000   0.000000   0.000000
    18  C   -0.000000  -0.000000   0.000000   0.000000  -0.000000  -0.000000
    19  C    0.000000  -0.000000   0.000000  -0.000000  -0.000000  -0.000000
    20  C    0.000004   0.000000  -0.000000  -0.000000   0.000000   0.000000
    21  O    0.000010   0.000000   0.000000   0.000000  -0.000000   0.000000
    22  H   -0.012282  -0.036100   0.356960  -0.043010   0.004537   0.000160
    23  H   -0.000196   0.003195  -0.037630   0.362506  -0.041129   0.004413
    24  H    0.000004   0.000487   0.004739  -0.041764   0.364289  -0.041612
    25  H   -0.000168   0.003226   0.000759   0.004438  -0.041336   0.363078
    26  H   -0.012944  -0.043014   0.005408   0.000201   0.004608  -0.042009
    27  H   -0.031365  -0.003295   0.001197   0.000096  -0.000001   0.000001
    28  H    0.000002   0.000000   0.000000  -0.000000   0.000000   0.000000
    29  H   -0.000000   0.000000  -0.000000   0.000000   0.000000  -0.000000
    30  H    0.000000  -0.000000   0.000000   0.000000  -0.000000   0.000000
    31  H   -0.000000   0.000000  -0.000000   0.000000   0.000000  -0.000000
    32  H   -0.000000   0.000000  -0.000000   0.000000   0.000000  -0.000000
              13         14         15         16         17         18
     1  O   -0.000000  -0.000047  -0.064279   0.000657  -0.000053  -0.000007
     2  S   -0.000000   0.000269   0.145825  -0.021675   0.001916  -0.000511
     3  N   -0.000001  -0.055433  -0.066225  -0.000950  -0.000094  -0.000001
     4  C   -0.000332   0.437171  -0.001988  -0.000128  -0.000033   0.000007
     5  N    0.000119  -0.067381  -0.001387   0.002718  -0.000127   0.000003
     6  O   -0.005684  -0.082535   0.000020  -0.000042   0.000001   0.000000
     7  C   -0.042461   0.492085   0.000009   0.000015  -0.000000  -0.000000
     8  C    0.470459  -0.056768   0.000000   0.000000   0.000000  -0.000000
     9  C   -0.082615  -0.019863  -0.000000   0.000000  -0.000000   0.000000
    10  C   -0.042008   0.000230   0.000000  -0.000000   0.000000   0.000000
    11  C   -0.038217   0.000014  -0.000000   0.000000   0.000000  -0.000000
    12  C    0.503338  -0.000224   0.000000   0.000000   0.000000  -0.000000
    13  C    5.073685   0.011509   0.000000  -0.000000   0.000000   0.000000
    14  C    0.011509   5.306512  -0.000362  -0.000007  -0.000001   0.000000
    15  C    0.000000  -0.000362   5.405184   0.504409  -0.030902  -0.039400
    16  C   -0.000000  -0.000007   0.504409   4.962147   0.495511  -0.032188
    17  C    0.000000  -0.000001  -0.030902   0.495511   4.910396   0.542349
    18  C    0.000000   0.000000  -0.039400  -0.032188   0.542349   4.873059
    19  C   -0.000000   0.000000  -0.027198  -0.037469  -0.033781   0.537110
    20  C    0.000000  -0.000052   0.464241  -0.041414  -0.035654  -0.030625
    21  O    0.000000  -0.000119  -0.057051   0.000810   0.000590  -0.000004
    22  H    0.005774   0.005963  -0.000000   0.000000   0.000000  -0.000000
    23  H    0.000776  -0.000000  -0.000000   0.000000  -0.000000   0.000000
    24  H    0.004611  -0.000000   0.000000  -0.000000   0.000000  -0.000000
    25  H   -0.037793   0.000001   0.000000   0.000000   0.000000  -0.000000
    26  H    0.362228   0.000236   0.000000   0.000000   0.000000  -0.000000
    27  H   -0.000121   0.351274   0.000001  -0.000000   0.000000  -0.000000
    28  H   -0.000000   0.000003  -0.047231   0.358410  -0.037737   0.004414
    29  H   -0.000000  -0.000000   0.004806  -0.041546   0.365719  -0.042011
    30  H    0.000000   0.000000   0.000430   0.004685  -0.041533   0.364185
    31  H   -0.000000   0.000000   0.005013   0.000585   0.004392  -0.041667
    32  H   -0.000000  -0.000001  -0.052008   0.004538   0.000387   0.004318
              19         20         21         22         23         24
     1  O    0.000382   0.001647  -0.051198  -0.000000  -0.000000  -0.000000
     2  S    0.002476  -0.018825   0.394856  -0.000000   0.000000  -0.000000
     3  N   -0.000067  -0.001480  -0.054843  -0.000001  -0.000000  -0.000000
     4  C   -0.000011  -0.000119  -0.002411   0.000044  -0.000000  -0.000000
     5  N   -0.000008  -0.000028   0.001579  -0.000003  -0.000000   0.000000
     6  O   -0.000000  -0.000001   0.000022   0.000022   0.000000   0.000000
     7  C    0.000000   0.000004   0.000010  -0.012282  -0.000196   0.000004
     8  C   -0.000000   0.000000   0.000000  -0.036100   0.003195   0.000487
     9  C    0.000000  -0.000000   0.000000   0.356960  -0.037630   0.004739
    10  C   -0.000000  -0.000000   0.000000  -0.043010   0.362506  -0.041764
    11  C   -0.000000   0.000000  -0.000000   0.004537  -0.041129   0.364289
    12  C   -0.000000   0.000000   0.000000   0.000160   0.004413  -0.041612
    13  C   -0.000000   0.000000   0.000000   0.005774   0.000776   0.004611
    14  C    0.000000  -0.000052  -0.000119   0.005963  -0.000000  -0.000000
    15  C   -0.027198   0.464241  -0.057051  -0.000000  -0.000000   0.000000
    16  C   -0.037469  -0.041414   0.000810   0.000000   0.000000  -0.000000
    17  C   -0.033781  -0.035654   0.000590   0.000000  -0.000000   0.000000
    18  C    0.537110  -0.030625  -0.000004  -0.000000   0.000000  -0.000000
    19  C    4.900480   0.508997  -0.000049   0.000000   0.000000  -0.000000
    20  C    0.508997   4.980321   0.002125  -0.000000  -0.000000   0.000000
    21  O   -0.000049   0.002125   8.388854   0.000000  -0.000000   0.000000
    22  H    0.000000  -0.000000   0.000000   0.560048  -0.004949  -0.000156
    23  H    0.000000  -0.000000  -0.000000  -0.004949   0.562099  -0.005100
    24  H   -0.000000   0.000000   0.000000  -0.000156  -0.005100   0.564786
    25  H    0.000000   0.000000   0.000000   0.000015  -0.000165  -0.005107
    26  H   -0.000000   0.000000   0.000000  -0.000139   0.000015  -0.000152
    27  H    0.000000   0.000001   0.000002   0.002040  -0.000002  -0.000000
    28  H    0.000245   0.005008   0.012416  -0.000000   0.000000  -0.000000
    29  H    0.004446   0.000551   0.000002  -0.000000  -0.000000   0.000000
    30  H   -0.041706   0.004860  -0.000000  -0.000000   0.000000  -0.000000
    31  H    0.365297  -0.041732   0.000000   0.000000  -0.000000  -0.000000
    32  H   -0.036498   0.362513   0.000084  -0.000000  -0.000000   0.000000
              25         26         27         28         29         30
     1  O    0.000000  -0.000000  -0.000002   0.000083   0.000000  -0.000000
     2  S    0.000000  -0.000000  -0.000122  -0.002910  -0.000025   0.000006
     3  N    0.000000  -0.000000  -0.000040   0.000195   0.000001  -0.000000
     4  C   -0.000000   0.000041  -0.030138   0.000003   0.000000  -0.000000
     5  N    0.000000  -0.000234   0.006000   0.001489  -0.000008   0.000000
     6  O   -0.000002   0.010538   0.003633  -0.000008   0.000000  -0.000000
     7  C   -0.000168  -0.012944  -0.031365   0.000002  -0.000000   0.000000
     8  C    0.003226  -0.043014  -0.003295   0.000000   0.000000  -0.000000
     9  C    0.000759   0.005408   0.001197   0.000000  -0.000000   0.000000
    10  C    0.004438   0.000201   0.000096  -0.000000   0.000000   0.000000
    11  C   -0.041336   0.004608  -0.000001   0.000000   0.000000  -0.000000
    12  C    0.363078  -0.042009   0.000001   0.000000  -0.000000   0.000000
    13  C   -0.037793   0.362228  -0.000121  -0.000000  -0.000000   0.000000
    14  C    0.000001   0.000236   0.351274   0.000003  -0.000000   0.000000
    15  C    0.000000   0.000000   0.000001  -0.047231   0.004806   0.000430
    16  C    0.000000   0.000000  -0.000000   0.358410  -0.041546   0.004685
    17  C    0.000000   0.000000   0.000000  -0.037737   0.365719  -0.041533
    18  C   -0.000000  -0.000000  -0.000000   0.004414  -0.042011   0.364185
    19  C    0.000000  -0.000000   0.000000   0.000245   0.004446  -0.041706
    20  C    0.000000   0.000000   0.000001   0.005008   0.000551   0.004860
    21  O    0.000000   0.000000   0.000002   0.012416   0.000002  -0.000000
    22  H    0.000015  -0.000139   0.002040  -0.000000  -0.000000  -0.000000
    23  H   -0.000165   0.000015  -0.000002   0.000000  -0.000000   0.000000
    24  H   -0.005107  -0.000152  -0.000000  -0.000000   0.000000  -0.000000
    25  H    0.562409  -0.004993   0.000000  -0.000000  -0.000000   0.000000
    26  H   -0.004993   0.560522  -0.000009  -0.000000   0.000000   0.000000
    27  H    0.000000  -0.000009   0.535444  -0.000000   0.000000   0.000000
    28  H   -0.000000  -0.000000  -0.000000   0.544722  -0.005294  -0.000144
    29  H   -0.000000   0.000000   0.000000  -0.005294   0.560196  -0.005246
    30  H    0.000000   0.000000   0.000000  -0.000144  -0.005246   0.561356
    31  H   -0.000000  -0.000000  -0.000000   0.000014  -0.000162  -0.005167
    32  H   -0.000000  -0.000000   0.000000  -0.000157   0.000015  -0.000150
              31         32
     1  O    0.000002   0.005011
     2  S   -0.000035   0.001472
     3  N    0.000002   0.000755
     4  C   -0.000000   0.000030
     5  N   -0.000000  -0.000012
     6  O    0.000000   0.000000
     7  C   -0.000000  -0.000000
     8  C    0.000000   0.000000
     9  C   -0.000000  -0.000000
    10  C    0.000000   0.000000
    11  C    0.000000   0.000000
    12  C   -0.000000  -0.000000
    13  C   -0.000000  -0.000000
    14  C    0.000000  -0.000001
    15  C    0.005013  -0.052008
    16  C    0.000585   0.004538
    17  C    0.004392   0.000387
    18  C   -0.041667   0.004318
    19  C    0.365297  -0.036498
    20  C   -0.041732   0.362513
    21  O    0.000000   0.000084
    22  H    0.000000  -0.000000
    23  H   -0.000000  -0.000000
    24  H   -0.000000   0.000000
    25  H   -0.000000  -0.000000
    26  H   -0.000000  -0.000000
    27  H   -0.000000   0.000000
    28  H    0.000014  -0.000157
    29  H   -0.000162   0.000015
    30  H   -0.005167  -0.000150
    31  H    0.559824  -0.005434
    32  H   -0.005434   0.546299
 Mulliken charges:
               1
     1  O   -0.630794
     2  S    1.117257
     3  N   -0.767952
     4  C    0.484327
     5  N   -0.338807
     6  O   -0.445757
     7  C    0.391791
     8  C    0.078787
     9  C   -0.183275
    10  C   -0.154930
    11  C   -0.138538
    12  C   -0.150679
    13  C   -0.183269
    14  C   -0.322474
    15  C   -0.141907
    16  C   -0.159065
    17  C   -0.141346
    18  C   -0.139031
    19  C   -0.142646
    20  C   -0.160338
    21  O   -0.635675
    22  H    0.161077
    23  H    0.156167
    24  H    0.154974
    25  H    0.155637
    26  H    0.159698
    27  H    0.165405
    28  H    0.166476
    29  H    0.158556
    30  H    0.158425
    31  H    0.159068
    32  H    0.168838
 Sum of Mulliken charges =  -1.00000
 Mulliken charges with hydrogens summed into heavy atoms:
               1
     1  O   -0.630794
     2  S    1.117257
     3  N   -0.767952
     4  C    0.484327
     5  N   -0.338807
     6  O   -0.445757
     7  C    0.391791
     8  C    0.078787
     9  C   -0.022198
    10  C    0.001237
    11  C    0.016436
    12  C    0.004958
    13  C   -0.023571
    14  C   -0.157069
    15  C   -0.141907
    16  C    0.007410
    17  C    0.017210
    18  C    0.019394
    19  C    0.016422
    20  C    0.008500
    21  O   -0.635675
 Electronic spatial extent (au):  <R**2>=           8666.6078
 Charge=             -1.0000 electrons
 Dipole moment (field-independent basis, Debye):
    X=            -10.8888    Y=              9.8059    Z=              2.9725  Tot=             14.9518
 Quadrupole moment (field-independent basis, Debye-Ang):
   XX=           -137.4369   YY=           -138.8838   ZZ=           -128.9706
   XY=             29.4288   XZ=             -1.5666   YZ=             -3.5199
 Traceless Quadrupole moment (field-independent basis, Debye-Ang):
   XX=             -2.3398   YY=             -3.7867   ZZ=              6.1265
   XY=             29.4288   XZ=             -1.5666   YZ=             -3.5199
 Octapole moment (field-independent basis, Debye-Ang**2):
  XXX=           -199.0987  YYY=             34.1075  ZZZ=              0.4764  XYY=             -9.1641
  XXY=            101.8420  XXZ=             15.6833  XZZ=             -6.5775  YZZ=             11.4854
  YYZ=             -9.3456  XYZ=             23.8636
 Hexadecapole moment (field-independent basis, Debye-Ang**3):
 XXXX=          -8848.8636 YYYY=          -1576.8065 ZZZZ=           -758.5803 XXXY=              0.3292
 XXXZ=            -29.7427 YYYX=             56.6456 YYYZ=             56.8218 ZZZX=             63.1795
 ZZZY=             28.2269 XXYY=          -1884.9069 XXZZ=          -1607.3380 YYZZ=           -392.7599
 XXYZ=            -46.6538 YYXZ=             21.1542 ZZXY=             24.3457
 N-N= 1.682162031581D+03 E-N=-6.458804061150D+03  KE= 1.301614689456D+03
 No NMR shielding tensors so no spin-rotation constants.
 Leave Link  601 at Thu Sep 24 05:45:02 2020, MaxMem=  2147483648 cpu:               0.4 elap:               0.1
 (Enter /prod/apps/gaussian/g16b1/l701.exe)
 ... and contract with generalized density number  0.
 Compute integral first derivatives.
 D1PCM: PCM CHGder 1st derivatives, ID1Alg=3 FixD1E=F DoIter=F DoCFld=F I1PDM=0.
 GePol: Maximum number of non-zero 1st derivatives   =     176
 Leave Link  701 at Thu Sep 24 05:45:06 2020, MaxMem=  2147483648 cpu:              13.3 elap:               3.6
 (Enter /prod/apps/gaussian/g16b1/l702.exe)
 L702 exits ... SP integral derivatives will be done elsewhere.
 Leave Link  702 at Thu Sep 24 05:45:06 2020, MaxMem=  2147483648 cpu:               0.1 elap:               0.0
 (Enter /prod/apps/gaussian/g16b1/l703.exe)
 Integral derivatives from FoFJK, PRISM(SPDF).
 Compute integral first derivatives, UseDBF=F ICtDFT=           0.
 Calling FoFJK, ICntrl=      2127 FMM=F ISym2X=0 I1Cent= 0 IOpClX= 0 NMat=1 NMatS=1 NMatT=0.
 FoFJK:  IHMeth= 1 ICntrl=    2127 DoSepK=F KAlg= 0 I1Cent=           0 FoldK=F
 IRaf=         0 NMat=       1 IRICut=       1 DoRegI=T DoRafI=F ISym2E= 0 IDoP0=0 IntGTp=1.
 FoFCou: FMM=F IPFlag=           0 FMFlag=      100000 FMFlg1=         800
         NFxFlg=           0 DoJE=F BraDBF=F KetDBF=F FulRan=T
         wScrn=  0.000000 ICntrl=      2127 IOpCl=  0 I1Cent=           0 NGrid=           0
         NMat0=    1 NMatS0=      1 NMatT0=    0 NMatD0=    1 NMtDS0=    0 NMtDT0=    0
 Symmetry not used in FoFCou.
 Leave Link  703 at Thu Sep 24 05:45:20 2020, MaxMem=  2147483648 cpu:              56.8 elap:              14.2
 (Enter /prod/apps/gaussian/g16b1/l716.exe)
 Dipole        =-4.28397738D+00 3.85794319D+00 1.16947273D+00
 -------------------------------------------------------------------
 Center     Atomic                   Forces (Hartrees/Bohr)
 Number     Number              X              Y              Z
 -------------------------------------------------------------------
      1        8          -0.000268067    0.000268341   -0.000073446
      2       16          -0.001271196   -0.000114487   -0.000666365
      3        7           0.000278936    0.000435771   -0.000787318
      4        6           0.000172424    0.000105810    0.000010634
      5        7          -0.000068551   -0.000422102    0.000622438
      6        8          -0.000786110    0.000107957    0.000052402
      7        6          -0.000317550   -0.000231336    0.000527721
      8        6          -0.000043197    0.000157199   -0.000381431
      9        6          -0.000483843    0.000573625   -0.000547259
     10        6           0.000060509   -0.000166427    0.000295827
     11        6           0.000352708   -0.000352004    0.000346509
     12        6           0.000684753   -0.000001767   -0.000286017
     13        6          -0.000586778   -0.000219358    0.000633316
     14        6           0.000287098   -0.000364219    0.000466756
     15        6           0.000275857    0.000223108    0.000606213
     16        6          -0.000022289    0.000235289   -0.000519780
     17        6          -0.000169951   -0.000618667   -0.000260516
     18        6           0.000401010    0.000832857    0.000465350
     19        6          -0.000279703   -0.000587847   -0.000144958
     20        6           0.000055221    0.000321329   -0.000055487
     21        8           0.000149269    0.001077103    0.001063043
     22        1           0.000230025    0.000155972   -0.000403780
     23        1           0.000654617    0.000449380   -0.000938916
     24        1           0.000643312   -0.000081971   -0.000086418
     25        1           0.000379307   -0.000394368    0.000536860
     26        1           0.000250326   -0.000498940    0.000693776
     27        1          -0.000173770    0.000789472   -0.001189438
     28        1           0.000193982   -0.000227655    0.001102801
     29        1          -0.000061941   -0.000447670    0.000616790
     30        1          -0.000359247   -0.001188082   -0.000115986
     31        1          -0.000176451   -0.000251706   -0.000733838
     32        1          -0.000000710    0.000435395   -0.000849484
 -------------------------------------------------------------------
 Cartesian Forces:  Max     0.001271196 RMS     0.000499373
 Leave Link  716 at Thu Sep 24 05:45:20 2020, MaxMem=  2147483648 cpu:               0.1 elap:               0.0
 (Enter /prod/apps/gaussian/g16b1/l103.exe)

 GradGradGradGradGradGradGradGradGradGradGradGradGradGradGradGradGradGrad
 Berny optimization.
 FormGI is forming the generalized inverse of G from B-inverse, IUseBI=4.
 GSVD:  received Info=                   1 from GESDD.
 Internal  Forces:  Max     0.002188865 RMS     0.000581566
 Search for a local minimum.
 Step number   1 out of a maximum of  174
 All quantities printed in internal units (Hartrees-Bohrs-Radians)
 RMS Force = .58157D-03 SwitMx=.10000D-02 MixMth= 2
[...]
 Alpha virt. eigenvalues --    2.91007   2.91397   2.92269   2.92756   2.94463
 Alpha virt. eigenvalues --    2.95344   2.96173   2.97076   2.97898   3.00116
 Alpha virt. eigenvalues --    3.01252   3.05445   3.05775   3.08073   3.11043
 Alpha virt. eigenvalues --    3.12611   3.14043   3.14783   3.16226   3.19516
 Alpha virt. eigenvalues --    3.21787   3.23757   3.25073   3.25776   3.29719
 Alpha virt. eigenvalues --    3.32993   3.36910   3.39180   3.42462   3.45353
 Alpha virt. eigenvalues --    3.46795   3.48198   3.49045   3.51833   3.58974
 Alpha virt. eigenvalues --    3.61892   3.66849   3.71336   3.73897   3.76949
 Alpha virt. eigenvalues --    3.78546   3.86588   3.90797   3.92741   3.93896
 Alpha virt. eigenvalues --    3.95512   3.96791   3.98258   3.99067   4.01648
 Alpha virt. eigenvalues --    4.01984   4.04421   4.06157   4.07216   4.09599
 Alpha virt. eigenvalues --    4.11131   4.18068   4.20435   4.27159   4.43110
 Alpha virt. eigenvalues --    4.73083   4.87787   4.97104
          Condensed to atoms (all electrons):
               1          2          3          4          5          6
     1  O    9.376406  -0.462921   0.059345   0.041641   0.009858   0.001509
     2  S   -0.462921  17.014476  -0.509122  -0.442345   0.040472  -0.089594
     3  N    0.059345  -0.509122   9.075779  -1.409465   0.109092  -0.030285
     4  C    0.041641  -0.442345  -1.409465  15.633270  -1.145808   0.486833
     5  N    0.009858   0.040472   0.109092  -1.145808   9.544665  -1.301791
     6  O    0.001509  -0.089594  -0.030285   0.486833  -1.301791  10.411811
     7  C    0.007466  -0.004467   0.359101  -1.695323  -1.284713  -0.049867
     8  C   -0.000154   0.025857  -0.078125   0.640093   0.601977   0.293366
     9  C    0.000936  -0.011186   0.067495  -0.678790   0.276588  -0.158802
    10  C   -0.000041   0.001124  -0.020474   0.077230   0.070950   0.057004
    11  C    0.000011  -0.000627   0.006738  -0.104260  -0.008525  -0.051231
    12  C   -0.000030  -0.000412  -0.010472   0.181934  -0.103298  -0.031227
    13  C   -0.000062  -0.011025   0.046089  -0.588961  -0.428741  -0.172467
    14  C    0.035041  -0.306461   0.562494  -5.939900   1.028204  -0.231948
    15  C    0.223913  -1.182345   0.160615   0.849886  -0.302053   0.049088
    16  C    0.025709  -0.437246  -0.091476  -0.235645   0.135357  -0.010359
    17  C    0.012592  -0.321771   0.007122   0.125370  -0.019386   0.009174
    18  C   -0.025875   0.256483   0.020610  -0.177060   0.042884  -0.005805
    19  C    0.024113  -0.439092  -0.067688   0.255260  -0.046703   0.007283
    20  C   -0.108096   0.694567  -0.013598  -0.510685   0.090022  -0.025507
    21  O   -0.014654  -0.799537   0.134202   0.137029  -0.002045  -0.006455
    22  H    0.000654  -0.006503  -0.006041   0.007216  -0.011644   0.001669
    23  H   -0.000009   0.000165  -0.000675   0.007252   0.001995   0.001961
    24  H    0.000001  -0.000036   0.000152  -0.004168   0.000067  -0.000636
    25  H   -0.000003   0.000064  -0.000533   0.005390  -0.002908   0.004746
    26  H    0.000081  -0.001656   0.005141  -0.030119  -0.015081  -0.088621
    27  H   -0.008282   0.043727  -0.050721   0.682152  -0.063082   0.017528
    28  H    0.001070   0.023756  -0.013934   0.060267  -0.005225  -0.004087
    29  H    0.001249  -0.013819   0.000549   0.003372   0.001456   0.000350
    30  H   -0.000910   0.005963   0.000703  -0.003761   0.000823  -0.000280
    31  H    0.001118   0.010541  -0.003225   0.010654  -0.002234   0.000483
    32  H    0.037859  -0.200164   0.006680   0.096746  -0.003107  -0.000691
               7          8          9         10         11         12
     1  O    0.007466  -0.000154   0.000936  -0.000041   0.000011  -0.000030
     2  S   -0.004467   0.025857  -0.011186   0.001124  -0.000627  -0.000412
     3  N    0.359101  -0.078125   0.067495  -0.020474   0.006738  -0.010472
     4  C   -1.695323   0.640093  -0.678790   0.077230  -0.104260   0.181934
     5  N   -1.284713   0.601977   0.276588   0.070950  -0.008525  -0.103298
     6  O   -0.049867   0.293366  -0.158802   0.057004  -0.051231  -0.031227
     7  C   21.107592  -5.515789  -0.714248  -0.716587   0.544429  -0.314837
     8  C   -5.515789  20.294034  -7.100582   2.321278  -3.800000   1.604239
     9  C   -0.714248  -7.100582  21.863008  -7.093588   3.692502  -3.526469
    10  C   -0.716587   2.321278  -7.093588  14.563862  -3.413082   3.730177
    11  C    0.544429  -3.800000   3.692502  -3.413082   9.453255  -3.127608
    12  C   -0.314837   1.604239  -3.526469   3.730177  -3.127608  11.881402
    13  C    0.550919  -6.271029   0.383780  -3.437476   2.772125  -4.268260
    14  C   -7.267412   0.832709  -1.178679   0.420451  -0.322045   0.098440
    15  C   -0.042584   0.010685  -0.006979  -0.001427  -0.000194   0.001658
    16  C    0.097803  -0.027882  -0.003013  -0.000654  -0.000021   0.000158
    17  C   -0.021597   0.011875   0.001388   0.000114   0.000047  -0.000502
    18  C    0.022034  -0.010240  -0.000283  -0.000105   0.000051   0.000349
    19  C   -0.060319   0.012844   0.000127   0.000470  -0.000080  -0.000225
    20  C   -0.038543  -0.001963   0.001493   0.001105  -0.000136  -0.000183
    21  O   -0.055726   0.007821  -0.000211   0.000209  -0.000054  -0.000250
    22  H   -0.076083   0.793879  -1.305438   0.297274  -0.114285   0.059056
    23  H   -0.052482  -0.127152   0.949097  -1.028289   0.312961  -0.264981
    24  H   -0.010588   0.029731  -0.082517   0.283105  -0.588021   0.373752
    25  H   -0.008242  -0.128561   0.093253  -0.229318   0.305573  -0.810678
    26  H    0.275221   0.240500  -0.084025   0.046689  -0.079056   0.330459
    27  H    0.726351   0.003902  -0.000113   0.068295  -0.034205   0.026578
    28  H    0.007080  -0.000399  -0.000997  -0.000335  -0.000016   0.000756
    29  H   -0.001542   0.000884   0.000053   0.000022  -0.000016  -0.000105
    30  H    0.000304  -0.000451  -0.000013   0.000004   0.000000   0.000023
    31  H    0.000710   0.000414  -0.000117   0.000003  -0.000000  -0.000017
    32  H   -0.008118   0.000006  -0.000859  -0.000120  -0.000074   0.000143
              13         14         15         16         17         18
     1  O   -0.000062   0.035041   0.223913   0.025709   0.012592  -0.025875
     2  S   -0.011025  -0.306461  -1.182345  -0.437246  -0.321771   0.256483
     3  N    0.046089   0.562494   0.160615  -0.091476   0.007122   0.020610
     4  C   -0.588961  -5.939900   0.849886  -0.235645   0.125370  -0.177060
     5  N   -0.428741   1.028204  -0.302053   0.135357  -0.019386   0.042884
     6  O   -0.172467  -0.231948   0.049088  -0.010359   0.009174  -0.005805
     7  C    0.550919  -7.267412  -0.042584   0.097803  -0.021597   0.022034
     8  C   -6.271029   0.832709   0.010685  -0.027882   0.011875  -0.010240
     9  C    0.383780  -1.178679  -0.006979  -0.003013   0.001388  -0.000283
    10  C   -3.437476   0.420451  -0.001427  -0.000654   0.000114  -0.000105
    11  C    2.772125  -0.322045  -0.000194  -0.000021   0.000047   0.000051
    12  C   -4.268260   0.098440   0.001658   0.000158  -0.000502   0.000349
    13  C   18.944208  -1.796280  -0.003178   0.005911  -0.003109   0.003233
    14  C   -1.796280  20.153802  -0.312505  -0.053546   0.015731   0.033154
    15  C   -0.003178  -0.312505  15.778908  -6.399965   3.095149  -4.404075
    16  C    0.005911  -0.053546  -6.399965  16.937163  -4.747501   3.572599
    17  C   -0.003109   0.015731   3.095149  -4.747501  12.240601  -3.937246
    18  C    0.003233   0.033154  -4.404075   3.572599  -3.937246  10.239343
    19  C   -0.003998  -0.018919   3.018536  -4.194823   3.983112  -3.714071
    20  C   -0.002556   0.091552  -6.767393   1.586257  -4.772834   3.959894
    21  O   -0.004403   0.034850   0.461203   0.022292  -0.041144  -0.037386
    22  H   -0.069362   0.192575   0.002677  -0.000437   0.000007  -0.000104
    23  H    0.101145   0.048748  -0.000123  -0.000006   0.000003   0.000003
    24  H   -0.052880   0.002134  -0.000007  -0.000008   0.000005   0.000001
    25  H    0.707472   0.002947   0.000088  -0.000008  -0.000015  -0.000032
    26  H   -0.831229  -0.019699  -0.001096  -0.000917   0.000578   0.000872
    27  H   -0.049973  -1.596393  -0.010190   0.000615   0.000768   0.000523
    28  H    0.000376  -0.024397   0.491627  -0.993732   0.437575  -0.188228
    29  H   -0.000466  -0.000230  -0.141292   0.641002  -0.862619   0.355191
    30  H    0.000117   0.001250   0.141872  -0.163651   0.384306  -0.703152
    31  H   -0.000078  -0.004580  -0.227130   0.162791  -0.257831   0.423075
    32  H   -0.000739  -0.027259   0.882775  -0.098932   0.147059  -0.244112
              19         20         21         22         23         24
     1  O    0.024113  -0.108096  -0.014654   0.000654  -0.000009   0.000001
     2  S   -0.439092   0.694567  -0.799537  -0.006503   0.000165  -0.000036
     3  N   -0.067688  -0.013598   0.134202  -0.006041  -0.000675   0.000152
     4  C    0.255260  -0.510685   0.137029   0.007216   0.007252  -0.004168
     5  N   -0.046703   0.090022  -0.002045  -0.011644   0.001995   0.000067
     6  O    0.007283  -0.025507  -0.006455   0.001669   0.001961  -0.000636
     7  C   -0.060319  -0.038543  -0.055726  -0.076083  -0.052482  -0.010588
     8  C    0.012844  -0.001963   0.007821   0.793879  -0.127152   0.029731
     9  C    0.000127   0.001493  -0.000211  -1.305438   0.949097  -0.082517
    10  C    0.000470   0.001105   0.000209   0.297274  -1.028289   0.283105
    11  C   -0.000080  -0.000136  -0.000054  -0.114285   0.312961  -0.588021
    12  C   -0.000225  -0.000183  -0.000250   0.059056  -0.264981   0.373752
    13  C   -0.003998  -0.002556  -0.004403  -0.069362   0.101145  -0.052880
    14  C   -0.018919   0.091552   0.034850   0.192575   0.048748   0.002134
    15  C    3.018536  -6.767393   0.461203   0.002677  -0.000123  -0.000007
    16  C   -4.194823   1.586257   0.022292  -0.000437  -0.000006  -0.000008
    17  C    3.983112  -4.772834  -0.041144   0.000007   0.000003   0.000005
    18  C   -3.714071   3.959894  -0.037386  -0.000104   0.000003   0.000001
    19  C   11.479549  -4.523482   0.044676  -0.000562   0.000021  -0.000003
    20  C   -4.523482  17.338245  -0.108673  -0.000993   0.000050  -0.000007
    21  O    0.044676  -0.108673   9.551944  -0.000459   0.000010  -0.000003
    22  H   -0.000562  -0.000993  -0.000459   2.025135  -0.084105  -0.018314
    23  H    0.000021   0.000050   0.000010  -0.084105   1.697737  -0.050031
    24  H   -0.000003  -0.000007  -0.000003  -0.018314  -0.050031   1.637328
    25  H    0.000027  -0.000008   0.000006   0.010046  -0.021241  -0.054911
    26  H   -0.000647  -0.000176  -0.000749  -0.014945   0.006814  -0.011119
    27  H    0.001668   0.005117   0.000300  -0.100055   0.001112   0.000325
    28  H    0.103040  -0.153188  -0.020897   0.000063  -0.000009  -0.000005
    29  H   -0.250226   0.141477   0.000803   0.000006  -0.000000  -0.000000
    30  H    0.425672  -0.152384  -0.000507  -0.000018   0.000001  -0.000000
    31  H   -0.790159   0.571747   0.000996   0.000008  -0.000002  -0.000000
    32  H    0.301170  -1.204041   0.013063   0.000089  -0.000011  -0.000003
              25         26         27         28         29         30
     1  O   -0.000003   0.000081  -0.008282   0.001070   0.001249  -0.000910
     2  S    0.000064  -0.001656   0.043727   0.023756  -0.013819   0.005963
     3  N   -0.000533   0.005141  -0.050721  -0.013934   0.000549   0.000703
     4  C    0.005390  -0.030119   0.682152   0.060267   0.003372  -0.003761
     5  N   -0.002908  -0.015081  -0.063082  -0.005225   0.001456   0.000823
     6  O    0.004746  -0.088621   0.017528  -0.004087   0.000350  -0.000280
     7  C   -0.008242   0.275221   0.726351   0.007080  -0.001542   0.000304
     8  C   -0.128561   0.240500   0.003902  -0.000399   0.000884  -0.000451
     9  C    0.093253  -0.084025  -0.000113  -0.000997   0.000053  -0.000013
    10  C   -0.229318   0.046689   0.068295  -0.000335   0.000022   0.000004
    11  C    0.305573  -0.079056  -0.034205  -0.000016  -0.000016   0.000000
    12  C   -0.810678   0.330459   0.026578   0.000756  -0.000105   0.000023
    13  C    0.707472  -0.831229  -0.049973   0.000376  -0.000466   0.000117
    14  C    0.002947  -0.019699  -1.596393  -0.024397  -0.000230   0.001250
    15  C    0.000088  -0.001096  -0.010190   0.491627  -0.141292   0.141872
    16  C   -0.000008  -0.000917   0.000615  -0.993732   0.641002  -0.163651
    17  C   -0.000015   0.000578   0.000768   0.437575  -0.862619   0.384306
    18  C   -0.000032   0.000872   0.000523  -0.188228   0.355191  -0.703152
    19  C    0.000027  -0.000647   0.001668   0.103040  -0.250226   0.425672
    20  C   -0.000008  -0.000176   0.005117  -0.153188   0.141477  -0.152384
    21  O    0.000006  -0.000749   0.000300  -0.020897   0.000803  -0.000507
    22  H    0.010046  -0.014945  -0.100055   0.000063   0.000006  -0.000018
    23  H   -0.021241   0.006814   0.001112  -0.000009  -0.000000   0.000001
    24  H   -0.054911  -0.011119   0.000325  -0.000005  -0.000000  -0.000000
    25  H    1.670599  -0.088911   0.000824   0.000014   0.000003  -0.000001
    26  H   -0.088911   2.017297  -0.002459  -0.000120  -0.000088  -0.000005
    27  H    0.000824  -0.002459   1.948839   0.000269  -0.000087   0.000137
    28  H    0.000014  -0.000120   0.000269   1.980959  -0.094264  -0.014335
    29  H    0.000003  -0.000088  -0.000087  -0.094264   1.767258  -0.061876
    30  H   -0.000001  -0.000005   0.000137  -0.014335  -0.061876   1.676878
    31  H    0.000001  -0.000006  -0.000207   0.011055  -0.021202  -0.057717
    32  H    0.000002  -0.000134   0.000280  -0.022062   0.013011  -0.016513
              31         32
     1  O    0.001118   0.037859
     2  S    0.010541  -0.200164
     3  N   -0.003225   0.006680
     4  C    0.010654   0.096746
     5  N   -0.002234  -0.003107
     6  O    0.000483  -0.000691
     7  C    0.000710  -0.008118
     8  C    0.000414   0.000006
     9  C   -0.000117  -0.000859
    10  C    0.000003  -0.000120
    11  C   -0.000000  -0.000074
    12  C   -0.000017   0.000143
    13  C   -0.000078  -0.000739
    14  C   -0.004580  -0.027259
    15  C   -0.227130   0.882775
    16  C    0.162791  -0.098932
    17  C   -0.257831   0.147059
    18  C    0.423075  -0.244112
    19  C   -0.790159   0.301170
    20  C    0.571747  -1.204041
    21  O    0.000996   0.013063
    22  H    0.000008   0.000089
    23  H   -0.000002  -0.000011
    24  H   -0.000000  -0.000003
    25  H    0.000001   0.000002
    26  H   -0.000006  -0.000134
    27  H   -0.000207   0.000280
    28  H    0.011055  -0.022062
    29  H   -0.021202   0.013011
    30  H   -0.057717  -0.016513
    31  H    1.758671  -0.111956
    32  H   -0.111956   2.051401
 Mulliken charges:
               1
     1  O   -1.239535
     2  S    3.123133
     3  N   -1.316073
     4  C   -0.335306
     5  N   -0.208063
     6  O   -1.083150
     7  C    0.240056
     8  C    1.336232
     9  C    0.617188
    10  C    0.002132
    11  C    0.555847
    12  C    0.170427
    13  C    0.480897
    14  C    1.546170
    15  C    0.633857
    16  C    0.272167
    17  C    0.512978
    18  C    0.517476
    19  C    0.453428
    20  C   -0.097079
    21  O   -1.316252
    22  H   -0.581003
    23  H   -0.499959
    24  H   -0.453344
    25  H   -0.455687
    26  H   -0.652792
    27  H   -0.613542
    28  H   -0.581677
    29  H   -0.478854
    30  H   -0.462478
    31  H   -0.475808
    32  H   -0.611388
 Sum of Mulliken charges =  -1.00000
 Mulliken charges with hydrogens summed into heavy atoms:
               1
     1  O   -1.239535
     2  S    3.123133
     3  N   -1.316073
     4  C   -0.335306
     5  N   -0.208063
     6  O   -1.083150
     7  C    0.240056
     8  C    1.336232
     9  C    0.036184
    10  C   -0.497827
    11  C    0.102504
    12  C   -0.285259
    13  C   -0.171895
    14  C    0.932629
    15  C    0.633857
    16  C   -0.309510
    17  C    0.034124
    18  C    0.054998
    19  C   -0.022380
    20  C   -0.708466
    21  O   -1.316252
 Electronic spatial extent (au):  <R**2>=           8663.0769
 Charge=             -1.0000 electrons
 Dipole moment (field-independent basis, Debye):
    X=             -8.9422    Y=              7.3622    Z=              3.1495  Tot=             12.0035
 Quadrupole moment (field-independent basis, Debye-Ang):
   XX=           -165.5859   YY=           -151.1860   ZZ=           -137.3185
   XY=             24.0341   XZ=              0.8550   YZ=             -6.2137
 Traceless Quadrupole moment (field-independent basis, Debye-Ang):
   XX=            -14.2225   YY=              0.1775   ZZ=             14.0450
   XY=             24.0341   XZ=              0.8550   YZ=             -6.2137
 Octapole moment (field-independent basis, Debye-Ang**2):
  XXX=           -132.1807  YYY=             35.2746  ZZZ=              8.9084  XYY=            -40.9844
  XXY=             76.0179  XXZ=             12.4052  XZZ=             -1.7220  YZZ=             11.9252
  YYZ=             -8.8181  XYZ=             18.2322
 Hexadecapole moment (field-independent basis, Debye-Ang**3):
 XXXX=         -10269.6636 YYYY=          -1777.6036 ZZZZ=           -812.2869 XXXY=             62.0559
 XXXZ=            -83.3571 YYYX=            125.6025 YYYZ=             -4.2024 ZZZX=             35.6552
 ZZZY=            -36.4459 XXYY=          -2083.1745 XXZZ=          -1764.4797 YYZZ=           -423.4947
 XXYZ=           -105.6041 YYXZ=              6.0662 ZZXY=             51.1310
 N-N= 1.684391600501D+03 E-N=-6.458844947099D+03  KE= 1.304076692389D+03
 Leave Link  601 at Thu Sep 24 08:15:46 2020, MaxMem=   262144000 cpu:               0.7 elap:               0.2
 (Enter /prod/apps/gaussian/g16b1/l9999.exe)
 1\1\GINC-PIRINEUS14\SP\RMP2-FC\Aug-CC-pVDZ\C15H11N2O3S1(1-)\UBAFAR01\2
 4-Sep-2020\0\\#p mp2/aug-cc-pVDZ scf=(MaxCycle=2000,NoVarAcc,NoIncFock
 ) maxdisk=120GB geom=allcheck\\SM42_m1.a.4.pdb.xyz\\-1,1\O,0,3.4962019
 101,-2.0950611604,0.7308402911\S,0,2.5131534189,-1.335393665,-0.081366
 4667\N,0,1.0993240557,-1.4977279224,0.6711254238\C,0,-0.028493049,-0.9
 064508053,0.1649187739\N,0,-0.1160825557,-0.1561477145,-0.9353460722\O
 ,0,-1.4824481224,0.2328033429,-1.0179430243\C,0,-2.1615131214,-0.30052
 56522,0.0269438851\C,0,-3.59181253,-0.0124391005,0.1113482073\C,0,-4.3
 576737109,-0.5324337763,1.1679320679\C,0,-5.7201274827,-0.2598358653,1
 .2497241374\C,0,-6.3383252566,0.5348636715,0.2800562278\C,0,-5.5830361
 937,1.055437223,-0.7730978508\C,0,-4.2191137128,0.7852474096,-0.859388
 7358\C,0,-1.3092085519,-1.0238514604,0.8035869798\C,0,3.0145453205,0.3
 953642489,0.0235855345\C,0,3.1205171191,1.1615240123,-1.1365707295\C,0
 ,3.5100019598,2.4989118644,-1.0425857843\C,0,3.786562499,3.0617041482,
 0.2044715358\C,0,3.677452149,2.2863838481,1.3631550772\C,0,3.291553166
 3,0.9498748341,1.2770841563\O,0,2.4948788066,-1.669821369,-1.531162247
 4\H,0,-3.8834180363,-1.1493578394,1.9234377984\H,0,-6.3002962225,-0.66
 77036709,2.0706607102\H,0,-7.400371153,0.7461209902,0.3456103812\H,0,-
 6.0562842413,1.6730259023,-1.529270081\H,0,-3.6313264082,1.1879309108,
 -1.6756694223\H,0,-1.5271178263,-1.571181673,1.7064124114\H,0,2.903075
 387,0.7051210876,-2.0942248445\H,0,3.5960534674,3.0984049539,-1.942560
 8686\H,0,4.0878455778,4.1015620009,0.2755459872\H,0,3.8953196287,2.721
 9512801,2.3324594558\H,0,3.2101637086,0.3436999461,2.1722870855\\Versi
 on=ES64L-G16RevB.01\State=1-A\HF=-1305.4543703\MP2=-1308.5758132\RMSD=
 7.278e-09\PG=C01 [X(C15H11N2O3S1)]\\@


 MICRO CREDO - NEVER TRUST A COMPUTER BIGGER
               BIGGER THAN YOU CAN LIFT.
 Job cpu time:       0 days  3 hours 19 minutes 23.2 seconds.
 Elapsed time:       0 days  0 hours 56 minutes 35.5 seconds.
 File lengths (MBytes):  RWF= 104093 Int=      0 D2E=      0 Chk=     28 Scr=      1
 Normal termination of Gaussian 16 at Thu Sep 24 08:15:49 2020.
