 Entering Gaussian System, Link 0=g16
 Initial command:
 /prod/apps/gaussian/g16b1/l1.exe "/tmp/ubafar01/1460565/Gau-85701.inp" -scrdir="/tmp/ubafar01/1460565/"
 Entering Link 1 = /prod/apps/gaussian/g16b1/l1.exe PID=     85703.
  
 Copyright (c) 1988-2017, Gaussian, Inc.  All Rights Reserved.
  
 This is part of the Gaussian(R) 16 program.  It is based on
 the Gaussian(R) 09 system (copyright 2009, Gaussian, Inc.),
 the Gaussian(R) 03 system (copyright 2003, Gaussian, Inc.),
 the Gaussian(R) 98 system (copyright 1998, Gaussian, Inc.),
 the Gaussian(R) 94 system (copyright 1995, Gaussian, Inc.),
 the Gaussian 92(TM) system (copyright 1992, Gaussian, Inc.),
 the Gaussian 90(TM) system (copyright 1990, Gaussian, Inc.),
 the Gaussian 88(TM) system (copyright 1988, Gaussian, Inc.),
 the Gaussian 86(TM) system (copyright 1986, Carnegie Mellon
 University), and the Gaussian 82(TM) system (copyright 1983,
 Carnegie Mellon University). Gaussian is a federally registered
 trademark of Gaussian, Inc.
  
 This software contains proprietary and confidential information,
 including trade secrets, belonging to Gaussian, Inc.
  
 This software is provided under written license and may be
 used, copied, transmitted, or stored only in accord with that
 written license.
  
 The following legend is applicable only to US Government
 contracts under FAR:
  
                    RESTRICTED RIGHTS LEGEND
  
 Use, reproduction and disclosure by the US Government is
 subject to restrictions as set forth in subparagraphs (a)
 and (c) of the Commercial Computer Software - Restricted
 Rights clause in FAR 52.227-19.
  
 Gaussian, Inc.
 340 Quinnipiac St., Bldg. 40, Wallingford CT 06492
  
  
 ---------------------------------------------------------------
 Warning -- This program may not be used in any manner that
 competes with the business of Gaussian, Inc. or will provide
 assistance to any competitor of Gaussian, Inc.  The licensee
 of this program is prohibited from giving any competitor of
 Gaussian, Inc. access to this program.  By using this program,
 the user acknowledges that Gaussian, Inc. is engaged in the
 business of creating and licensing software in the field of
 computational chemistry and represents and warrants to the
 licensee that it is not a competitor of Gaussian, Inc. and that
 it will not use this program in any manner prohibited above.
 ---------------------------------------------------------------
  

 Cite this work as:
 Gaussian 16, Revision B.01,
 M. J. Frisch, G. W. Trucks, H. B. Schlegel, G. E. Scuseria, 
 M. A. Robb, J. R. Cheeseman, G. Scalmani, V. Barone, 
 G. A. Petersson, H. Nakatsuji, X. Li, M. Caricato, A. V. Marenich, 
 J. Bloino, B. G. Janesko, R. Gomperts, B. Mennucci, H. P. Hratchian, 
 J. V. Ortiz, A. F. Izmaylov, J. L. Sonnenberg, D. Williams-Young, 
 F. Ding, F. Lipparini, F. Egidi, J. Goings, B. Peng, A. Petrone, 
 T. Henderson, D. Ranasinghe, V. G. Zakrzewski, J. Gao, N. Rega, 
 G. Zheng, W. Liang, M. Hada, M. Ehara, K. Toyota, R. Fukuda, 
 J. Hasegawa, M. Ishida, T. Nakajima, Y. Honda, O. Kitao, H. Nakai, 
 T. Vreven, K. Throssell, J. A. Montgomery, Jr., J. E. Peralta, 
 F. Ogliaro, M. J. Bearpark, J. J. Heyd, E. N. Brothers, K. N. Kudin, 
 V. N. Staroverov, T. A. Keith, R. Kobayashi, J. Normand, 
 K. Raghavachari, A. P. Rendell, J. C. Burant, S. S. Iyengar, 
 J. Tomasi, M. Cossi, J. M. Millam, M. Klene, C. Adamo, R. Cammi, 
 J. W. Ochterski, R. L. Martin, K. Morokuma, O. Farkas, 
 J. B. Foresman, and D. J. Fox, Gaussian, Inc., Wallingford CT, 2016.
 
 ******************************************
 Gaussian 16:  ES64L-G16RevB.01 20-Dec-2017
                22-Sep-2020 
 ******************************************
 %nproc=4
 Will use up to    4 processors via shared memory.
 %Chk=SM42_m0.n.9.pdb.xyz.mst.n.w.chk
 %mem=16GB
 ----------------------------------------------------------------------
 #p b3lyp/6-31G(d) opt freq NoSymm scf=(MaxCycle=2000,NoVarAcc,NoIncFoc
 k) scrf=(iefpcm,read,solvent=water)
 ----------------------------------------------------------------------
 1/18=20,19=15,26=3,38=1,40=2/1,3;
 2/9=110,12=2,15=1,17=6,18=5,40=1/2;
 3/5=1,6=6,7=1,11=2,25=1,30=1,70=2203,71=1,72=1,74=-5/1,2,3;
 4//1;
 5/5=100002,7=2000,38=1,53=1/2;
 6/7=2,8=2,9=2,10=2,28=1/1;
 7/30=1/1,2,3,16;
 1/18=20,19=15,26=3/3(2);
 2/9=110,15=1/2;
 99//99;
 2/9=110,15=1/2;
 3/5=1,6=6,7=1,11=2,25=1,30=1,70=2205,71=1,72=1,74=-5/1,2,3;
 4/5=5,16=3,69=1/1;
 5/5=100002,7=2000,38=1,53=1/2;
 7/30=1/1,2,3,16;
 1/18=20,19=15,26=3/3(-5);
 2/9=110,15=1/2;
 6/7=2,8=2,9=2,10=2,19=2,28=1/1;
 99/9=1/99;
 Leave Link    1 at Tue Sep 22 20:03:05 2020, MaxMem=  2147483648 cpu:               0.1 elap:               0.0
 (Enter /prod/apps/gaussian/g16b1/l101.exe)
 -------------------
 SM42_m0.n.9.pdb.xyz
 -------------------
 Symbolic Z-matrix:
 Charge =  0 Multiplicity = 1
 O                     3.579    -2.136     0.73 
 S                     2.689    -1.378    -0.157 
 N                     1.152    -1.7       0.47 
 C                    -0.026    -1.102     0.027 
 N                    -0.137    -0.548    -1.165 
 O                    -1.467    -0.1      -1.223 
 C                    -2.104    -0.408    -0.068 
 C                    -3.505    -0.018     0.048 
 C                    -4.227    -0.315     1.215 
 C                    -5.563     0.059     1.325 
 C                    -6.194     0.731     0.275 
 C                    -5.48      1.028    -0.889 
 C                    -4.144     0.657    -1.005 
 C                    -1.236    -1.047     0.77 
 C                     3.005     0.364     0.056 
 C                     3.422     0.824     1.308 
 C                     3.661     2.186     1.473 
 C                     3.484     3.064     0.4 
 C                     3.072     2.587    -0.845 
 C                     2.827     1.226    -1.027 
 O                     2.653    -1.67     -1.592 
 H                     1.184    -1.904     1.469 
 H                    -3.742    -0.836     2.034 
 H                    -6.112    -0.175     2.231 
 H                    -7.236     1.021     0.364 
 H                    -5.966     1.549    -1.707 
 H                    -3.587     0.886    -1.906 
 H                    -1.413    -1.424     1.764 
 H                     3.565     0.13      2.127 
 H                     3.99      2.558     2.436 
 H                     3.675     4.123     0.535 
 H                     2.942     3.27     -1.677 
 H                     2.513     0.832    -1.985 
 
 ITRead=  0  0  0  0  0  0  0  0  0  0  0  0  0  0  0  0  0  0  0  0
 ITRead=  0  0  0  0  0  0  0  0  0  0  0  0  0
 MicOpt= -1 -1 -1 -1 -1 -1 -1 -1 -1 -1 -1 -1 -1 -1 -1 -1 -1 -1 -1 -1
 MicOpt= -1 -1 -1 -1 -1 -1 -1 -1 -1 -1 -1 -1 -1
 NAtoms=     33 NQM=       33 NQMF=       0 NMMI=      0 NMMIF=      0
                NMic=       0 NMicF=      0.
                    Isotopes and Nuclear Properties:
 (Nuclear quadrupole moments (NQMom) in fm**2, nuclear magnetic moments (NMagM)
  in nuclear magnetons)

  Atom         1           2           3           4           5           6           7           8           9          10
 IAtWgt=          16          32          14          12          14          16          12          12          12          12
 AtmWgt=  15.9949146  31.9720718  14.0030740  12.0000000  14.0030740  15.9949146  12.0000000  12.0000000  12.0000000  12.0000000
 NucSpn=           0           0           2           0           2           0           0           0           0           0
 AtZEff=  -0.0000000  -0.0000000  -0.0000000  -0.0000000  -0.0000000  -0.0000000  -0.0000000  -0.0000000  -0.0000000  -0.0000000
 NQMom=    0.0000000   0.0000000   2.0440000   0.0000000   2.0440000   0.0000000   0.0000000   0.0000000   0.0000000   0.0000000
 NMagM=    0.0000000   0.0000000   0.4037610   0.0000000   0.4037610   0.0000000   0.0000000   0.0000000   0.0000000   0.0000000
 AtZNuc=   8.0000000  16.0000000   7.0000000   6.0000000   7.0000000   8.0000000   6.0000000   6.0000000   6.0000000   6.0000000

  Atom        11          12          13          14          15          16          17          18          19          20
 IAtWgt=          12          12          12          12          12          12          12          12          12          12
 AtmWgt=  12.0000000  12.0000000  12.0000000  12.0000000  12.0000000  12.0000000  12.0000000  12.0000000  12.0000000  12.0000000
 NucSpn=           0           0           0           0           0           0           0           0           0           0
 AtZEff=  -0.0000000  -0.0000000  -0.0000000  -0.0000000  -0.0000000  -0.0000000  -0.0000000  -0.0000000  -0.0000000  -0.0000000
 NQMom=    0.0000000   0.0000000   0.0000000   0.0000000   0.0000000   0.0000000   0.0000000   0.0000000   0.0000000   0.0000000
 NMagM=    0.0000000   0.0000000   0.0000000   0.0000000   0.0000000   0.0000000   0.0000000   0.0000000   0.0000000   0.0000000
 AtZNuc=   6.0000000   6.0000000   6.0000000   6.0000000   6.0000000   6.0000000   6.0000000   6.0000000   6.0000000   6.0000000

  Atom        21          22          23          24          25          26          27          28          29          30
 IAtWgt=          16           1           1           1           1           1           1           1           1           1
 AtmWgt=  15.9949146   1.0078250   1.0078250   1.0078250   1.0078250   1.0078250   1.0078250   1.0078250   1.0078250   1.0078250
 NucSpn=           0           1           1           1           1           1           1           1           1           1
 AtZEff=  -0.0000000  -0.0000000  -0.0000000  -0.0000000  -0.0000000  -0.0000000  -0.0000000  -0.0000000  -0.0000000  -0.0000000
 NQMom=    0.0000000   0.0000000   0.0000000   0.0000000   0.0000000   0.0000000   0.0000000   0.0000000   0.0000000   0.0000000
 NMagM=    0.0000000   2.7928460   2.7928460   2.7928460   2.7928460   2.7928460   2.7928460   2.7928460   2.7928460   2.7928460
 AtZNuc=   8.0000000   1.0000000   1.0000000   1.0000000   1.0000000   1.0000000   1.0000000   1.0000000   1.0000000   1.0000000

  Atom        31          32          33
 IAtWgt=           1           1           1
 AtmWgt=   1.0078250   1.0078250   1.0078250
 NucSpn=           1           1           1
 AtZEff=  -0.0000000  -0.0000000  -0.0000000
 NQMom=    0.0000000   0.0000000   0.0000000
 NMagM=    2.7928460   2.7928460   2.7928460
 AtZNuc=   1.0000000   1.0000000   1.0000000
 Leave Link  101 at Tue Sep 22 20:03:05 2020, MaxMem=  2147483648 cpu:               1.4 elap:               0.4
 (Enter /prod/apps/gaussian/g16b1/l103.exe)

 GradGradGradGradGradGradGradGradGradGradGradGradGradGradGradGradGradGrad
 Berny optimization.
 Initialization pass.
                           ----------------------------
                           !    Initial Parameters    !
                           ! (Angstroms and Degrees)  !
 --------------------------                            --------------------------
 ! Name  Definition              Value          Derivative Info.                !
 --------------------------------------------------------------------------------
 ! R1    R(1,2)                  1.4675         estimate D2E/DX2                !
 ! R2    R(2,3)                  1.6909         estimate D2E/DX2                !
 ! R3    R(2,15)                 1.7832         estimate D2E/DX2                !
 ! R4    R(2,21)                 1.4648         estimate D2E/DX2                !
 ! R5    R(3,4)                  1.3934         estimate D2E/DX2                !
 ! R6    R(3,22)                 1.0201         estimate D2E/DX2                !
 ! R7    R(4,5)                  1.3191         estimate D2E/DX2                !
 ! R8    R(4,14)                 1.421          estimate D2E/DX2                !
 ! R9    R(5,6)                  1.4046         estimate D2E/DX2                !
 ! R10   R(6,7)                  1.3545         estimate D2E/DX2                !
 ! R11   R(7,8)                  1.4589         estimate D2E/DX2                !
 ! R12   R(7,14)                 1.3653         estimate D2E/DX2                !
 ! R13   R(8,9)                  1.4041         estimate D2E/DX2                !
 ! R14   R(8,13)                 1.4045         estimate D2E/DX2                !
 ! R15   R(9,10)                 1.3917         estimate D2E/DX2                !
 ! R16   R(9,23)                 1.0851         estimate D2E/DX2                !
 ! R17   R(10,11)                1.3972         estimate D2E/DX2                !
 ! R18   R(10,24)                1.0849         estimate D2E/DX2                !
 ! R19   R(11,12)                1.3975         estimate D2E/DX2                !
 ! R20   R(11,25)                1.0853         estimate D2E/DX2                !
 ! R21   R(12,13)                1.3914         estimate D2E/DX2                !
 ! R22   R(12,26)                1.0848         estimate D2E/DX2                !
 ! R23   R(13,27)                1.0837         estimate D2E/DX2                !
 ! R24   R(14,28)                1.0777         estimate D2E/DX2                !
 ! R25   R(15,16)                1.3975         estimate D2E/DX2                !
 ! R26   R(15,20)                1.3956         estimate D2E/DX2                !
 ! R27   R(16,17)                1.3926         estimate D2E/DX2                !
 ! R28   R(16,29)                1.083          estimate D2E/DX2                !
 ! R29   R(17,18)                1.3977         estimate D2E/DX2                !
 ! R30   R(17,30)                1.0835         estimate D2E/DX2                !
 ! R31   R(18,19)                1.3955         estimate D2E/DX2                !
 ! R32   R(18,31)                1.0845         estimate D2E/DX2                !
 ! R33   R(19,20)                1.3948         estimate D2E/DX2                !
 ! R34   R(19,32)                1.0843         estimate D2E/DX2                !
 ! R35   R(20,33)                1.0824         estimate D2E/DX2                !
 ! A1    A(1,2,3)              103.2258         estimate D2E/DX2                !
 ! A2    A(1,2,15)             108.9613         estimate D2E/DX2                !
 ! A3    A(1,2,21)             120.2696         estimate D2E/DX2                !
 ! A4    A(3,2,15)             107.6269         estimate D2E/DX2                !
 ! A5    A(3,2,21)             107.6349         estimate D2E/DX2                !
 ! A6    A(15,2,21)            108.4274         estimate D2E/DX2                !
 ! A7    A(2,3,4)              124.6701         estimate D2E/DX2                !
 ! A8    A(2,3,22)             111.8821         estimate D2E/DX2                !
 ! A9    A(4,3,22)             115.0679         estimate D2E/DX2                !
 ! A10   A(3,4,5)              122.593          estimate D2E/DX2                !
 ! A11   A(3,4,14)             124.7691         estimate D2E/DX2                !
 ! A12   A(5,4,14)             112.6177         estimate D2E/DX2                !
 ! A13   A(4,5,6)              104.533          estimate D2E/DX2                !
 ! A14   A(5,6,7)              109.7286         estimate D2E/DX2                !
 ! A15   A(6,7,8)              117.2993         estimate D2E/DX2                !
 ! A16   A(6,7,14)             109.3189         estimate D2E/DX2                !
 ! A17   A(8,7,14)             133.3816         estimate D2E/DX2                !
 ! A18   A(7,8,9)              120.2225         estimate D2E/DX2                !
 ! A19   A(7,8,13)             120.3818         estimate D2E/DX2                !
 ! A20   A(9,8,13)             119.3957         estimate D2E/DX2                !
 ! A21   A(8,9,10)             120.1646         estimate D2E/DX2                !
 ! A22   A(8,9,23)             119.938          estimate D2E/DX2                !
 ! A23   A(10,9,23)            119.8973         estimate D2E/DX2                !
 ! A24   A(9,10,11)            120.2239         estimate D2E/DX2                !
 ! A25   A(9,10,24)            119.5923         estimate D2E/DX2                !
 ! A26   A(11,10,24)           120.1838         estimate D2E/DX2                !
 ! A27   A(10,11,12)           119.8295         estimate D2E/DX2                !
 ! A28   A(10,11,25)           120.033          estimate D2E/DX2                !
 ! A29   A(12,11,25)           120.1375         estimate D2E/DX2                !
 ! A30   A(11,12,13)           120.2223         estimate D2E/DX2                !
 ! A31   A(11,12,26)           120.0834         estimate D2E/DX2                !
 ! A32   A(13,12,26)           119.6942         estimate D2E/DX2                !
 ! A33   A(8,13,12)            120.1639         estimate D2E/DX2                !
 ! A34   A(8,13,27)            119.4073         estimate D2E/DX2                !
 ! A35   A(12,13,27)           120.4288         estimate D2E/DX2                !
 ! A36   A(4,14,7)             103.8009         estimate D2E/DX2                !
 ! A37   A(4,14,28)            127.4861         estimate D2E/DX2                !
 ! A38   A(7,14,28)            128.7129         estimate D2E/DX2                !
 ! A39   A(2,15,16)            118.7799         estimate D2E/DX2                !
 ! A40   A(2,15,20)            119.2159         estimate D2E/DX2                !
 ! A41   A(16,15,20)           122.0041         estimate D2E/DX2                !
 ! A42   A(15,16,17)           118.6383         estimate D2E/DX2                !
 ! A43   A(15,16,29)           120.3964         estimate D2E/DX2                !
 ! A44   A(17,16,29)           120.9622         estimate D2E/DX2                !
 ! A45   A(16,17,18)           120.1109         estimate D2E/DX2                !
 ! A46   A(16,17,30)           119.5508         estimate D2E/DX2                !
 ! A47   A(18,17,30)           120.3374         estimate D2E/DX2                !
 ! A48   A(17,18,19)           120.5031         estimate D2E/DX2                !
 ! A49   A(17,18,31)           119.7048         estimate D2E/DX2                !
 ! A50   A(19,18,31)           119.7908         estimate D2E/DX2                !
 ! A51   A(18,19,20)           120.1202         estimate D2E/DX2                !
 ! A52   A(18,19,32)           120.3106         estimate D2E/DX2                !
 ! A53   A(20,19,32)           119.569          estimate D2E/DX2                !
 ! A54   A(15,20,19)           118.6225         estimate D2E/DX2                !
 ! A55   A(15,20,33)           119.934          estimate D2E/DX2                !
 ! A56   A(19,20,33)           121.4415         estimate D2E/DX2                !
 ! D1    D(1,2,3,4)            174.1428         estimate D2E/DX2                !
 ! D2    D(1,2,3,22)            27.7392         estimate D2E/DX2                !
 ! D3    D(15,2,3,4)            58.9984         estimate D2E/DX2                !
 ! D4    D(15,2,3,22)          -87.4053         estimate D2E/DX2                !
 ! D5    D(21,2,3,4)           -57.6834         estimate D2E/DX2                !
 ! D6    D(21,2,3,22)          155.9129         estimate D2E/DX2                !
 ! D7    D(1,2,15,16)          -31.2167         estimate D2E/DX2                !
 ! D8    D(1,2,15,20)          148.9117         estimate D2E/DX2                !
 ! D9    D(3,2,15,16)           80.0678         estimate D2E/DX2                !
 ! D10   D(3,2,15,20)          -99.8037         estimate D2E/DX2                !
 ! D11   D(21,2,15,16)        -163.7695         estimate D2E/DX2                !
 ! D12   D(21,2,15,20)          16.3589         estimate D2E/DX2                !
 ! D13   D(2,3,4,5)             21.438          estimate D2E/DX2                !
 ! D14   D(2,3,4,14)          -160.3199         estimate D2E/DX2                !
 ! D15   D(22,3,4,5)           166.9059         estimate D2E/DX2                !
 ! D16   D(22,3,4,14)          -14.8519         estimate D2E/DX2                !
 ! D17   D(3,4,5,6)            178.6776         estimate D2E/DX2                !
 ! D18   D(14,4,5,6)             0.2418         estimate D2E/DX2                !
 ! D19   D(3,4,14,7)          -178.4835         estimate D2E/DX2                !
 ! D20   D(3,4,14,28)            1.6408         estimate D2E/DX2                !
 ! D21   D(5,4,14,7)            -0.0879         estimate D2E/DX2                !
 ! D22   D(5,4,14,28)         -179.9635         estimate D2E/DX2                !
 ! D23   D(4,5,6,7)             -0.3111         estimate D2E/DX2                !
 ! D24   D(5,6,7,8)           -179.8574         estimate D2E/DX2                !
 ! D25   D(5,6,7,14)             0.2693         estimate D2E/DX2                !
 ! D26   D(6,7,8,9)            179.5649         estimate D2E/DX2                !
 ! D27   D(6,7,8,13)            -0.4237         estimate D2E/DX2                !
 ! D28   D(14,7,8,9)            -0.5998         estimate D2E/DX2                !
 ! D29   D(14,7,8,13)          179.4116         estimate D2E/DX2                !
 ! D30   D(6,7,14,4)            -0.1152         estimate D2E/DX2                !
 ! D31   D(6,7,14,28)          179.7584         estimate D2E/DX2                !
 ! D32   D(8,7,14,4)          -179.9601         estimate D2E/DX2                !
 ! D33   D(8,7,14,28)           -0.0866         estimate D2E/DX2                !
 ! D34   D(7,8,9,10)           179.9242         estimate D2E/DX2                !
 ! D35   D(7,8,9,23)             0.0228         estimate D2E/DX2                !
 ! D36   D(13,8,9,10)           -0.0871         estimate D2E/DX2                !
 ! D37   D(13,8,9,23)         -179.9885         estimate D2E/DX2                !
 ! D38   D(7,8,13,12)         -179.9368         estimate D2E/DX2                !
 ! D39   D(7,8,13,27)            0.0121         estimate D2E/DX2                !
 ! D40   D(9,8,13,12)            0.0745         estimate D2E/DX2                !
 ! D41   D(9,8,13,27)         -179.9766         estimate D2E/DX2                !
 ! D42   D(8,9,10,11)            0.0513         estimate D2E/DX2                !
 ! D43   D(8,9,10,24)         -179.9878         estimate D2E/DX2                !
 ! D44   D(23,9,10,11)         179.9528         estimate D2E/DX2                !
 ! D45   D(23,9,10,24)          -0.0863         estimate D2E/DX2                !
 ! D46   D(9,10,11,12)          -0.0023         estimate D2E/DX2                !
 ! D47   D(9,10,11,25)         179.9863         estimate D2E/DX2                !
 ! D48   D(24,10,11,12)       -179.9629         estimate D2E/DX2                !
 ! D49   D(24,10,11,25)          0.0257         estimate D2E/DX2                !
 ! D50   D(10,11,12,13)         -0.0104         estimate D2E/DX2                !
 ! D51   D(10,11,12,26)        179.9598         estimate D2E/DX2                !
 ! D52   D(25,11,12,13)       -179.9989         estimate D2E/DX2                !
 ! D53   D(25,11,12,26)         -0.0288         estimate D2E/DX2                !
 ! D54   D(11,12,13,8)          -0.0261         estimate D2E/DX2                !
 ! D55   D(11,12,13,27)       -179.9745         estimate D2E/DX2                !
 ! D56   D(26,12,13,8)        -179.9964         estimate D2E/DX2                !
 ! D57   D(26,12,13,27)          0.0553         estimate D2E/DX2                !
 ! D58   D(2,15,16,17)        -179.6585         estimate D2E/DX2                !
 ! D59   D(2,15,16,29)           0.9805         estimate D2E/DX2                !
 ! D60   D(20,15,16,17)          0.2093         estimate D2E/DX2                !
 ! D61   D(20,15,16,29)       -179.1517         estimate D2E/DX2                !
 ! D62   D(2,15,20,19)         179.7203         estimate D2E/DX2                !
 ! D63   D(2,15,20,33)          -0.7836         estimate D2E/DX2                !
 ! D64   D(16,15,20,19)         -0.147          estimate D2E/DX2                !
 ! D65   D(16,15,20,33)        179.3491         estimate D2E/DX2                !
 ! D66   D(15,16,17,18)         -0.0207         estimate D2E/DX2                !
 ! D67   D(15,16,17,30)       -179.6704         estimate D2E/DX2                !
 ! D68   D(29,16,17,18)        179.3365         estimate D2E/DX2                !
 ! D69   D(29,16,17,30)         -0.3131         estimate D2E/DX2                !
 ! D70   D(16,17,18,19)         -0.2262         estimate D2E/DX2                !
 ! D71   D(16,17,18,31)       -179.8093         estimate D2E/DX2                !
 ! D72   D(30,17,18,19)        179.4207         estimate D2E/DX2                !
 ! D73   D(30,17,18,31)         -0.1624         estimate D2E/DX2                !
 ! D74   D(17,18,19,20)          0.2899         estimate D2E/DX2                !
 ! D75   D(17,18,19,32)       -179.5942         estimate D2E/DX2                !
 ! D76   D(31,18,19,20)        179.8726         estimate D2E/DX2                !
 ! D77   D(31,18,19,32)         -0.0115         estimate D2E/DX2                !
 ! D78   D(18,19,20,15)         -0.1041         estimate D2E/DX2                !
 ! D79   D(18,19,20,33)       -179.5922         estimate D2E/DX2                !
 ! D80   D(32,19,20,15)        179.7809         estimate D2E/DX2                !
 ! D81   D(32,19,20,33)          0.2927         estimate D2E/DX2                !
 --------------------------------------------------------------------------------
 Trust Radius=3.00D-01 FncErr=1.00D-07 GrdErr=1.00D-06 EigMax=2.50D+02 EigMin=1.00D-04
 Number of steps in this run=    182 maximum allowed number of steps=    198.
 GradGradGradGradGradGradGradGradGradGradGradGradGradGradGradGradGradGrad

 Leave Link  103 at Tue Sep 22 20:03:06 2020, MaxMem=  2147483648 cpu:               0.1 elap:               0.0
 (Enter /prod/apps/gaussian/g16b1/l202.exe)
                          Input orientation:                          
 ---------------------------------------------------------------------
 Center     Atomic      Atomic             Coordinates (Angstroms)
 Number     Number       Type             X           Y           Z
 ---------------------------------------------------------------------
      1          8           0        3.579000   -2.136000    0.730000
      2         16           0        2.689000   -1.378000   -0.157000
      3          7           0        1.152000   -1.700000    0.470000
      4          6           0       -0.026000   -1.102000    0.027000
      5          7           0       -0.137000   -0.548000   -1.165000
      6          8           0       -1.467000   -0.100000   -1.223000
      7          6           0       -2.104000   -0.408000   -0.068000
      8          6           0       -3.505000   -0.018000    0.048000
      9          6           0       -4.227000   -0.315000    1.215000
     10          6           0       -5.563000    0.059000    1.325000
     11          6           0       -6.194000    0.731000    0.275000
     12          6           0       -5.480000    1.028000   -0.889000
     13          6           0       -4.144000    0.657000   -1.005000
     14          6           0       -1.236000   -1.047000    0.770000
     15          6           0        3.005000    0.364000    0.056000
     16          6           0        3.422000    0.824000    1.308000
     17          6           0        3.661000    2.186000    1.473000
     18          6           0        3.484000    3.064000    0.400000
     19          6           0        3.072000    2.587000   -0.845000
     20          6           0        2.827000    1.226000   -1.027000
     21          8           0        2.653000   -1.670000   -1.592000
     22          1           0        1.184000   -1.904000    1.469000
     23          1           0       -3.742000   -0.836000    2.034000
     24          1           0       -6.112000   -0.175000    2.231000
     25          1           0       -7.236000    1.021000    0.364000
     26          1           0       -5.966000    1.549000   -1.707000
     27          1           0       -3.587000    0.886000   -1.906000
     28          1           0       -1.413000   -1.424000    1.764000
     29          1           0        3.565000    0.130000    2.127000
     30          1           0        3.990000    2.558000    2.436000
     31          1           0        3.675000    4.123000    0.535000
     32          1           0        2.942000    3.270000   -1.677000
     33          1           0        2.513000    0.832000   -1.985000
 ---------------------------------------------------------------------
                    Distance matrix (angstroms):
                    1          2          3          4          5
     1  O    0.000000
     2  S    1.467458   0.000000
     3  N    2.479521   1.690912   0.000000
     4  C    3.815677   2.735189   1.393390   0.000000
     5  N    4.463342   3.113076   2.379464   1.319129   0.000000
     6  O    5.781144   4.476827   3.505055   2.154759   1.404624
     7  C    5.993269   4.890978   3.544043   2.192885   2.256568
     8  C    7.425234   6.344861   4.969392   3.644028   3.618797
     9  C    8.030249   7.130456   5.604185   4.436115   4.737804
    10  C    9.420627   8.506280   6.994021   5.804403   6.000835
    11  C   10.195011   9.140142   7.740252   6.439380   6.355839
    12  C    9.731266   8.547352   7.298787   5.926388   5.577419
    13  C    8.393796   7.179848   5.981529   4.595327   4.187323
    14  C    4.936775   4.046544   2.493783   1.420976   2.280576
    15  C    2.652122   1.783196   2.804479   3.367040   3.492098
    16  C    3.019989   2.744507   3.496530   4.152004   4.545833
    17  C    4.386167   4.037794   4.733084   5.147410   5.372020
    18  C    5.211327   4.546827   5.304604   5.460292   5.348590
    19  C    5.004438   4.042432   4.877909   4.895581   4.497589
    20  C    3.867247   2.748956   3.688917   3.830158   3.457082
    21  O    2.542895   1.464850   2.550636   3.181325   3.037320
    22  H    2.517135   2.277186   1.020118   2.046135   3.243722
    23  H    7.549004   6.815571   5.209974   4.231721   4.828309
    24  H   10.000700   9.198226   7.628397   6.538833   6.882773
    25  H   11.272304  10.224102   8.818935   7.523616   7.429361
    26  H   10.517852   9.267084   8.121653   6.731876   6.218393
    27  H    8.211732   6.897309   5.898381   4.513242   3.808929
    28  H    5.147442   4.529764   2.886146   2.246024   3.312792
    29  H    2.662060   2.873690   3.452118   4.338560   5.000175
    30  H    5.011287   4.889616   5.481785   5.943664   6.296552
    31  H    6.262773   5.631346   6.346423   6.423090   6.264151
    32  H    5.951828   4.896766   5.702158   5.552209   4.931481
    33  H    4.161323   2.873440   3.780261   3.772933   3.098274
                    6          7          8          9         10
     6  O    0.000000
     7  C    1.354495   0.000000
     8  C    2.403250   1.458889   0.000000
     9  C    3.688857   2.482311   1.404059   0.000000
    10  C    4.826469   3.758087   2.423226   1.391715   0.000000
    11  C    5.027832   4.259468   2.800580   2.418017   1.397228
    12  C    4.181879   3.759456   2.423367   2.792933   2.418191
    13  C    2.790502   2.484712   1.404548   2.424886   2.792860
    14  C    2.218607   1.365280   2.593933   3.111259   4.500466
    15  C    4.674390   5.168485   6.521203   7.355688   8.666834
    16  C    5.582299   5.826481   7.090832   7.733898   9.017524
    17  C    6.228210   6.506823   7.631500   8.279016   9.467218
    18  C    6.095689   6.595419   7.646486   8.458214   9.577779
    19  C    5.288230   6.030318   7.130246   8.120382   9.255426
    20  C    4.498347   5.282461   6.541971   7.560434   8.791240
    21  O    4.424416   5.152113   6.583287   7.553123   8.888250
    22  H    4.186775   3.925727   5.250044   5.645207   7.028237
    23  H    4.040467   2.699006   2.160900   1.085093   2.149360
    24  H    5.788935   4.626419   3.403908   2.145945   1.084893
    25  H    6.087411   5.344725   3.885838   3.400467   2.155897
    26  H    4.816062   4.629386   3.404708   3.877719   3.402283
    27  H    2.435792   2.692948   2.154543   3.404797   3.876579
    28  H    3.267730   2.205892   3.049255   3.074065   4.428827
    29  H    6.049498   6.102871   7.370824   7.857801   9.163440
    30  H    7.087460   7.225234   8.277279   8.789998   9.936757
    31  H    6.882184   7.368203   8.302858   9.088446  10.123282
    32  H    5.567971   6.448153   7.439783   8.521177   9.573795
    33  H    4.158085   5.150648   6.408737   7.548722   8.762158
                   11         12         13         14         15
    11  C    0.000000
    12  C    1.397462   0.000000
    13  C    2.417928   1.391400   0.000000
    14  C    5.290376   5.006939   3.809292   0.000000
    15  C    9.208922   8.563244   7.233241   4.526234   0.000000
    16  C    9.671773   9.171370   7.913420   5.048470   1.397495
    17  C   10.033606   9.511987   8.330447   5.909916   2.399564
    18  C    9.956013   9.282247   8.121210   6.270217   2.763653
    19  C    9.516191   8.693050   7.471356   5.862853   2.399587
    20  C    9.127906   8.310505   6.994218   4.990361   1.395570
    21  O    9.355207   8.597622   7.208239   4.592548   2.641394
    22  H    7.924881   7.652822   6.408352   2.660724   3.233641
    23  H    3.400276   3.878024   3.409718   2.814650   7.132636
    24  H    2.157196   3.403092   3.877750   5.164328   9.388335
    25  H    1.085258   2.157219   3.401047   6.359360  10.266674
    26  H    2.156254   1.084786   2.146661   5.936973   9.219069
    27  H    3.402534   2.153579   1.083739   4.052736   6.897564
    28  H    5.451523   5.439780   4.410928   1.077726   5.062898
    29  H    9.951341   9.576778   8.337616   5.126049   2.158100
    30  H   10.569849  10.152705   9.034171   6.563738   3.383528
    31  H   10.438890   9.768358   8.690312   7.134567   3.848171
    32  H    9.681081   8.750862   7.582265   6.486909   3.384094
    33  H    8.996091   8.070172   6.731023   5.017536   2.150993
                   16         17         18         19         20
    16  C    0.000000
    17  C    1.392620   0.000000
    18  C    2.417831   1.397692   0.000000
    19  C    2.804653   2.425046   1.395456   0.000000
    20  C    2.442919   2.804845   2.417896   1.394801   0.000000
    21  O    3.901461   5.027825   5.202824   4.342306   2.955726
    22  H    3.532216   4.781594   5.577973   5.393350   4.327397
    23  H    7.389558   8.015710   8.372278   8.150838   7.534808
    24  H    9.630529  10.082679  10.292079  10.071558   9.616813
    25  H   10.701538  11.015068  10.912999  10.496137  10.160752
    26  H    9.886880  10.158607   9.799856   9.138158   8.825167
    27  H    7.711013   8.101922   7.749862   6.954236   6.482873
    28  H    5.351511   6.233960   6.781095   6.558218   5.726236
    29  H    1.082980   2.159645   3.405502   3.887503   3.419587
    30  H    2.145172   1.083510   2.158094   3.407129   3.888337
    31  H    3.397784   2.152210   1.084522   2.151117   3.398758
    32  H    3.888900   3.408008   2.156416   1.084257   2.147943
    33  H    3.416167   3.887028   3.407769   2.166127   1.082403
                   21         22         23         24         25
    21  O    0.000000
    22  H    3.403298   0.000000
    23  H    7.398612   5.072014   0.000000
    24  H    9.678615   7.536690   2.468325   0.000000
    25  H   10.433587   8.981818   4.294809   2.485856   0.000000
    26  H    9.201214   8.551765   4.962810   4.301318   2.486106
    27  H    6.750506   6.475891   4.302663   4.961463   4.299573
    28  H    5.277841   2.657411   2.417206   4.884536   6.468798
    29  H    4.231159   3.199888   7.371164   9.682364  10.980148
    30  H    5.990688   5.358934   8.453678  10.467173  11.518621
    31  H    6.255195   6.588032   9.047131  10.822873  11.344671
    32  H    4.949176   6.305407   8.677938  10.445832  10.621458
    33  H    2.536544   4.602396   7.619686   9.652944  10.029782
                   26         27         28         29         30
    26  H    0.000000
    27  H    2.477662   0.000000
    28  H    6.451076   4.850905   0.000000
    29  H   10.370780   8.245467   5.227539   0.000000
    30  H   10.830719   8.891540   6.745392   2.484208   0.000000
    31  H   10.227459   8.317048   7.626755   4.300071   2.482388
    32  H    9.072773   6.954404   7.269123   4.971735   4.303721
    33  H    8.513801   6.100751   5.878606   4.302099   4.970498
                   31         32         33
    31  H    0.000000
    32  H    2.481500   0.000000
    33  H    4.304803   2.494544   0.000000
 Symmetry turned off by external request.
 Stoichiometry    C15H12N2O3S
 Framework group  C1[X(C15H12N2O3S)]
 Deg. of freedom    93
 Full point group                 C1      NOp   1
 Rotational constants (GHZ):           0.5777356           0.1371563           0.1258966
 Leave Link  202 at Tue Sep 22 20:03:06 2020, MaxMem=  2147483648 cpu:               0.0 elap:               0.0
 (Enter /prod/apps/gaussian/g16b1/l301.exe)
 Standard basis: 6-31G(d) (6D, 7F)
 Ernie: Thresh=  0.10000D-02 Tol=  0.10000D-05 Strict=F.
   343 basis functions,   660 primitive gaussians,   343 cartesian basis functions
    78 alpha electrons       78 beta electrons
       nuclear repulsion energy      1710.3761425114 Hartrees.
 IExCor=  402 DFT=T Ex+Corr=B3LYP ExCW=0 ScaHFX=  0.200000
 ScaDFX=  0.800000  0.720000  1.000000  0.810000 ScalE2=  1.000000  1.000000
 IRadAn=      5 IRanWt=     -1 IRanGd=            0 ICorTp=0 IEmpDi=  4
 NAtoms=   33 NActive=   33 NUniq=   33 SFac= 1.00D+00 NAtFMM=   60 NAOKFM=F Big=F
 Integral buffers will be    131072 words long.
 Raffenetti 2 integral format.
 Two-electron integral symmetry is turned off.
 Using the following non-standard input for PCM:
 MSTModel=DFT cav
 --- end of non-standard input.
 MST model for solvation energy: B3LYP parametrization.
 MST cavity parameters:
 ISph   IAn     Re0     Alpha   Atom Type   QCorr
 ------------------------------------------------
   1      8     1.40     1.25      O          F
   2     16     1.75     1.25      S          F
   3      7     1.50     1.25      NH         F
   4      6     1.50     1.25      C          F
   5      7     1.40     1.25      N          F
   6      8     1.40     1.25      O          F
   7      6     1.50     1.25      C          F
   8      6     1.50     1.25      C          F
   9      6     1.50     1.25      CH         F
  10      6     1.50     1.25      CH         F
  11      6     1.50     1.25      CH         F
  12      6     1.50     1.25      CH         F
  13      6     1.50     1.25      CH         F
  14      6     1.50     1.25      CH         F
  15      6     1.50     1.25      C          F
  16      6     1.50     1.25      CH         F
  17      6     1.50     1.25      CH         F
  18      6     1.50     1.25      CH         F
  19      6     1.50     1.25      CH         F
  20      6     1.50     1.25      CH         F
  21      8     1.40     1.25      O          F
  22      1     0.90     1.25      NH         F
  23      1     1.20     1.25      CH         F
  24      1     1.20     1.25      CH         F
  25      1     1.20     1.25      CH         F
  26      1     1.20     1.25      CH         F
  27      1     1.20     1.25      CH         F
  28      1     1.20     1.25      CH         F
  29      1     1.20     1.25      CH         F
  30      1     1.20     1.25      CH         F
  31      1     1.20     1.25      CH         F
  32      1     1.20     1.25      CH         F
  33      1     1.20     1.25      CH         F
 ------------------------------------------------------------------------------
 Polarizable Continuum Model (PCM)
 =================================
 Model                : PCM.
 Atomic radii         : MST.
 Polarization charges : Total charges.
 Charge compensation  : None.
 Solution method      : On-the-fly selection.
 Cavity type          : Scaled VdW (van der Waals Surface) (Alpha=1.250).
 Cavity algorithm     : GePol (No added spheres)
                        Default sphere list used, NSphG=   33.
                        Lebedev-Laikov grids with approx.  5.0 points / Ang**2.
                        Smoothing algorithm: York/Karplus (Gamma=1.0000).
                        Polarization charges: spherical gaussians, with
                                              point-specific exponents (IZeta= 3).
                        Self-potential: point-specific (ISelfS= 7).
                        Self-field    : sphere-specific E.n sum rule (ISelfD= 2).
 1st derivatives      : Analytical E(r).r(x)/FMM algorithm (CHGder, D1EAlg=3).
                        Cavity 1st derivative terms included.
 Solvent              : Water, Eps=  78.355300 Eps(inf)=   1.777849
 ------------------------------------------------------------------------------
 GePol: Number of generator spheres                  =      33
 GePol: Total number of spheres                      =      33
 GePol: Number of exposed spheres                    =      33 (100.00%)
 GePol: Number of points                             =    2684
 GePol: Average weight of points                     =       0.13
 GePol: Minimum weight of points                     =   0.12D-10
 GePol: Maximum weight of points                     =    0.22001
 GePol: Number of points with low weight             =     192
 GePol: Fraction of low-weight points (<1% of avg)   =       7.15%
 GePol: Cavity surface area                          =    337.770 Ang**2
 GePol: Cavity volume                                =    323.577 Ang**3
 PCM non-electrostatic energy =         0.0028975227 Hartrees.
 Nuclear repulsion after PCM non-electrostatic terms =     1710.3790400342 Hartrees.
 Leave Link  301 at Tue Sep 22 20:03:06 2020, MaxMem=  2147483648 cpu:               0.4 elap:               0.1
 (Enter /prod/apps/gaussian/g16b1/l302.exe)
 NPDir=0 NMtPBC=     1 NCelOv=     1 NCel=       1 NClECP=     1 NCelD=      1
         NCelK=      1 NCelE2=     1 NClLst=     1 CellRange=     0.0.
 One-electron integrals computed using PRISM.
 NBasis=   343 RedAO= T EigKep=  4.58D-04  NBF=   343
 NBsUse=   343 1.00D-06 EigRej= -1.00D+00 NBFU=   343
 Precomputing XC quadrature grid using
 IXCGrd= 4 IRadAn=           5 IRanWt=          -1 IRanGd=           0 AccXCQ= 0.00D+00.
 Generated NRdTot=       0 NPtTot=           0 NUsed=           0 NTot=          32
 NSgBfM=   339   339   339   339   339 MxSgAt=    33 MxSgA2=    33.
 Leave Link  302 at Tue Sep 22 20:03:06 2020, MaxMem=  2147483648 cpu:               1.7 elap:               0.4
 (Enter /prod/apps/gaussian/g16b1/l303.exe)
 DipDrv:  MaxL=1.
 Leave Link  303 at Tue Sep 22 20:03:06 2020, MaxMem=  2147483648 cpu:               0.2 elap:               0.1
 (Enter /prod/apps/gaussian/g16b1/l401.exe)
 ExpMin= 1.17D-01 ExpMax= 2.19D+04 ExpMxC= 3.30D+03 IAcc=3 IRadAn=         5 AccDes= 0.00D+00
 Harris functional with IExCor=  402 and IRadAn=       5 diagonalized for initial guess.
 HarFok:  IExCor=  402 AccDes= 0.00D+00 IRadAn=         5 IDoV= 1 UseB2=F ITyADJ=14
 ICtDFT=  3500011 ScaDFX=  1.000000  1.000000  1.000000  1.000000
 FoFCou: FMM=F IPFlag=           0 FMFlag=      100000 FMFlg1=           0
         NFxFlg=           0 DoJE=T BraDBF=F KetDBF=T FulRan=T
         wScrn=  0.000000 ICntrl=       500 IOpCl=  0 I1Cent=   200000004 NGrid=           0
         NMat0=    1 NMatS0=      1 NMatT0=    0 NMatD0=    1 NMtDS0=    0 NMtDT0=    0
 Symmetry not used in FoFCou.
 Harris En= -1312.09829021630    
 JPrj=0 DoOrth=F DoCkMO=F.
 Leave Link  401 at Tue Sep 22 20:03:09 2020, MaxMem=  2147483648 cpu:               9.3 elap:               2.4
 (Enter /prod/apps/gaussian/g16b1/l502.exe)
 Two-electron integral symmetry not used.
 Closed shell SCF:
 Using DIIS extrapolation, IDIIS=  1040.
 NGot=  2147483648 LenX=  2147243388 LenY=  2147125298
 Requested convergence on RMS density matrix=1.00D-08 within2000 cycles.
 Requested convergence on MAX density matrix=1.00D-06.
 Requested convergence on             energy=1.00D-06.
 No special actions if energy rises.

 Cycle   1  Pass 1  IDiag  1:
 FoFJK:  IHMeth= 1 ICntrl=       0 DoSepK=F KAlg= 0 I1Cent=           0 FoldK=F
 IRaf= 720000000 NMat=       1 IRICut=       1 DoRegI=T DoRafI=F ISym2E= 0 IDoP0=0 IntGTp=1.
 FoFCou: FMM=F IPFlag=           0 FMFlag=      100000 FMFlg1=           0
         NFxFlg=           0 DoJE=F BraDBF=F KetDBF=F FulRan=T
         wScrn=  0.000000 ICntrl=         0 IOpCl=  0 I1Cent=           0 NGrid=           0
         NMat0=    1 NMatS0=      1 NMatT0=    0 NMatD0=    1 NMtDS0=    0 NMtDT0=    0
 Symmetry not used in FoFCou.
 Inv3:  Mode=1 IEnd=    21611568.
 Iteration    1 A*A^-1 deviation from unit magnitude is 3.44D-15 for    616.
 Iteration    1 A*A^-1 deviation from orthogonality  is 1.60D-15 for   2088    187.
 Iteration    1 A^-1*A deviation from unit magnitude is 3.66D-15 for    616.
 Iteration    1 A^-1*A deviation from orthogonality  is 2.53D-13 for   2357   2339.
 E= -1311.51561969803    
 DIIS: error= 3.55D-02 at cycle   1 NSaved=   1.
 NSaved= 1 IEnMin= 1 EnMin= -1311.51561969803     IErMin= 1 ErrMin= 3.55D-02
 ErrMax= 3.55D-02  0.00D+00 EMaxC= 1.00D-01 BMatC= 6.43D-01 BMatP= 6.43D-01
 IDIUse=3 WtCom= 6.45D-01 WtEn= 3.55D-01
 Coeff-Com:  0.100D+01
 Coeff-En:   0.100D+01
 Coeff:      0.100D+01
 Gap=     0.271 Goal=   None    Shift=    0.000
 GapD=    0.271 DampG=1.000 DampE=0.500 DampFc=0.5000 IDamp=-1.
 Damping current iteration by 5.00D-01
 RMSDP=5.81D-03 MaxDP=5.71D-01              OVMax= 2.25D-01

 Cycle   2  Pass 1  IDiag  1:
 E= -1311.67500699984     Delta-E=       -0.159387301814 Rises=F Damp=T
 DIIS: error= 1.28D-02 at cycle   2 NSaved=   2.
 NSaved= 2 IEnMin= 2 EnMin= -1311.67500699984     IErMin= 2 ErrMin= 1.28D-02
 ErrMax= 1.28D-02  0.00D+00 EMaxC= 1.00D-01 BMatC= 9.59D-02 BMatP= 6.43D-01
 IDIUse=3 WtCom= 8.72D-01 WtEn= 1.28D-01
 Coeff-Com:  0.213D+00 0.787D+00
 Coeff-En:   0.339D+00 0.661D+00
 Coeff:      0.229D+00 0.771D+00
 Gap=     0.219 Goal=   None    Shift=    0.000
 RMSDP=1.78D-03 MaxDP=1.40D-01 DE=-1.59D-01 OVMax= 1.86D-01

 Cycle   3  Pass 1  IDiag  1:
 E= -1312.04420465632     Delta-E=       -0.369197656483 Rises=F Damp=F
 DIIS: error= 9.99D-03 at cycle   3 NSaved=   3.
 NSaved= 3 IEnMin= 3 EnMin= -1312.04420465632     IErMin= 3 ErrMin= 9.99D-03
 ErrMax= 9.99D-03  0.00D+00 EMaxC= 1.00D-01 BMatC= 5.26D-02 BMatP= 9.59D-02
 IDIUse=3 WtCom= 9.00D-01 WtEn= 9.99D-02
 Coeff-Com:  0.503D-01 0.423D+00 0.527D+00
 Coeff-En:   0.000D+00 0.000D+00 0.100D+01
 Coeff:      0.452D-01 0.380D+00 0.574D+00
 Gap=     0.183 Goal=   None    Shift=    0.000
 RMSDP=9.19D-04 MaxDP=3.65D-02 DE=-3.69D-01 OVMax= 4.85D-02

 Cycle   4  Pass 1  IDiag  1:
 E= -1312.08403427012     Delta-E=       -0.039829613798 Rises=F Damp=F
 DIIS: error= 3.22D-03 at cycle   4 NSaved=   4.
 NSaved= 4 IEnMin= 4 EnMin= -1312.08403427012     IErMin= 4 ErrMin= 3.22D-03
 ErrMax= 3.22D-03  0.00D+00 EMaxC= 1.00D-01 BMatC= 8.24D-03 BMatP= 5.26D-02
 IDIUse=3 WtCom= 9.68D-01 WtEn= 3.22D-02
 Coeff-Com:  0.211D-02 0.977D-01 0.309D+00 0.591D+00
 Coeff-En:   0.000D+00 0.000D+00 0.123D+00 0.877D+00
 Coeff:      0.204D-02 0.946D-01 0.303D+00 0.601D+00
 Gap=     0.183 Goal=   None    Shift=    0.000
 RMSDP=3.12D-04 MaxDP=1.40D-02 DE=-3.98D-02 OVMax= 2.00D-02

 Cycle   5  Pass 1  IDiag  1:
 E= -1312.09060913836     Delta-E=       -0.006574868233 Rises=F Damp=F
 DIIS: error= 8.99D-04 at cycle   5 NSaved=   5.
 NSaved= 5 IEnMin= 5 EnMin= -1312.09060913836     IErMin= 5 ErrMin= 8.99D-04
 ErrMax= 8.99D-04  0.00D+00 EMaxC= 1.00D-01 BMatC= 7.98D-04 BMatP= 8.24D-03
 IDIUse=3 WtCom= 9.91D-01 WtEn= 8.99D-03
 Coeff-Com: -0.353D-02 0.199D-01 0.121D+00 0.334D+00 0.528D+00
 Coeff-En:   0.000D+00 0.000D+00 0.000D+00 0.180D-01 0.982D+00
 Coeff:     -0.349D-02 0.197D-01 0.120D+00 0.332D+00 0.532D+00
 Gap=     0.183 Goal=   None    Shift=    0.000
 RMSDP=1.02D-04 MaxDP=5.16D-03 DE=-6.57D-03 OVMax= 9.28D-03

 Cycle   6  Pass 1  IDiag  1:
 E= -1312.09125733957     Delta-E=       -0.000648201216 Rises=F Damp=F
 DIIS: error= 3.49D-04 at cycle   6 NSaved=   6.
 NSaved= 6 IEnMin= 6 EnMin= -1312.09125733957     IErMin= 6 ErrMin= 3.49D-04
 ErrMax= 3.49D-04  0.00D+00 EMaxC= 1.00D-01 BMatC= 9.54D-05 BMatP= 7.98D-04
 IDIUse=3 WtCom= 9.97D-01 WtEn= 3.49D-03
 Coeff-Com: -0.223D-02 0.441D-02 0.437D-01 0.140D+00 0.319D+00 0.495D+00
 Coeff-En:   0.000D+00 0.000D+00 0.000D+00 0.000D+00 0.635D-01 0.937D+00
 Coeff:     -0.222D-02 0.440D-02 0.436D-01 0.139D+00 0.318D+00 0.497D+00
 Gap=     0.182 Goal=   None    Shift=    0.000
 RMSDP=3.11D-05 MaxDP=1.86D-03 DE=-6.48D-04 OVMax= 2.97D-03

 Cycle   7  Pass 1  IDiag  1:
 E= -1312.09133941313     Delta-E=       -0.000082073558 Rises=F Damp=F
 DIIS: error= 8.98D-05 at cycle   7 NSaved=   7.
 NSaved= 7 IEnMin= 7 EnMin= -1312.09133941313     IErMin= 7 ErrMin= 8.98D-05
 ErrMax= 8.98D-05  0.00D+00 EMaxC= 1.00D-01 BMatC= 5.51D-06 BMatP= 9.54D-05
 IDIUse=1 WtCom= 1.00D+00 WtEn= 0.00D+00
 Coeff-Com: -0.988D-03 0.468D-03 0.130D-01 0.460D-01 0.125D+00 0.269D+00
 Coeff-Com:  0.547D+00
 Coeff:     -0.988D-03 0.468D-03 0.130D-01 0.460D-01 0.125D+00 0.269D+00
 Coeff:      0.547D+00
 Gap=     0.183 Goal=   None    Shift=    0.000
 RMSDP=7.11D-06 MaxDP=4.37D-04 DE=-8.21D-05 OVMax= 4.81D-04

 Cycle   8  Pass 1  IDiag  1:
 E= -1312.09134369481     Delta-E=       -0.000004281685 Rises=F Damp=F
 DIIS: error= 2.98D-05 at cycle   8 NSaved=   8.
 NSaved= 8 IEnMin= 8 EnMin= -1312.09134369481     IErMin= 8 ErrMin= 2.98D-05
 ErrMax= 2.98D-05  0.00D+00 EMaxC= 1.00D-01 BMatC= 4.78D-07 BMatP= 5.51D-06
 IDIUse=1 WtCom= 1.00D+00 WtEn= 0.00D+00
 Coeff-Com: -0.274D-03-0.188D-03 0.191D-02 0.862D-02 0.309D-01 0.909D-01
 Coeff-Com:  0.279D+00 0.589D+00
 Coeff:     -0.274D-03-0.188D-03 0.191D-02 0.862D-02 0.309D-01 0.909D-01
 Coeff:      0.279D+00 0.589D+00
 Gap=     0.183 Goal=   None    Shift=    0.000
 RMSDP=2.44D-06 MaxDP=1.18D-04 DE=-4.28D-06 OVMax= 2.15D-04

 Cycle   9  Pass 1  IDiag  1:
 E= -1312.09134410962     Delta-E=       -0.000000414805 Rises=F Damp=F
 DIIS: error= 8.42D-06 at cycle   9 NSaved=   9.
 NSaved= 9 IEnMin= 9 EnMin= -1312.09134410962     IErMin= 9 ErrMin= 8.42D-06
 ErrMax= 8.42D-06  0.00D+00 EMaxC= 1.00D-01 BMatC= 4.40D-08 BMatP= 4.78D-07
 IDIUse=1 WtCom= 1.00D+00 WtEn= 0.00D+00
 Coeff-Com: -0.179D-04-0.118D-03-0.573D-03-0.137D-02-0.345D-03 0.116D-01
 Coeff-Com:  0.612D-01 0.281D+00 0.649D+00
 Coeff:     -0.179D-04-0.118D-03-0.573D-03-0.137D-02-0.345D-03 0.116D-01
 Coeff:      0.612D-01 0.281D+00 0.649D+00
 Gap=     0.183 Goal=   None    Shift=    0.000
 RMSDP=7.02D-07 MaxDP=2.77D-05 DE=-4.15D-07 OVMax= 5.48D-05

 Cycle  10  Pass 1  IDiag  1:
 E= -1312.09134414748     Delta-E=       -0.000000037858 Rises=F Damp=F
 DIIS: error= 2.82D-06 at cycle  10 NSaved=  10.
 NSaved=10 IEnMin=10 EnMin= -1312.09134414748     IErMin=10 ErrMin= 2.82D-06
 ErrMax= 2.82D-06  0.00D+00 EMaxC= 1.00D-01 BMatC= 3.53D-09 BMatP= 4.40D-08
 IDIUse=1 WtCom= 1.00D+00 WtEn= 0.00D+00
 Coeff-Com:  0.568D-06-0.509D-04-0.395D-03-0.114D-02-0.167D-02 0.220D-02
 Coeff-Com:  0.189D-01 0.124D+00 0.343D+00 0.515D+00
 Coeff:      0.568D-06-0.509D-04-0.395D-03-0.114D-02-0.167D-02 0.220D-02
 Coeff:      0.189D-01 0.124D+00 0.343D+00 0.515D+00
 Gap=     0.183 Goal=   None    Shift=    0.000
 RMSDP=2.07D-07 MaxDP=9.21D-06 DE=-3.79D-08 OVMax= 1.83D-05

 Cycle  11  Pass 1  IDiag  1:
 E= -1312.09134415052     Delta-E=       -0.000000003040 Rises=F Damp=F
 DIIS: error= 6.27D-07 at cycle  11 NSaved=  11.
 NSaved=11 IEnMin=11 EnMin= -1312.09134415052     IErMin=11 ErrMin= 6.27D-07
 ErrMax= 6.27D-07  0.00D+00 EMaxC= 1.00D-01 BMatC= 2.97D-10 BMatP= 3.53D-09
 IDIUse=1 WtCom= 1.00D+00 WtEn= 0.00D+00
 Coeff-Com:  0.234D-05-0.152D-05-0.953D-04-0.318D-03-0.788D-03-0.817D-03
 Coeff-Com: -0.190D-02 0.124D-01 0.497D-01 0.235D+00 0.706D+00
 Coeff:      0.234D-05-0.152D-05-0.953D-04-0.318D-03-0.788D-03-0.817D-03
 Coeff:     -0.190D-02 0.124D-01 0.497D-01 0.235D+00 0.706D+00
 Gap=     0.183 Goal=   None    Shift=    0.000
 RMSDP=6.46D-08 MaxDP=2.43D-06 DE=-3.04D-09 OVMax= 4.89D-06

 Cycle  12  Pass 1  IDiag  1:
 E= -1312.09134415076     Delta-E=       -0.000000000246 Rises=F Damp=F
 DIIS: error= 3.08D-07 at cycle  12 NSaved=  12.
 NSaved=12 IEnMin=12 EnMin= -1312.09134415076     IErMin=12 ErrMin= 3.08D-07
 ErrMax= 3.08D-07  0.00D+00 EMaxC= 1.00D-01 BMatC= 5.11D-11 BMatP= 2.97D-10
 IDIUse=1 WtCom= 1.00D+00 WtEn= 0.00D+00
 Coeff-Com:  0.117D-05 0.263D-05-0.291D-04-0.107D-03-0.343D-03-0.588D-03
 Coeff-Com: -0.236D-02-0.857D-03 0.528D-02 0.981D-01 0.404D+00 0.497D+00
 Coeff:      0.117D-05 0.263D-05-0.291D-04-0.107D-03-0.343D-03-0.588D-03
 Coeff:     -0.236D-02-0.857D-03 0.528D-02 0.981D-01 0.404D+00 0.497D+00
 Gap=     0.183 Goal=   None    Shift=    0.000
 RMSDP=2.42D-08 MaxDP=1.22D-06 DE=-2.46D-10 OVMax= 1.70D-06

 Cycle  13  Pass 1  IDiag  1:
 E= -1312.09134415080     Delta-E=       -0.000000000040 Rises=F Damp=F
 DIIS: error= 1.06D-07 at cycle  13 NSaved=  13.
 NSaved=13 IEnMin=13 EnMin= -1312.09134415080     IErMin=13 ErrMin= 1.06D-07
 ErrMax= 1.06D-07  0.00D+00 EMaxC= 1.00D-01 BMatC= 5.29D-12 BMatP= 5.11D-11
 IDIUse=1 WtCom= 1.00D+00 WtEn= 0.00D+00
 Coeff-Com:  0.280D-06 0.153D-05-0.142D-05-0.908D-05-0.686D-04-0.194D-03
 Coeff-Com: -0.101D-02-0.234D-02-0.533D-02 0.141D-01 0.102D+00 0.273D+00
 Coeff-Com:  0.620D+00
 Coeff:      0.280D-06 0.153D-05-0.142D-05-0.908D-05-0.686D-04-0.194D-03
 Coeff:     -0.101D-02-0.234D-02-0.533D-02 0.141D-01 0.102D+00 0.273D+00
 Coeff:      0.620D+00
 Gap=     0.183 Goal=   None    Shift=    0.000
 RMSDP=8.46D-09 MaxDP=4.09D-07 DE=-3.96D-11 OVMax= 5.08D-07

 Error on total polarization charges =  0.02218
 SCF Done:  E(RB3LYP) =  -1312.09134415     A.U. after   13 cycles
            NFock= 13  Conv=0.85D-08     -V/T= 2.0077
 KE= 1.302069886783D+03 PE=-6.492459670556D+03 EE= 2.167919399589D+03
 Leave Link  502 at Tue Sep 22 20:04:25 2020, MaxMem=  2147483648 cpu:             307.1 elap:              76.9
 (Enter /prod/apps/gaussian/g16b1/l601.exe)
 Copying SCF densities to generalized density rwf, IOpCl= 0 IROHF=0.

 **********************************************************************

            Population analysis using the SCF Density.

 **********************************************************************

 Alpha  occ. eigenvalues --  -89.13443 -19.24124 -19.16222 -19.16147 -14.39281
 Alpha  occ. eigenvalues --  -14.38387 -10.28034 -10.27111 -10.23573 -10.21683
 Alpha  occ. eigenvalues --  -10.21582 -10.21495 -10.20806 -10.20627 -10.20593
 Alpha  occ. eigenvalues --  -10.20314 -10.20273 -10.20098 -10.19905 -10.19791
 Alpha  occ. eigenvalues --  -10.19759  -8.15906  -6.12435  -6.12335  -6.12179
 Alpha  occ. eigenvalues --   -1.14719  -1.13046  -1.02027  -0.96525  -0.87875
 Alpha  occ. eigenvalues --   -0.87566  -0.85423  -0.81181  -0.78284  -0.76550
 Alpha  occ. eigenvalues --   -0.75510  -0.75336  -0.69460  -0.65001  -0.63859
 Alpha  occ. eigenvalues --   -0.62470  -0.61613  -0.60214  -0.57810  -0.55276
 Alpha  occ. eigenvalues --   -0.55144  -0.52497  -0.50513  -0.49368  -0.48699
 Alpha  occ. eigenvalues --   -0.48083  -0.47670  -0.46580  -0.45779  -0.45483
 Alpha  occ. eigenvalues --   -0.44818  -0.44008  -0.43332  -0.42670  -0.39795
 Alpha  occ. eigenvalues --   -0.39729  -0.38673  -0.38107  -0.37148  -0.36476
 Alpha  occ. eigenvalues --   -0.36337  -0.35681  -0.35039  -0.33811  -0.33035
 Alpha  occ. eigenvalues --   -0.32358  -0.31273  -0.30038  -0.27986  -0.27001
 Alpha  occ. eigenvalues --   -0.26258  -0.25811  -0.23662
 Alpha virt. eigenvalues --   -0.05408  -0.04198  -0.01830  -0.00986   0.02054
 Alpha virt. eigenvalues --    0.05130   0.06567   0.07599   0.08273   0.08555
 Alpha virt. eigenvalues --    0.09891   0.11056   0.11589   0.13077   0.13259
 Alpha virt. eigenvalues --    0.14446   0.15192   0.15413   0.16726   0.16881
 Alpha virt. eigenvalues --    0.17013   0.18270   0.18796   0.19327   0.19964
 Alpha virt. eigenvalues --    0.23205   0.24969   0.25133   0.27120   0.28503
 Alpha virt. eigenvalues --    0.29248   0.29871   0.30018   0.31116   0.32206
 Alpha virt. eigenvalues --    0.33061   0.33665   0.34619   0.38116   0.39435
 Alpha virt. eigenvalues --    0.42012   0.43822   0.44497   0.47396   0.49010
 Alpha virt. eigenvalues --    0.50019   0.51158   0.51817   0.52330   0.53343
 Alpha virt. eigenvalues --    0.53405   0.54400   0.55325   0.55627   0.56148
 Alpha virt. eigenvalues --    0.56459   0.56862   0.57920   0.57945   0.58263
 Alpha virt. eigenvalues --    0.58848   0.59356   0.59873   0.60077   0.60381
 Alpha virt. eigenvalues --    0.60864   0.61382   0.61536   0.62256   0.62837
 Alpha virt. eigenvalues --    0.63952   0.64790   0.64821   0.66999   0.68539
 Alpha virt. eigenvalues --    0.70648   0.71091   0.73166   0.73890   0.75019
 Alpha virt. eigenvalues --    0.76229   0.77744   0.78539   0.79484   0.80698
 Alpha virt. eigenvalues --    0.82375   0.83032   0.83554   0.83720   0.84149
 Alpha virt. eigenvalues --    0.84764   0.84985   0.85841   0.86723   0.87258
 Alpha virt. eigenvalues --    0.88206   0.88425   0.89474   0.89780   0.90824
 Alpha virt. eigenvalues --    0.91491   0.92422   0.93205   0.94193   0.95529
 Alpha virt. eigenvalues --    0.96301   0.97604   0.98981   0.99535   1.01633
 Alpha virt. eigenvalues --    1.03507   1.03730   1.05096   1.07363   1.07806
 Alpha virt. eigenvalues --    1.09268   1.10888   1.12199   1.13237   1.15329
 Alpha virt. eigenvalues --    1.16084   1.16281   1.16442   1.17733   1.18665
 Alpha virt. eigenvalues --    1.19650   1.21734   1.23946   1.24122   1.25460
 Alpha virt. eigenvalues --    1.25949   1.28357   1.30624   1.31703   1.34632
 Alpha virt. eigenvalues --    1.35948   1.38441   1.39172   1.41369   1.41907
 Alpha virt. eigenvalues --    1.42343   1.42589   1.44006   1.45286   1.45989
 Alpha virt. eigenvalues --    1.47031   1.47301   1.48239   1.48944   1.49934
 Alpha virt. eigenvalues --    1.50114   1.51120   1.53578   1.54588   1.55918
 Alpha virt. eigenvalues --    1.60758   1.66282   1.71859   1.72468   1.75349
 Alpha virt. eigenvalues --    1.76598   1.77480   1.78377   1.78733   1.79768
 Alpha virt. eigenvalues --    1.81513   1.82872   1.83519   1.84639   1.87010
 Alpha virt. eigenvalues --    1.87571   1.88910   1.89797   1.90666   1.92117
 Alpha virt. eigenvalues --    1.93612   1.94682   1.96630   1.97026   1.97940
 Alpha virt. eigenvalues --    1.99098   2.00008   2.01739   2.04241   2.06264
 Alpha virt. eigenvalues --    2.09626   2.10342   2.10650   2.11049   2.12054
 Alpha virt. eigenvalues --    2.13033   2.13329   2.13631   2.13752   2.14837
 Alpha virt. eigenvalues --    2.15137   2.16945   2.20826   2.21958   2.22577
 Alpha virt. eigenvalues --    2.24630   2.26800   2.27125   2.28599   2.28636
 Alpha virt. eigenvalues --    2.30057   2.31180   2.31810   2.32620   2.34974
 Alpha virt. eigenvalues --    2.43501   2.50573   2.52571   2.53523   2.53740
 Alpha virt. eigenvalues --    2.56864   2.57237   2.58153   2.60228   2.62181
 Alpha virt. eigenvalues --    2.63139   2.65053   2.66146   2.66421   2.69965
 Alpha virt. eigenvalues --    2.71266   2.71337   2.72240   2.74030   2.74561
 Alpha virt. eigenvalues --    2.75222   2.77256   2.78257   2.82618   2.86760
 Alpha virt. eigenvalues --    2.89459   2.90987   3.01541   3.02835   3.05196
 Alpha virt. eigenvalues --    3.13457   3.26971   3.37068   3.42851   3.76581
 Alpha virt. eigenvalues --    3.81487   3.99883   4.03305   4.07097   4.07725
 Alpha virt. eigenvalues --    4.09404   4.09534   4.10830   4.10881   4.14638
 Alpha virt. eigenvalues --    4.20314   4.23663   4.31322   4.31514   4.35333
 Alpha virt. eigenvalues --    4.36965   4.40736   4.56752   4.65641   4.74128
          Condensed to atoms (all electrons):
               1          2          3          4          5          6
     1  O    8.263390   0.447881  -0.053086   0.001212   0.000005   0.000000
     2  S    0.447881  13.646169   0.123262  -0.012229   0.006488  -0.000259
     3  N   -0.053086   0.123262   7.434390   0.235153  -0.078093   0.005579
     4  C    0.001212  -0.012229   0.235153   4.468287   0.416806  -0.039908
     5  N    0.000005   0.006488  -0.078093   0.416806   6.946841   0.110592
     6  O    0.000000  -0.000259   0.005579  -0.039908   0.110592   8.217936
     7  C    0.000000   0.000256  -0.000833  -0.016980  -0.082680   0.244608
     8  C   -0.000000  -0.000007  -0.000212   0.002739   0.004282  -0.037801
     9  C   -0.000000   0.000000   0.000003   0.000596  -0.000103   0.003130
    10  C   -0.000000  -0.000000   0.000000  -0.000006   0.000001  -0.000061
    11  C    0.000000  -0.000000   0.000000   0.000000  -0.000000   0.000002
    12  C   -0.000000  -0.000000  -0.000000   0.000005   0.000000   0.000286
    13  C    0.000000  -0.000000  -0.000001  -0.000353   0.000149  -0.006949
    14  C   -0.000058   0.000934  -0.050914   0.451287  -0.046550  -0.089329
    15  C   -0.058676   0.199695  -0.062855   0.002391  -0.003047   0.000009
    16  C    0.003023  -0.022511  -0.000667   0.000135   0.000056  -0.000000
    17  C    0.000423   0.002829  -0.000111  -0.000013  -0.000001  -0.000000
    18  C   -0.000005  -0.000284   0.000004   0.000005   0.000003   0.000000
    19  C   -0.000041   0.002608  -0.000071  -0.000004  -0.000154   0.000002
    20  C    0.000958  -0.025061  -0.001698   0.000730   0.001083  -0.000064
    21  O   -0.041257   0.421619  -0.048172  -0.003219   0.001170   0.000048
    22  H    0.002230  -0.006231   0.295897  -0.017229   0.002672  -0.000050
    23  H   -0.000000  -0.000000  -0.000001   0.000071  -0.000005   0.000023
    24  H    0.000000   0.000000  -0.000000  -0.000000  -0.000000   0.000000
    25  H    0.000000  -0.000000  -0.000000  -0.000000   0.000000   0.000000
    26  H    0.000000   0.000000   0.000000  -0.000000   0.000000  -0.000003
    27  H   -0.000000  -0.000000  -0.000000   0.000054  -0.000258   0.009954
    28  H   -0.000000  -0.000131  -0.002146  -0.027382   0.004926   0.003341
    29  H    0.006340  -0.001310   0.000132   0.000021  -0.000001  -0.000000
    30  H    0.000001  -0.000062   0.000002  -0.000000  -0.000000   0.000000
    31  H   -0.000000   0.000008  -0.000000  -0.000000   0.000000  -0.000000
    32  H    0.000000  -0.000065   0.000001  -0.000001  -0.000009   0.000000
    33  H    0.000055  -0.003923   0.000165  -0.000055   0.002983  -0.000038
               7          8          9         10         11         12
     1  O    0.000000  -0.000000  -0.000000  -0.000000   0.000000  -0.000000
     2  S    0.000256  -0.000007   0.000000  -0.000000  -0.000000  -0.000000
     3  N   -0.000833  -0.000212   0.000003   0.000000   0.000000  -0.000000
     4  C   -0.016980   0.002739   0.000596  -0.000006   0.000000   0.000005
     5  N   -0.082680   0.004282  -0.000103   0.000001  -0.000000   0.000000
     6  O    0.244608  -0.037801   0.003130  -0.000061   0.000002   0.000286
     7  C    4.719103   0.348572  -0.042938   0.006360   0.000868   0.004722
     8  C    0.348572   4.785454   0.536642  -0.011061  -0.033867  -0.009874
     9  C   -0.042938   0.536642   5.013718   0.517791  -0.040136  -0.041403
    10  C    0.006360  -0.011061   0.517791   4.883714   0.539732  -0.026066
    11  C    0.000868  -0.033867  -0.040136   0.539732   4.874958   0.538029
    12  C    0.004722  -0.009874  -0.041403  -0.026066   0.538029   4.891634
    13  C   -0.041289   0.472095  -0.081976  -0.042141  -0.038064   0.506378
    14  C    0.508528  -0.057651  -0.019819   0.000214   0.000015  -0.000229
    15  C   -0.000007  -0.000000  -0.000000   0.000000   0.000000  -0.000000
    16  C   -0.000000  -0.000000  -0.000000  -0.000000   0.000000   0.000000
    17  C   -0.000000  -0.000000   0.000000  -0.000000  -0.000000  -0.000000
    18  C   -0.000000   0.000000   0.000000  -0.000000  -0.000000  -0.000000
    19  C    0.000001   0.000000  -0.000000   0.000000   0.000000   0.000000
    20  C    0.000020   0.000000   0.000000  -0.000000  -0.000000  -0.000000
    21  O   -0.000011  -0.000000   0.000000   0.000000  -0.000000   0.000000
    22  H    0.000007  -0.000000  -0.000000  -0.000000  -0.000000  -0.000000
    23  H   -0.012320  -0.036848   0.357496  -0.041508   0.004488   0.000162
    24  H   -0.000204   0.003220  -0.037462   0.363168  -0.040742   0.004378
    25  H    0.000003   0.000480   0.004802  -0.041623   0.364713  -0.041375
    26  H   -0.000173   0.003232   0.000767   0.004397  -0.040887   0.363693
    27  H   -0.013034  -0.042974   0.005311   0.000195   0.004545  -0.040870
    28  H   -0.027155  -0.003227   0.001157   0.000082  -0.000001   0.000001
    29  H   -0.000000   0.000000  -0.000000  -0.000000   0.000000   0.000000
    30  H   -0.000000   0.000000  -0.000000   0.000000   0.000000   0.000000
    31  H   -0.000000  -0.000000   0.000000   0.000000  -0.000000   0.000000
    32  H    0.000000   0.000000  -0.000000   0.000000   0.000000   0.000000
    33  H    0.000009   0.000000   0.000000  -0.000000   0.000000  -0.000000
              13         14         15         16         17         18
     1  O    0.000000  -0.000058  -0.058676   0.003023   0.000423  -0.000005
     2  S   -0.000000   0.000934   0.199695  -0.022511   0.002829  -0.000284
     3  N   -0.000001  -0.050914  -0.062855  -0.000667  -0.000111   0.000004
     4  C   -0.000353   0.451287   0.002391   0.000135  -0.000013   0.000005
     5  N    0.000149  -0.046550  -0.003047   0.000056  -0.000001   0.000003
     6  O   -0.006949  -0.089329   0.000009  -0.000000  -0.000000   0.000000
     7  C   -0.041289   0.508528  -0.000007  -0.000000  -0.000000  -0.000000
     8  C    0.472095  -0.057651  -0.000000  -0.000000  -0.000000   0.000000
     9  C   -0.081976  -0.019819  -0.000000  -0.000000   0.000000   0.000000
    10  C   -0.042141   0.000214   0.000000  -0.000000  -0.000000  -0.000000
    11  C   -0.038064   0.000015   0.000000   0.000000  -0.000000  -0.000000
    12  C    0.506378  -0.000229  -0.000000   0.000000  -0.000000  -0.000000
    13  C    5.058665   0.011798   0.000000   0.000000   0.000000   0.000000
    14  C    0.011798   5.234701  -0.000124  -0.000022  -0.000000  -0.000000
    15  C    0.000000  -0.000124   5.344974   0.472565  -0.028195  -0.038585
    16  C    0.000000  -0.000022   0.472565   4.942475   0.514331  -0.031549
    17  C    0.000000  -0.000000  -0.028195   0.514331   4.882912   0.536564
    18  C    0.000000  -0.000000  -0.038585  -0.031549   0.536564   4.857008
    19  C   -0.000000  -0.000000  -0.029784  -0.037244  -0.030519   0.539603
    20  C   -0.000000   0.000027   0.496062  -0.036238  -0.037579  -0.031971
    21  O    0.000000   0.000012  -0.056531   0.001739  -0.000044  -0.000004
    22  H    0.000000  -0.004695  -0.000012   0.000268   0.000015  -0.000000
    23  H    0.005596   0.005810  -0.000000  -0.000000  -0.000000   0.000000
    24  H    0.000789  -0.000001  -0.000000   0.000000   0.000000   0.000000
    25  H    0.004667  -0.000000   0.000000   0.000000  -0.000000   0.000000
    26  H   -0.037531   0.000001  -0.000000   0.000000   0.000000  -0.000000
    27  H    0.362933   0.000265   0.000000   0.000000  -0.000000   0.000000
    28  H   -0.000101   0.354493   0.000003   0.000001   0.000000  -0.000000
    29  H   -0.000000   0.000002  -0.051026   0.364657  -0.032878   0.004192
    30  H   -0.000000  -0.000000   0.004788  -0.040815   0.367257  -0.040007
    31  H    0.000000   0.000000   0.000457   0.004850  -0.040925   0.365613
    32  H   -0.000000  -0.000000   0.004777   0.000615   0.004257  -0.040219
    33  H   -0.000000   0.000009  -0.047502   0.004451   0.000229   0.004224
              19         20         21         22         23         24
     1  O   -0.000041   0.000958  -0.041257   0.002230  -0.000000   0.000000
     2  S    0.002608  -0.025061   0.421619  -0.006231  -0.000000   0.000000
     3  N   -0.000071  -0.001698  -0.048172   0.295897  -0.000001  -0.000000
     4  C   -0.000004   0.000730  -0.003219  -0.017229   0.000071  -0.000000
     5  N   -0.000154   0.001083   0.001170   0.002672  -0.000005  -0.000000
     6  O    0.000002  -0.000064   0.000048  -0.000050   0.000023   0.000000
     7  C    0.000001   0.000020  -0.000011   0.000007  -0.012320  -0.000204
     8  C    0.000000   0.000000  -0.000000  -0.000000  -0.036848   0.003220
     9  C   -0.000000   0.000000   0.000000  -0.000000   0.357496  -0.037462
    10  C    0.000000  -0.000000   0.000000  -0.000000  -0.041508   0.363168
    11  C    0.000000  -0.000000  -0.000000  -0.000000   0.004488  -0.040742
    12  C    0.000000  -0.000000   0.000000  -0.000000   0.000162   0.004378
    13  C   -0.000000  -0.000000   0.000000   0.000000   0.005596   0.000789
    14  C   -0.000000   0.000027   0.000012  -0.004695   0.005810  -0.000001
    15  C   -0.029784   0.496062  -0.056531  -0.000012  -0.000000  -0.000000
    16  C   -0.037244  -0.036238   0.001739   0.000268  -0.000000   0.000000
    17  C   -0.030519  -0.037579  -0.000044   0.000015  -0.000000   0.000000
    18  C    0.539603  -0.031971  -0.000004  -0.000000   0.000000   0.000000
    19  C    4.887537   0.508610   0.000501   0.000002   0.000000  -0.000000
    20  C    0.508610   4.926705   0.002447  -0.000009   0.000000   0.000000
    21  O    0.000501   0.002447   8.279718   0.001245   0.000000  -0.000000
    22  H    0.000002  -0.000009   0.001245   0.290981   0.000000   0.000000
    23  H    0.000000   0.000000   0.000000   0.000000   0.554940  -0.004877
    24  H   -0.000000   0.000000  -0.000000   0.000000  -0.004877   0.557196
    25  H    0.000000  -0.000000  -0.000000   0.000000  -0.000154  -0.005116
    26  H   -0.000000   0.000000   0.000000   0.000000   0.000015  -0.000162
    27  H    0.000000  -0.000000   0.000000   0.000000  -0.000138   0.000015
    28  H    0.000000  -0.000001   0.000001   0.001717   0.001840  -0.000002
    29  H    0.000307   0.004215   0.000072   0.000115  -0.000000   0.000000
    30  H    0.004260   0.000605   0.000000  -0.000000   0.000000  -0.000000
    31  H   -0.040824   0.004791  -0.000000  -0.000000   0.000000   0.000000
    32  H    0.367413  -0.040808   0.000002   0.000000  -0.000000  -0.000000
    33  H   -0.033619   0.362486   0.009160  -0.000008  -0.000000   0.000000
              25         26         27         28         29         30
     1  O    0.000000   0.000000  -0.000000  -0.000000   0.006340   0.000001
     2  S   -0.000000   0.000000  -0.000000  -0.000131  -0.001310  -0.000062
     3  N   -0.000000   0.000000  -0.000000  -0.002146   0.000132   0.000002
     4  C   -0.000000  -0.000000   0.000054  -0.027382   0.000021  -0.000000
     5  N    0.000000   0.000000  -0.000258   0.004926  -0.000001  -0.000000
     6  O    0.000000  -0.000003   0.009954   0.003341  -0.000000   0.000000
     7  C    0.000003  -0.000173  -0.013034  -0.027155  -0.000000  -0.000000
     8  C    0.000480   0.003232  -0.042974  -0.003227   0.000000   0.000000
     9  C    0.004802   0.000767   0.005311   0.001157  -0.000000  -0.000000
    10  C   -0.041623   0.004397   0.000195   0.000082  -0.000000   0.000000
    11  C    0.364713  -0.040887   0.004545  -0.000001   0.000000   0.000000
    12  C   -0.041375   0.363693  -0.040870   0.000001   0.000000   0.000000
    13  C    0.004667  -0.037531   0.362933  -0.000101  -0.000000  -0.000000
    14  C   -0.000000   0.000001   0.000265   0.354493   0.000002  -0.000000
    15  C    0.000000  -0.000000   0.000000   0.000003  -0.051026   0.004788
    16  C    0.000000   0.000000   0.000000   0.000001   0.364657  -0.040815
    17  C   -0.000000   0.000000  -0.000000   0.000000  -0.032878   0.367257
    18  C    0.000000  -0.000000   0.000000  -0.000000   0.004192  -0.040007
    19  C    0.000000  -0.000000   0.000000   0.000000   0.000307   0.004260
    20  C   -0.000000   0.000000  -0.000000  -0.000001   0.004215   0.000605
    21  O   -0.000000   0.000000   0.000000   0.000001   0.000072   0.000000
    22  H    0.000000   0.000000   0.000000   0.001717   0.000115  -0.000000
    23  H   -0.000154   0.000015  -0.000138   0.001840  -0.000000   0.000000
    24  H   -0.005116  -0.000162   0.000015  -0.000002   0.000000  -0.000000
    25  H    0.560019  -0.005088  -0.000150  -0.000000   0.000000  -0.000000
    26  H   -0.005088   0.557203  -0.004913   0.000000  -0.000000  -0.000000
    27  H   -0.000150  -0.004913   0.553675  -0.000008  -0.000000   0.000000
    28  H   -0.000000   0.000000  -0.000008   0.497523  -0.000000  -0.000000
    29  H    0.000000  -0.000000  -0.000000  -0.000000   0.524889  -0.005206
    30  H   -0.000000  -0.000000   0.000000  -0.000000  -0.005206   0.543689
    31  H   -0.000000   0.000000  -0.000000  -0.000000  -0.000141  -0.005099
    32  H    0.000000  -0.000000   0.000000   0.000000   0.000014  -0.000154
    33  H   -0.000000   0.000000  -0.000000  -0.000000  -0.000139   0.000013
              31         32         33
     1  O   -0.000000   0.000000   0.000055
     2  S    0.000008  -0.000065  -0.003923
     3  N   -0.000000   0.000001   0.000165
     4  C   -0.000000  -0.000001  -0.000055
     5  N    0.000000  -0.000009   0.002983
     6  O   -0.000000   0.000000  -0.000038
     7  C   -0.000000   0.000000   0.000009
     8  C   -0.000000   0.000000   0.000000
     9  C    0.000000  -0.000000   0.000000
    10  C    0.000000   0.000000  -0.000000
    11  C   -0.000000   0.000000   0.000000
    12  C    0.000000   0.000000  -0.000000
    13  C    0.000000  -0.000000  -0.000000
    14  C    0.000000  -0.000000   0.000009
    15  C    0.000457   0.004777  -0.047502
    16  C    0.004850   0.000615   0.004451
    17  C   -0.040925   0.004257   0.000229
    18  C    0.365613  -0.040219   0.004224
    19  C   -0.040824   0.367413  -0.033619
    20  C    0.004791  -0.040808   0.362486
    21  O   -0.000000   0.000002   0.009160
    22  H   -0.000000   0.000000  -0.000008
    23  H    0.000000  -0.000000  -0.000000
    24  H    0.000000  -0.000000   0.000000
    25  H   -0.000000   0.000000  -0.000000
    26  H    0.000000  -0.000000   0.000000
    27  H   -0.000000   0.000000  -0.000000
    28  H   -0.000000   0.000000  -0.000000
    29  H   -0.000141   0.000014  -0.000139
    30  H   -0.005099  -0.000154   0.000013
    31  H    0.546889  -0.005160  -0.000136
    32  H   -0.005160   0.543867  -0.005073
    33  H   -0.000136  -0.005073   0.521417
 Mulliken charges:
               1
     1  O   -0.572395
     2  S    1.220325
     3  N   -0.795727
     4  C    0.537888
     5  N   -0.287155
     6  O   -0.421048
     7  C    0.404570
     8  C    0.076806
     9  C   -0.177576
    10  C   -0.153186
    11  C   -0.133654
    12  C   -0.149470
    13  C   -0.174664
    14  C   -0.298704
    15  C   -0.149377
    16  C   -0.140120
    17  C   -0.138552
    18  C   -0.124591
    19  C   -0.138586
    20  C   -0.135311
    21  O   -0.568494
    22  H    0.433085
    23  H    0.165410
    24  H    0.159800
    25  H    0.158821
    26  H    0.159448
    27  H    0.165398
    28  H    0.195071
    29  H    0.185744
    30  H    0.170729
    31  H    0.169678
    32  H    0.170544
    33  H    0.185294
 Sum of Mulliken charges =  -0.00000
 Mulliken charges with hydrogens summed into heavy atoms:
               1
     1  O   -0.572395
     2  S    1.220325
     3  N   -0.362642
     4  C    0.537888
     5  N   -0.287155
     6  O   -0.421048
     7  C    0.404570
     8  C    0.076806
     9  C   -0.012166
    10  C    0.006614
    11  C    0.025167
    12  C    0.009978
    13  C   -0.009267
    14  C   -0.103634
    15  C   -0.149377
    16  C    0.045625
    17  C    0.032176
    18  C    0.045087
    19  C    0.031958
    20  C    0.049983
    21  O   -0.568494
 Electronic spatial extent (au):  <R**2>=           8447.9355
 Charge=             -0.0000 electrons
 Dipole moment (field-independent basis, Debye):
    X=             -5.0442    Y=              5.3679    Z=              6.8804  Tot=             10.0796
 Quadrupole moment (field-independent basis, Debye-Ang):
   XX=           -114.5240   YY=           -124.1521   ZZ=           -118.7567
   XY=             20.4462   XZ=              4.1562   YZ=            -10.3699
 Traceless Quadrupole moment (field-independent basis, Debye-Ang):
   XX=              4.6203   YY=             -5.0079   ZZ=              0.3876
   XY=             20.4462   XZ=              4.1562   YZ=            -10.3699
 Octapole moment (field-independent basis, Debye-Ang**2):
  XXX=           -174.9411  YYY=             39.0350  ZZZ=             24.5276  XYY=             14.1305
  XXY=            100.7286  XXZ=             34.7798  XZZ=             -3.4158  YZZ=              6.5661
  YYZ=              7.0041  XYZ=             15.0613
 Hexadecapole moment (field-independent basis, Debye-Ang**3):
 XXXX=          -8150.8234 YYYY=          -1540.3703 ZZZZ=           -780.8169 XXXY=              5.8863
 XXXZ=            -31.2438 YYYX=            172.1622 YYYZ=            -14.7163 ZZZX=             36.1332
 ZZZY=            -44.2071 XXYY=          -1775.0456 XXZZ=          -1482.4738 YYZZ=           -382.8587
 XXYZ=            -36.8577 YYXZ=             33.7826 ZZXY=             43.3539
 N-N= 1.710379040034D+03 E-N=-6.492459668586D+03  KE= 1.302069886783D+03
 No NMR shielding tensors so no spin-rotation constants.
 Leave Link  601 at Tue Sep 22 20:04:26 2020, MaxMem=  2147483648 cpu:               0.4 elap:               0.1
 (Enter /prod/apps/gaussian/g16b1/l701.exe)
 ... and contract with generalized density number  0.
 Compute integral first derivatives.
 D1PCM: PCM CHGder 1st derivatives, ID1Alg=3 FixD1E=F DoIter=F DoCFld=F I1PDM=0.
 GePol: Maximum number of non-zero 1st derivatives   =     179
 Leave Link  701 at Tue Sep 22 20:04:28 2020, MaxMem=  2147483648 cpu:              10.7 elap:               2.7
 (Enter /prod/apps/gaussian/g16b1/l702.exe)
 L702 exits ... SP integral derivatives will be done elsewhere.
 Leave Link  702 at Tue Sep 22 20:04:28 2020, MaxMem=  2147483648 cpu:               0.1 elap:               0.0
 (Enter /prod/apps/gaussian/g16b1/l703.exe)
 Integral derivatives from FoFJK, PRISM(SPDF).
 Compute integral first derivatives, UseDBF=F ICtDFT=           0.
 Calling FoFJK, ICntrl=      2127 FMM=F ISym2X=0 I1Cent= 0 IOpClX= 0 NMat=1 NMatS=1 NMatT=0.
 FoFJK:  IHMeth= 1 ICntrl=    2127 DoSepK=F KAlg= 0 I1Cent=           0 FoldK=F
 IRaf=         0 NMat=       1 IRICut=       1 DoRegI=T DoRafI=F ISym2E= 0 IDoP0=0 IntGTp=1.
 FoFCou: FMM=F IPFlag=           0 FMFlag=      100000 FMFlg1=         800
         NFxFlg=           0 DoJE=F BraDBF=F KetDBF=F FulRan=T
         wScrn=  0.000000 ICntrl=      2127 IOpCl=  0 I1Cent=           0 NGrid=           0
         NMat0=    1 NMatS0=      1 NMatT0=    0 NMatD0=    1 NMtDS0=    0 NMtDT0=    0
 Symmetry not used in FoFCou.
 Leave Link  703 at Tue Sep 22 20:04:45 2020, MaxMem=  2147483648 cpu:              66.2 elap:              16.6
 (Enter /prod/apps/gaussian/g16b1/l716.exe)
 Dipole        =-1.98454209D+00 2.11189597D+00 2.70697573D+00
 -------------------------------------------------------------------
 Center     Atomic                   Forces (Hartrees/Bohr)
 Number     Number              X              Y              Z
 -------------------------------------------------------------------
      1        8          -0.000496305    0.000536379   -0.000235400
      2       16           0.001428415   -0.001279329   -0.000205337
      3        7          -0.001038706   -0.000079476    0.001182497
      4        6           0.000065813   -0.000222605    0.000327416
      5        7           0.000442309    0.000197418   -0.000969789
      6        8           0.000150739    0.000240797   -0.000414305
      7        6          -0.000681033    0.000416171   -0.000560413
      8        6          -0.000010894    0.000095608   -0.000476784
      9        6           0.000454075   -0.000316696    0.000782518
     10        6          -0.000350555   -0.000106282    0.000390052
     11        6          -0.000117277    0.000187742   -0.000362516
     12        6          -0.001161160    0.000164989    0.000309240
[...]
     4  C   -0.038650  -0.140361  -1.303346  14.016215  -1.291735   0.684136
     5  N    0.009511   0.075847   0.031046  -1.291735   9.432472  -1.205782
     6  O    0.002647  -0.083972  -0.040020   0.684136  -1.205782  10.301553
     7  C    0.006645   0.021392   0.238383  -0.430670  -1.200137  -0.131888
     8  C   -0.001099   0.020136  -0.116312   0.607603   0.431588   0.326573
     9  C    0.000903  -0.004458   0.066457  -0.404770   0.241235  -0.122904
    10  C   -0.000036  -0.000786  -0.018053  -0.015851   0.054511   0.046912
    11  C    0.000009  -0.000054   0.006274  -0.071264  -0.005981  -0.044479
    12  C   -0.000020  -0.000244  -0.008384   0.196712  -0.050207  -0.017129
    13  C    0.000206  -0.006006   0.050540  -0.332195  -0.348989  -0.214756
    14  C    0.046853  -0.167345   0.456774  -6.456552   1.253701  -0.368665
    15  C    0.201260  -0.983520   0.076292   0.288213  -0.125479   0.039801
    16  C    0.014923   0.121368  -0.060774  -0.317340   0.047953  -0.020054
    17  C   -0.006121  -0.443093  -0.041378   0.209039  -0.031425   0.011685
    18  C   -0.010583   0.194110   0.033814  -0.135830   0.032143  -0.009161
    19  C    0.009117  -0.276820  -0.009261   0.150469  -0.023588   0.006266
    20  C   -0.035437  -0.080579  -0.044400  -0.176605   0.053893  -0.004978
    21  O    0.026733  -0.392153   0.058009   0.120951  -0.048850  -0.003693
    22  H   -0.011381  -0.004469   0.271423   0.199755  -0.038563   0.010979
    23  H    0.000238   0.000457   0.001996   0.067635  -0.006701   0.007431
    24  H   -0.000003  -0.000060  -0.000764   0.003151   0.001675   0.001423
    25  H    0.000000  -0.000006   0.000187  -0.002352   0.000139  -0.000439
    26  H   -0.000001  -0.000032  -0.000485   0.002900  -0.002486   0.004539
    27  H    0.000054  -0.000079   0.004861  -0.008225  -0.028195  -0.097369
    28  H   -0.002015   0.003417  -0.077053   0.648057  -0.079890   0.000466
    29  H    0.005264  -0.107130  -0.046720   0.047676   0.003953  -0.001140
    30  H   -0.000210   0.008544  -0.001177   0.005998  -0.001105   0.000496
    31  H   -0.000155   0.001572   0.001639  -0.003603   0.000762  -0.000364
    32  H    0.000826   0.003418  -0.001160   0.000632   0.002208  -0.000197
    33  H    0.006993  -0.114649  -0.013483   0.025073  -0.000842   0.005130
               7          8          9         10         11         12
     1  O    0.006645  -0.001099   0.000903  -0.000036   0.000009  -0.000020
     2  S    0.021392   0.020136  -0.004458  -0.000786  -0.000054  -0.000244
     3  N    0.238383  -0.116312   0.066457  -0.018053   0.006274  -0.008384
     4  C   -0.430670   0.607603  -0.404770  -0.015851  -0.071264   0.196712
     5  N   -1.200137   0.431588   0.241235   0.054511  -0.005981  -0.050207
     6  O   -0.131888   0.326573  -0.122904   0.046912  -0.044479  -0.017129
     7  C   19.940385  -5.016974  -0.657410  -0.705556   0.483157  -0.432737
     8  C   -5.016974  19.515011  -7.031174   2.318811  -3.632438   1.600373
     9  C   -0.657410  -7.031174  21.610161  -6.716465   3.604414  -3.383803
    10  C   -0.705556   2.318811  -6.716465  14.061568  -3.338643   3.635900
    11  C    0.483157  -3.632438   3.604414  -3.338643   9.252256  -3.025139
    12  C   -0.432737   1.600373  -3.383803   3.635900  -3.025139  11.795000
    13  C    0.165374  -5.955031  -0.037004  -3.362063   2.697464  -4.305079
    14  C   -7.372218   0.666101  -1.367133   0.613820  -0.307297   0.066116
    15  C    0.015360   0.005359   0.002812   0.000382   0.000022  -0.001221
    16  C    0.030558  -0.021009  -0.001817   0.000209  -0.000090   0.000358
    17  C   -0.053947   0.015862   0.000746   0.000531  -0.000036  -0.000454
    18  C    0.018349  -0.010772  -0.001187  -0.000337   0.000055   0.000809
    19  C    0.001398   0.011721   0.004320   0.000093   0.000312  -0.001471
    20  C    0.039140  -0.020854  -0.007483  -0.000501  -0.000443   0.002841
    21  O   -0.064624   0.004822  -0.000304   0.000095  -0.000045   0.000074
    22  H   -0.040445   0.010245  -0.005124  -0.001863  -0.000609   0.002018
    23  H   -0.132473   0.885118  -1.261213   0.231264  -0.125427   0.083665
    24  H   -0.045065  -0.142005   0.930565  -0.984398   0.300065  -0.262928
    25  H   -0.009891   0.031978  -0.083900   0.271284  -0.535926   0.359908
    26  H   -0.000724  -0.134043   0.079794  -0.219434   0.301862  -0.761560
    27  H    0.242522   0.293755  -0.072348   0.041277  -0.085722   0.307131
    28  H    0.901305  -0.046827  -0.015955   0.060782  -0.028925   0.014287
    29  H    0.005764  -0.001487   0.000099  -0.000095   0.000023  -0.000017
    30  H   -0.000581   0.000410  -0.000053   0.000028  -0.000003  -0.000017
    31  H    0.000263  -0.000477  -0.000098  -0.000013  -0.000002   0.000076
    32  H   -0.003369   0.002030   0.000051   0.000067  -0.000039  -0.000315
    33  H    0.031627  -0.006161  -0.000736  -0.000160  -0.000088   0.001247
              13         14         15         16         17         18
     1  O    0.000206   0.046853   0.201260   0.014923  -0.006121  -0.010583
     2  S   -0.006006  -0.167345  -0.983520   0.121368  -0.443093   0.194110
     3  N    0.050540   0.456774   0.076292  -0.060774  -0.041378   0.033814
     4  C   -0.332195  -6.456552   0.288213  -0.317340   0.209039  -0.135830
     5  N   -0.348989   1.253701  -0.125479   0.047953  -0.031425   0.032143
     6  O   -0.214756  -0.368665   0.039801  -0.020054   0.011685  -0.009161
     7  C    0.165374  -7.372218   0.015360   0.030558  -0.053947   0.018349
     8  C   -5.955031   0.666101   0.005359  -0.021009   0.015862  -0.010772
     9  C   -0.037004  -1.367133   0.002812  -0.001817   0.000746  -0.001187
    10  C   -3.362063   0.613820   0.000382   0.000209   0.000531  -0.000337
    11  C    2.697464  -0.307297   0.000022  -0.000090  -0.000036   0.000055
    12  C   -4.305079   0.066116  -0.001221   0.000358  -0.000454   0.000809
    13  C   19.107216  -1.703423  -0.002766   0.003615  -0.004540   0.004394
    14  C   -1.703423  20.807780  -0.146832   0.096573  -0.025101   0.020780
    15  C   -0.002766  -0.146832  15.255138  -6.241459   2.836470  -3.936525
    16  C    0.003615   0.096573  -6.241459  17.289102  -4.243928   3.641263
    17  C   -0.004540  -0.025101   2.836470  -4.243928  11.068450  -3.510144
    18  C    0.004394   0.020780  -3.936525   3.641263  -3.510144   9.744474
    19  C   -0.001878  -0.032291   2.618039  -4.332522   3.743447  -3.562913
    20  C    0.007187  -0.026085  -6.055104   0.975843  -4.015039   3.360094
    21  O   -0.002074   0.022299   0.319665  -0.077780   0.039264  -0.029823
    22  H   -0.006758  -0.126346  -0.017964  -0.021562   0.009044  -0.001304
    23  H   -0.128248   0.152582   0.002377  -0.001557  -0.000384  -0.000132
    24  H    0.108422   0.049489  -0.000060   0.000034   0.000016   0.000005
    25  H   -0.064250   0.001109   0.000005  -0.000006   0.000000  -0.000000
    26  H    0.674063   0.004365   0.000013  -0.000008   0.000001  -0.000007
    27  H   -0.807793  -0.034418  -0.000786   0.000193  -0.000152   0.000598
    28  H    0.022365  -1.751390  -0.002600   0.008865   0.002781   0.000036
    29  H    0.000623  -0.008022   0.751698  -1.142931   0.343275  -0.205070
    30  H   -0.000142  -0.003296  -0.163087   0.506199  -0.729815   0.392188
    31  H    0.000221   0.001291   0.112334  -0.149761   0.372027  -0.631028
    32  H   -0.000840   0.001033  -0.198214   0.149460  -0.259996   0.377227
    33  H   -0.000053  -0.002785   0.581617  -0.145808   0.128919  -0.204616
              19         20         21         22         23         24
     1  O    0.009117  -0.035437   0.026733  -0.011381   0.000238  -0.000003
     2  S   -0.276820  -0.080579  -0.392153  -0.004469   0.000457  -0.000060
     3  N   -0.009261  -0.044400   0.058009   0.271423   0.001996  -0.000764
     4  C    0.150469  -0.176605   0.120951   0.199755   0.067635   0.003151
     5  N   -0.023588   0.053893  -0.048850  -0.038563  -0.006701   0.001675
     6  O    0.006266  -0.004978  -0.003693   0.010979   0.007431   0.001423
     7  C    0.001398   0.039140  -0.064624  -0.040445  -0.132473  -0.045065
     8  C    0.011721  -0.020854   0.004822   0.010245   0.885118  -0.142005
     9  C    0.004320  -0.007483  -0.000304  -0.005124  -1.261213   0.930565
    10  C    0.000093  -0.000501   0.000095  -0.001863   0.231264  -0.984398
    11  C    0.000312  -0.000443  -0.000045  -0.000609  -0.125427   0.300065
    12  C   -0.001471   0.002841   0.000074   0.002018   0.083665  -0.262928
    13  C   -0.001878   0.007187  -0.002074  -0.006758  -0.128248   0.108422
    14  C   -0.032291  -0.026085   0.022299  -0.126346   0.152582   0.049489
    15  C    2.618039  -6.055104   0.319665  -0.017964   0.002377  -0.000060
    16  C   -4.332522   0.975843  -0.077780  -0.021562  -0.001557   0.000034
    17  C    3.743447  -4.015039   0.039264   0.009044  -0.000384   0.000016
    18  C   -3.562913   3.360094  -0.029823  -0.001304  -0.000132   0.000005
    19  C   11.415108  -4.151449  -0.024641   0.001498   0.000465  -0.000018
    20  C   -4.151449  16.629942  -0.053404  -0.004424  -0.000932   0.000045
    21  O   -0.024641  -0.053404   9.294987   0.005660  -0.000264   0.000009
    22  H    0.001498  -0.004424   0.005660   0.842558  -0.000386   0.000004
    23  H    0.000465  -0.000932  -0.000264  -0.000386   2.002428  -0.074620
    24  H   -0.000018   0.000045   0.000009   0.000004  -0.074620   1.663205
    25  H    0.000019  -0.000025  -0.000002  -0.000010  -0.017511  -0.051650
    26  H   -0.000108   0.000139   0.000016   0.000039   0.008975  -0.020238
    27  H    0.002482  -0.002196  -0.000933  -0.000731  -0.014643   0.006616
    28  H   -0.000381   0.001122  -0.000193   0.008609  -0.088371  -0.001875
    29  H    0.139635  -0.107833   0.007537   0.007288  -0.000059  -0.000003
    30  H   -0.252753   0.141014   0.001076   0.001247   0.000012  -0.000001
    31  H    0.375536  -0.124874  -0.000476  -0.000030  -0.000010   0.000001
    32  H   -0.765267   0.592108   0.000456   0.000064  -0.000009   0.000000
    33  H    0.379346  -1.015455  -0.019853  -0.003799  -0.000165   0.000002
              25         26         27         28         29         30
     1  O    0.000000  -0.000001   0.000054  -0.002015   0.005264  -0.000210
     2  S   -0.000006  -0.000032  -0.000079   0.003417  -0.107130   0.008544
     3  N    0.000187  -0.000485   0.004861  -0.077053  -0.046720  -0.001177
     4  C   -0.002352   0.002900  -0.008225   0.648057   0.047676   0.005998
     5  N    0.000139  -0.002486  -0.028195  -0.079890   0.003953  -0.001105
     6  O   -0.000439   0.004539  -0.097369   0.000466  -0.001140   0.000496
     7  C   -0.009891  -0.000724   0.242522   0.901305   0.005764  -0.000581
     8  C    0.031978  -0.134043   0.293755  -0.046827  -0.001487   0.000410
     9  C   -0.083900   0.079794  -0.072348  -0.015955   0.000099  -0.000053
    10  C    0.271284  -0.219434   0.041277   0.060782  -0.000095   0.000028
    11  C   -0.535926   0.301862  -0.085722  -0.028925   0.000023  -0.000003
    12  C    0.359908  -0.761560   0.307131   0.014287  -0.000017  -0.000017
    13  C   -0.064250   0.674063  -0.807793   0.022365   0.000623  -0.000142
    14  C    0.001109   0.004365  -0.034418  -1.751390  -0.008022  -0.003296
    15  C    0.000005   0.000013  -0.000786  -0.002600   0.751698  -0.163087
    16  C   -0.000006  -0.000008   0.000193   0.008865  -1.142931   0.506199
    17  C    0.000000   0.000001  -0.000152   0.002781   0.343275  -0.729815
    18  C   -0.000000  -0.000007   0.000598   0.000036  -0.205070   0.392188
    19  C    0.000019  -0.000108   0.002482  -0.000381   0.139635  -0.252753
    20  C   -0.000025   0.000139  -0.002196   0.001122  -0.107833   0.141014
    21  O   -0.000002   0.000016  -0.000933  -0.000193   0.007537   0.001076
    22  H   -0.000010   0.000039  -0.000731   0.008609   0.007288   0.001247
    23  H   -0.017511   0.008975  -0.014643  -0.088371  -0.000059   0.000012
    24  H   -0.051650  -0.020238   0.006616  -0.001875  -0.000003  -0.000001
    25  H    1.602539  -0.057367  -0.011201   0.000375   0.000001  -0.000000
    26  H   -0.057367   1.648910  -0.088555   0.000818  -0.000005   0.000000
    27  H   -0.011201  -0.088555   2.007232  -0.000713   0.000121  -0.000012
    28  H    0.000375   0.000818  -0.000713   2.009269   0.002062  -0.000419
    29  H    0.000001  -0.000005   0.000121   0.002062   2.017557  -0.101191
    30  H   -0.000000   0.000000  -0.000012  -0.000419  -0.101191   1.726561
    31  H   -0.000000   0.000003  -0.000016   0.000034  -0.014409  -0.064858
    32  H    0.000001  -0.000008  -0.000171   0.000094   0.011342  -0.020347
    33  H   -0.000009   0.000057   0.000248   0.002078  -0.017867   0.009641
              31         32         33
     1  O   -0.000155   0.000826   0.006993
     2  S    0.001572   0.003418  -0.114649
     3  N    0.001639  -0.001160  -0.013483
     4  C   -0.003603   0.000632   0.025073
     5  N    0.000762   0.002208  -0.000842
     6  O   -0.000364  -0.000197   0.005130
     7  C    0.000263  -0.003369   0.031627
     8  C   -0.000477   0.002030  -0.006161
     9  C   -0.000098   0.000051  -0.000736
    10  C   -0.000013   0.000067  -0.000160
    11  C   -0.000002  -0.000039  -0.000088
    12  C    0.000076  -0.000315   0.001247
    13  C    0.000221  -0.000840  -0.000053
    14  C    0.001291   0.001033  -0.002785
    15  C    0.112334  -0.198214   0.581617
    16  C   -0.149761   0.149460  -0.145808
    17  C    0.372027  -0.259996   0.128919
    18  C   -0.631028   0.377227  -0.204616
    19  C    0.375536  -0.765267   0.379346
    20  C   -0.124874   0.592108  -1.015455
    21  O   -0.000476   0.000456  -0.019853
    22  H   -0.000030   0.000064  -0.003799
    23  H   -0.000010  -0.000009  -0.000165
    24  H    0.000001   0.000000   0.000002
    25  H   -0.000000   0.000001  -0.000009
    26  H    0.000003  -0.000008   0.000057
    27  H   -0.000016  -0.000171   0.000248
    28  H    0.000034   0.000094   0.002078
    29  H   -0.014409   0.011342  -0.017867
    30  H   -0.064858  -0.020347   0.009641
    31  H    1.639198  -0.064921  -0.012200
    32  H   -0.064921   1.740933  -0.107412
    33  H   -0.012200  -0.107412   2.064836
 Mulliken charges:
               1
     1  O   -1.124124
     2  S    3.057861
     3  N   -0.956540
     4  C   -0.144867
     5  N   -0.182686
     6  O   -1.083050
     7  C    0.157085
     8  C    1.389169
     9  C    0.633782
    10  C    0.026719
    11  C    0.556734
    12  C    0.184207
    13  C    0.442198
    14  C    1.638533
    15  C    0.768760
    16  C   -0.108113
    17  C    0.583993
    18  C    0.429092
    19  C    0.576090
    20  C    0.124730
    21  O   -1.182542
    22  H   -0.084661
    23  H   -0.591537
    24  H   -0.481041
    25  H   -0.432997
    26  H   -0.441435
    27  H   -0.652832
    28  H   -0.590217
    29  H   -0.589942
    30  H   -0.454349
    31  H   -0.437662
    32  H   -0.459685
    33  H   -0.570672
 Sum of Mulliken charges =  -0.00000
 Mulliken charges with hydrogens summed into heavy atoms:
               1
     1  O   -1.124124
     2  S    3.057861
     3  N   -1.041201
     4  C   -0.144867
     5  N   -0.182686
     6  O   -1.083050
     7  C    0.157085
     8  C    1.389169
     9  C    0.042245
    10  C   -0.454323
    11  C    0.123736
    12  C   -0.257228
    13  C   -0.210634
    14  C    1.048316
    15  C    0.768760
    16  C   -0.698055
    17  C    0.129644
    18  C   -0.008570
    19  C    0.116405
    20  C   -0.445942
    21  O   -1.182542
 Electronic spatial extent (au):  <R**2>=           8501.0578
 Charge=             -0.0000 electrons
 Dipole moment (field-independent basis, Debye):
    X=             -4.6569    Y=              4.8415    Z=              4.9381  Tot=              8.3374
 Quadrupole moment (field-independent basis, Debye-Ang):
   XX=           -119.3589   YY=           -130.3690   ZZ=           -124.4727
   XY=             17.5883   XZ=              3.5726   YZ=            -10.2788
 Traceless Quadrupole moment (field-independent basis, Debye-Ang):
   XX=              5.3746   YY=             -5.6354   ZZ=              0.2608
   XY=             17.5883   XZ=              3.5726   YZ=            -10.2788
 Octapole moment (field-independent basis, Debye-Ang**2):
  XXX=           -166.9076  YYY=             30.6253  ZZZ=             15.7478  XYY=             13.8425
  XXY=             94.0948  XXZ=             29.0331  XZZ=             -1.5209  YZZ=              5.0177
  YYZ=              0.9110  XYZ=             19.1421
 Hexadecapole moment (field-independent basis, Debye-Ang**3):
 XXXX=          -8620.6720 YYYY=          -1624.2085 ZZZZ=           -810.1821 XXXY=            -59.0949
 XXXZ=            -25.0984 YYYX=            150.1645 YYYZ=            -13.6161 ZZZX=             37.1199
 ZZZY=            -50.2694 XXYY=          -1880.3109 XXZZ=          -1569.6251 YYZZ=           -404.4468
 XXYZ=            -48.0602 YYXZ=             33.0201 ZZXY=             37.7713
 N-N= 1.708966780899D+03 E-N=-6.487214781386D+03  KE= 1.304537330060D+03
 Leave Link  601 at Tue Sep 22 21:17:14 2020, MaxMem=   262144000 cpu:               0.9 elap:               0.3
 (Enter /prod/apps/gaussian/g16b1/l9999.exe)
 1\1\GINC-PIRINEUS15\SP\RMP2-FC\Aug-CC-pVDZ\C15H12N2O3S1\UBAFAR01\22-Se
 p-2020\0\\#p mp2/aug-cc-pVDZ scf=(MaxCycle=2000,NoVarAcc,NoIncFock) ma
 xdisk=120GB geom=allcheck\\SM42_m0.n.9.pdb.xyz\\0,1\O,0,3.5646455326,-
 2.128935863,0.7682612186\S,0,2.6814819182,-1.3762757658,-0.1287240143\
 N,0,1.13994671,-1.6770935785,0.5022234283\C,0,-0.0354243936,-1.0889528
 897,0.0415463004\N,0,-0.1413763852,-0.549736682,-1.1589068099\O,0,-1.4
 740847713,-0.107148662,-1.2291707603\C,0,-2.115937983,-0.4042311326,-0
 .0736785229\C,0,-3.5195852507,-0.0208757949,0.0360609673\C,0,-4.250616
 294,-0.3516849014,1.1893280591\C,0,-5.5888746568,0.0152038511,1.298397
 6221\C,0,-6.2132675794,0.7134156277,0.2610457173\C,0,-5.4914052129,1.0
 434585587,-0.8882161043\C,0,-4.1520454984,0.6801760888,-1.0032885283\C
 ,0,-1.2490699514,-1.0297004349,0.7774962918\C,0,3.0146039925,0.3666448
 895,0.0651798689\C,0,3.4906900011,0.8245688809,1.296621666\C,0,3.74738
 47469,2.1847766129,1.4507599361\C,0,3.5285609103,3.064750121,0.3867033
 077\C,0,3.0553775734,2.5897889201,-0.8382974362\C,0,2.7932711432,1.230
 7524875,-1.0091283882\O,0,2.6391756582,-1.6845619174,-1.5599815851\H,0
 ,1.1670154945,-1.8681378445,1.50324709\H,0,-3.7715704766,-0.8965384009
 ,1.9953543621\H,0,-6.1451514043,-0.2448720721,2.1924738604\H,0,-7.2564
 751414,0.9977190658,0.3483678455\H,0,-5.9714033333,1.5850816258,-1.696
 0501434\H,0,-3.5895406406,0.9362308385,-1.8931844417\H,0,-1.4301788826
 ,-1.3929371053,1.7753947594\H,0,3.6662631503,0.1283871433,2.1075323429
 \H,0,4.122270497,2.5556830107,2.397942128\H,0,3.7319230279,4.122640014
 4,0.5121500433\H,0,2.8931027828,3.273954606,-1.6633855555\H,0,2.434294
 7165,0.8424507025,-1.9530745248\\Version=ES64L-G16RevB.01\State=1-A\HF
 =-1305.9932839\MP2=-1309.1020641\RMSD=6.926e-09\PG=C01 [X(C15H12N2O3S1
 )]\\@


 IF I AM NOT FOR MYSELF, WHO WILL BE?
 BUT IF I AM ONLY FOR MYSELF, WHAT AM I?
 THOUGH A SEEKER SINCE MY BIRTH,
 HERE IS ALL I'VE LEARNED ON EARTH,
 THIS IS THE GIST OF WHAT I KNOW:
 GIVE ADVICE AND BUY A FOE.

 PRESSED FOR RULES AND VERITIES,
 ALL I RECOLLECT ARE THESE:
 FEED A COLD TO STARVE A FEVER,
 ARGUE WITH NO TRUE-BELIEVER.
 THINK-TOO-LONG IS NEVER-ACT,
 SCRATCH A MYTH AND FIND A FACT.

 STITCH IN TIME SAVES TWENTY STITCHES,
 GIVE THE RICH TO PLEASE THEM, RICHES.
 GIVE TO LOVE YOU HEARTH AND HALL,
 BUT DO NOT GIVE ADVICE AT ALL.

                                  -- HILLEL
 Job cpu time:       0 days  2 hours 57 minutes 56.8 seconds.
 Elapsed time:       0 days  0 hours 49 minutes  2.8 seconds.
 File lengths (MBytes):  RWF= 109771 Int=      0 D2E=      0 Chk=     28 Scr=      1
 Normal termination of Gaussian 16 at Tue Sep 22 21:17:18 2020.
