 Entering Gaussian System, Link 0=g16
 Initial command:
 /prod/apps/gaussian/g16b1/l1.exe "/tmp/ubafar01/1460561/Gau-1377.inp" -scrdir="/tmp/ubafar01/1460561/"
 Entering Link 1 = /prod/apps/gaussian/g16b1/l1.exe PID=      1378.
  
 Copyright (c) 1988-2017, Gaussian, Inc.  All Rights Reserved.
  
 This is part of the Gaussian(R) 16 program.  It is based on
 the Gaussian(R) 09 system (copyright 2009, Gaussian, Inc.),
 the Gaussian(R) 03 system (copyright 2003, Gaussian, Inc.),
 the Gaussian(R) 98 system (copyright 1998, Gaussian, Inc.),
 the Gaussian(R) 94 system (copyright 1995, Gaussian, Inc.),
 the Gaussian 92(TM) system (copyright 1992, Gaussian, Inc.),
 the Gaussian 90(TM) system (copyright 1990, Gaussian, Inc.),
 the Gaussian 88(TM) system (copyright 1988, Gaussian, Inc.),
 the Gaussian 86(TM) system (copyright 1986, Carnegie Mellon
 University), and the Gaussian 82(TM) system (copyright 1983,
 Carnegie Mellon University). Gaussian is a federally registered
 trademark of Gaussian, Inc.
  
 This software contains proprietary and confidential information,
 including trade secrets, belonging to Gaussian, Inc.
  
 This software is provided under written license and may be
 used, copied, transmitted, or stored only in accord with that
 written license.
  
 The following legend is applicable only to US Government
 contracts under FAR:
  
                    RESTRICTED RIGHTS LEGEND
  
 Use, reproduction and disclosure by the US Government is
 subject to restrictions as set forth in subparagraphs (a)
 and (c) of the Commercial Computer Software - Restricted
 Rights clause in FAR 52.227-19.
  
 Gaussian, Inc.
 340 Quinnipiac St., Bldg. 40, Wallingford CT 06492
  
  
 ---------------------------------------------------------------
 Warning -- This program may not be used in any manner that
 competes with the business of Gaussian, Inc. or will provide
 assistance to any competitor of Gaussian, Inc.  The licensee
 of this program is prohibited from giving any competitor of
 Gaussian, Inc. access to this program.  By using this program,
 the user acknowledges that Gaussian, Inc. is engaged in the
 business of creating and licensing software in the field of
 computational chemistry and represents and warrants to the
 licensee that it is not a competitor of Gaussian, Inc. and that
 it will not use this program in any manner prohibited above.
 ---------------------------------------------------------------
  

 Cite this work as:
 Gaussian 16, Revision B.01,
 M. J. Frisch, G. W. Trucks, H. B. Schlegel, G. E. Scuseria, 
 M. A. Robb, J. R. Cheeseman, G. Scalmani, V. Barone, 
 G. A. Petersson, H. Nakatsuji, X. Li, M. Caricato, A. V. Marenich, 
 J. Bloino, B. G. Janesko, R. Gomperts, B. Mennucci, H. P. Hratchian, 
 J. V. Ortiz, A. F. Izmaylov, J. L. Sonnenberg, D. Williams-Young, 
 F. Ding, F. Lipparini, F. Egidi, J. Goings, B. Peng, A. Petrone, 
 T. Henderson, D. Ranasinghe, V. G. Zakrzewski, J. Gao, N. Rega, 
 G. Zheng, W. Liang, M. Hada, M. Ehara, K. Toyota, R. Fukuda, 
 J. Hasegawa, M. Ishida, T. Nakajima, Y. Honda, O. Kitao, H. Nakai, 
 T. Vreven, K. Throssell, J. A. Montgomery, Jr., J. E. Peralta, 
 F. Ogliaro, M. J. Bearpark, J. J. Heyd, E. N. Brothers, K. N. Kudin, 
 V. N. Staroverov, T. A. Keith, R. Kobayashi, J. Normand, 
 K. Raghavachari, A. P. Rendell, J. C. Burant, S. S. Iyengar, 
 J. Tomasi, M. Cossi, J. M. Millam, M. Klene, C. Adamo, R. Cammi, 
 J. W. Ochterski, R. L. Martin, K. Morokuma, O. Farkas, 
 J. B. Foresman, and D. J. Fox, Gaussian, Inc., Wallingford CT, 2016.
 
 ******************************************
 Gaussian 16:  ES64L-G16RevB.01 20-Dec-2017
                22-Sep-2020 
 ******************************************
 %nproc=4
 Will use up to    4 processors via shared memory.
 %Chk=SM42_m0.n.5.pdb.xyz.mst.n.w.chk
 %mem=16GB
 ----------------------------------------------------------------------
 #p b3lyp/6-31G(d) opt freq NoSymm scf=(MaxCycle=2000,NoVarAcc,NoIncFoc
 k) scrf=(iefpcm,read,solvent=water)
 ----------------------------------------------------------------------
 1/18=20,19=15,26=3,38=1,40=2/1,3;
 2/9=110,12=2,15=1,17=6,18=5,40=1/2;
 3/5=1,6=6,7=1,11=2,25=1,30=1,70=2203,71=1,72=1,74=-5/1,2,3;
 4//1;
 5/5=100002,7=2000,38=1,53=1/2;
 6/7=2,8=2,9=2,10=2,28=1/1;
 7/30=1/1,2,3,16;
 1/18=20,19=15,26=3/3(2);
 2/9=110,15=1/2;
 99//99;
 2/9=110,15=1/2;
 3/5=1,6=6,7=1,11=2,25=1,30=1,70=2205,71=1,72=1,74=-5/1,2,3;
 4/5=5,16=3,69=1/1;
 5/5=100002,7=2000,38=1,53=1/2;
 7/30=1/1,2,3,16;
 1/18=20,19=15,26=3/3(-5);
 2/9=110,15=1/2;
 6/7=2,8=2,9=2,10=2,19=2,28=1/1;
 99/9=1/99;
 Leave Link    1 at Tue Sep 22 20:03:02 2020, MaxMem=  2147483648 cpu:               0.1 elap:               0.0
 (Enter /prod/apps/gaussian/g16b1/l101.exe)
 -------------------
 SM42_m0.n.5.pdb.xyz
 -------------------
 Symbolic Z-matrix:
 Charge =  0 Multiplicity = 1
 O                     1.286     1.515     0.761 
 S                     1.908     0.185     0.82 
 N                     1.079    -0.77     -0.324 
 C                    -0.317    -0.863    -0.267 
 N                    -0.884    -2.04     -0.466 
 O                    -2.262    -1.777    -0.448 
 C                    -2.471    -0.458    -0.217 
 C                    -3.854     0.001    -0.152 
 C                    -4.134     1.354     0.099 
 C                    -5.452     1.795     0.161 
 C                    -6.505     0.895    -0.027 
 C                    -6.231    -0.452    -0.276 
 C                    -4.914    -0.899    -0.34 
 C                    -1.266     0.179    -0.097 
 C                     3.53      0.215     0.087 
 C                     3.73      0.937    -1.092 
 C                     5.01      0.975    -1.639 
 C                     6.062     0.305    -1.007 
 C                     5.844    -0.406     0.174 
 C                     4.567    -0.455     0.734 
 O                     1.991    -0.49      2.124 
 H                     1.534    -1.682    -0.429 
 H                    -3.32      2.056     0.246 
 H                    -5.659     2.842     0.356 
 H                    -7.531     1.242     0.022 
 H                    -7.044    -1.155    -0.423 
 H                    -4.699    -1.942    -0.534 
 H                    -1.064     1.221     0.079 
 H                     2.906     1.454    -1.569 
 H                     5.186     1.528    -2.554 
 H                     7.057     0.341    -1.438 
 H                     6.664    -0.92      0.663 
 H                     4.371    -0.996     1.651 
 
 ITRead=  0  0  0  0  0  0  0  0  0  0  0  0  0  0  0  0  0  0  0  0
 ITRead=  0  0  0  0  0  0  0  0  0  0  0  0  0
 MicOpt= -1 -1 -1 -1 -1 -1 -1 -1 -1 -1 -1 -1 -1 -1 -1 -1 -1 -1 -1 -1
 MicOpt= -1 -1 -1 -1 -1 -1 -1 -1 -1 -1 -1 -1 -1
 NAtoms=     33 NQM=       33 NQMF=       0 NMMI=      0 NMMIF=      0
                NMic=       0 NMicF=      0.
                    Isotopes and Nuclear Properties:
 (Nuclear quadrupole moments (NQMom) in fm**2, nuclear magnetic moments (NMagM)
  in nuclear magnetons)

  Atom         1           2           3           4           5           6           7           8           9          10
 IAtWgt=          16          32          14          12          14          16          12          12          12          12
 AtmWgt=  15.9949146  31.9720718  14.0030740  12.0000000  14.0030740  15.9949146  12.0000000  12.0000000  12.0000000  12.0000000
 NucSpn=           0           0           2           0           2           0           0           0           0           0
 AtZEff=  -0.0000000  -0.0000000  -0.0000000  -0.0000000  -0.0000000  -0.0000000  -0.0000000  -0.0000000  -0.0000000  -0.0000000
 NQMom=    0.0000000   0.0000000   2.0440000   0.0000000   2.0440000   0.0000000   0.0000000   0.0000000   0.0000000   0.0000000
 NMagM=    0.0000000   0.0000000   0.4037610   0.0000000   0.4037610   0.0000000   0.0000000   0.0000000   0.0000000   0.0000000
 AtZNuc=   8.0000000  16.0000000   7.0000000   6.0000000   7.0000000   8.0000000   6.0000000   6.0000000   6.0000000   6.0000000

  Atom        11          12          13          14          15          16          17          18          19          20
 IAtWgt=          12          12          12          12          12          12          12          12          12          12
 AtmWgt=  12.0000000  12.0000000  12.0000000  12.0000000  12.0000000  12.0000000  12.0000000  12.0000000  12.0000000  12.0000000
 NucSpn=           0           0           0           0           0           0           0           0           0           0
 AtZEff=  -0.0000000  -0.0000000  -0.0000000  -0.0000000  -0.0000000  -0.0000000  -0.0000000  -0.0000000  -0.0000000  -0.0000000
 NQMom=    0.0000000   0.0000000   0.0000000   0.0000000   0.0000000   0.0000000   0.0000000   0.0000000   0.0000000   0.0000000
 NMagM=    0.0000000   0.0000000   0.0000000   0.0000000   0.0000000   0.0000000   0.0000000   0.0000000   0.0000000   0.0000000
 AtZNuc=   6.0000000   6.0000000   6.0000000   6.0000000   6.0000000   6.0000000   6.0000000   6.0000000   6.0000000   6.0000000

  Atom        21          22          23          24          25          26          27          28          29          30
 IAtWgt=          16           1           1           1           1           1           1           1           1           1
 AtmWgt=  15.9949146   1.0078250   1.0078250   1.0078250   1.0078250   1.0078250   1.0078250   1.0078250   1.0078250   1.0078250
 NucSpn=           0           1           1           1           1           1           1           1           1           1
 AtZEff=  -0.0000000  -0.0000000  -0.0000000  -0.0000000  -0.0000000  -0.0000000  -0.0000000  -0.0000000  -0.0000000  -0.0000000
 NQMom=    0.0000000   0.0000000   0.0000000   0.0000000   0.0000000   0.0000000   0.0000000   0.0000000   0.0000000   0.0000000
 NMagM=    0.0000000   2.7928460   2.7928460   2.7928460   2.7928460   2.7928460   2.7928460   2.7928460   2.7928460   2.7928460
 AtZNuc=   8.0000000   1.0000000   1.0000000   1.0000000   1.0000000   1.0000000   1.0000000   1.0000000   1.0000000   1.0000000

  Atom        31          32          33
 IAtWgt=           1           1           1
 AtmWgt=   1.0078250   1.0078250   1.0078250
 NucSpn=           1           1           1
 AtZEff=  -0.0000000  -0.0000000  -0.0000000
 NQMom=    0.0000000   0.0000000   0.0000000
 NMagM=    2.7928460   2.7928460   2.7928460
 AtZNuc=   1.0000000   1.0000000   1.0000000
 Leave Link  101 at Tue Sep 22 20:03:03 2020, MaxMem=  2147483648 cpu:               1.2 elap:               0.3
 (Enter /prod/apps/gaussian/g16b1/l103.exe)

 GradGradGradGradGradGradGradGradGradGradGradGradGradGradGradGradGradGrad
 Berny optimization.
 Initialization pass.
                           ----------------------------
                           !    Initial Parameters    !
                           ! (Angstroms and Degrees)  !
 --------------------------                            --------------------------
 ! Name  Definition              Value          Derivative Info.                !
 --------------------------------------------------------------------------------
 ! R1    R(1,2)                  1.4694         estimate D2E/DX2                !
 ! R2    R(2,3)                  1.7053         estimate D2E/DX2                !
 ! R3    R(2,15)                 1.7802         estimate D2E/DX2                !
 ! R4    R(2,21)                 1.4707         estimate D2E/DX2                !
 ! R5    R(3,4)                  1.4003         estimate D2E/DX2                !
 ! R6    R(3,22)                 1.0246         estimate D2E/DX2                !
 ! R7    R(4,5)                  1.3215         estimate D2E/DX2                !
 ! R8    R(4,14)                 1.4196         estimate D2E/DX2                !
 ! R9    R(5,6)                  1.403          estimate D2E/DX2                !
 ! R10   R(6,7)                  1.3553         estimate D2E/DX2                !
 ! R11   R(7,8)                  1.4586         estimate D2E/DX2                !
 ! R12   R(7,14)                 1.3683         estimate D2E/DX2                !
 ! R13   R(8,9)                  1.4043         estimate D2E/DX2                !
 ! R14   R(8,13)                 1.4032         estimate D2E/DX2                !
 ! R15   R(9,10)                 1.3912         estimate D2E/DX2                !
 ! R16   R(9,23)                 1.0849         estimate D2E/DX2                !
 ! R17   R(10,11)                1.3979         estimate D2E/DX2                !
 ! R18   R(10,24)                1.0849         estimate D2E/DX2                !
 ! R19   R(11,12)                1.397          estimate D2E/DX2                !
 ! R20   R(11,25)                1.0842         estimate D2E/DX2                !
 ! R21   R(12,13)                1.3923         estimate D2E/DX2                !
 ! R22   R(12,26)                1.0848         estimate D2E/DX2                !
 ! R23   R(13,27)                1.0825         estimate D2E/DX2                !
 ! R24   R(14,28)                1.0759         estimate D2E/DX2                !
 ! R25   R(15,16)                1.3969         estimate D2E/DX2                !
 ! R26   R(15,20)                1.3939         estimate D2E/DX2                !
 ! R27   R(16,17)                1.3925         estimate D2E/DX2                !
 ! R28   R(16,29)                1.0834         estimate D2E/DX2                !
 ! R29   R(17,18)                1.3982         estimate D2E/DX2                !
 ! R30   R(17,30)                1.0835         estimate D2E/DX2                !
 ! R31   R(18,19)                1.3956         estimate D2E/DX2                !
 ! R32   R(18,31)                1.0849         estimate D2E/DX2                !
 ! R33   R(19,20)                1.3953         estimate D2E/DX2                !
 ! R34   R(19,32)                1.0843         estimate D2E/DX2                !
 ! R35   R(20,33)                1.0826         estimate D2E/DX2                !
 ! A1    A(1,2,3)              105.9124         estimate D2E/DX2                !
 ! A2    A(1,2,15)             110.7254         estimate D2E/DX2                !
 ! A3    A(1,2,21)             118.3531         estimate D2E/DX2                !
 ! A4    A(3,2,15)             100.1454         estimate D2E/DX2                !
 ! A5    A(3,2,21)             111.4212         estimate D2E/DX2                !
 ! A6    A(15,2,21)            108.7475         estimate D2E/DX2                !
 ! A7    A(2,3,4)              119.6397         estimate D2E/DX2                !
 ! A8    A(2,3,22)             110.5698         estimate D2E/DX2                !
 ! A9    A(4,3,22)             112.8166         estimate D2E/DX2                !
 ! A10   A(3,4,5)              118.7357         estimate D2E/DX2                !
 ! A11   A(3,4,14)             128.5056         estimate D2E/DX2                !
 ! A12   A(5,4,14)             112.6407         estimate D2E/DX2                !
 ! A13   A(4,5,6)              104.6267         estimate D2E/DX2                !
 ! A14   A(5,6,7)              109.6388         estimate D2E/DX2                !
 ! A15   A(6,7,8)              117.3913         estimate D2E/DX2                !
 ! A16   A(6,7,14)             109.4037         estimate D2E/DX2                !
 ! A17   A(8,7,14)             133.2041         estimate D2E/DX2                !
 ! A18   A(7,8,9)              120.0135         estimate D2E/DX2                !
 ! A19   A(7,8,13)             120.5606         estimate D2E/DX2                !
 ! A20   A(9,8,13)             119.4258         estimate D2E/DX2                !
 ! A21   A(8,9,10)             120.1509         estimate D2E/DX2                !
 ! A22   A(8,9,23)             119.8711         estimate D2E/DX2                !
 ! A23   A(10,9,23)            119.978          estimate D2E/DX2                !
 ! A24   A(9,10,11)            120.2353         estimate D2E/DX2                !
 ! A25   A(9,10,24)            119.6482         estimate D2E/DX2                !
 ! A26   A(11,10,24)           120.1165         estimate D2E/DX2                !
 ! A27   A(10,11,12)           119.803          estimate D2E/DX2                !
 ! A28   A(10,11,25)           120.0463         estimate D2E/DX2                !
 ! A29   A(12,11,25)           120.1506         estimate D2E/DX2                !
 ! A30   A(11,12,13)           120.2193         estimate D2E/DX2                !
 ! A31   A(11,12,26)           120.1343         estimate D2E/DX2                !
 ! A32   A(13,12,26)           119.6463         estimate D2E/DX2                !
 ! A33   A(8,13,12)            120.1655         estimate D2E/DX2                !
 ! A34   A(8,13,27)            119.4711         estimate D2E/DX2                !
 ! A35   A(12,13,27)           120.3633         estimate D2E/DX2                !
 ! A36   A(4,14,7)             103.6804         estimate D2E/DX2                !
 ! A37   A(4,14,28)            127.2264         estimate D2E/DX2                !
 ! A38   A(7,14,28)            129.0926         estimate D2E/DX2                !
 ! A39   A(2,15,16)            119.1231         estimate D2E/DX2                !
 ! A40   A(2,15,20)            118.5963         estimate D2E/DX2                !
 ! A41   A(16,15,20)           122.2554         estimate D2E/DX2                !
 ! A42   A(15,16,17)           118.5064         estimate D2E/DX2                !
 ! A43   A(15,16,29)           120.6203         estimate D2E/DX2                !
 ! A44   A(17,16,29)           120.8733         estimate D2E/DX2                !
 ! A45   A(16,17,18)           120.064          estimate D2E/DX2                !
 ! A46   A(16,17,30)           119.6673         estimate D2E/DX2                !
 ! A47   A(18,17,30)           120.2684         estimate D2E/DX2                !
 ! A48   A(17,18,19)           120.6026         estimate D2E/DX2                !
 ! A49   A(17,18,31)           119.6403         estimate D2E/DX2                !
 ! A50   A(19,18,31)           119.7569         estimate D2E/DX2                !
 ! A51   A(18,19,20)           120.0323         estimate D2E/DX2                !
 ! A52   A(18,19,32)           120.3308         estimate D2E/DX2                !
 ! A53   A(20,19,32)           119.6366         estimate D2E/DX2                !
 ! A54   A(15,20,19)           118.5375         estimate D2E/DX2                !
 ! A55   A(15,20,33)           119.9135         estimate D2E/DX2                !
 ! A56   A(19,20,33)           121.5489         estimate D2E/DX2                !
 ! D1    D(1,2,3,4)            -53.614          estimate D2E/DX2                !
 ! D2    D(1,2,3,22)           172.7501         estimate D2E/DX2                !
 ! D3    D(15,2,3,4)          -168.7554         estimate D2E/DX2                !
 ! D4    D(15,2,3,22)           57.6088         estimate D2E/DX2                !
 ! D5    D(21,2,3,4)            76.3509         estimate D2E/DX2                !
 ! D6    D(21,2,3,22)          -57.285          estimate D2E/DX2                !
 ! D7    D(1,2,15,16)          -41.3517         estimate D2E/DX2                !
 ! D8    D(1,2,15,20)          136.8616         estimate D2E/DX2                !
 ! D9    D(3,2,15,16)           70.0869         estimate D2E/DX2                !
 ! D10   D(3,2,15,20)         -111.6999         estimate D2E/DX2                !
 ! D11   D(21,2,15,16)        -173.006          estimate D2E/DX2                !
 ! D12   D(21,2,15,20)           5.2073         estimate D2E/DX2                !
 ! D13   D(2,3,4,5)           -138.4801         estimate D2E/DX2                !
 ! D14   D(2,3,4,14)            45.7838         estimate D2E/DX2                !
 ! D15   D(22,3,4,5)            -5.7975         estimate D2E/DX2                !
 ! D16   D(22,3,4,14)          178.4664         estimate D2E/DX2                !
 ! D17   D(3,4,5,6)           -175.5504         estimate D2E/DX2                !
 ! D18   D(14,4,5,6)             0.8352         estimate D2E/DX2                !
 ! D19   D(3,4,14,7)           175.5891         estimate D2E/DX2                !
 ! D20   D(3,4,14,28)           -4.1232         estimate D2E/DX2                !
 ! D21   D(5,4,14,7)            -0.3604         estimate D2E/DX2                !
 ! D22   D(5,4,14,28)          179.9273         estimate D2E/DX2                !
 ! D23   D(4,5,6,7)             -1.0123         estimate D2E/DX2                !
 ! D24   D(5,6,7,8)           -179.4719         estimate D2E/DX2                !
 ! D25   D(5,6,7,14)             0.8294         estimate D2E/DX2                !
 ! D26   D(6,7,8,9)            179.3126         estimate D2E/DX2                !
 ! D27   D(6,7,8,13)            -0.7592         estimate D2E/DX2                !
 ! D28   D(14,7,8,9)            -1.0774         estimate D2E/DX2                !
 ! D29   D(14,7,8,13)          178.8509         estimate D2E/DX2                !
 ! D30   D(6,7,14,4)            -0.3036         estimate D2E/DX2                !
 ! D31   D(6,7,14,28)          179.4012         estimate D2E/DX2                !
 ! D32   D(8,7,14,4)          -179.9365         estimate D2E/DX2                !
 ! D33   D(8,7,14,28)           -0.2317         estimate D2E/DX2                !
 ! D34   D(7,8,9,10)           179.971          estimate D2E/DX2                !
 ! D35   D(7,8,9,23)            -0.1054         estimate D2E/DX2                !
 ! D36   D(13,8,9,10)            0.042          estimate D2E/DX2                !
 ! D37   D(13,8,9,23)          179.9655         estimate D2E/DX2                !
 ! D38   D(7,8,13,12)          179.9897         estimate D2E/DX2                !
 ! D39   D(7,8,13,27)            0.0418         estimate D2E/DX2                !
 ! D40   D(9,8,13,12)           -0.0816         estimate D2E/DX2                !
 ! D41   D(9,8,13,27)          179.9704         estimate D2E/DX2                !
 ! D42   D(8,9,10,11)           -0.0477         estimate D2E/DX2                !
 ! D43   D(8,9,10,24)          179.9635         estimate D2E/DX2                !
 ! D44   D(23,9,10,11)        -179.9712         estimate D2E/DX2                !
 ! D45   D(23,9,10,24)           0.04           estimate D2E/DX2                !
 ! D46   D(9,10,11,12)           0.0924         estimate D2E/DX2                !
 ! D47   D(9,10,11,25)         179.998          estimate D2E/DX2                !
 ! D48   D(24,10,11,12)       -179.9189         estimate D2E/DX2                !
 ! D49   D(24,10,11,25)         -0.0133         estimate D2E/DX2                !
 ! D50   D(10,11,12,13)         -0.1322         estimate D2E/DX2                !
 ! D51   D(10,11,12,26)       -179.9809         estimate D2E/DX2                !
 ! D52   D(25,11,12,13)        179.9623         estimate D2E/DX2                !
 ! D53   D(25,11,12,26)          0.1136         estimate D2E/DX2                !
 ! D54   D(11,12,13,8)           0.1272         estimate D2E/DX2                !
 ! D55   D(11,12,13,27)       -179.9253         estimate D2E/DX2                !
 ! D56   D(26,12,13,8)         179.9767         estimate D2E/DX2                !
 ! D57   D(26,12,13,27)         -0.0758         estimate D2E/DX2                !
 ! D58   D(2,15,16,17)         178.665          estimate D2E/DX2                !
 ! D59   D(2,15,16,29)          -1.4088         estimate D2E/DX2                !
 ! D60   D(20,15,16,17)          0.5201         estimate D2E/DX2                !
 ! D61   D(20,15,16,29)       -179.5537         estimate D2E/DX2                !
 ! D62   D(2,15,20,19)        -178.6046         estimate D2E/DX2                !
 ! D63   D(2,15,20,33)           1.2992         estimate D2E/DX2                !
 ! D64   D(16,15,20,19)         -0.4502         estimate D2E/DX2                !
 ! D65   D(16,15,20,33)        179.4535         estimate D2E/DX2                !
 ! D66   D(15,16,17,18)         -0.2712         estimate D2E/DX2                !
 ! D67   D(15,16,17,30)        179.8938         estimate D2E/DX2                !
 ! D68   D(29,16,17,18)        179.8027         estimate D2E/DX2                !
 ! D69   D(29,16,17,30)         -0.0322         estimate D2E/DX2                !
 ! D70   D(16,17,18,19)         -0.0302         estimate D2E/DX2                !
 ! D71   D(16,17,18,31)       -179.865          estimate D2E/DX2                !
 ! D72   D(30,17,18,19)        179.8038         estimate D2E/DX2                !
 ! D73   D(30,17,18,31)         -0.031          estimate D2E/DX2                !
 ! D74   D(17,18,19,20)          0.1017         estimate D2E/DX2                !
 ! D75   D(17,18,19,32)       -179.7034         estimate D2E/DX2                !
 ! D76   D(31,18,19,20)        179.9363         estimate D2E/DX2                !
 ! D77   D(31,18,19,32)          0.1312         estimate D2E/DX2                !
 ! D78   D(18,19,20,15)          0.1319         estimate D2E/DX2                !
 ! D79   D(18,19,20,33)       -179.7702         estimate D2E/DX2                !
 ! D80   D(32,19,20,15)        179.9384         estimate D2E/DX2                !
 ! D81   D(32,19,20,33)          0.0362         estimate D2E/DX2                !
 --------------------------------------------------------------------------------
 Trust Radius=3.00D-01 FncErr=1.00D-07 GrdErr=1.00D-06 EigMax=2.50D+02 EigMin=1.00D-04
 Number of steps in this run=    182 maximum allowed number of steps=    198.
 GradGradGradGradGradGradGradGradGradGradGradGradGradGradGradGradGradGrad

 Leave Link  103 at Tue Sep 22 20:03:03 2020, MaxMem=  2147483648 cpu:               0.1 elap:               0.0
 (Enter /prod/apps/gaussian/g16b1/l202.exe)
                          Input orientation:                          
 ---------------------------------------------------------------------
 Center     Atomic      Atomic             Coordinates (Angstroms)
 Number     Number       Type             X           Y           Z
 ---------------------------------------------------------------------
      1          8           0        1.286000    1.515000    0.761000
      2         16           0        1.908000    0.185000    0.820000
      3          7           0        1.079000   -0.770000   -0.324000
      4          6           0       -0.317000   -0.863000   -0.267000
      5          7           0       -0.884000   -2.040000   -0.466000
      6          8           0       -2.262000   -1.777000   -0.448000
      7          6           0       -2.471000   -0.458000   -0.217000
      8          6           0       -3.854000    0.001000   -0.152000
      9          6           0       -4.134000    1.354000    0.099000
     10          6           0       -5.452000    1.795000    0.161000
     11          6           0       -6.505000    0.895000   -0.027000
     12          6           0       -6.231000   -0.452000   -0.276000
     13          6           0       -4.914000   -0.899000   -0.340000
     14          6           0       -1.266000    0.179000   -0.097000
     15          6           0        3.530000    0.215000    0.087000
     16          6           0        3.730000    0.937000   -1.092000
     17          6           0        5.010000    0.975000   -1.639000
     18          6           0        6.062000    0.305000   -1.007000
     19          6           0        5.844000   -0.406000    0.174000
     20          6           0        4.567000   -0.455000    0.734000
     21          8           0        1.991000   -0.490000    2.124000
     22          1           0        1.534000   -1.682000   -0.429000
     23          1           0       -3.320000    2.056000    0.246000
     24          1           0       -5.659000    2.842000    0.356000
     25          1           0       -7.531000    1.242000    0.022000
     26          1           0       -7.044000   -1.155000   -0.423000
     27          1           0       -4.699000   -1.942000   -0.534000
     28          1           0       -1.064000    1.221000    0.079000
     29          1           0        2.906000    1.454000   -1.569000
     30          1           0        5.186000    1.528000   -2.554000
     31          1           0        7.057000    0.341000   -1.438000
     32          1           0        6.664000   -0.920000    0.663000
     33          1           0        4.371000   -0.996000    1.651000
 ---------------------------------------------------------------------
                    Distance matrix (angstroms):
                    1          2          3          4          5
     1  O    0.000000
     2  S    1.469444   0.000000
     3  N    2.537971   1.705286   0.000000
     4  C    3.046519   2.688959   1.400255   0.000000
     5  N    4.341941   3.794692   2.342314   1.321521   0.000000
     6  O    4.988712   4.779767   3.491662   2.156660   1.402989
     7  C    4.354798   4.545818   3.565290   2.192314   2.254616
     8  C    5.435565   5.846305   4.995850   3.642813   3.617344
     9  C    5.462652   6.196141   5.644969   4.429281   4.732965
    10  C    6.770454   7.562802   7.033378   5.797963   5.997248
    11  C    7.855255   8.485286   7.770295   6.437353   6.356303
    12  C    7.838989   8.237130   7.317071   5.928271   5.581062
    13  C    6.743856   7.004309   5.994410   4.597721   4.190305
    14  C    3.005622   3.303816   2.539912   1.419600   2.281676
    15  C    2.679517   1.780189   2.673303   4.010836   4.987407
    16  C    3.121030   2.746076   3.245223   4.505423   5.526608
    17  C    4.463158   4.036482   4.497445   5.799789   6.723495
    18  C    5.234510   4.539608   5.143190   6.527133   7.351097
    19  C    4.980981   4.032207   4.804761   6.193646   6.953096
    20  C    3.827086   2.736289   3.658515   5.002192   5.802209
    21  O    2.524840   1.470690   2.627327   3.344080   4.168480
    22  H    3.420294   2.277184   1.024595   2.030568   2.444638
    23  H    4.666170   5.582302   5.259503   4.219211   4.818533
    24  H    7.082230   8.033333   7.675258   6.530859   6.878243
    25  H    8.852126   9.531462   8.848726   7.520395   7.429150
    26  H    8.827211   9.136682   8.132721   6.735141   6.223397
    27  H    7.031934   7.071767   5.899404   4.520780   3.816864
    28  H    2.464561   3.233444   2.952785   2.240710   3.311125
    29  H    2.838489   2.883346   3.135942   4.177490   5.271503
    30  H    5.118534   4.892117   5.207797   6.421079   7.344063
    31  H    6.286360   5.624509   6.181569   7.562852   8.347061
    32  H    5.904381   4.885203   5.673526   7.042905   7.713711
    33  H    4.076082   2.855117   3.845642   5.066928   5.760786
                    6          7          8          9         10
     6  O    0.000000
     7  C    1.355287   0.000000
     8  C    2.404863   1.458628   0.000000
     9  C    3.688733   2.479671   1.404283   0.000000
    10  C    4.827646   3.755696   2.422810   1.391204   0.000000
    11  C    5.031886   4.259092   2.800475   2.418305   1.397910
    12  C    4.187860   3.760468   2.422956   2.792789   2.418020
    13  C    2.795649   2.485530   1.403191   2.424279   2.792504
    14  C    2.222870   1.368281   2.594697   3.105554   4.494510
    15  C    6.148297   6.046267   7.390966   7.748184   9.120208
    16  C    6.609432   6.415922   7.699140   7.964601   9.306734
    17  C    7.866001   7.748609   9.040483   9.315418  10.647340
    18  C    8.598615   8.603392   9.957434  10.309319  11.668613
    19  C    8.244620   8.324350   9.712010  10.132310  11.508440
    20  C    7.055498   7.101961   8.479751   8.909720  10.284512
    21  O    5.134156   5.038923   6.291684   6.709440   8.029498
    22  H    3.797236   4.193226   5.651527   6.451535   7.825716
    23  H    4.036445   2.693579   2.160228   1.084900   2.149598
    24  H    5.789748   4.624032   3.404023   2.146117   1.084935
    25  H    6.090782   5.343287   3.884673   3.399718   2.155776
    26  H    4.822347   4.630397   3.403803   3.877585   3.402649
    27  H    2.444093   2.695687   2.152951   3.403459   3.874946
    28  H    3.271229   2.210499   3.053827   3.072945   4.426143
    29  H    6.197114   5.864791   7.058095   7.235594   8.541975
    30  H    8.416113   8.248358   9.477496   9.691805  10.982238
    31  H    9.607798   9.639088  10.991784  11.341385  12.694329
    32  H    9.035610   9.188910  10.589655  11.049252  12.426612
    33  H    7.000889   7.112794   8.479118   8.959142  10.319937
                   11         12         13         14         15
    11  C    0.000000
    12  C    1.396956   0.000000
    13  C    2.418199   1.392262   0.000000
    14  C    5.288164   5.008136   3.811697   0.000000
    15  C   10.058659   9.790494   8.527864   4.799663   0.000000
    16  C   10.290346  10.090426   8.868773   5.150204   1.396898
    17  C   11.627561  11.412895  10.182586   6.511494   2.397306
    18  C   12.618954  12.337960  11.061966   7.385361   2.759703
    19  C   12.418969  12.083470  10.781549   7.139171   2.397458
    20  C   11.179929  10.845133   9.551962   5.925910   1.393872
    21  O    8.872826   8.565204   7.342861   3.998556   2.648568
    22  H    8.451512   7.863303   6.495977   3.378394   2.801585
    23  H    3.400981   3.877689   3.408263   2.803515   7.094862
    24  H    2.157131   3.402506   3.877438   5.157056   9.560921
    25  H    1.084198   2.156024   3.400531   6.355655  11.108766
    26  H    2.156348   1.084798   2.146934   5.938949  10.674571
    27  H    3.401067   2.152600   1.082456   4.058953   8.529638
    28  H    5.451788   5.442687   4.415027   1.075892   4.702865
    29  H    9.552862   9.422816   8.258296   4.604128   2.160285
    30  H   11.977725  11.809216  10.620834   7.034554   3.382482
    31  H   13.646453  13.362262  12.085034   8.431895   3.844637
    32  H   13.311382  12.937611  11.621383   8.041785   3.382596
    33  H   11.165972  10.789424   9.496563   6.017632   2.149395
                   16         17         18         19         20
    16  C    0.000000
    17  C    1.392499   0.000000
    18  C    2.417617   1.398223   0.000000
    19  C    2.806314   2.426868   1.395638   0.000000
    20  C    2.443872   2.805758   2.417376   1.395253   0.000000
    21  O    3.924679   5.041900   5.196944   4.319163   2.927303
    22  H    3.481544   4.539419   4.978457   4.535183   3.472346
    23  H    7.262569   8.608756   9.625899   9.489232   8.291443
    24  H    9.689120  11.013323  12.069630  11.954147  10.751008
    25  H   11.320077  12.653335  13.664057  13.477004  12.237171
    26  H   10.995595  12.300995  13.199996  12.923543  11.689481
    27  H    8.924575  10.197774  11.003266  10.677800   9.469834
    28  H    4.943110   6.317081   7.266246   7.097649   5.911528
    29  H    1.083418   2.158971   3.405346   3.889665   3.421551
    30  H    2.146313   1.083517   2.157849   3.408123   3.889267
    31  H    3.397626   2.152340   1.084934   2.151261   3.398720
    32  H    3.890608   3.409684   2.156833   1.084305   2.149110
    33  H    3.416346   3.888092   3.408379   2.167800   1.082583
                   21         22         23         24         25
    21  O    0.000000
    22  H    2.854386   0.000000
    23  H    6.181887   6.163569   0.000000
    24  H    8.529393   8.533584   2.469983   0.000000
    25  H    9.903874   9.535586   4.294798   2.485144   0.000000
    26  H    9.410667   8.594175   4.962485   4.301288   2.486122
    27  H    7.343662   6.239304   4.300470   4.959875   4.297350
    28  H    4.054944   3.928750   2.411359   4.880409   6.467285
    29  H    4.272541   3.607836   6.513041   8.887710  10.559697
    30  H    6.013654   5.306301   8.970553  11.305252  12.978431
    31  H    6.248421   5.967758  10.651723  13.083199  14.688538
    32  H    4.914911   5.300001  10.426443  12.888104  14.373001
    33  H    2.478743   3.584071   8.392867  10.817031  12.219652
                   26         27         28         29         30
    26  H    0.000000
    27  H    2.476028   0.000000
    28  H    6.454284   4.857321   0.000000
    29  H   10.350010   8.392858   4.304776   0.000000
    30  H   12.700888  10.669326   6.788920   2.484774   0.000000
    31  H   14.216415  12.009698   8.308209   4.299620   2.480941
    32  H   13.752959  11.471489   8.040331   4.973959   4.304216
    33  H   11.602973   9.377315   6.076635   4.303153   4.971602
                   31         32         33
    31  H    0.000000
    32  H    2.481687   0.000000
    33  H    4.306284   2.497953   0.000000
 Symmetry turned off by external request.
 Stoichiometry    C15H12N2O3S
 Framework group  C1[X(C15H12N2O3S)]
 Deg. of freedom    93
 Full point group                 C1      NOp   1
 Rotational constants (GHZ):           0.9972367           0.1086089           0.1059803
 Leave Link  202 at Tue Sep 22 20:03:03 2020, MaxMem=  2147483648 cpu:               0.1 elap:               0.0
 (Enter /prod/apps/gaussian/g16b1/l301.exe)
 Standard basis: 6-31G(d) (6D, 7F)
 Ernie: Thresh=  0.10000D-02 Tol=  0.10000D-05 Strict=F.
   343 basis functions,   660 primitive gaussians,   343 cartesian basis functions
    78 alpha electrons       78 beta electrons
       nuclear repulsion energy      1680.6185768188 Hartrees.
 IExCor=  402 DFT=T Ex+Corr=B3LYP ExCW=0 ScaHFX=  0.200000
 ScaDFX=  0.800000  0.720000  1.000000  0.810000 ScalE2=  1.000000  1.000000
 IRadAn=      5 IRanWt=     -1 IRanGd=            0 ICorTp=0 IEmpDi=  4
 NAtoms=   33 NActive=   33 NUniq=   33 SFac= 1.00D+00 NAtFMM=   60 NAOKFM=F Big=F
 Integral buffers will be    131072 words long.
 Raffenetti 2 integral format.
 Two-electron integral symmetry is turned off.
 Using the following non-standard input for PCM:
 MSTModel=DFT cav
 --- end of non-standard input.
 MST model for solvation energy: B3LYP parametrization.
 MST cavity parameters:
 ISph   IAn     Re0     Alpha   Atom Type   QCorr
 ------------------------------------------------
   1      8     1.40     1.25      O          F
   2     16     1.75     1.25      S          F
   3      7     1.50     1.25      NH         F
   4      6     1.50     1.25      C          F
   5      7     1.40     1.25      N          F
   6      8     1.40     1.25      O          F
   7      6     1.50     1.25      C          F
   8      6     1.50     1.25      C          F
   9      6     1.50     1.25      CH         F
  10      6     1.50     1.25      CH         F
  11      6     1.50     1.25      CH         F
  12      6     1.50     1.25      CH         F
  13      6     1.50     1.25      CH         F
  14      6     1.50     1.25      CH         F
  15      6     1.50     1.25      C          F
  16      6     1.50     1.25      CH         F
  17      6     1.50     1.25      CH         F
  18      6     1.50     1.25      CH         F
  19      6     1.50     1.25      CH         F
  20      6     1.50     1.25      CH         F
  21      8     1.40     1.25      O          F
  22      1     0.90     1.25      NH         F
  23      1     1.20     1.25      CH         F
  24      1     1.20     1.25      CH         F
  25      1     1.20     1.25      CH         F
  26      1     1.20     1.25      CH         F
  27      1     1.20     1.25      CH         F
  28      1     1.20     1.25      CH         F
  29      1     1.20     1.25      CH         F
  30      1     1.20     1.25      CH         F
  31      1     1.20     1.25      CH         F
  32      1     1.20     1.25      CH         F
  33      1     1.20     1.25      CH         F
 ------------------------------------------------------------------------------
 Polarizable Continuum Model (PCM)
 =================================
 Model                : PCM.
 Atomic radii         : MST.
 Polarization charges : Total charges.
 Charge compensation  : None.
 Solution method      : On-the-fly selection.
 Cavity type          : Scaled VdW (van der Waals Surface) (Alpha=1.250).
 Cavity algorithm     : GePol (No added spheres)
                        Default sphere list used, NSphG=   33.
                        Lebedev-Laikov grids with approx.  5.0 points / Ang**2.
                        Smoothing algorithm: York/Karplus (Gamma=1.0000).
                        Polarization charges: spherical gaussians, with
                                              point-specific exponents (IZeta= 3).
                        Self-potential: point-specific (ISelfS= 7).
                        Self-field    : sphere-specific E.n sum rule (ISelfD= 2).
 1st derivatives      : Analytical E(r).r(x)/FMM algorithm (CHGder, D1EAlg=3).
                        Cavity 1st derivative terms included.
 Solvent              : Water, Eps=  78.355300 Eps(inf)=   1.777849
 ------------------------------------------------------------------------------
 GePol: Number of generator spheres                  =      33
 GePol: Total number of spheres                      =      33
 GePol: Number of exposed spheres                    =      33 (100.00%)
 GePol: Number of points                             =    2673
 GePol: Average weight of points                     =       0.13
 GePol: Minimum weight of points                     =   0.17D-10
 GePol: Maximum weight of points                     =    0.22001
 GePol: Number of points with low weight             =     186
 GePol: Fraction of low-weight points (<1% of avg)   =       6.96%
 GePol: Cavity surface area                          =    336.245 Ang**2
 GePol: Cavity volume                                =    322.179 Ang**3
 PCM non-electrostatic energy =         0.0028552127 Hartrees.
 Nuclear repulsion after PCM non-electrostatic terms =     1680.6214320315 Hartrees.
 Leave Link  301 at Tue Sep 22 20:03:03 2020, MaxMem=  2147483648 cpu:               0.3 elap:               0.1
 (Enter /prod/apps/gaussian/g16b1/l302.exe)
 NPDir=0 NMtPBC=     1 NCelOv=     1 NCel=       1 NClECP=     1 NCelD=      1
         NCelK=      1 NCelE2=     1 NClLst=     1 CellRange=     0.0.
 One-electron integrals computed using PRISM.
 NBasis=   343 RedAO= T EigKep=  4.57D-04  NBF=   343
 NBsUse=   343 1.00D-06 EigRej= -1.00D+00 NBFU=   343
 Precomputing XC quadrature grid using
 IXCGrd= 4 IRadAn=           5 IRanWt=          -1 IRanGd=           0 AccXCQ= 0.00D+00.
 Generated NRdTot=       0 NPtTot=           0 NUsed=           0 NTot=          32
 NSgBfM=   337   337   337   337   337 MxSgAt=    33 MxSgA2=    33.
 Leave Link  302 at Tue Sep 22 20:03:03 2020, MaxMem=  2147483648 cpu:               1.6 elap:               0.4
 (Enter /prod/apps/gaussian/g16b1/l303.exe)
 DipDrv:  MaxL=1.
 Leave Link  303 at Tue Sep 22 20:03:03 2020, MaxMem=  2147483648 cpu:               0.1 elap:               0.1
 (Enter /prod/apps/gaussian/g16b1/l401.exe)
 ExpMin= 1.17D-01 ExpMax= 2.19D+04 ExpMxC= 3.30D+03 IAcc=3 IRadAn=         5 AccDes= 0.00D+00
 Harris functional with IExCor=  402 and IRadAn=       5 diagonalized for initial guess.
 HarFok:  IExCor=  402 AccDes= 0.00D+00 IRadAn=         5 IDoV= 1 UseB2=F ITyADJ=14
 ICtDFT=  3500011 ScaDFX=  1.000000  1.000000  1.000000  1.000000
 FoFCou: FMM=F IPFlag=           0 FMFlag=      100000 FMFlg1=           0
         NFxFlg=           0 DoJE=T BraDBF=F KetDBF=T FulRan=T
         wScrn=  0.000000 ICntrl=       500 IOpCl=  0 I1Cent=   200000004 NGrid=           0
         NMat0=    1 NMatS0=      1 NMatT0=    0 NMatD0=    1 NMtDS0=    0 NMtDT0=    0
 Symmetry not used in FoFCou.
 Harris En= -1312.09609208810    
 JPrj=0 DoOrth=F DoCkMO=F.
 Leave Link  401 at Tue Sep 22 20:03:05 2020, MaxMem=  2147483648 cpu:               7.8 elap:               2.0
 (Enter /prod/apps/gaussian/g16b1/l502.exe)
 Two-electron integral symmetry not used.
 Closed shell SCF:
 Using DIIS extrapolation, IDIIS=  1040.
 NGot=  2147483648 LenX=  2147243388 LenY=  2147125298
 Requested convergence on RMS density matrix=1.00D-08 within2000 cycles.
 Requested convergence on MAX density matrix=1.00D-06.
 Requested convergence on             energy=1.00D-06.
 No special actions if energy rises.

 Cycle   1  Pass 1  IDiag  1:
 FoFJK:  IHMeth= 1 ICntrl=       0 DoSepK=F KAlg= 0 I1Cent=           0 FoldK=F
 IRaf= 670000000 NMat=       1 IRICut=       1 DoRegI=T DoRafI=F ISym2E= 0 IDoP0=0 IntGTp=1.
 FoFCou: FMM=F IPFlag=           0 FMFlag=      100000 FMFlg1=           0
         NFxFlg=           0 DoJE=F BraDBF=F KetDBF=F FulRan=T
         wScrn=  0.000000 ICntrl=         0 IOpCl=  0 I1Cent=           0 NGrid=           0
         NMat0=    1 NMatS0=      1 NMatT0=    0 NMatD0=    1 NMtDS0=    0 NMtDT0=    0
 Symmetry not used in FoFCou.
 Inv3:  Mode=1 IEnd=    21434787.
 Iteration    1 A*A^-1 deviation from unit magnitude is 3.33D-15 for   2026.
 Iteration    1 A*A^-1 deviation from orthogonality  is 2.25D-15 for   1854    626.
 Iteration    1 A^-1*A deviation from unit magnitude is 3.11D-15 for   2026.
 Iteration    1 A^-1*A deviation from orthogonality  is 2.15D-15 for   1982   1774.
 E= -1311.51530030097    
 DIIS: error= 2.98D-02 at cycle   1 NSaved=   1.
 NSaved= 1 IEnMin= 1 EnMin= -1311.51530030097     IErMin= 1 ErrMin= 2.98D-02
 ErrMax= 2.98D-02  0.00D+00 EMaxC= 1.00D-01 BMatC= 6.40D-01 BMatP= 6.40D-01
 IDIUse=3 WtCom= 7.02D-01 WtEn= 2.98D-01
 Coeff-Com:  0.100D+01
 Coeff-En:   0.100D+01
 Coeff:      0.100D+01
 Gap=     0.262 Goal=   None    Shift=    0.000
 GapD=    0.262 DampG=1.000 DampE=0.500 DampFc=0.5000 IDamp=-1.
 Damping current iteration by 5.00D-01
 RMSDP=5.83D-03 MaxDP=5.74D-01              OVMax= 2.00D-01

 Cycle   2  Pass 1  IDiag  1:
 E= -1311.67867965918     Delta-E=       -0.163379358206 Rises=F Damp=T
 DIIS: error= 1.07D-02 at cycle   2 NSaved=   2.
 NSaved= 2 IEnMin= 2 EnMin= -1311.67867965918     IErMin= 2 ErrMin= 1.07D-02
 ErrMax= 1.07D-02  0.00D+00 EMaxC= 1.00D-01 BMatC= 9.27D-02 BMatP= 6.40D-01
 IDIUse=3 WtCom= 8.93D-01 WtEn= 1.07D-01
 Coeff-Com:  0.208D+00 0.792D+00
 Coeff-En:   0.333D+00 0.667D+00
 Coeff:      0.222D+00 0.778D+00
 Gap=     0.219 Goal=   None    Shift=    0.000
 RMSDP=1.76D-03 MaxDP=1.36D-01 DE=-1.63D-01 OVMax= 1.82D-01

 Cycle   3  Pass 1  IDiag  1:
 E= -1312.04130236767     Delta-E=       -0.362622708493 Rises=F Damp=F
 DIIS: error= 8.57D-03 at cycle   3 NSaved=   3.
 NSaved= 3 IEnMin= 3 EnMin= -1312.04130236767     IErMin= 3 ErrMin= 8.57D-03
 ErrMax= 8.57D-03  0.00D+00 EMaxC= 1.00D-01 BMatC= 5.49D-02 BMatP= 9.27D-02
 IDIUse=3 WtCom= 9.14D-01 WtEn= 8.57D-02
 Coeff-Com:  0.486D-01 0.432D+00 0.519D+00
 Coeff-En:   0.000D+00 0.000D+00 0.100D+01
 Coeff:      0.444D-01 0.395D+00 0.560D+00
 Gap=     0.183 Goal=   None    Shift=    0.000
 RMSDP=9.24D-04 MaxDP=3.65D-02 DE=-3.63D-01 OVMax= 5.00D-02

 Cycle   4  Pass 1  IDiag  1:
 E= -1312.08278371307     Delta-E=       -0.041481345399 Rises=F Damp=F
 DIIS: error= 2.65D-03 at cycle   4 NSaved=   4.
 NSaved= 4 IEnMin= 4 EnMin= -1312.08278371307     IErMin= 4 ErrMin= 2.65D-03
 ErrMax= 2.65D-03  0.00D+00 EMaxC= 1.00D-01 BMatC= 8.13D-03 BMatP= 5.49D-02
 IDIUse=3 WtCom= 9.74D-01 WtEn= 2.65D-02
 Coeff-Com:  0.105D-03 0.104D+00 0.304D+00 0.592D+00
 Coeff-En:   0.000D+00 0.000D+00 0.115D+00 0.885D+00
 Coeff:      0.102D-03 0.101D+00 0.299D+00 0.599D+00
 Gap=     0.183 Goal=   None    Shift=    0.000
 RMSDP=3.11D-04 MaxDP=1.73D-02 DE=-4.15D-02 OVMax= 1.83D-02

 Cycle   5  Pass 1  IDiag  1:
 E= -1312.08922346732     Delta-E=       -0.006439754252 Rises=F Damp=F
 DIIS: error= 1.01D-03 at cycle   5 NSaved=   5.
 NSaved= 5 IEnMin= 5 EnMin= -1312.08922346732     IErMin= 5 ErrMin= 1.01D-03
 ErrMax= 1.01D-03  0.00D+00 EMaxC= 1.00D-01 BMatC= 8.01D-04 BMatP= 8.13D-03
 IDIUse=3 WtCom= 9.90D-01 WtEn= 1.01D-02
 Coeff-Com: -0.450D-02 0.223D-01 0.119D+00 0.333D+00 0.531D+00
 Coeff-En:   0.000D+00 0.000D+00 0.000D+00 0.199D-01 0.980D+00
 Coeff:     -0.446D-02 0.220D-01 0.118D+00 0.330D+00 0.535D+00
 Gap=     0.182 Goal=   None    Shift=    0.000
 RMSDP=1.03D-04 MaxDP=6.31D-03 DE=-6.44D-03 OVMax= 7.76D-03

 Cycle   6  Pass 1  IDiag  1:
 E= -1312.08985781556     Delta-E=       -0.000634348239 Rises=F Damp=F
 DIIS: error= 3.94D-04 at cycle   6 NSaved=   6.
 NSaved= 6 IEnMin= 6 EnMin= -1312.08985781556     IErMin= 6 ErrMin= 3.94D-04
 ErrMax= 3.94D-04  0.00D+00 EMaxC= 1.00D-01 BMatC= 1.02D-04 BMatP= 8.01D-04
 IDIUse=3 WtCom= 9.96D-01 WtEn= 3.94D-03
 Coeff-Com: -0.264D-02 0.516D-02 0.428D-01 0.139D+00 0.323D+00 0.492D+00
 Coeff-En:   0.000D+00 0.000D+00 0.000D+00 0.000D+00 0.738D-01 0.926D+00
 Coeff:     -0.263D-02 0.514D-02 0.426D-01 0.139D+00 0.322D+00 0.494D+00
 Gap=     0.182 Goal=   None    Shift=    0.000
 RMSDP=3.24D-05 MaxDP=1.89D-03 DE=-6.34D-04 OVMax= 2.56D-03

 Cycle   7  Pass 1  IDiag  1:
 E= -1312.08994428543     Delta-E=       -0.000086469872 Rises=F Damp=F
 DIIS: error= 8.92D-05 at cycle   7 NSaved=   7.
 NSaved= 7 IEnMin= 7 EnMin= -1312.08994428543     IErMin= 7 ErrMin= 8.92D-05
 ErrMax= 8.92D-05  0.00D+00 EMaxC= 1.00D-01 BMatC= 5.88D-06 BMatP= 1.02D-04
 IDIUse=1 WtCom= 1.00D+00 WtEn= 0.00D+00
 Coeff-Com: -0.115D-02 0.752D-03 0.129D-01 0.468D-01 0.129D+00 0.269D+00
 Coeff-Com:  0.543D+00
 Coeff:     -0.115D-02 0.752D-03 0.129D-01 0.468D-01 0.129D+00 0.269D+00
 Coeff:      0.543D+00
 Gap=     0.182 Goal=   None    Shift=    0.000
 RMSDP=7.57D-06 MaxDP=4.46D-04 DE=-8.65D-05 OVMax= 4.83D-04

 Cycle   8  Pass 1  IDiag  1:
 E= -1312.08994897591     Delta-E=       -0.000004690482 Rises=F Damp=F
 DIIS: error= 2.77D-05 at cycle   8 NSaved=   8.
 NSaved= 8 IEnMin= 8 EnMin= -1312.08994897591     IErMin= 8 ErrMin= 2.77D-05
 ErrMax= 2.77D-05  0.00D+00 EMaxC= 1.00D-01 BMatC= 4.63D-07 BMatP= 5.88D-06
 IDIUse=1 WtCom= 1.00D+00 WtEn= 0.00D+00
 Coeff-Com: -0.300D-03-0.141D-03 0.180D-02 0.842D-02 0.303D-01 0.873D-01
 Coeff-Com:  0.271D+00 0.602D+00
 Coeff:     -0.300D-03-0.141D-03 0.180D-02 0.842D-02 0.303D-01 0.873D-01
 Coeff:      0.271D+00 0.602D+00
 Gap=     0.182 Goal=   None    Shift=    0.000
 RMSDP=2.47D-06 MaxDP=1.14D-04 DE=-4.69D-06 OVMax= 2.22D-04

 Cycle   9  Pass 1  IDiag  1:
 E= -1312.08994937413     Delta-E=       -0.000000398219 Rises=F Damp=F
 DIIS: error= 8.48D-06 at cycle   9 NSaved=   9.
 NSaved= 9 IEnMin= 9 EnMin= -1312.08994937413     IErMin= 9 ErrMin= 8.48D-06
 ErrMax= 8.48D-06  0.00D+00 EMaxC= 1.00D-01 BMatC= 4.62D-08 BMatP= 4.63D-07
 IDIUse=1 WtCom= 1.00D+00 WtEn= 0.00D+00
 Coeff-Com: -0.190D-04-0.127D-03-0.557D-03-0.127D-02-0.199D-03 0.116D-01
 Coeff-Com:  0.631D-01 0.291D+00 0.636D+00
 Coeff:     -0.190D-04-0.127D-03-0.557D-03-0.127D-02-0.199D-03 0.116D-01
 Coeff:      0.631D-01 0.291D+00 0.636D+00
 Gap=     0.182 Goal=   None    Shift=    0.000
 RMSDP=7.34D-07 MaxDP=2.98D-05 DE=-3.98D-07 OVMax= 5.25D-05

 Cycle  10  Pass 1  IDiag  1:
 E= -1312.08994941269     Delta-E=       -0.000000038559 Rises=F Damp=F
 DIIS: error= 3.58D-06 at cycle  10 NSaved=  10.
 NSaved=10 IEnMin=10 EnMin= -1312.08994941269     IErMin=10 ErrMin= 3.58D-06
 ErrMax= 3.58D-06  0.00D+00 EMaxC= 1.00D-01 BMatC= 4.69D-09 BMatP= 4.62D-08
 IDIUse=1 WtCom= 1.00D+00 WtEn= 0.00D+00
 Coeff-Com:  0.257D-05-0.608D-04-0.407D-03-0.116D-02-0.173D-02 0.218D-02
 Coeff-Com:  0.211D-01 0.134D+00 0.355D+00 0.491D+00
 Coeff:      0.257D-05-0.608D-04-0.407D-03-0.116D-02-0.173D-02 0.218D-02
 Coeff:      0.211D-01 0.134D+00 0.355D+00 0.491D+00
 Gap=     0.182 Goal=   None    Shift=    0.000
 RMSDP=2.27D-07 MaxDP=1.51D-05 DE=-3.86D-08 OVMax= 1.95D-05

 Cycle  11  Pass 1  IDiag  1:
 E= -1312.08994941654     Delta-E=       -0.000000003852 Rises=F Damp=F
 DIIS: error= 6.99D-07 at cycle  11 NSaved=  11.
 NSaved=11 IEnMin=11 EnMin= -1312.08994941654     IErMin=11 ErrMin= 6.99D-07
 ErrMax= 6.99D-07  0.00D+00 EMaxC= 1.00D-01 BMatC= 3.51D-10 BMatP= 4.69D-09
 IDIUse=1 WtCom= 1.00D+00 WtEn= 0.00D+00
 Coeff-Com:  0.329D-05-0.646D-05-0.110D-03-0.358D-03-0.844D-03-0.731D-03
 Coeff-Com: -0.344D-03 0.189D-01 0.670D-01 0.232D+00 0.684D+00
 Coeff:      0.329D-05-0.646D-05-0.110D-03-0.358D-03-0.844D-03-0.731D-03
 Coeff:     -0.344D-03 0.189D-01 0.670D-01 0.232D+00 0.684D+00
 Gap=     0.182 Goal=   None    Shift=    0.000
 RMSDP=7.21D-08 MaxDP=3.44D-06 DE=-3.85D-09 OVMax= 4.66D-06

 Cycle  12  Pass 1  IDiag  1:
 E= -1312.08994941679     Delta-E=       -0.000000000250 Rises=F Damp=F
 DIIS: error= 3.43D-07 at cycle  12 NSaved=  12.
 NSaved=12 IEnMin=12 EnMin= -1312.08994941679     IErMin=12 ErrMin= 3.43D-07
 ErrMax= 3.43D-07  0.00D+00 EMaxC= 1.00D-01 BMatC= 8.65D-11 BMatP= 3.51D-10
 IDIUse=1 WtCom= 1.00D+00 WtEn= 0.00D+00
 Coeff-Com:  0.174D-05 0.171D-05-0.325D-04-0.118D-03-0.378D-03-0.658D-03
 Coeff-Com: -0.222D-02-0.599D-03 0.803D-02 0.969D-01 0.422D+00 0.477D+00
 Coeff:      0.174D-05 0.171D-05-0.325D-04-0.118D-03-0.378D-03-0.658D-03
 Coeff:     -0.222D-02-0.599D-03 0.803D-02 0.969D-01 0.422D+00 0.477D+00
 Gap=     0.182 Goal=   None    Shift=    0.000
 RMSDP=3.00D-08 MaxDP=1.24D-06 DE=-2.50D-10 OVMax= 2.33D-06

 Cycle  13  Pass 1  IDiag  1:
 E= -1312.08994941687     Delta-E=       -0.000000000081 Rises=F Damp=F
 DIIS: error= 1.34D-07 at cycle  13 NSaved=  13.
 NSaved=13 IEnMin=13 EnMin= -1312.08994941687     IErMin=13 ErrMin= 1.34D-07
 ErrMax= 1.34D-07  0.00D+00 EMaxC= 1.00D-01 BMatC= 4.24D-12 BMatP= 8.65D-11
 IDIUse=1 WtCom= 1.00D+00 WtEn= 0.00D+00
 Coeff-Com:  0.407D-06 0.137D-05-0.270D-05-0.129D-04-0.793D-04-0.212D-03
 Coeff-Com: -0.981D-03-0.232D-02-0.428D-02 0.166D-01 0.109D+00 0.222D+00
 Coeff-Com:  0.660D+00
 Coeff:      0.407D-06 0.137D-05-0.270D-05-0.129D-04-0.793D-04-0.212D-03
 Coeff:     -0.981D-03-0.232D-02-0.428D-02 0.166D-01 0.109D+00 0.222D+00
 Coeff:      0.660D+00
 Gap=     0.182 Goal=   None    Shift=    0.000
 RMSDP=8.24D-09 MaxDP=2.86D-07 DE=-8.14D-11 OVMax= 5.77D-07

 Error on total polarization charges =  0.02349
 SCF Done:  E(RB3LYP) =  -1312.08994942     A.U. after   13 cycles
            NFock= 13  Conv=0.82D-08     -V/T= 2.0077
 KE= 1.302075381131D+03 PE=-6.432825856307D+03 EE= 2.138039093728D+03
 Leave Link  502 at Tue Sep 22 20:04:11 2020, MaxMem=  2147483648 cpu:             262.6 elap:              65.7
 (Enter /prod/apps/gaussian/g16b1/l601.exe)
 Copying SCF densities to generalized density rwf, IOpCl= 0 IROHF=0.

 **********************************************************************

            Population analysis using the SCF Density.

 **********************************************************************

 Alpha  occ. eigenvalues --  -89.13398 -19.24208 -19.16366 -19.16271 -14.39169
 Alpha  occ. eigenvalues --  -14.38516 -10.27818 -10.27043 -10.23775 -10.21804
 Alpha  occ. eigenvalues --  -10.21708 -10.21625 -10.20969 -10.20771 -10.20741
 Alpha  occ. eigenvalues --  -10.20220 -10.20094 -10.20056 -10.19867 -10.19763
 Alpha  occ. eigenvalues --  -10.19736  -8.15935  -6.12457  -6.12347  -6.12212
 Alpha  occ. eigenvalues --   -1.14739  -1.12947  -1.01822  -0.96539  -0.88202
 Alpha  occ. eigenvalues --   -0.87459  -0.85363  -0.81130  -0.78453  -0.76727
 Alpha  occ. eigenvalues --   -0.75479  -0.75259  -0.69631  -0.64852  -0.62970
 Alpha  occ. eigenvalues --   -0.62632  -0.61064  -0.59690  -0.59077  -0.55706
 Alpha  occ. eigenvalues --   -0.54815  -0.52358  -0.50214  -0.49392  -0.49000
 Alpha  occ. eigenvalues --   -0.47901  -0.47824  -0.46269  -0.46039  -0.45583
 Alpha  occ. eigenvalues --   -0.44652  -0.44170  -0.43216  -0.42434  -0.40368
 Alpha  occ. eigenvalues --   -0.39322  -0.38674  -0.38092  -0.37301  -0.36521
 Alpha  occ. eigenvalues --   -0.36325  -0.36083  -0.35018  -0.33626  -0.32868
 Alpha  occ. eigenvalues --   -0.32424  -0.31890  -0.29954  -0.27878  -0.27154
 Alpha  occ. eigenvalues --   -0.26314  -0.25944  -0.23574
 Alpha virt. eigenvalues --   -0.05329  -0.04481  -0.01991  -0.00974   0.01580
 Alpha virt. eigenvalues --    0.04616   0.07055   0.07077   0.07932   0.09317
 Alpha virt. eigenvalues --    0.09910   0.10861   0.11700   0.12975   0.13827
 Alpha virt. eigenvalues --    0.14221   0.15250   0.15562   0.16487   0.16889
 Alpha virt. eigenvalues --    0.16974   0.17693   0.18603   0.19362   0.19470
 Alpha virt. eigenvalues --    0.23591   0.23904   0.26063   0.26603   0.28319
 Alpha virt. eigenvalues --    0.29120   0.30011   0.30216   0.31012   0.32366
 Alpha virt. eigenvalues --    0.32952   0.33882   0.34685   0.37305   0.41703
 Alpha virt. eigenvalues --    0.42127   0.43859   0.44225   0.47266   0.48583
 Alpha virt. eigenvalues --    0.50190   0.50822   0.51711   0.51902   0.53308
 Alpha virt. eigenvalues --    0.53580   0.54295   0.55245   0.55698   0.56212
 Alpha virt. eigenvalues --    0.56884   0.57716   0.57732   0.58096   0.58245
 Alpha virt. eigenvalues --    0.58879   0.59466   0.59821   0.60396   0.60540
 Alpha virt. eigenvalues --    0.61126   0.61547   0.61871   0.62547   0.63108
 Alpha virt. eigenvalues --    0.64328   0.64710   0.65266   0.67096   0.68232
 Alpha virt. eigenvalues --    0.69567   0.70739   0.73066   0.74425   0.75373
 Alpha virt. eigenvalues --    0.75939   0.77369   0.77946   0.79333   0.79818
 Alpha virt. eigenvalues --    0.80452   0.81748   0.82265   0.83190   0.83643
 Alpha virt. eigenvalues --    0.84048   0.84166   0.85235   0.86056   0.86765
 Alpha virt. eigenvalues --    0.88439   0.89538   0.89971   0.90645   0.90840
 Alpha virt. eigenvalues --    0.91752   0.92065   0.92643   0.93762   0.95897
 Alpha virt. eigenvalues --    0.96763   0.97642   0.98200   0.98575   0.99944
 Alpha virt. eigenvalues --    1.02068   1.03251   1.04031   1.04379   1.08407
 Alpha virt. eigenvalues --    1.09652   1.10269   1.11375   1.12126   1.14755
 Alpha virt. eigenvalues --    1.15890   1.16979   1.17195   1.17980   1.19964
 Alpha virt. eigenvalues --    1.20460   1.23948   1.24254   1.25043   1.26012
 Alpha virt. eigenvalues --    1.27452   1.29405   1.31133   1.33323   1.34960
 Alpha virt. eigenvalues --    1.35995   1.38706   1.39385   1.40766   1.41847
 Alpha virt. eigenvalues --    1.42288   1.42811   1.43487   1.45471   1.46542
 Alpha virt. eigenvalues --    1.47177   1.47529   1.47987   1.48257   1.48771
 Alpha virt. eigenvalues --    1.50137   1.52130   1.53717   1.54294   1.58648
 Alpha virt. eigenvalues --    1.62144   1.63076   1.65664   1.71805   1.75397
 Alpha virt. eigenvalues --    1.76616   1.76951   1.78486   1.78866   1.79522
 Alpha virt. eigenvalues --    1.80860   1.82577   1.83286   1.84351   1.85846
 Alpha virt. eigenvalues --    1.86377   1.88815   1.89022   1.90723   1.92511
 Alpha virt. eigenvalues --    1.94522   1.94687   1.95960   1.96920   1.97295
 Alpha virt. eigenvalues --    1.98737   2.01544   2.03515   2.04888   2.05550
 Alpha virt. eigenvalues --    2.08706   2.10430   2.11071   2.11867   2.12388
 Alpha virt. eigenvalues --    2.12722   2.13172   2.13346   2.13755   2.14040
 Alpha virt. eigenvalues --    2.14599   2.18018   2.18806   2.20745   2.22168
 Alpha virt. eigenvalues --    2.24609   2.27292   2.27820   2.28614   2.30005
 Alpha virt. eigenvalues --    2.30220   2.30904   2.31060   2.32673   2.33876
 Alpha virt. eigenvalues --    2.42821   2.50202   2.52192   2.52821   2.54348
 Alpha virt. eigenvalues --    2.56473   2.56989   2.58021   2.59004   2.62017
 Alpha virt. eigenvalues --    2.63056   2.64869   2.66122   2.66604   2.68491
 Alpha virt. eigenvalues --    2.69846   2.72233   2.72585   2.73922   2.74300
 Alpha virt. eigenvalues --    2.74604   2.75767   2.79041   2.81949   2.83745
 Alpha virt. eigenvalues --    2.90032   2.90506   3.00711   3.01959   3.05028
 Alpha virt. eigenvalues --    3.13565   3.26891   3.36919   3.42909   3.77442
 Alpha virt. eigenvalues --    3.88571   3.90007   4.02450   4.05008   4.06829
 Alpha virt. eigenvalues --    4.08256   4.08864   4.10272   4.10916   4.13438
 Alpha virt. eigenvalues --    4.19222   4.23646   4.31333   4.31628   4.34395
 Alpha virt. eigenvalues --    4.37712   4.39650   4.54688   4.65082   4.74063
          Condensed to atoms (all electrons):
               1          2          3          4          5          6
     1  O    8.287720   0.430307  -0.050431  -0.005353   0.000083   0.000000
     2  S    0.430307  13.676702   0.115495  -0.013391  -0.002363   0.000084
     3  N   -0.050431   0.115495   7.439303   0.242121  -0.073730   0.005503
     4  C   -0.005353  -0.013391   0.242121   4.487270   0.439797  -0.049391
     5  N    0.000083  -0.002363  -0.073730   0.439797   6.914993   0.130090
     6  O    0.000000   0.000084   0.005503  -0.049391   0.130090   8.194552
     7  C    0.000532  -0.000136  -0.000637  -0.012949  -0.088338   0.249472
     8  C   -0.000005  -0.000022  -0.000198   0.003368   0.004622  -0.037485
     9  C    0.000003  -0.000002   0.000002   0.000614  -0.000112   0.003129
    10  C   -0.000000  -0.000000   0.000000  -0.000007   0.000002  -0.000062
    11  C   -0.000000   0.000000   0.000000   0.000000  -0.000000   0.000002
    12  C    0.000000  -0.000000  -0.000000   0.000004   0.000001   0.000283
    13  C    0.000000   0.000000  -0.000001  -0.000371   0.000167  -0.006846
    14  C    0.001037  -0.000682  -0.055815   0.454290  -0.049200  -0.087208
    15  C   -0.058322   0.176546  -0.054375   0.003108  -0.000064   0.000000
    16  C    0.001578  -0.017079   0.002753  -0.000000  -0.000001   0.000000
    17  C    0.000247   0.001718  -0.000042   0.000001  -0.000000   0.000000
    18  C   -0.000005  -0.000337   0.000010  -0.000000   0.000000  -0.000000
    19  C   -0.000039   0.003634  -0.000119  -0.000000   0.000000   0.000000
    20  C    0.000110  -0.027386  -0.000808  -0.000053   0.000001  -0.000000
    21  O   -0.046216   0.449733  -0.057005   0.001229  -0.000062  -0.000000
    22  H    0.001234  -0.004560   0.285567  -0.021892   0.003709  -0.000177
    23  H   -0.000014  -0.000003  -0.000000   0.000084  -0.000006   0.000027
    24  H    0.000000   0.000000  -0.000000  -0.000000  -0.000000   0.000000
    25  H   -0.000000  -0.000000  -0.000000  -0.000000   0.000000   0.000000
    26  H    0.000000   0.000000   0.000000  -0.000000   0.000000  -0.000003
    27  H   -0.000000  -0.000000  -0.000000   0.000054  -0.000238   0.009827
    28  H    0.009562   0.001246  -0.001803  -0.028074   0.005010   0.003243
    29  H    0.002880   0.000680   0.001694  -0.000091   0.000001  -0.000000
    30  H    0.000001  -0.000054  -0.000002  -0.000000   0.000000  -0.000000
    31  H   -0.000000   0.000006   0.000000   0.000000  -0.000000   0.000000
    32  H    0.000000  -0.000067   0.000001  -0.000000   0.000000  -0.000000
    33  H    0.000057  -0.004803   0.000173  -0.000007   0.000000  -0.000000
               7          8          9         10         11         12
     1  O    0.000532  -0.000005   0.000003  -0.000000  -0.000000   0.000000
     2  S   -0.000136  -0.000022  -0.000002  -0.000000   0.000000  -0.000000
     3  N   -0.000637  -0.000198   0.000002   0.000000   0.000000  -0.000000
     4  C   -0.012949   0.003368   0.000614  -0.000007   0.000000   0.000004
     5  N   -0.088338   0.004622  -0.000112   0.000002  -0.000000   0.000001
     6  O    0.249472  -0.037485   0.003129  -0.000062   0.000002   0.000283
     7  C    4.753055   0.343280  -0.041957   0.006367   0.000843   0.004695
     8  C    0.343280   4.787711   0.535381  -0.010883  -0.033967  -0.009340
     9  C   -0.041957   0.535381   5.015750   0.517509  -0.039941  -0.041452
    10  C    0.006367  -0.010883   0.517509   4.884945   0.539054  -0.026019
    11  C    0.000843  -0.033967  -0.039941   0.539054   4.875023   0.538535
    12  C    0.004695  -0.009340  -0.041452  -0.026019   0.538535   4.891755
    13  C   -0.041460   0.472043  -0.082155  -0.042202  -0.038038   0.505648
    14  C    0.491072  -0.057079  -0.020665   0.000237   0.000015  -0.000234
    15  C   -0.000004  -0.000000  -0.000000  -0.000000   0.000000  -0.000000
    16  C    0.000000   0.000000  -0.000000  -0.000000   0.000000  -0.000000
    17  C   -0.000000  -0.000000   0.000000   0.000000  -0.000000   0.000000
    18  C    0.000000   0.000000  -0.000000  -0.000000  -0.000000   0.000000
    19  C    0.000000  -0.000000   0.000000   0.000000  -0.000000   0.000000
    20  C    0.000000  -0.000000   0.000000   0.000000  -0.000000   0.000000
    21  O   -0.000040  -0.000000  -0.000000  -0.000000   0.000000  -0.000000
    22  H    0.000261   0.000001   0.000000  -0.000000   0.000000   0.000000
    23  H   -0.012635  -0.036804   0.357288  -0.041621   0.004484   0.000160
    24  H   -0.000202   0.003227  -0.037481   0.363153  -0.040809   0.004382
    25  H    0.000003   0.000478   0.004806  -0.041691   0.364854  -0.041472
    26  H   -0.000171   0.003233   0.000767   0.004401  -0.040896   0.363705
    27  H   -0.012996  -0.043040   0.005362   0.000193   0.004565  -0.041048
    28  H   -0.029889  -0.003226   0.001020   0.000081  -0.000001   0.000001
    29  H    0.000000  -0.000000   0.000000   0.000000  -0.000000   0.000000
    30  H   -0.000000   0.000000  -0.000000  -0.000000   0.000000  -0.000000
    31  H    0.000000  -0.000000   0.000000   0.000000   0.000000   0.000000
    32  H    0.000000   0.000000  -0.000000   0.000000   0.000000   0.000000
    33  H    0.000000   0.000000  -0.000000  -0.000000   0.000000   0.000000
              13         14         15         16         17         18
     1  O    0.000000   0.001037  -0.058322   0.001578   0.000247  -0.000005
     2  S    0.000000  -0.000682   0.176546  -0.017079   0.001718  -0.000337
     3  N   -0.000001  -0.055815  -0.054375   0.002753  -0.000042   0.000010
     4  C   -0.000371   0.454290   0.003108  -0.000000   0.000001  -0.000000
     5  N    0.000167  -0.049200  -0.000064  -0.000001  -0.000000   0.000000
     6  O   -0.006846  -0.087208   0.000000   0.000000   0.000000  -0.000000
     7  C   -0.041460   0.491072  -0.000004   0.000000  -0.000000   0.000000
     8  C    0.472043  -0.057079  -0.000000   0.000000  -0.000000   0.000000
     9  C   -0.082155  -0.020665  -0.000000  -0.000000   0.000000  -0.000000
    10  C   -0.042202   0.000237  -0.000000  -0.000000   0.000000  -0.000000
    11  C   -0.038038   0.000015   0.000000   0.000000  -0.000000  -0.000000
    12  C    0.505648  -0.000234  -0.000000  -0.000000   0.000000   0.000000
    13  C    5.060546   0.011820  -0.000000  -0.000000  -0.000000   0.000000
    14  C    0.011820   5.225433  -0.000044  -0.000001  -0.000000   0.000000
    15  C   -0.000000  -0.000044   5.372712   0.469056  -0.029058  -0.039345
    16  C   -0.000000  -0.000001   0.469056   4.918116   0.521266  -0.031278
    17  C   -0.000000  -0.000000  -0.029058   0.521266   4.877409   0.535766
    18  C    0.000000   0.000000  -0.039345  -0.031278   0.535766   4.855545
    19  C    0.000000   0.000000  -0.032325  -0.037840  -0.029638   0.539500
    20  C   -0.000000  -0.000000   0.509700  -0.033625  -0.038553  -0.031512
    21  O    0.000000  -0.000197  -0.061597   0.001455  -0.000042  -0.000004
    22  H   -0.000000   0.004155   0.000768   0.000117  -0.000027   0.000002
    23  H    0.005629   0.006407  -0.000000   0.000000  -0.000000  -0.000000
    24  H    0.000793  -0.000001   0.000000  -0.000000  -0.000000   0.000000
    25  H    0.004685  -0.000000  -0.000000   0.000000  -0.000000   0.000000
    26  H   -0.037621   0.000001   0.000000  -0.000000  -0.000000   0.000000
    27  H    0.363012   0.000242  -0.000000  -0.000000  -0.000000   0.000000
    28  H   -0.000086   0.351353   0.000045  -0.000008   0.000000   0.000000
    29  H   -0.000000   0.000010  -0.051311   0.365641  -0.032731   0.004173
    30  H    0.000000  -0.000000   0.004949  -0.040488   0.367212  -0.039783
    31  H   -0.000000   0.000000   0.000436   0.004873  -0.040813   0.365722
    32  H    0.000000  -0.000000   0.004873   0.000618   0.004207  -0.039982
    33  H   -0.000000   0.000000  -0.046560   0.004419   0.000227   0.004217
              19         20         21         22         23         24
     1  O   -0.000039   0.000110  -0.046216   0.001234  -0.000014   0.000000
     2  S    0.003634  -0.027386   0.449733  -0.004560  -0.000003   0.000000
     3  N   -0.000119  -0.000808  -0.057005   0.285567  -0.000000  -0.000000
     4  C   -0.000000  -0.000053   0.001229  -0.021892   0.000084  -0.000000
     5  N    0.000000   0.000001  -0.000062   0.003709  -0.000006  -0.000000
     6  O    0.000000  -0.000000  -0.000000  -0.000177   0.000027   0.000000
     7  C    0.000000   0.000000  -0.000040   0.000261  -0.012635  -0.000202
     8  C   -0.000000  -0.000000  -0.000000   0.000001  -0.036804   0.003227
     9  C    0.000000   0.000000  -0.000000   0.000000   0.357288  -0.037481
    10  C    0.000000   0.000000  -0.000000  -0.000000  -0.041621   0.363153
    11  C   -0.000000  -0.000000   0.000000   0.000000   0.004484  -0.040809
    12  C    0.000000   0.000000  -0.000000   0.000000   0.000160   0.004382
    13  C    0.000000  -0.000000   0.000000  -0.000000   0.005629   0.000793
    14  C    0.000000  -0.000000  -0.000197   0.004155   0.006407  -0.000001
    15  C   -0.032325   0.509700  -0.061597   0.000768  -0.000000   0.000000
    16  C   -0.037840  -0.033625   0.001455   0.000117   0.000000  -0.000000
    17  C   -0.029638  -0.038553  -0.000042  -0.000027  -0.000000  -0.000000
    18  C    0.539500  -0.031512  -0.000004   0.000002  -0.000000   0.000000
    19  C    4.886301   0.508985   0.000566   0.000004  -0.000000   0.000000
    20  C    0.508985   4.910540   0.002938   0.000368   0.000000   0.000000
    21  O    0.000566   0.002938   8.239422   0.000019  -0.000000   0.000000
    22  H    0.000004   0.000368   0.000019   0.309039  -0.000000   0.000000
    23  H   -0.000000   0.000000  -0.000000  -0.000000   0.554772  -0.004864
    24  H    0.000000   0.000000   0.000000   0.000000  -0.004864   0.557497
    25  H    0.000000  -0.000000   0.000000  -0.000000  -0.000154  -0.005124
    26  H    0.000000   0.000000  -0.000000  -0.000000   0.000015  -0.000162
    27  H   -0.000000  -0.000000   0.000000  -0.000000  -0.000138   0.000015
    28  H    0.000000  -0.000001   0.000064  -0.000135   0.001797  -0.000002
    29  H    0.000324   0.003968   0.000052   0.000019  -0.000000   0.000000
    30  H    0.004226   0.000599   0.000000   0.000000   0.000000  -0.000000
    31  H   -0.040639   0.004767  -0.000000  -0.000000  -0.000000   0.000000
    32  H    0.367802  -0.040994   0.000002   0.000000   0.000000  -0.000000
    33  H   -0.033527   0.363172   0.010150   0.000026   0.000000  -0.000000
              25         26         27         28         29         30
     1  O   -0.000000   0.000000  -0.000000   0.009562   0.002880   0.000001
     2  S   -0.000000   0.000000  -0.000000   0.001246   0.000680  -0.000054
     3  N   -0.000000   0.000000  -0.000000  -0.001803   0.001694  -0.000002
     4  C   -0.000000  -0.000000   0.000054  -0.028074  -0.000091  -0.000000
     5  N    0.000000   0.000000  -0.000238   0.005010   0.000001   0.000000
     6  O    0.000000  -0.000003   0.009827   0.003243  -0.000000  -0.000000
     7  C    0.000003  -0.000171  -0.012996  -0.029889   0.000000  -0.000000
     8  C    0.000478   0.003233  -0.043040  -0.003226  -0.000000   0.000000
     9  C    0.004806   0.000767   0.005362   0.001020   0.000000  -0.000000
    10  C   -0.041691   0.004401   0.000193   0.000081   0.000000  -0.000000
    11  C    0.364854  -0.040896   0.004565  -0.000001  -0.000000   0.000000
    12  C   -0.041472   0.363705  -0.041048   0.000001   0.000000  -0.000000
    13  C    0.004685  -0.037621   0.363012  -0.000086  -0.000000   0.000000
    14  C   -0.000000   0.000001   0.000242   0.351353   0.000010  -0.000000
    15  C   -0.000000   0.000000  -0.000000   0.000045  -0.051311   0.004949
    16  C    0.000000  -0.000000  -0.000000  -0.000008   0.365641  -0.040488
    17  C   -0.000000  -0.000000  -0.000000   0.000000  -0.032731   0.367212
    18  C    0.000000   0.000000   0.000000   0.000000   0.004173  -0.039783
    19  C    0.000000   0.000000  -0.000000   0.000000   0.000324   0.004226
    20  C   -0.000000   0.000000  -0.000000  -0.000001   0.003968   0.000599
    21  O    0.000000  -0.000000   0.000000   0.000064   0.000052   0.000000
    22  H   -0.000000  -0.000000  -0.000000  -0.000135   0.000019   0.000000
    23  H   -0.000154   0.000015  -0.000138   0.001797  -0.000000   0.000000
    24  H   -0.005124  -0.000162   0.000015  -0.000002   0.000000  -0.000000
    25  H    0.560249  -0.005096  -0.000151  -0.000000   0.000000   0.000000
    26  H   -0.005096   0.557577  -0.004923   0.000000  -0.000000  -0.000000
    27  H   -0.000151  -0.004923   0.554535  -0.000008   0.000000   0.000000
    28  H   -0.000000   0.000000  -0.000008   0.491724   0.000000  -0.000000
    29  H    0.000000  -0.000000   0.000000   0.000000   0.521489  -0.005239
    30  H    0.000000  -0.000000   0.000000  -0.000000  -0.005239   0.541180
    31  H    0.000000   0.000000  -0.000000   0.000000  -0.000141  -0.005079
    32  H    0.000000   0.000000   0.000000  -0.000000   0.000014  -0.000154
    33  H    0.000000   0.000000   0.000000  -0.000000  -0.000138   0.000013
              31         32         33
     1  O   -0.000000   0.000000   0.000057
     2  S    0.000006  -0.000067  -0.004803
     3  N    0.000000   0.000001   0.000173
     4  C    0.000000  -0.000000  -0.000007
     5  N   -0.000000   0.000000   0.000000
     6  O    0.000000  -0.000000  -0.000000
     7  C    0.000000   0.000000   0.000000
     8  C   -0.000000   0.000000   0.000000
     9  C    0.000000  -0.000000  -0.000000
    10  C    0.000000   0.000000  -0.000000
    11  C    0.000000   0.000000   0.000000
    12  C    0.000000   0.000000   0.000000
    13  C   -0.000000   0.000000  -0.000000
    14  C    0.000000  -0.000000   0.000000
    15  C    0.000436   0.004873  -0.046560
    16  C    0.004873   0.000618   0.004419
    17  C   -0.040813   0.004207   0.000227
    18  C    0.365722  -0.039982   0.004217
    19  C   -0.040639   0.367802  -0.033527
    20  C    0.004767  -0.040994   0.363172
    21  O   -0.000000   0.000002   0.010150
    22  H   -0.000000   0.000000   0.000026
    23  H   -0.000000   0.000000   0.000000
    24  H    0.000000  -0.000000  -0.000000
    25  H    0.000000   0.000000   0.000000
    26  H    0.000000   0.000000   0.000000
    27  H   -0.000000   0.000000   0.000000
    28  H    0.000000  -0.000000  -0.000000
    29  H   -0.000141   0.000014  -0.000138
    30  H   -0.005079  -0.000154   0.000013
    31  H    0.544843  -0.005127  -0.000135
    32  H   -0.005127   0.541808  -0.005026
    33  H   -0.000135  -0.005026   0.518886
 Mulliken charges:
               1
     1  O   -0.574965
     2  S    1.214736
     3  N   -0.797654
     4  C    0.499642
     5  N   -0.284360
     6  O   -0.415042
     7  C    0.391834
     8  C    0.078706
     9  C   -0.177866
    10  C   -0.153455
    11  C   -0.133723
    12  C   -0.149603
    13  C   -0.175562
    14  C   -0.274945
    15  C   -0.169188
    16  C   -0.129571
    17  C   -0.137150
    18  C   -0.122689
    19  C   -0.137216
    20  C   -0.132216
    21  O   -0.540469
    22  H    0.421501
    23  H    0.165578
    24  H    0.159577
    25  H    0.158612
    26  H    0.159173
    27  H    0.164738
    28  H    0.198087
    29  H    0.188706
    30  H    0.172616
    31  H    0.171286
    32  H    0.172026
    33  H    0.188856
 Sum of Mulliken charges =  -0.00000
 Mulliken charges with hydrogens summed into heavy atoms:
               1
     1  O   -0.574965
     2  S    1.214736
     3  N   -0.376153
     4  C    0.499642
     5  N   -0.284360
     6  O   -0.415042
     7  C    0.391834
     8  C    0.078706
     9  C   -0.012288
    10  C    0.006122
    11  C    0.024889
    12  C    0.009569
    13  C   -0.010824
    14  C   -0.076859
    15  C   -0.169188
    16  C    0.059135
    17  C    0.035466
    18  C    0.048597
    19  C    0.034811
    20  C    0.056640
    21  O   -0.540469
 Electronic spatial extent (au):  <R**2>=           9760.4736
 Charge=             -0.0000 electrons
 Dipole moment (field-independent basis, Debye):
    X=              3.0910    Y=              1.2950    Z=             -3.5888  Tot=              4.9103
 Quadrupole moment (field-independent basis, Debye-Ang):
   XX=            -67.1412   YY=           -127.8082   ZZ=           -132.5114
   XY=            -10.5657   XZ=            -10.8225   YZ=             -3.8983
 Traceless Quadrupole moment (field-independent basis, Debye-Ang):
   XX=             42.0124   YY=            -18.6546   ZZ=            -23.3578
   XY=            -10.5657   XZ=            -10.8225   YZ=             -3.8983
 Octapole moment (field-independent basis, Debye-Ang**2):
  XXX=             81.8685  YYY=             13.7584  ZZZ=            -13.3150  XYY=            -11.0784
  XXY=              4.9741  XXZ=            -35.1863  XZZ=             27.3061  YZZ=              6.1241
  YYZ=              0.8734  XYZ=            -23.8663
 Hexadecapole moment (field-independent basis, Debye-Ang**3):
 XXXX=          -8901.7318 YYYY=           -920.9618 ZZZZ=           -622.9595 XXXY=           -139.1231
 XXXZ=           -147.4064 YYYX=            -71.2325 YYYZ=             -7.8409 ZZZX=            -47.1839
 ZZZY=            -11.2243 XXYY=          -1980.2431 XXZZ=          -2070.6948 YYZZ=           -249.5243
 XXYZ=            -56.7543 YYXZ=            -20.8226 ZZXY=             46.3091
 N-N= 1.680621432031D+03 E-N=-6.432825852574D+03  KE= 1.302075381131D+03
 No NMR shielding tensors so no spin-rotation constants.
 Leave Link  601 at Tue Sep 22 20:04:11 2020, MaxMem=  2147483648 cpu:               0.4 elap:               0.1
 (Enter /prod/apps/gaussian/g16b1/l701.exe)
 ... and contract with generalized density number  0.
 Compute integral first derivatives.
 D1PCM: PCM CHGder 1st derivatives, ID1Alg=3 FixD1E=F DoIter=F DoCFld=F I1PDM=0.
 GePol: Maximum number of non-zero 1st derivatives   =     174
 Leave Link  701 at Tue Sep 22 20:04:14 2020, MaxMem=  2147483648 cpu:              10.2 elap:               2.6
 (Enter /prod/apps/gaussian/g16b1/l702.exe)
 L702 exits ... SP integral derivatives will be done elsewhere.
 Leave Link  702 at Tue Sep 22 20:04:14 2020, MaxMem=  2147483648 cpu:               0.1 elap:               0.0
 (Enter /prod/apps/gaussian/g16b1/l703.exe)
 Integral derivatives from FoFJK, PRISM(SPDF).
 Compute integral first derivatives, UseDBF=F ICtDFT=           0.
 Calling FoFJK, ICntrl=      2127 FMM=F ISym2X=0 I1Cent= 0 IOpClX= 0 NMat=1 NMatS=1 NMatT=0.
 FoFJK:  IHMeth= 1 ICntrl=    2127 DoSepK=F KAlg= 0 I1Cent=           0 FoldK=F
 IRaf=         0 NMat=       1 IRICut=       1 DoRegI=T DoRafI=F ISym2E= 0 IDoP0=0 IntGTp=1.
 FoFCou: FMM=F IPFlag=           0 FMFlag=      100000 FMFlg1=         800
         NFxFlg=           0 DoJE=F BraDBF=F KetDBF=F FulRan=T
         wScrn=  0.000000 ICntrl=      2127 IOpCl=  0 I1Cent=           0 NGrid=           0
         NMat0=    1 NMatS0=      1 NMatT0=    0 NMatD0=    1 NMtDS0=    0 NMtDT0=    0
 Symmetry not used in FoFCou.
 Leave Link  703 at Tue Sep 22 20:04:29 2020, MaxMem=  2147483648 cpu:              58.9 elap:              14.7
 (Enter /prod/apps/gaussian/g16b1/l716.exe)
 Dipole        = 1.21609706D+00 5.09482060D-01-1.41196099D+00
 -------------------------------------------------------------------
 Center     Atomic                   Forces (Hartrees/Bohr)
 Number     Number              X              Y              Z
 -------------------------------------------------------------------
      1        8           0.000075385   -0.000359791   -0.000018952
      2       16           0.000255641    0.000136330   -0.000622096
      3        7           0.001471423   -0.000516989   -0.000046498
      4        6          -0.000893426   -0.001437603    0.000058589
      5        7           0.000007800    0.001035053    0.000187106
      6        8           0.000142568    0.000115143    0.000013790
      7        6           0.000256081   -0.000407676   -0.000009150
      8        6           0.000665959    0.000027182   -0.000175994
      9        6           0.000838690    0.000414761    0.000198897
     10        6          -0.000877428    0.000524187   -0.000021449
     11        6           0.000602456   -0.000229970    0.000163972
     12        6          -0.000492987    0.000221454   -0.000239499
[...]
 Alpha virt. eigenvalues --    4.78570   4.90050
          Condensed to atoms (all electrons):
               1          2          3          4          5          6
     1  O    9.428979  -0.439165   0.054691   0.089326  -0.013314  -0.001232
     2  S   -0.439165  16.199157  -0.107335   0.141929   0.042276   0.020358
     3  N    0.054691  -0.107335   8.154435  -0.588872  -0.183049  -0.018667
     4  C    0.089326   0.141929  -0.588872  11.738679  -1.005754   0.719020
     5  N   -0.013314   0.042276  -0.183049  -1.005754   8.875014  -0.803680
     6  O   -0.001232   0.020358  -0.018667   0.719020  -0.803680  10.197661
     7  C   -0.178548   0.057590   0.086666  -0.386878  -0.333421  -1.018699
     8  C    0.003653   0.006061  -0.089670   0.319731   0.079094   0.731527
     9  C    0.005279  -0.022178   0.061824  -0.645335   0.211132  -0.238956
    10  C    0.007739  -0.000317  -0.001616  -0.094308   0.041340   0.055772
    11  C   -0.000172  -0.001289   0.004077  -0.078660   0.005381  -0.057950
    12  C   -0.000483   0.002919  -0.010067   0.306681  -0.109861  -0.005839
    13  C   -0.013525  -0.006977   0.006667   0.042071  -0.180945  -0.298082
    14  C    0.188866  -0.436049   0.064160  -4.246601   0.928015  -0.127859
    15  C    0.283429  -0.655619   0.124853  -0.108139  -0.048247  -0.008543
    16  C   -0.168598   0.070658  -0.111482  -0.115658  -0.022773   0.010823
    17  C   -0.045868   0.252988  -0.057109   0.088595   0.001414   0.000268
    18  C   -0.021972   0.076220   0.010366  -0.051992  -0.000118   0.000318
    19  C    0.015677  -0.488817   0.003064   0.071220  -0.002542  -0.000793
    20  C    0.017967  -0.925863   0.078967  -0.139711  -0.004714  -0.000933
    21  O    0.088363  -0.514784   0.097332  -0.052291   0.012077   0.000770
    22  H    0.002962  -0.206062   0.428730  -0.147204  -0.084817   0.002240
    23  H   -0.010408  -0.000895  -0.001750   0.090075  -0.010431   0.007336
    24  H    0.000464  -0.000080  -0.000245   0.000809   0.000806   0.002120
    25  H   -0.000039  -0.000034   0.000108  -0.001905   0.000290  -0.000566
    26  H    0.000036   0.000040  -0.000109   0.003085  -0.002052   0.006189
    27  H   -0.000889   0.000717  -0.000966   0.027882  -0.035456  -0.104036
    28  H   -0.033063   0.035333  -0.062039   0.252690  -0.046680   0.007615
    29  H    0.018613  -0.225474  -0.003431  -0.019503  -0.009422   0.002672
    30  H    0.000443   0.021034   0.001283  -0.000838   0.000503  -0.000097
    31  H   -0.000856  -0.003399  -0.000392  -0.000227  -0.000079   0.000018
    32  H    0.001246   0.005532   0.000529   0.000056  -0.000030  -0.000003
    33  H   -0.005433  -0.059412  -0.010804   0.029516  -0.003313   0.000001
               7          8          9         10         11         12
     1  O   -0.178548   0.003653   0.005279   0.007739  -0.000172  -0.000483
     2  S    0.057590   0.006061  -0.022178  -0.000317  -0.001289   0.002919
     3  N    0.086666  -0.089670   0.061824  -0.001616   0.004077  -0.010067
     4  C   -0.386878   0.319731  -0.645335  -0.094308  -0.078660   0.306681
     5  N   -0.333421   0.079094   0.211132   0.041340   0.005381  -0.109861
     6  O   -1.018699   0.731527  -0.238956   0.055772  -0.057950  -0.005839
     7  C   22.447134  -6.647212   0.529572  -0.779176   0.737602  -0.606903
     8  C   -6.647212  20.832879  -8.044228   2.208735  -4.132765   1.959553
     9  C    0.529572  -8.044228  21.799805  -6.673227   3.695056  -3.616909
    10  C   -0.779176   2.208735  -6.673227  14.090193  -3.270008   3.606254
    11  C    0.737602  -4.132765   3.695056  -3.270008   9.595733  -3.195135
    12  C   -0.606903   1.959553  -3.616909   3.606254  -3.195135  11.859199
    13  C    0.693640  -6.520859   0.580543  -3.354883   2.884999  -4.289962
    14  C   -9.463644   2.974129  -1.894695   0.741578  -0.497016   0.060139
    15  C    0.097337  -0.037828   0.008839  -0.000706   0.000037   0.000460
    16  C   -0.042622   0.009864  -0.006168  -0.000032  -0.000368   0.000551
    17  C    0.001388   0.000960  -0.002980  -0.000219  -0.000045   0.000075
    18  C   -0.004807  -0.000113   0.000124   0.000001  -0.000003   0.000007
    19  C    0.003974   0.000414   0.000381   0.000037   0.000005  -0.000020
    20  C   -0.030191   0.001775   0.002727   0.000474   0.000011  -0.000124
    21  O   -0.049475   0.005226   0.003137   0.000798   0.000005  -0.000199
    22  H   -0.063342   0.001400  -0.002002   0.000776  -0.000616   0.001069
    23  H   -0.076628   0.862207  -1.194726   0.180505  -0.138321   0.106599
    24  H   -0.049513  -0.150954   0.937432  -0.974662   0.297606  -0.260692
    25  H   -0.015427   0.054172  -0.069450   0.290922  -0.595188   0.384965
    26  H   -0.013972  -0.120513   0.072819  -0.222740   0.297711  -0.786927
    27  H    0.256619   0.292449  -0.088684   0.040039  -0.081952   0.370968
    28  H    0.766233   0.006017  -0.060351   0.090911  -0.030874   0.004539
    29  H    0.013386  -0.003816   0.003380  -0.000292   0.000007   0.000290
    30  H    0.000404   0.000008  -0.000190  -0.000016  -0.000002  -0.000001
    31  H   -0.000210  -0.000004   0.000012   0.000001  -0.000000   0.000000
    32  H    0.000111   0.000016   0.000008   0.000001   0.000000  -0.000000
    33  H    0.002532  -0.000678  -0.000103  -0.000039  -0.000004   0.000020
              13         14         15         16         17         18
     1  O   -0.013525   0.188866   0.283429  -0.168598  -0.045868  -0.021972
     2  S   -0.006977  -0.436049  -0.655619   0.070658   0.252988   0.076220
     3  N    0.006667   0.064160   0.124853  -0.111482  -0.057109   0.010366
     4  C    0.042071  -4.246601  -0.108139  -0.115658   0.088595  -0.051992
     5  N   -0.180945   0.928015  -0.048247  -0.022773   0.001414  -0.000118
     6  O   -0.298082  -0.127859  -0.008543   0.010823   0.000268   0.000318
     7  C    0.693640  -9.463644   0.097337  -0.042622   0.001388  -0.004807
     8  C   -6.520859   2.974129  -0.037828   0.009864   0.000960  -0.000113
     9  C    0.580543  -1.894695   0.008839  -0.006168  -0.002980   0.000124
    10  C   -3.354883   0.741578  -0.000706  -0.000032  -0.000219   0.000001
    11  C    2.884999  -0.497016   0.000037  -0.000368  -0.000045  -0.000003
    12  C   -4.289962   0.060139   0.000460   0.000551   0.000075   0.000007
    13  C   19.111785  -2.752384   0.004270  -0.001407   0.000231   0.000001
    14  C   -2.752384  19.650321   0.020271   0.034054  -0.061699   0.024611
    15  C    0.004270   0.020271  13.863658  -5.058592   2.171795  -3.567015
    16  C   -0.001407   0.034054  -5.058592  16.602578  -4.981636   3.037354
    17  C    0.000231  -0.061699   2.171795  -4.981636  11.822481  -3.106672
    18  C    0.000001   0.024611  -3.567015   3.037354  -3.106672   9.444478
    19  C   -0.000148  -0.022226   1.910690  -3.423384   3.174968  -3.042081
    20  C   -0.001614   0.069503  -4.859287   0.407532  -3.673784   2.985919
    21  O   -0.003158   0.117736   0.309953  -0.143798   0.022280  -0.021442
    22  H   -0.004380   0.098162  -0.028689   0.057171   0.035679   0.003185
    23  H   -0.110092   0.056746   0.004131  -0.000756  -0.000718  -0.000087
    24  H    0.101254   0.058736  -0.000024   0.000028  -0.000005   0.000002
    25  H   -0.089198   0.003288   0.000002  -0.000009  -0.000001  -0.000000
    26  H    0.698436   0.009670  -0.000002   0.000029   0.000002   0.000001
    27  H   -0.846296  -0.076372  -0.000267  -0.000364  -0.000039  -0.000021
    28  H   -0.003504  -1.363408  -0.022422  -0.002751   0.023939  -0.002077
    29  H    0.001222   0.030121   0.487955  -0.791884   0.210464  -0.166276
    30  H    0.000004  -0.000639  -0.186601   0.533922  -0.654546   0.343193
    31  H   -0.000003   0.000385   0.123563  -0.149206   0.407368  -0.610881
    32  H    0.000000   0.000593  -0.166832   0.135320  -0.259569   0.342221
    33  H    0.000066  -0.015806   0.577815   0.037952   0.074828  -0.142023
              19         20         21         22         23         24
     1  O    0.015677   0.017967   0.088363   0.002962  -0.010408   0.000464
     2  S   -0.488817  -0.925863  -0.514784  -0.206062  -0.000895  -0.000080
     3  N    0.003064   0.078967   0.097332   0.428730  -0.001750  -0.000245
     4  C    0.071220  -0.139711  -0.052291  -0.147204   0.090075   0.000809
     5  N   -0.002542  -0.004714   0.012077  -0.084817  -0.010431   0.000806
     6  O   -0.000793  -0.000933   0.000770   0.002240   0.007336   0.002120
     7  C    0.003974  -0.030191  -0.049475  -0.063342  -0.076628  -0.049513
     8  C    0.000414   0.001775   0.005226   0.001400   0.862207  -0.150954
     9  C    0.000381   0.002727   0.003137  -0.002002  -1.194726   0.937432
    10  C    0.000037   0.000474   0.000798   0.000776   0.180505  -0.974662
    11  C    0.000005   0.000011   0.000005  -0.000616  -0.138321   0.297606
    12  C   -0.000020  -0.000124  -0.000199   0.001069   0.106599  -0.260692
    13  C   -0.000148  -0.001614  -0.003158  -0.004380  -0.110092   0.101254
    14  C   -0.022226   0.069503   0.117736   0.098162   0.056746   0.058736
    15  C    1.910690  -4.859287   0.309953  -0.028689   0.004131  -0.000024
    16  C   -3.423384   0.407532  -0.143798   0.057171  -0.000756   0.000028
    17  C    3.174968  -3.673784   0.022280   0.035679  -0.000718  -0.000005
    18  C   -3.042081   2.985919  -0.021442   0.003185  -0.000087   0.000002
    19  C   10.703112  -3.385543  -0.009828  -0.013477   0.000232  -0.000000
    20  C   -3.385543  16.032909   0.064384  -0.035967   0.000434   0.000028
    21  O   -0.009828   0.064384   9.268862   0.041815  -0.001251   0.000038
    22  H   -0.013477  -0.035967   0.041815   0.970175   0.000529   0.000042
    23  H    0.000232   0.000434  -0.001251   0.000529   1.995515  -0.073549
    24  H   -0.000000   0.000028   0.000038   0.000042  -0.073549   1.662703
    25  H    0.000000  -0.000002  -0.000001  -0.000018  -0.018581  -0.050203
    26  H   -0.000001   0.000002   0.000006   0.000049   0.008940  -0.020014
    27  H    0.000028  -0.000153  -0.000143  -0.000915  -0.013180   0.006157
    28  H   -0.002559  -0.031403   0.004120   0.004710  -0.097491  -0.001474
    29  H    0.122817  -0.055635   0.009714   0.004560   0.002595  -0.000035
    30  H   -0.242694   0.129701   0.000964   0.000461  -0.000081  -0.000001
    31  H    0.374523  -0.177077  -0.000359  -0.000027  -0.000002   0.000000
    32  H   -0.734020   0.583749   0.000144  -0.001453   0.000013  -0.000000
    33  H    0.295690  -0.960930  -0.031623  -0.000532   0.000018  -0.000000
              25         26         27         28         29         30
     1  O   -0.000039   0.000036  -0.000889  -0.033063   0.018613   0.000443
     2  S   -0.000034   0.000040   0.000717   0.035333  -0.225474   0.021034
     3  N    0.000108  -0.000109  -0.000966  -0.062039  -0.003431   0.001283
     4  C   -0.001905   0.003085   0.027882   0.252690  -0.019503  -0.000838
     5  N    0.000290  -0.002052  -0.035456  -0.046680  -0.009422   0.000503
     6  O   -0.000566   0.006189  -0.104036   0.007615   0.002672  -0.000097
     7  C   -0.015427  -0.013972   0.256619   0.766233   0.013386   0.000404
     8  C    0.054172  -0.120513   0.292449   0.006017  -0.003816   0.000008
     9  C   -0.069450   0.072819  -0.088684  -0.060351   0.003380  -0.000190
    10  C    0.290922  -0.222740   0.040039   0.090911  -0.000292  -0.000016
    11  C   -0.595188   0.297711  -0.081952  -0.030874   0.000007  -0.000002
    12  C    0.384965  -0.786927   0.370968   0.004539   0.000290  -0.000001
    13  C   -0.089198   0.698436  -0.846296  -0.003504   0.001222   0.000004
    14  C    0.003288   0.009670  -0.076372  -1.363408   0.030121  -0.000639
    15  C    0.000002  -0.000002  -0.000267  -0.022422   0.487955  -0.186601
    16  C   -0.000009   0.000029  -0.000364  -0.002751  -0.791884   0.533922
    17  C   -0.000001   0.000002  -0.000039   0.023939   0.210464  -0.654546
    18  C   -0.000000   0.000001  -0.000021  -0.002077  -0.166276   0.343193
    19  C    0.000000  -0.000001   0.000028  -0.002559   0.122817  -0.242694
    20  C   -0.000002   0.000002  -0.000153  -0.031403  -0.055635   0.129701
    21  O   -0.000001   0.000006  -0.000143   0.004120   0.009714   0.000964
    22  H   -0.000018   0.000049  -0.000915   0.004710   0.004560   0.000461
    23  H   -0.018581   0.008940  -0.013180  -0.097491   0.002595  -0.000081
    24  H   -0.050203  -0.020014   0.006157  -0.001474  -0.000035  -0.000001
    25  H    1.614686  -0.056375  -0.013499   0.000234   0.000006  -0.000000
    26  H   -0.056375   1.653441  -0.087173   0.001275   0.000004  -0.000000
    27  H   -0.013499  -0.087173   2.025555  -0.004635   0.000036   0.000001
    28  H    0.000234   0.001275  -0.004635   2.212578  -0.021632   0.001637
    29  H    0.000006   0.000004   0.000036  -0.021632   2.076372  -0.120145
    30  H   -0.000000  -0.000000   0.000001   0.001637  -0.120145   1.700105
    31  H   -0.000000   0.000000  -0.000001  -0.000064  -0.012700  -0.065341
    32  H    0.000000  -0.000000   0.000001  -0.000227   0.012517  -0.020918
    33  H   -0.000000   0.000001  -0.000023  -0.000571  -0.013695   0.009001
              31         32         33
     1  O   -0.000856   0.001246  -0.005433
     2  S   -0.003399   0.005532  -0.059412
     3  N   -0.000392   0.000529  -0.010804
     4  C   -0.000227   0.000056   0.029516
     5  N   -0.000079  -0.000030  -0.003313
     6  O    0.000018  -0.000003   0.000001
     7  C   -0.000210   0.000111   0.002532
     8  C   -0.000004   0.000016  -0.000678
     9  C    0.000012   0.000008  -0.000103
    10  C    0.000001   0.000001  -0.000039
    11  C   -0.000000   0.000000  -0.000004
    12  C    0.000000  -0.000000   0.000020
    13  C   -0.000003   0.000000   0.000066
    14  C    0.000385   0.000593  -0.015806
    15  C    0.123563  -0.166832   0.577815
    16  C   -0.149206   0.135320   0.037952
    17  C    0.407368  -0.259569   0.074828
    18  C   -0.610881   0.342221  -0.142023
    19  C    0.374523  -0.734020   0.295690
    20  C   -0.177077   0.583749  -0.960930
    21  O   -0.000359   0.000144  -0.031623
    22  H   -0.000027  -0.001453  -0.000532
    23  H   -0.000002   0.000013   0.000018
    24  H    0.000000  -0.000000  -0.000000
    25  H   -0.000000   0.000000  -0.000000
    26  H    0.000000  -0.000000   0.000001
    27  H   -0.000001   0.000001  -0.000023
    28  H   -0.000064  -0.000227  -0.000571
    29  H   -0.012700   0.012517  -0.013695
    30  H   -0.065341  -0.020918   0.009001
    31  H    1.622238  -0.063890  -0.011122
    32  H   -0.063890   1.693943  -0.090197
    33  H   -0.011122  -0.090197   1.837148
 Mulliken charges:
               1
     1  O   -1.274167
     2  S    3.160937
     3  N   -0.930147
     4  C   -0.237488
     5  N   -0.296645
     6  O   -1.078772
     7  C    0.066481
     8  C    1.398771
     9  C    0.648112
    10  C    0.016164
    11  C    0.562138
    12  C    0.218834
    13  C    0.352229
    14  C    1.827314
    15  C    0.759754
    16  C    0.083655
    17  C    0.555169
    18  C    0.469579
    19  C    0.691304
    20  C   -0.093152
    21  O   -1.219373
    22  H   -0.064211
    23  H   -0.566926
    24  H   -0.486776
    25  H   -0.438177
    26  H   -0.441858
    27  H   -0.665386
    28  H   -0.624610
    29  H   -0.552790
    30  H   -0.450554
    31  H   -0.432268
    32  H   -0.438859
    33  H   -0.518280
 Sum of Mulliken charges =  -0.00000
 Mulliken charges with hydrogens summed into heavy atoms:
               1
     1  O   -1.274167
     2  S    3.160937
     3  N   -0.994359
     4  C   -0.237488
     5  N   -0.296645
     6  O   -1.078772
     7  C    0.066481
     8  C    1.398771
     9  C    0.081186
    10  C   -0.470612
    11  C    0.123961
    12  C   -0.223025
    13  C   -0.313157
    14  C    1.202705
    15  C    0.759754
    16  C   -0.469136
    17  C    0.104615
    18  C    0.037311
    19  C    0.252445
    20  C   -0.611432
    21  O   -1.219373
 Electronic spatial extent (au):  <R**2>=           9756.6565
 Charge=             -0.0000 electrons
 Dipole moment (field-independent basis, Debye):
    X=              2.5131    Y=              1.6930    Z=             -3.1556  Tot=              4.3749
 Quadrupole moment (field-independent basis, Debye-Ang):
   XX=            -77.9301   YY=           -132.3595   ZZ=           -138.5669
   XY=             -7.5548   XZ=             -9.9160   YZ=             -3.5367
 Traceless Quadrupole moment (field-independent basis, Debye-Ang):
   XX=             38.3554   YY=            -16.0740   ZZ=            -22.2814
   XY=             -7.5548   XZ=             -9.9160   YZ=             -3.5367
 Octapole moment (field-independent basis, Debye-Ang**2):
  XXX=             70.2268  YYY=             12.0143  ZZZ=             -8.8132  XYY=            -12.1234
  XXY=              2.8350  XXZ=            -28.8699  XZZ=             28.7506  YZZ=              7.0463
  YYZ=              0.8735  XYZ=            -28.1821
 Hexadecapole moment (field-independent basis, Debye-Ang**3):
 XXXX=          -9588.1951 YYYY=           -970.2130 ZZZZ=           -670.2260 XXXY=            -92.9334
 XXXZ=           -118.7043 YYYX=            -61.1106 YYYZ=             -5.9049 ZZZX=            -31.1832
 ZZZY=            -11.0162 XXYY=          -2071.5325 XXZZ=          -2193.9511 YYZZ=           -267.0711
 XXYZ=            -51.7027 YYXZ=            -28.0206 ZZXY=             54.5336
 N-N= 1.681148428929D+03 E-N=-6.431544698569D+03  KE= 1.304544374583D+03
 Leave Link  601 at Tue Sep 22 21:15:40 2020, MaxMem=   262144000 cpu:               0.6 elap:               0.2
 (Enter /prod/apps/gaussian/g16b1/l9999.exe)
 1\1\GINC-PIRINEUS14\SP\RMP2-FC\Aug-CC-pVDZ\C15H12N2O3S1\UBAFAR01\22-Se
 p-2020\0\\#p mp2/aug-cc-pVDZ scf=(MaxCycle=2000,NoVarAcc,NoIncFock) ma
 xdisk=120GB geom=allcheck\\SM42_m0.n.5.pdb.xyz\\0,1\O,0,1.2734387654,1
 .4561858188,0.8167874516\S,0,1.912649421,0.1337875589,0.8474094648\N,0
 ,1.0805368871,-0.8127762514,-0.2996027236\C,0,-0.3175296139,-0.8940577
 053,-0.2455739725\N,0,-0.8948692741,-2.0650464817,-0.4417558709\O,0,-2
 .2697373822,-1.7888300997,-0.4317624885\C,0,-2.4668248881,-0.466734116
 3,-0.208259322\C,0,-3.8456880236,0.0054404728,-0.154527167\C,0,-4.1161
 993074,1.3641009203,0.0783050673\C,0,-5.432068551,1.8160185721,0.12830
 03598\C,0,-6.490453176,0.9210743103,-0.0523490162\C,0,-6.2263004365,-0
 .4309543904,-0.2836350856\C,0,-4.91237443,-0.8893117329,-0.3350059201\
 C,0,-1.2568332009,0.1593822795,-0.0851944819\C,0,3.5232146262,0.198954
 7363,0.0971534314\C,0,3.6953622103,0.9302539746,-1.0809502674\C,0,4.96
 83796273,0.9982635224,-1.6415962311\C,0,6.0419352079,0.3483060529,-1.0
 238381191\C,0,5.8515071387,-0.3723555387,0.1564413229\C,0,4.5822536816
 ,-0.4517914758,0.7295444695\O,0,2.0209161457,-0.5597063155,2.139919887
 6\H,0,1.5278590472,-1.7268717893,-0.4099034684\H,0,-3.2978406985,2.061
 5947836,0.2193412209\H,0,-5.632022077,2.8667711179,0.3084395953\H,0,-7
 .51476815,1.2759880066,-0.0128334311\H,0,-7.044160646,-1.1294425242,-0
 .4242366918\H,0,-4.7034939882,-1.9371660865,-0.5146757768\H,0,-1.04232
 90549,1.1986324173,0.0899853713\H,0,2.8553716736,1.4326068628,-1.54533
 16202\H,0,5.1229108283,1.5590918531,-2.5563789688\H,0,7.0309111132,0.4
 065529828,-1.4649771875\H,0,6.6874079325,-0.8716399379,0.6329646207\H,
 0,4.4068385922,-1.0013217977,1.6457955477\\Version=ES64L-G16RevB.01\St
 ate=1-A\HF=-1305.9966044\MP2=-1309.1048214\RMSD=5.899e-09\PG=C01 [X(C1
 5H12N2O3S1)]\\@


 NEVER LISTEN TO CRITICISM
 OR YOU'LL BE DOIN' EVERYBODY ELSE'S THING BUT BUT YOUR OWN.

                                               -- ANDY CAPP
 Job cpu time:       0 days  2 hours 19 minutes 30.3 seconds.
 Elapsed time:       0 days  0 hours 37 minutes 37.1 seconds.
 File lengths (MBytes):  RWF= 105243 Int=      0 D2E=      0 Chk=     28 Scr=      1
 Normal termination of Gaussian 16 at Tue Sep 22 21:15:43 2020.
