 Entering Gaussian System, Link 0=g16
 Initial command:
 /prod/apps/gaussian/g16b1/l1.exe "/tmp/ubafar01/1460564/Gau-85702.inp" -scrdir="/tmp/ubafar01/1460564/"
 Entering Link 1 = /prod/apps/gaussian/g16b1/l1.exe PID=     85704.
  
 Copyright (c) 1988-2017, Gaussian, Inc.  All Rights Reserved.
  
 This is part of the Gaussian(R) 16 program.  It is based on
 the Gaussian(R) 09 system (copyright 2009, Gaussian, Inc.),
 the Gaussian(R) 03 system (copyright 2003, Gaussian, Inc.),
 the Gaussian(R) 98 system (copyright 1998, Gaussian, Inc.),
 the Gaussian(R) 94 system (copyright 1995, Gaussian, Inc.),
 the Gaussian 92(TM) system (copyright 1992, Gaussian, Inc.),
 the Gaussian 90(TM) system (copyright 1990, Gaussian, Inc.),
 the Gaussian 88(TM) system (copyright 1988, Gaussian, Inc.),
 the Gaussian 86(TM) system (copyright 1986, Carnegie Mellon
 University), and the Gaussian 82(TM) system (copyright 1983,
 Carnegie Mellon University). Gaussian is a federally registered
 trademark of Gaussian, Inc.
  
 This software contains proprietary and confidential information,
 including trade secrets, belonging to Gaussian, Inc.
  
 This software is provided under written license and may be
 used, copied, transmitted, or stored only in accord with that
 written license.
  
 The following legend is applicable only to US Government
 contracts under FAR:
  
                    RESTRICTED RIGHTS LEGEND
  
 Use, reproduction and disclosure by the US Government is
 subject to restrictions as set forth in subparagraphs (a)
 and (c) of the Commercial Computer Software - Restricted
 Rights clause in FAR 52.227-19.
  
 Gaussian, Inc.
 340 Quinnipiac St., Bldg. 40, Wallingford CT 06492
  
  
 ---------------------------------------------------------------
 Warning -- This program may not be used in any manner that
 competes with the business of Gaussian, Inc. or will provide
 assistance to any competitor of Gaussian, Inc.  The licensee
 of this program is prohibited from giving any competitor of
 Gaussian, Inc. access to this program.  By using this program,
 the user acknowledges that Gaussian, Inc. is engaged in the
 business of creating and licensing software in the field of
 computational chemistry and represents and warrants to the
 licensee that it is not a competitor of Gaussian, Inc. and that
 it will not use this program in any manner prohibited above.
 ---------------------------------------------------------------
  

 Cite this work as:
 Gaussian 16, Revision B.01,
 M. J. Frisch, G. W. Trucks, H. B. Schlegel, G. E. Scuseria, 
 M. A. Robb, J. R. Cheeseman, G. Scalmani, V. Barone, 
 G. A. Petersson, H. Nakatsuji, X. Li, M. Caricato, A. V. Marenich, 
 J. Bloino, B. G. Janesko, R. Gomperts, B. Mennucci, H. P. Hratchian, 
 J. V. Ortiz, A. F. Izmaylov, J. L. Sonnenberg, D. Williams-Young, 
 F. Ding, F. Lipparini, F. Egidi, J. Goings, B. Peng, A. Petrone, 
 T. Henderson, D. Ranasinghe, V. G. Zakrzewski, J. Gao, N. Rega, 
 G. Zheng, W. Liang, M. Hada, M. Ehara, K. Toyota, R. Fukuda, 
 J. Hasegawa, M. Ishida, T. Nakajima, Y. Honda, O. Kitao, H. Nakai, 
 T. Vreven, K. Throssell, J. A. Montgomery, Jr., J. E. Peralta, 
 F. Ogliaro, M. J. Bearpark, J. J. Heyd, E. N. Brothers, K. N. Kudin, 
 V. N. Staroverov, T. A. Keith, R. Kobayashi, J. Normand, 
 K. Raghavachari, A. P. Rendell, J. C. Burant, S. S. Iyengar, 
 J. Tomasi, M. Cossi, J. M. Millam, M. Klene, C. Adamo, R. Cammi, 
 J. W. Ochterski, R. L. Martin, K. Morokuma, O. Farkas, 
 J. B. Foresman, and D. J. Fox, Gaussian, Inc., Wallingford CT, 2016.
 
 ******************************************
 Gaussian 16:  ES64L-G16RevB.01 20-Dec-2017
                22-Sep-2020 
 ******************************************
 %nproc=4
 Will use up to    4 processors via shared memory.
 %Chk=SM42_m0.n.8.pdb.xyz.mst.n.w.chk
 %mem=16GB
 ----------------------------------------------------------------------
 #p b3lyp/6-31G(d) opt freq NoSymm scf=(MaxCycle=2000,NoVarAcc,NoIncFoc
 k) scrf=(iefpcm,read,solvent=water)
 ----------------------------------------------------------------------
 1/18=20,19=15,26=3,38=1,40=2/1,3;
 2/9=110,12=2,15=1,17=6,18=5,40=1/2;
 3/5=1,6=6,7=1,11=2,25=1,30=1,70=2203,71=1,72=1,74=-5/1,2,3;
 4//1;
 5/5=100002,7=2000,38=1,53=1/2;
 6/7=2,8=2,9=2,10=2,28=1/1;
 7/30=1/1,2,3,16;
 1/18=20,19=15,26=3/3(2);
 2/9=110,15=1/2;
 99//99;
 2/9=110,15=1/2;
 3/5=1,6=6,7=1,11=2,25=1,30=1,70=2205,71=1,72=1,74=-5/1,2,3;
 4/5=5,16=3,69=1/1;
 5/5=100002,7=2000,38=1,53=1/2;
 7/30=1/1,2,3,16;
 1/18=20,19=15,26=3/3(-5);
 2/9=110,15=1/2;
 6/7=2,8=2,9=2,10=2,19=2,28=1/1;
 99/9=1/99;
 Leave Link    1 at Tue Sep 22 20:03:05 2020, MaxMem=  2147483648 cpu:               0.1 elap:               0.0
 (Enter /prod/apps/gaussian/g16b1/l101.exe)
 -------------------
 SM42_m0.n.8.pdb.xyz
 -------------------
 Symbolic Z-matrix:
 Charge =  0 Multiplicity = 1
 O                    -2.139    -2.041    -0.737 
 S                    -2.173    -0.967     0.263 
 N                    -0.974     0.167    -0.183 
 C                     0.382    -0.178    -0.157 
 N                     0.798    -1.421    -0.309 
 O                     2.199    -1.331    -0.27 
 C                     2.57     -0.039    -0.104 
 C                     3.999     0.248    -0.045 
 C                     4.447     1.571     0.102 
 C                     5.81      1.846     0.16 
 C                     6.741     0.806     0.074 
 C                     6.301    -0.511    -0.072 
 C                     4.939    -0.792    -0.132 
 C                     1.454     0.745    -0.023 
 C                    -3.627     0.035     0.039 
 C                    -4.095     0.278    -1.255 
 C                    -5.245     1.046    -1.414 
 C                    -5.911     1.551    -0.294 
 C                    -5.434     1.293     0.993 
 C                    -4.282     0.528     1.169 
 O                    -2.055    -1.33      1.684 
 H                    -1.164     1.083     0.228 
 H                     3.73      2.381     0.167 
 H                     6.147     2.87      0.273 
 H                     7.803     1.023     0.12 
 H                     7.018    -1.321    -0.141 
 H                     4.595    -1.813    -0.244 
 H                     1.387     1.812     0.113 
 H                    -3.573    -0.127    -2.114 
 H                    -5.624     1.245    -2.41 
 H                    -6.808     2.147    -0.425 
 H                    -5.957     1.684     1.858 
 H                    -3.895     0.307     2.156 
 
 ITRead=  0  0  0  0  0  0  0  0  0  0  0  0  0  0  0  0  0  0  0  0
 ITRead=  0  0  0  0  0  0  0  0  0  0  0  0  0
 MicOpt= -1 -1 -1 -1 -1 -1 -1 -1 -1 -1 -1 -1 -1 -1 -1 -1 -1 -1 -1 -1
 MicOpt= -1 -1 -1 -1 -1 -1 -1 -1 -1 -1 -1 -1 -1
 NAtoms=     33 NQM=       33 NQMF=       0 NMMI=      0 NMMIF=      0
                NMic=       0 NMicF=      0.
                    Isotopes and Nuclear Properties:
 (Nuclear quadrupole moments (NQMom) in fm**2, nuclear magnetic moments (NMagM)
  in nuclear magnetons)

  Atom         1           2           3           4           5           6           7           8           9          10
 IAtWgt=          16          32          14          12          14          16          12          12          12          12
 AtmWgt=  15.9949146  31.9720718  14.0030740  12.0000000  14.0030740  15.9949146  12.0000000  12.0000000  12.0000000  12.0000000
 NucSpn=           0           0           2           0           2           0           0           0           0           0
 AtZEff=  -0.0000000  -0.0000000  -0.0000000  -0.0000000  -0.0000000  -0.0000000  -0.0000000  -0.0000000  -0.0000000  -0.0000000
 NQMom=    0.0000000   0.0000000   2.0440000   0.0000000   2.0440000   0.0000000   0.0000000   0.0000000   0.0000000   0.0000000
 NMagM=    0.0000000   0.0000000   0.4037610   0.0000000   0.4037610   0.0000000   0.0000000   0.0000000   0.0000000   0.0000000
 AtZNuc=   8.0000000  16.0000000   7.0000000   6.0000000   7.0000000   8.0000000   6.0000000   6.0000000   6.0000000   6.0000000

  Atom        11          12          13          14          15          16          17          18          19          20
 IAtWgt=          12          12          12          12          12          12          12          12          12          12
 AtmWgt=  12.0000000  12.0000000  12.0000000  12.0000000  12.0000000  12.0000000  12.0000000  12.0000000  12.0000000  12.0000000
 NucSpn=           0           0           0           0           0           0           0           0           0           0
 AtZEff=  -0.0000000  -0.0000000  -0.0000000  -0.0000000  -0.0000000  -0.0000000  -0.0000000  -0.0000000  -0.0000000  -0.0000000
 NQMom=    0.0000000   0.0000000   0.0000000   0.0000000   0.0000000   0.0000000   0.0000000   0.0000000   0.0000000   0.0000000
 NMagM=    0.0000000   0.0000000   0.0000000   0.0000000   0.0000000   0.0000000   0.0000000   0.0000000   0.0000000   0.0000000
 AtZNuc=   6.0000000   6.0000000   6.0000000   6.0000000   6.0000000   6.0000000   6.0000000   6.0000000   6.0000000   6.0000000

  Atom        21          22          23          24          25          26          27          28          29          30
 IAtWgt=          16           1           1           1           1           1           1           1           1           1
 AtmWgt=  15.9949146   1.0078250   1.0078250   1.0078250   1.0078250   1.0078250   1.0078250   1.0078250   1.0078250   1.0078250
 NucSpn=           0           1           1           1           1           1           1           1           1           1
 AtZEff=  -0.0000000  -0.0000000  -0.0000000  -0.0000000  -0.0000000  -0.0000000  -0.0000000  -0.0000000  -0.0000000  -0.0000000
 NQMom=    0.0000000   0.0000000   0.0000000   0.0000000   0.0000000   0.0000000   0.0000000   0.0000000   0.0000000   0.0000000
 NMagM=    0.0000000   2.7928460   2.7928460   2.7928460   2.7928460   2.7928460   2.7928460   2.7928460   2.7928460   2.7928460
 AtZNuc=   8.0000000   1.0000000   1.0000000   1.0000000   1.0000000   1.0000000   1.0000000   1.0000000   1.0000000   1.0000000

  Atom        31          32          33
 IAtWgt=           1           1           1
 AtmWgt=   1.0078250   1.0078250   1.0078250
 NucSpn=           1           1           1
 AtZEff=  -0.0000000  -0.0000000  -0.0000000
 NQMom=    0.0000000   0.0000000   0.0000000
 NMagM=    2.7928460   2.7928460   2.7928460
 AtZNuc=   1.0000000   1.0000000   1.0000000
 Leave Link  101 at Tue Sep 22 20:03:05 2020, MaxMem=  2147483648 cpu:               1.5 elap:               0.4
 (Enter /prod/apps/gaussian/g16b1/l103.exe)

 GradGradGradGradGradGradGradGradGradGradGradGradGradGradGradGradGradGrad
 Berny optimization.
 Initialization pass.
                           ----------------------------
                           !    Initial Parameters    !
                           ! (Angstroms and Degrees)  !
 --------------------------                            --------------------------
 ! Name  Definition              Value          Derivative Info.                !
 --------------------------------------------------------------------------------
 ! R1    R(1,2)                  1.4679         estimate D2E/DX2                !
 ! R2    R(2,3)                  1.7095         estimate D2E/DX2                !
 ! R3    R(2,15)                 1.78           estimate D2E/DX2                !
 ! R4    R(2,21)                 1.4714         estimate D2E/DX2                !
 ! R5    R(3,4)                  1.3994         estimate D2E/DX2                !
 ! R6    R(3,22)                 1.0218         estimate D2E/DX2                !
 ! R7    R(4,5)                  1.3195         estimate D2E/DX2                !
 ! R8    R(4,14)                 1.4209         estimate D2E/DX2                !
 ! R9    R(5,6)                  1.4044         estimate D2E/DX2                !
 ! R10   R(6,7)                  1.3544         estimate D2E/DX2                !
 ! R11   R(7,8)                  1.4587         estimate D2E/DX2                !
 ! R12   R(7,14)                 1.3663         estimate D2E/DX2                !
 ! R13   R(8,9)                  1.4045         estimate D2E/DX2                !
 ! R14   R(8,13)                 1.4046         estimate D2E/DX2                !
 ! R15   R(9,10)                 1.3917         estimate D2E/DX2                !
 ! R16   R(9,23)                 1.0837         estimate D2E/DX2                !
 ! R17   R(10,11)                1.3985         estimate D2E/DX2                !
 ! R18   R(10,24)                1.0839         estimate D2E/DX2                !
 ! R19   R(11,12)                1.3962         estimate D2E/DX2                !
 ! R20   R(11,25)                1.0849         estimate D2E/DX2                !
 ! R21   R(12,13)                1.392          estimate D2E/DX2                !
 ! R22   R(12,26)                1.084          estimate D2E/DX2                !
 ! R23   R(13,27)                1.0832         estimate D2E/DX2                !
 ! R24   R(14,28)                1.0777         estimate D2E/DX2                !
 ! R25   R(15,16)                1.3973         estimate D2E/DX2                !
 ! R26   R(15,20)                1.3961         estimate D2E/DX2                !
 ! R27   R(16,17)                1.392          estimate D2E/DX2                !
 ! R28   R(16,29)                1.0837         estimate D2E/DX2                !
 ! R29   R(17,18)                1.3975         estimate D2E/DX2                !
 ! R30   R(17,30)                1.0841         estimate D2E/DX2                !
 ! R31   R(18,19)                1.3966         estimate D2E/DX2                !
 ! R32   R(18,31)                1.0849         estimate D2E/DX2                !
 ! R33   R(19,20)                1.394          estimate D2E/DX2                !
 ! R34   R(19,32)                1.0838         estimate D2E/DX2                !
 ! R35   R(20,33)                1.0829         estimate D2E/DX2                !
 ! A1    A(1,2,3)              106.94           estimate D2E/DX2                !
 ! A2    A(1,2,15)             110.186          estimate D2E/DX2                !
 ! A3    A(1,2,21)             118.3965         estimate D2E/DX2                !
 ! A4    A(3,2,15)              99.5945         estimate D2E/DX2                !
 ! A5    A(3,2,21)             111.0612         estimate D2E/DX2                !
 ! A6    A(15,2,21)            109.0217         estimate D2E/DX2                !
 ! A7    A(2,3,4)              120.7447         estimate D2E/DX2                !
 ! A8    A(2,3,22)             111.0574         estimate D2E/DX2                !
 ! A9    A(4,3,22)             113.185          estimate D2E/DX2                !
 ! A10   A(3,4,5)              122.3818         estimate D2E/DX2                !
 ! A11   A(3,4,14)             124.9336         estimate D2E/DX2                !
 ! A12   A(5,4,14)             112.6381         estimate D2E/DX2                !
 ! A13   A(4,5,6)              104.5323         estimate D2E/DX2                !
 ! A14   A(5,6,7)              109.7418         estimate D2E/DX2                !
 ! A15   A(6,7,8)              117.4498         estimate D2E/DX2                !
 ! A16   A(6,7,14)             109.3237         estimate D2E/DX2                !
 ! A17   A(8,7,14)             133.2264         estimate D2E/DX2                !
 ! A18   A(7,8,9)              120.1347         estimate D2E/DX2                !
 ! A19   A(7,8,13)             120.4926         estimate D2E/DX2                !
 ! A20   A(9,8,13)             119.3727         estimate D2E/DX2                !
 ! A21   A(8,9,10)             120.192          estimate D2E/DX2                !
 ! A22   A(8,9,23)             119.9537         estimate D2E/DX2                !
 ! A23   A(10,9,23)            119.854          estimate D2E/DX2                !
 ! A24   A(9,10,11)            120.1649         estimate D2E/DX2                !
 ! A25   A(9,10,24)            119.7041         estimate D2E/DX2                !
 ! A26   A(11,10,24)           120.131          estimate D2E/DX2                !
 ! A27   A(10,11,12)           119.8749         estimate D2E/DX2                !
 ! A28   A(10,11,25)           120.0203         estimate D2E/DX2                !
 ! A29   A(12,11,25)           120.1048         estimate D2E/DX2                !
 ! A30   A(11,12,13)           120.217          estimate D2E/DX2                !
 ! A31   A(11,12,26)           120.2036         estimate D2E/DX2                !
 ! A32   A(13,12,26)           119.5793         estimate D2E/DX2                !
 ! A33   A(8,13,12)            120.1784         estimate D2E/DX2                !
 ! A34   A(8,13,27)            119.4587         estimate D2E/DX2                !
 ! A35   A(12,13,27)           120.3628         estimate D2E/DX2                !
 ! A36   A(4,14,7)             103.763          estimate D2E/DX2                !
 ! A37   A(4,14,28)            127.4529         estimate D2E/DX2                !
 ! A38   A(7,14,28)            128.7839         estimate D2E/DX2                !
 ! A39   A(2,15,16)            119.2109         estimate D2E/DX2                !
 ! A40   A(2,15,20)            118.6976         estimate D2E/DX2                !
 ! A41   A(16,15,20)           122.0744         estimate D2E/DX2                !
 ! A42   A(15,16,17)           118.583          estimate D2E/DX2                !
 ! A43   A(15,16,29)           120.5126         estimate D2E/DX2                !
 ! A44   A(17,16,29)           120.9041         estimate D2E/DX2                !
 ! A45   A(16,17,18)           120.1028         estimate D2E/DX2                !
 ! A46   A(16,17,30)           119.673          estimate D2E/DX2                !
 ! A47   A(18,17,30)           120.2232         estimate D2E/DX2                !
 ! A48   A(17,18,19)           120.5987         estimate D2E/DX2                !
 ! A49   A(17,18,31)           119.7211         estimate D2E/DX2                !
 ! A50   A(19,18,31)           119.6801         estimate D2E/DX2                !
 ! A51   A(18,19,20)           119.9982         estimate D2E/DX2                !
 ! A52   A(18,19,32)           120.2666         estimate D2E/DX2                !
 ! A53   A(20,19,32)           119.7352         estimate D2E/DX2                !
 ! A54   A(15,20,19)           118.6411         estimate D2E/DX2                !
 ! A55   A(15,20,33)           119.8663         estimate D2E/DX2                !
 ! A56   A(19,20,33)           121.4914         estimate D2E/DX2                !
 ! D1    D(1,2,3,4)            -65.64           estimate D2E/DX2                !
 ! D2    D(1,2,3,22)           158.3159         estimate D2E/DX2                !
 ! D3    D(15,2,3,4)           179.6942         estimate D2E/DX2                !
 ! D4    D(15,2,3,22)           43.6501         estimate D2E/DX2                !
 ! D5    D(21,2,3,4)            64.9033         estimate D2E/DX2                !
 ! D6    D(21,2,3,22)          -71.1408         estimate D2E/DX2                !
 ! D7    D(1,2,15,16)          -35.8176         estimate D2E/DX2                !
 ! D8    D(1,2,15,20)          142.7087         estimate D2E/DX2                !
 ! D9    D(3,2,15,16)           76.3297         estimate D2E/DX2                !
 ! D10   D(3,2,15,20)         -105.144          estimate D2E/DX2                !
 ! D11   D(21,2,15,16)        -167.3243         estimate D2E/DX2                !
 ! D12   D(21,2,15,20)          11.202          estimate D2E/DX2                !
 ! D13   D(2,3,4,5)             26.8635         estimate D2E/DX2                !
 ! D14   D(2,3,4,14)          -155.8013         estimate D2E/DX2                !
 ! D15   D(22,3,4,5)           162.0612         estimate D2E/DX2                !
 ! D16   D(22,3,4,14)          -20.6035         estimate D2E/DX2                !
 ! D17   D(3,4,5,6)            177.888          estimate D2E/DX2                !
 ! D18   D(14,4,5,6)             0.2548         estimate D2E/DX2                !
 ! D19   D(3,4,14,7)          -177.6394         estimate D2E/DX2                !
 ! D20   D(3,4,14,28)            2.51           estimate D2E/DX2                !
 ! D21   D(5,4,14,7)            -0.0775         estimate D2E/DX2                !
 ! D22   D(5,4,14,28)         -179.9281         estimate D2E/DX2                !
 ! D23   D(4,5,6,7)             -0.3435         estimate D2E/DX2                !
 ! D24   D(5,6,7,8)           -179.7918         estimate D2E/DX2                !
 ! D25   D(5,6,7,14)             0.3099         estimate D2E/DX2                !
 ! D26   D(6,7,8,9)            178.8718         estimate D2E/DX2                !
 ! D27   D(6,7,8,13)            -1.2342         estimate D2E/DX2                !
 ! D28   D(14,7,8,9)            -1.2598         estimate D2E/DX2                !
 ! D29   D(14,7,8,13)          178.6342         estimate D2E/DX2                !
 ! D30   D(6,7,14,4)            -0.1458         estimate D2E/DX2                !
 ! D31   D(6,7,14,28)          179.7021         estimate D2E/DX2                !
 ! D32   D(8,7,14,4)           179.978          estimate D2E/DX2                !
 ! D33   D(8,7,14,28)           -0.1741         estimate D2E/DX2                !
 ! D34   D(7,8,9,10)           179.9245         estimate D2E/DX2                !
 ! D35   D(7,8,9,23)            -0.2925         estimate D2E/DX2                !
 ! D36   D(13,8,9,10)            0.0293         estimate D2E/DX2                !
 ! D37   D(13,8,9,23)          179.8123         estimate D2E/DX2                !
 ! D38   D(7,8,13,12)         -179.8578         estimate D2E/DX2                !
 ! D39   D(7,8,13,27)            0.0202         estimate D2E/DX2                !
 ! D40   D(9,8,13,12)            0.037          estimate D2E/DX2                !
 ! D41   D(9,8,13,27)          179.9151         estimate D2E/DX2                !
 ! D42   D(8,9,10,11)           -0.0859         estimate D2E/DX2                !
 ! D43   D(8,9,10,24)          179.9657         estimate D2E/DX2                !
 ! D44   D(23,9,10,11)        -179.8691         estimate D2E/DX2                !
 ! D45   D(23,9,10,24)           0.1825         estimate D2E/DX2                !
 ! D46   D(9,10,11,12)           0.0763         estimate D2E/DX2                !
 ! D47   D(9,10,11,25)        -179.9679         estimate D2E/DX2                !
 ! D48   D(24,10,11,12)       -179.9756         estimate D2E/DX2                !
 ! D49   D(24,10,11,25)         -0.0197         estimate D2E/DX2                !
 ! D50   D(10,11,12,13)         -0.0098         estimate D2E/DX2                !
 ! D51   D(10,11,12,26)        179.8885         estimate D2E/DX2                !
 ! D52   D(25,11,12,13)       -179.9656         estimate D2E/DX2                !
 ! D53   D(25,11,12,26)         -0.0673         estimate D2E/DX2                !
 ! D54   D(11,12,13,8)          -0.0468         estimate D2E/DX2                !
 ! D55   D(11,12,13,27)       -179.9237         estimate D2E/DX2                !
 ! D56   D(26,12,13,8)        -179.9457         estimate D2E/DX2                !
 ! D57   D(26,12,13,27)          0.1774         estimate D2E/DX2                !
 ! D58   D(2,15,16,17)         179.0146         estimate D2E/DX2                !
 ! D59   D(2,15,16,29)          -0.7966         estimate D2E/DX2                !
 ! D60   D(20,15,16,17)          0.5402         estimate D2E/DX2                !
 ! D61   D(20,15,16,29)       -179.271          estimate D2E/DX2                !
 ! D62   D(2,15,20,19)        -178.8874         estimate D2E/DX2                !
 ! D63   D(2,15,20,33)           0.7184         estimate D2E/DX2                !
 ! D64   D(16,15,20,19)         -0.4055         estimate D2E/DX2                !
 ! D65   D(16,15,20,33)        179.2003         estimate D2E/DX2                !
 ! D66   D(15,16,17,18)         -0.3272         estimate D2E/DX2                !
 ! D67   D(15,16,17,30)       -179.9635         estimate D2E/DX2                !
 ! D68   D(29,16,17,18)        179.4832         estimate D2E/DX2                !
 ! D69   D(29,16,17,30)         -0.1531         estimate D2E/DX2                !
 ! D70   D(16,17,18,19)         -0.0048         estimate D2E/DX2                !
 ! D71   D(16,17,18,31)       -179.8643         estimate D2E/DX2                !
 ! D72   D(30,17,18,19)        179.6295         estimate D2E/DX2                !
 ! D73   D(30,17,18,31)         -0.2301         estimate D2E/DX2                !
 ! D74   D(17,18,19,20)          0.1425         estimate D2E/DX2                !
 ! D75   D(17,18,19,32)       -179.7542         estimate D2E/DX2                !
 ! D76   D(31,18,19,20)       -179.9978         estimate D2E/DX2                !
 ! D77   D(31,18,19,32)          0.1054         estimate D2E/DX2                !
 ! D78   D(18,19,20,15)          0.0578         estimate D2E/DX2                !
 ! D79   D(18,19,20,33)       -179.5413         estimate D2E/DX2                !
 ! D80   D(32,19,20,15)        179.9551         estimate D2E/DX2                !
 ! D81   D(32,19,20,33)          0.356          estimate D2E/DX2                !
 --------------------------------------------------------------------------------
 Trust Radius=3.00D-01 FncErr=1.00D-07 GrdErr=1.00D-06 EigMax=2.50D+02 EigMin=1.00D-04
 Number of steps in this run=    182 maximum allowed number of steps=    198.
 GradGradGradGradGradGradGradGradGradGradGradGradGradGradGradGradGradGrad

 Leave Link  103 at Tue Sep 22 20:03:06 2020, MaxMem=  2147483648 cpu:               0.1 elap:               0.0
 (Enter /prod/apps/gaussian/g16b1/l202.exe)
                          Input orientation:                          
 ---------------------------------------------------------------------
 Center     Atomic      Atomic             Coordinates (Angstroms)
 Number     Number       Type             X           Y           Z
 ---------------------------------------------------------------------
      1          8           0       -2.139000   -2.041000   -0.737000
      2         16           0       -2.173000   -0.967000    0.263000
      3          7           0       -0.974000    0.167000   -0.183000
      4          6           0        0.382000   -0.178000   -0.157000
      5          7           0        0.798000   -1.421000   -0.309000
      6          8           0        2.199000   -1.331000   -0.270000
      7          6           0        2.570000   -0.039000   -0.104000
      8          6           0        3.999000    0.248000   -0.045000
      9          6           0        4.447000    1.571000    0.102000
     10          6           0        5.810000    1.846000    0.160000
     11          6           0        6.741000    0.806000    0.074000
     12          6           0        6.301000   -0.511000   -0.072000
     13          6           0        4.939000   -0.792000   -0.132000
     14          6           0        1.454000    0.745000   -0.023000
     15          6           0       -3.627000    0.035000    0.039000
     16          6           0       -4.095000    0.278000   -1.255000
     17          6           0       -5.245000    1.046000   -1.414000
     18          6           0       -5.911000    1.551000   -0.294000
     19          6           0       -5.434000    1.293000    0.993000
     20          6           0       -4.282000    0.528000    1.169000
     21          8           0       -2.055000   -1.330000    1.684000
     22          1           0       -1.164000    1.083000    0.228000
     23          1           0        3.730000    2.381000    0.167000
     24          1           0        6.147000    2.870000    0.273000
     25          1           0        7.803000    1.023000    0.120000
     26          1           0        7.018000   -1.321000   -0.141000
     27          1           0        4.595000   -1.813000   -0.244000
     28          1           0        1.387000    1.812000    0.113000
     29          1           0       -3.573000   -0.127000   -2.114000
     30          1           0       -5.624000    1.245000   -2.410000
     31          1           0       -6.808000    2.147000   -0.425000
     32          1           0       -5.957000    1.684000    1.858000
     33          1           0       -3.895000    0.307000    2.156000
 ---------------------------------------------------------------------
                    Distance matrix (angstroms):
                    1          2          3          4          5
     1  O    0.000000
     2  S    1.467866   0.000000
     3  N    2.557226   1.709524   0.000000
     4  C    3.187885   2.706833   1.399442   0.000000
     5  N    3.032087   3.059435   2.382772   1.319549   0.000000
     6  O    4.420456   4.419386   3.509915   2.154917   1.404429
     7  C    5.155907   4.846847   3.550861   2.193051   2.256531
     8  C    6.587369   6.297990   4.975574   3.643722   3.619621
     9  C    7.558165   7.091669   5.607110   4.432867   4.736685
    10  C    8.893817   8.464743   6.997096   5.801745   6.001116
    11  C    9.360424   9.090580   7.745682   6.438827   6.358102
    12  C    8.603297   8.492870   7.307368   5.928969   5.582766
    13  C    7.212774   7.125110   5.990480   4.598246   4.192237
    14  C    4.602308   4.020929   2.500973   1.420939   2.281159
    15  C    2.669475   1.779971   2.665543   4.019436   4.671367
    16  C    3.077665   2.747441   3.301840   4.632178   5.265260
    17  C    4.431155   4.037534   4.530943   5.894180   6.620043
    18  C    5.227494   4.541279   5.128523   6.527638   7.337826
    19  C    4.996547   4.034182   4.747889   6.108371   6.920898
    20  C    3.850331   2.739296   3.591809   4.899960   5.638216
    21  O    2.524642   1.471371   2.625883   3.264254   3.481370
    22  H    3.411924   2.285127   1.021801   2.031862   3.226117
    23  H    7.403814   6.787027   5.210750   4.226412   4.824770
    24  H    9.684824   9.162154   7.630386   6.535322   6.882093
    25  H   10.438674  10.173550   8.823847   7.522657   7.431501
    26  H    9.204578   9.206683   8.129451   6.733736   6.223072
    27  H    6.755871   6.839487   5.910828   4.519974   3.817735
    28  H    5.291577   4.518732   2.892743   2.245668   3.313200
    29  H    2.759689   2.883701   3.251153   4.412989   4.902867
    30  H    5.073653   4.893595   5.267268   6.570614   7.263872
    31  H    6.279829   5.626150   6.165592   7.561319   8.402102
    32  H    5.931844   4.887789   5.594395   6.907256   7.743832
    33  H    4.118991   2.858638   3.744698   4.886504   5.575523
                    6          7          8          9         10
     6  O    0.000000
     7  C    1.354423   0.000000
     8  C    2.404967   1.458729   0.000000
     9  C    3.689647   2.481464   1.404508   0.000000
    10  C    4.828825   3.757728   2.423912   1.391675   0.000000
    11  C    5.031388   4.259454   2.800730   2.418356   1.398484
    12  C    4.187840   3.760873   2.424049   2.793263   2.418751
    13  C    2.795919   2.485951   1.404553   2.424993   2.793376
    14  C    2.219417   1.366262   2.593168   3.107402   4.496713
    15  C    5.991971   6.199091   7.629436   8.219047   9.609960
    16  C    6.570658   6.771079   8.183999   8.745231  10.127679
    17  C    7.897595   7.997972   9.378833   9.823886  11.195111
    18  C    8.606893   8.630849   9.998395  10.365586  11.733498
    19  C    8.169653   8.187896   9.547301   9.924985  11.288367
    20  C    6.894198   6.992276   8.374196   8.855607  10.227594
    21  O    4.681307   5.123890   6.490797   7.293458   8.617875
    22  H    4.169553   3.913038   5.237206   5.633590   7.015944
    23  H    4.039044   2.697303   2.160323   1.083704   2.147714
    24  H    5.790506   4.625942   3.404396   2.146309   1.083934
    25  H    6.090832   5.344372   3.885649   3.400495   2.156613
    26  H    4.820737   4.629211   3.403724   3.877210   3.402904
    27  H    2.444139   2.695793   2.154655   3.404861   3.876561
    28  H    3.268713   2.207437   3.048541   3.069495   4.423380
    29  H    6.177859   6.464077   7.858535   8.492012   9.854161
    30  H    8.509683   8.608596   9.959386  10.384674  11.734669
    31  H    9.656426   9.634756  10.979155  11.282045  12.635139
    32  H    8.952036   8.917842  10.237453  10.551754  11.889985
    33  H    6.760574   6.857371   8.195311   8.683638  10.026942
                   11         12         13         14         15
    11  C    0.000000
    12  C    1.396211   0.000000
    13  C    2.417280   1.391979   0.000000
    14  C    5.288242   5.007329   3.810443   0.000000
    15  C   10.396686   9.943622   8.607527   5.130741   0.000000
    16  C   10.929955  10.492799   9.166198   5.703272   1.397322
    17  C   12.080395  11.727546  10.427638   6.848510   2.398177
    18  C   12.679257  12.386851  11.101279   7.413926   2.761485
    19  C   12.219343  11.920523  10.640112   6.984061   2.399569
    20  C   11.080742  10.706049   9.405416   5.862563   1.396057
    21  O    9.193705   8.577706   7.245919   4.419565   2.653382
    22  H    7.911351   7.639179   6.394672   2.651635   2.683355
    23  H    3.399323   3.876961   3.408667   2.809408   7.723053
    24  H    2.156973   3.402044   3.877310   5.160183  10.179541
    25  H    1.084919   2.155464   3.400033   6.356692  11.472907
    26  H    2.155709   1.083951   2.145265   5.936361  10.732528
    27  H    3.400824   2.152957   1.083199   4.056857   8.431873
    28  H    5.447832   5.438561   4.411071   1.077717   5.320094
    29  H   10.584726  10.090248   8.764970   5.513927   2.159761
    30  H   12.619675  12.278249  10.996164   7.486378   3.383742
    31  H   13.624342  13.380413  12.112621   8.389747   3.846375
    32  H   12.852733  12.601646  11.349603   7.703428   3.384799
    33  H   10.849342  10.468597   9.191425   5.792382   2.151162
                   16         17         18         19         20
    16  C    0.000000
    17  C    1.391979   0.000000
    18  C    2.417004   1.397491   0.000000
    19  C    2.806537   2.427010   1.396589   0.000000
    20  C    2.444022   2.804921   2.416721   1.394025   0.000000
    21  O    3.922370   5.041734   5.203977   4.333042   2.945661
    22  H    3.382022   4.399101   4.798491   4.343066   3.303851
    23  H    8.226501   9.210451   9.687637   9.265253   8.284308
    24  H   10.674821  11.659786  12.143171  11.710034  10.726221
    25  H   12.000336  13.137884  13.730403  13.268504  12.140538
    26  H   11.282578  12.554059  13.245031  12.773850  11.524969
    27  H    8.995027  10.313505  11.031547  10.571577   9.288594
    28  H    5.854648   6.848497   7.313998   6.897086   5.907737
    29  H    1.083693   2.159054   3.405044   3.890138   3.421958
    30  H    2.146382   1.084093   2.157188   3.408638   3.888997
    31  H    3.397415   2.152508   1.084890   2.151259   3.397451
    32  H    3.890328   3.408808   2.156597   1.083806   2.148647
    33  H    3.416981   3.887611   3.407975   2.166399   1.082949
                   21         22         23         24         25
    21  O    0.000000
    22  H    2.955738   0.000000
    23  H    7.038397   5.063572   0.000000
    24  H    9.322217   7.526361   2.468248   0.000000
    25  H   10.254895   8.967851   4.293682   2.485388   0.000000
    26  H    9.254730   8.535836   4.960908   4.300525   2.485695
    27  H    6.940675   6.463411   4.301951   4.960492   4.297285
    28  H    4.918086   2.655610   2.411706   4.878787   6.464335
    29  H    4.263372   3.571043   8.051511  10.447879  11.650177
    30  H    6.010759   5.184292   9.768764  12.181771  13.665084
    31  H    6.255271   5.780419  10.557209  12.993920  14.664301
    32  H    4.933566   5.098132   9.858157  12.264813  13.885070
    33  H    2.507619   3.431868   8.148510  10.533585  11.895426
                   26         27         28         29         30
    26  H    0.000000
    27  H    2.474591   0.000000
    28  H    6.448904   4.853796   0.000000
    29  H   10.839172   8.547264   5.772422   0.000000
    30  H   13.097820  10.884433   7.472693   2.485277   0.000000
    31  H   14.257137  12.072397   8.219470   4.299886   2.481065
    32  H   13.467615  11.313360   7.549553   4.973928   4.303421
    33  H   11.270322   9.073836   5.859897   4.304061   4.971684
                   31         32         33
    31  H    0.000000
    32  H    2.480052   0.000000
    33  H    4.304966   2.497354   0.000000
 Symmetry turned off by external request.
 Stoichiometry    C15H12N2O3S
 Framework group  C1[X(C15H12N2O3S)]
 Deg. of freedom    93
 Full point group                 C1      NOp   1
 Rotational constants (GHZ):           0.9537732           0.1050468           0.1003189
 Leave Link  202 at Tue Sep 22 20:03:06 2020, MaxMem=  2147483648 cpu:               0.1 elap:               0.0
 (Enter /prod/apps/gaussian/g16b1/l301.exe)
 Standard basis: 6-31G(d) (6D, 7F)
 Ernie: Thresh=  0.10000D-02 Tol=  0.10000D-05 Strict=F.
   343 basis functions,   660 primitive gaussians,   343 cartesian basis functions
    78 alpha electrons       78 beta electrons
       nuclear repulsion energy      1670.4037640008 Hartrees.
 IExCor=  402 DFT=T Ex+Corr=B3LYP ExCW=0 ScaHFX=  0.200000
 ScaDFX=  0.800000  0.720000  1.000000  0.810000 ScalE2=  1.000000  1.000000
 IRadAn=      5 IRanWt=     -1 IRanGd=            0 ICorTp=0 IEmpDi=  4
 NAtoms=   33 NActive=   33 NUniq=   33 SFac= 1.00D+00 NAtFMM=   60 NAOKFM=F Big=F
 Integral buffers will be    131072 words long.
 Raffenetti 2 integral format.
 Two-electron integral symmetry is turned off.
 Using the following non-standard input for PCM:
 MSTModel=DFT cav
 --- end of non-standard input.
 MST model for solvation energy: B3LYP parametrization.
 MST cavity parameters:
 ISph   IAn     Re0     Alpha   Atom Type   QCorr
 ------------------------------------------------
   1      8     1.40     1.25      O          F
   2     16     1.75     1.25      S          F
   3      7     1.50     1.25      NH         F
   4      6     1.50     1.25      C          F
   5      7     1.40     1.25      N          F
   6      8     1.40     1.25      O          F
   7      6     1.50     1.25      C          F
   8      6     1.50     1.25      C          F
   9      6     1.50     1.25      CH         F
  10      6     1.50     1.25      CH         F
  11      6     1.50     1.25      CH         F
  12      6     1.50     1.25      CH         F
  13      6     1.50     1.25      CH         F
  14      6     1.50     1.25      CH         F
  15      6     1.50     1.25      C          F
  16      6     1.50     1.25      CH         F
  17      6     1.50     1.25      CH         F
  18      6     1.50     1.25      CH         F
  19      6     1.50     1.25      CH         F
  20      6     1.50     1.25      CH         F
  21      8     1.40     1.25      O          F
  22      1     0.90     1.25      NH         F
  23      1     1.20     1.25      CH         F
  24      1     1.20     1.25      CH         F
  25      1     1.20     1.25      CH         F
  26      1     1.20     1.25      CH         F
  27      1     1.20     1.25      CH         F
  28      1     1.20     1.25      CH         F
  29      1     1.20     1.25      CH         F
  30      1     1.20     1.25      CH         F
  31      1     1.20     1.25      CH         F
  32      1     1.20     1.25      CH         F
  33      1     1.20     1.25      CH         F
 ------------------------------------------------------------------------------
 Polarizable Continuum Model (PCM)
 =================================
 Model                : PCM.
 Atomic radii         : MST.
 Polarization charges : Total charges.
 Charge compensation  : None.
 Solution method      : On-the-fly selection.
 Cavity type          : Scaled VdW (van der Waals Surface) (Alpha=1.250).
 Cavity algorithm     : GePol (No added spheres)
                        Default sphere list used, NSphG=   33.
                        Lebedev-Laikov grids with approx.  5.0 points / Ang**2.
                        Smoothing algorithm: York/Karplus (Gamma=1.0000).
                        Polarization charges: spherical gaussians, with
                                              point-specific exponents (IZeta= 3).
                        Self-potential: point-specific (ISelfS= 7).
                        Self-field    : sphere-specific E.n sum rule (ISelfD= 2).
 1st derivatives      : Analytical E(r).r(x)/FMM algorithm (CHGder, D1EAlg=3).
                        Cavity 1st derivative terms included.
 Solvent              : Water, Eps=  78.355300 Eps(inf)=   1.777849
 ------------------------------------------------------------------------------
 GePol: Number of generator spheres                  =      33
 GePol: Total number of spheres                      =      33
 GePol: Number of exposed spheres                    =      33 (100.00%)
 GePol: Number of points                             =    2697
 GePol: Average weight of points                     =       0.13
 GePol: Minimum weight of points                     =   0.18D-09
 GePol: Maximum weight of points                     =    0.22001
 GePol: Number of points with low weight             =     171
 GePol: Fraction of low-weight points (<1% of avg)   =       6.34%
 GePol: Cavity surface area                          =    339.842 Ang**2
 GePol: Cavity volume                                =    323.458 Ang**3
 PCM non-electrostatic energy =         0.0028798982 Hartrees.
 Nuclear repulsion after PCM non-electrostatic terms =     1670.4066438991 Hartrees.
 Leave Link  301 at Tue Sep 22 20:03:06 2020, MaxMem=  2147483648 cpu:               0.3 elap:               0.1
 (Enter /prod/apps/gaussian/g16b1/l302.exe)
 NPDir=0 NMtPBC=     1 NCelOv=     1 NCel=       1 NClECP=     1 NCelD=      1
         NCelK=      1 NCelE2=     1 NClLst=     1 CellRange=     0.0.
 One-electron integrals computed using PRISM.
 NBasis=   343 RedAO= T EigKep=  4.58D-04  NBF=   343
 NBsUse=   343 1.00D-06 EigRej= -1.00D+00 NBFU=   343
 Precomputing XC quadrature grid using
 IXCGrd= 4 IRadAn=           5 IRanWt=          -1 IRanGd=           0 AccXCQ= 0.00D+00.
 Generated NRdTot=       0 NPtTot=           0 NUsed=           0 NTot=          32
 NSgBfM=   336   336   336   336   336 MxSgAt=    33 MxSgA2=    33.
 Leave Link  302 at Tue Sep 22 20:03:06 2020, MaxMem=  2147483648 cpu:               1.7 elap:               0.4
 (Enter /prod/apps/gaussian/g16b1/l303.exe)
 DipDrv:  MaxL=1.
 Leave Link  303 at Tue Sep 22 20:03:06 2020, MaxMem=  2147483648 cpu:               0.2 elap:               0.1
 (Enter /prod/apps/gaussian/g16b1/l401.exe)
 ExpMin= 1.17D-01 ExpMax= 2.19D+04 ExpMxC= 3.30D+03 IAcc=3 IRadAn=         5 AccDes= 0.00D+00
 Harris functional with IExCor=  402 and IRadAn=       5 diagonalized for initial guess.
 HarFok:  IExCor=  402 AccDes= 0.00D+00 IRadAn=         5 IDoV= 1 UseB2=F ITyADJ=14
 ICtDFT=  3500011 ScaDFX=  1.000000  1.000000  1.000000  1.000000
 FoFCou: FMM=F IPFlag=           0 FMFlag=      100000 FMFlg1=           0
         NFxFlg=           0 DoJE=T BraDBF=F KetDBF=T FulRan=T
         wScrn=  0.000000 ICntrl=       500 IOpCl=  0 I1Cent=   200000004 NGrid=           0
         NMat0=    1 NMatS0=      1 NMatT0=    0 NMatD0=    1 NMtDS0=    0 NMtDT0=    0
 Symmetry not used in FoFCou.
 Harris En= -1312.09627948156    
 JPrj=0 DoOrth=F DoCkMO=F.
 Leave Link  401 at Tue Sep 22 20:03:08 2020, MaxMem=  2147483648 cpu:               8.6 elap:               2.2
 (Enter /prod/apps/gaussian/g16b1/l502.exe)
 Two-electron integral symmetry not used.
 Closed shell SCF:
 Using DIIS extrapolation, IDIIS=  1040.
 NGot=  2147483648 LenX=  2147243388 LenY=  2147125298
 Requested convergence on RMS density matrix=1.00D-08 within2000 cycles.
 Requested convergence on MAX density matrix=1.00D-06.
 Requested convergence on             energy=1.00D-06.
 No special actions if energy rises.

 Cycle   1  Pass 1  IDiag  1:
 FoFJK:  IHMeth= 1 ICntrl=       0 DoSepK=F KAlg= 0 I1Cent=           0 FoldK=F
 IRaf= 660000000 NMat=       1 IRICut=       1 DoRegI=T DoRafI=F ISym2E= 0 IDoP0=0 IntGTp=1.
 FoFCou: FMM=F IPFlag=           0 FMFlag=      100000 FMFlg1=           0
         NFxFlg=           0 DoJE=F BraDBF=F KetDBF=F FulRan=T
         wScrn=  0.000000 ICntrl=         0 IOpCl=  0 I1Cent=           0 NGrid=           0
         NMat0=    1 NMatS0=      1 NMatT0=    0 NMatD0=    1 NMtDS0=    0 NMtDT0=    0
 Symmetry not used in FoFCou.
 Inv3:  Mode=1 IEnd=    21821427.
 Iteration    1 A*A^-1 deviation from unit magnitude is 3.33D-15 for   1292.
 Iteration    1 A*A^-1 deviation from orthogonality  is 2.25D-15 for   1333    157.
 Iteration    1 A^-1*A deviation from unit magnitude is 3.33D-15 for   2550.
 Iteration    1 A^-1*A deviation from orthogonality  is 6.53D-15 for   2623   2607.
 E= -1311.51084521400    
 DIIS: error= 3.46D-02 at cycle   1 NSaved=   1.
 NSaved= 1 IEnMin= 1 EnMin= -1311.51084521400     IErMin= 1 ErrMin= 3.46D-02
 ErrMax= 3.46D-02  0.00D+00 EMaxC= 1.00D-01 BMatC= 6.45D-01 BMatP= 6.45D-01
 IDIUse=3 WtCom= 6.54D-01 WtEn= 3.46D-01
 Coeff-Com:  0.100D+01
 Coeff-En:   0.100D+01
 Coeff:      0.100D+01
 Gap=     0.265 Goal=   None    Shift=    0.000
 GapD=    0.265 DampG=1.000 DampE=0.500 DampFc=0.5000 IDamp=-1.
 Damping current iteration by 5.00D-01
 RMSDP=5.86D-03 MaxDP=5.80D-01              OVMax= 2.11D-01

 Cycle   2  Pass 1  IDiag  1:
 E= -1311.67134592401     Delta-E=       -0.160500710011 Rises=F Damp=T
 DIIS: error= 1.43D-02 at cycle   2 NSaved=   2.
 NSaved= 2 IEnMin= 2 EnMin= -1311.67134592401     IErMin= 2 ErrMin= 1.43D-02
 ErrMax= 1.43D-02  0.00D+00 EMaxC= 1.00D-01 BMatC= 9.57D-02 BMatP= 6.45D-01
 IDIUse=3 WtCom= 8.57D-01 WtEn= 1.43D-01
 Coeff-Com:  0.212D+00 0.788D+00
 Coeff-En:   0.339D+00 0.661D+00
 Coeff:      0.230D+00 0.770D+00
 Gap=     0.223 Goal=   None    Shift=    0.000
 RMSDP=1.77D-03 MaxDP=1.37D-01 DE=-1.61D-01 OVMax= 1.86D-01

 Cycle   3  Pass 1  IDiag  1:
 E= -1312.04156394013     Delta-E=       -0.370218016120 Rises=F Damp=F
 DIIS: error= 1.02D-02 at cycle   3 NSaved=   3.
 NSaved= 3 IEnMin= 3 EnMin= -1312.04156394013     IErMin= 3 ErrMin= 1.02D-02
 ErrMax= 1.02D-02  0.00D+00 EMaxC= 1.00D-01 BMatC= 5.25D-02 BMatP= 9.57D-02
 IDIUse=3 WtCom= 8.98D-01 WtEn= 1.02D-01
 Coeff-Com:  0.529D-01 0.422D+00 0.525D+00
 Coeff-En:   0.000D+00 0.000D+00 0.100D+01
 Coeff:      0.475D-01 0.379D+00 0.573D+00
 Gap=     0.184 Goal=   None    Shift=    0.000
 RMSDP=9.26D-04 MaxDP=3.75D-02 DE=-3.70D-01 OVMax= 5.15D-02

 Cycle   4  Pass 1  IDiag  1:
 E= -1312.08084966811     Delta-E=       -0.039285727977 Rises=F Damp=F
 DIIS: error= 3.61D-03 at cycle   4 NSaved=   4.
 NSaved= 4 IEnMin= 4 EnMin= -1312.08084966811     IErMin= 4 ErrMin= 3.61D-03
 ErrMax= 3.61D-03  0.00D+00 EMaxC= 1.00D-01 BMatC= 8.75D-03 BMatP= 5.25D-02
 IDIUse=3 WtCom= 9.64D-01 WtEn= 3.61D-02
 Coeff-Com:  0.313D-02 0.971D-01 0.313D+00 0.587D+00
 Coeff-En:   0.000D+00 0.000D+00 0.134D+00 0.866D+00
 Coeff:      0.302D-02 0.936D-01 0.307D+00 0.597D+00
 Gap=     0.183 Goal=   None    Shift=    0.000
 RMSDP=3.18D-04 MaxDP=1.70D-02 DE=-3.93D-02 OVMax= 1.91D-02

 Cycle   5  Pass 1  IDiag  1:
 E= -1312.08783773539     Delta-E=       -0.006988067286 Rises=F Damp=F
 DIIS: error= 1.06D-03 at cycle   5 NSaved=   5.
 NSaved= 5 IEnMin= 5 EnMin= -1312.08783773539     IErMin= 5 ErrMin= 1.06D-03
 ErrMax= 1.06D-03  0.00D+00 EMaxC= 1.00D-01 BMatC= 7.63D-04 BMatP= 8.75D-03
 IDIUse=3 WtCom= 9.89D-01 WtEn= 1.06D-02
 Coeff-Com: -0.312D-02 0.187D-01 0.120D+00 0.326D+00 0.538D+00
 Coeff-En:   0.000D+00 0.000D+00 0.000D+00 0.407D-02 0.996D+00
 Coeff:     -0.309D-02 0.185D-01 0.119D+00 0.323D+00 0.542D+00
 Gap=     0.183 Goal=   None    Shift=    0.000
 RMSDP=1.02D-04 MaxDP=5.10D-03 DE=-6.99D-03 OVMax= 8.57D-03

 Cycle   6  Pass 1  IDiag  1:
 E= -1312.08845061736     Delta-E=       -0.000612881972 Rises=F Damp=F
 DIIS: error= 4.92D-04 at cycle   6 NSaved=   6.
 NSaved= 6 IEnMin= 6 EnMin= -1312.08845061736     IErMin= 6 ErrMin= 4.92D-04
 ErrMax= 4.92D-04  0.00D+00 EMaxC= 1.00D-01 BMatC= 9.48D-05 BMatP= 7.63D-04
 IDIUse=3 WtCom= 9.95D-01 WtEn= 4.92D-03
 Coeff-Com: -0.206D-02 0.409D-02 0.445D-01 0.139D+00 0.326D+00 0.489D+00
 Coeff-En:   0.000D+00 0.000D+00 0.000D+00 0.000D+00 0.670D-01 0.933D+00
 Coeff:     -0.205D-02 0.407D-02 0.443D-01 0.138D+00 0.325D+00 0.491D+00
 Gap=     0.183 Goal=   None    Shift=    0.000
 RMSDP=3.14D-05 MaxDP=1.88D-03 DE=-6.13D-04 OVMax= 3.13D-03

 Cycle   7  Pass 1  IDiag  1:
 E= -1312.08853214708     Delta-E=       -0.000081529717 Rises=F Damp=F
 DIIS: error= 1.18D-04 at cycle   7 NSaved=   7.
 NSaved= 7 IEnMin= 7 EnMin= -1312.08853214708     IErMin= 7 ErrMin= 1.18D-04
 ErrMax= 1.18D-04  0.00D+00 EMaxC= 1.00D-01 BMatC= 5.97D-06 BMatP= 9.48D-05
 IDIUse=3 WtCom= 9.99D-01 WtEn= 1.18D-03
 Coeff-Com: -0.945D-03 0.398D-03 0.136D-01 0.466D-01 0.130D+00 0.272D+00
 Coeff-Com:  0.538D+00
 Coeff-En:   0.000D+00 0.000D+00 0.000D+00 0.000D+00 0.000D+00 0.000D+00
 Coeff-En:   0.100D+01
 Coeff:     -0.944D-03 0.397D-03 0.136D-01 0.465D-01 0.130D+00 0.272D+00
 Coeff:      0.538D+00
 Gap=     0.183 Goal=   None    Shift=    0.000
 RMSDP=7.44D-06 MaxDP=4.49D-04 DE=-8.15D-05 OVMax= 4.66D-04

 Cycle   8  Pass 1  IDiag  1:
 E= -1312.08853685894     Delta-E=       -0.000004711859 Rises=F Damp=F
 DIIS: error= 3.71D-05 at cycle   8 NSaved=   8.
 NSaved= 8 IEnMin= 8 EnMin= -1312.08853685894     IErMin= 8 ErrMin= 3.71D-05
 ErrMax= 3.71D-05  0.00D+00 EMaxC= 1.00D-01 BMatC= 4.57D-07 BMatP= 5.97D-06
 IDIUse=1 WtCom= 1.00D+00 WtEn= 0.00D+00
 Coeff-Com: -0.262D-03-0.204D-03 0.208D-02 0.873D-02 0.319D-01 0.906D-01
 Coeff-Com:  0.270D+00 0.597D+00
 Coeff:     -0.262D-03-0.204D-03 0.208D-02 0.873D-02 0.319D-01 0.906D-01
 Coeff:      0.270D+00 0.597D+00
 Gap=     0.183 Goal=   None    Shift=    0.000
 RMSDP=2.42D-06 MaxDP=1.22D-04 DE=-4.71D-06 OVMax= 2.26D-04

 Cycle   9  Pass 1  IDiag  1:
 E= -1312.08853724476     Delta-E=       -0.000000385820 Rises=F Damp=F
 DIIS: error= 1.17D-05 at cycle   9 NSaved=   9.
 NSaved= 9 IEnMin= 9 EnMin= -1312.08853724476     IErMin= 9 ErrMin= 1.17D-05
 ErrMax= 1.17D-05  0.00D+00 EMaxC= 1.00D-01 BMatC= 4.65D-08 BMatP= 4.57D-07
 IDIUse=1 WtCom= 1.00D+00 WtEn= 0.00D+00
 Coeff-Com: -0.205D-04-0.121D-03-0.533D-03-0.122D-02 0.910D-04 0.123D-01
 Coeff-Com:  0.625D-01 0.291D+00 0.636D+00
 Coeff:     -0.205D-04-0.121D-03-0.533D-03-0.122D-02 0.910D-04 0.123D-01
 Coeff:      0.625D-01 0.291D+00 0.636D+00
 Gap=     0.183 Goal=   None    Shift=    0.000
 RMSDP=7.28D-07 MaxDP=2.89D-05 DE=-3.86D-07 OVMax= 5.52D-05

 Cycle  10  Pass 1  IDiag  1:
 E= -1312.08853728412     Delta-E=       -0.000000039362 Rises=F Damp=F
 DIIS: error= 2.80D-06 at cycle  10 NSaved=  10.
 NSaved=10 IEnMin=10 EnMin= -1312.08853728412     IErMin=10 ErrMin= 2.80D-06
 ErrMax= 2.80D-06  0.00D+00 EMaxC= 1.00D-01 BMatC= 4.38D-09 BMatP= 4.65D-08
 IDIUse=1 WtCom= 1.00D+00 WtEn= 0.00D+00
 Coeff-Com: -0.328D-06-0.532D-04-0.402D-03-0.113D-02-0.164D-02 0.237D-02
 Coeff-Com:  0.202D-01 0.133D+00 0.350D+00 0.498D+00
 Coeff:     -0.328D-06-0.532D-04-0.402D-03-0.113D-02-0.164D-02 0.237D-02
 Coeff:      0.202D-01 0.133D+00 0.350D+00 0.498D+00
 Gap=     0.183 Goal=   None    Shift=    0.000
 RMSDP=2.22D-07 MaxDP=1.19D-05 DE=-3.94D-08 OVMax= 1.71D-05

 Cycle  11  Pass 1  IDiag  1:
 E= -1312.08853728788     Delta-E=       -0.000000003761 Rises=F Damp=F
 DIIS: error= 7.23D-07 at cycle  11 NSaved=  11.
 NSaved=11 IEnMin=11 EnMin= -1312.08853728788     IErMin=11 ErrMin= 7.23D-07
 ErrMax= 7.23D-07  0.00D+00 EMaxC= 1.00D-01 BMatC= 3.01D-10 BMatP= 4.38D-09
 IDIUse=1 WtCom= 1.00D+00 WtEn= 0.00D+00
 Coeff-Com:  0.196D-05-0.310D-05-0.108D-03-0.339D-03-0.817D-03-0.717D-03
 Coeff-Com: -0.823D-03 0.171D-01 0.607D-01 0.222D+00 0.703D+00
 Coeff:      0.196D-05-0.310D-05-0.108D-03-0.339D-03-0.817D-03-0.717D-03
 Coeff:     -0.823D-03 0.171D-01 0.607D-01 0.222D+00 0.703D+00
 Gap=     0.183 Goal=   None    Shift=    0.000
 RMSDP=6.83D-08 MaxDP=2.95D-06 DE=-3.76D-09 OVMax= 4.58D-06

 Cycle  12  Pass 1  IDiag  1:
 E= -1312.08853728807     Delta-E=       -0.000000000191 Rises=F Damp=F
 DIIS: error= 4.10D-07 at cycle  12 NSaved=  12.
 NSaved=12 IEnMin=12 EnMin= -1312.08853728807     IErMin=12 ErrMin= 4.10D-07
 ErrMax= 4.10D-07  0.00D+00 EMaxC= 1.00D-01 BMatC= 8.20D-11 BMatP= 3.01D-10
 IDIUse=1 WtCom= 1.00D+00 WtEn= 0.00D+00
 Coeff-Com:  0.113D-05 0.273D-05-0.335D-04-0.115D-03-0.378D-03-0.645D-03
 Coeff-Com: -0.232D-02-0.671D-03 0.694D-02 0.933D-01 0.437D+00 0.467D+00
 Coeff:      0.113D-05 0.273D-05-0.335D-04-0.115D-03-0.378D-03-0.645D-03
 Coeff:     -0.232D-02-0.671D-03 0.694D-02 0.933D-01 0.437D+00 0.467D+00
 Gap=     0.183 Goal=   None    Shift=    0.000
 RMSDP=2.86D-08 MaxDP=1.34D-06 DE=-1.91D-10 OVMax= 1.86D-06

 Cycle  13  Pass 1  IDiag  1:
 E= -1312.08853728815     Delta-E=       -0.000000000075 Rises=F Damp=F
 DIIS: error= 8.24D-08 at cycle  13 NSaved=  13.
 NSaved=13 IEnMin=13 EnMin= -1312.08853728815     IErMin=13 ErrMin= 8.24D-08
 ErrMax= 8.24D-08  0.00D+00 EMaxC= 1.00D-01 BMatC= 4.11D-12 BMatP= 8.20D-11
 IDIUse=1 WtCom= 1.00D+00 WtEn= 0.00D+00
 Coeff-Com:  0.277D-06 0.154D-05-0.307D-05-0.128D-04-0.809D-04-0.209D-03
 Coeff-Com: -0.989D-03-0.227D-02-0.442D-02 0.148D-01 0.113D+00 0.221D+00
 Coeff-Com:  0.659D+00
 Coeff:      0.277D-06 0.154D-05-0.307D-05-0.128D-04-0.809D-04-0.209D-03
 Coeff:     -0.989D-03-0.227D-02-0.442D-02 0.148D-01 0.113D+00 0.221D+00
 Coeff:      0.659D+00
 Gap=     0.183 Goal=   None    Shift=    0.000
 RMSDP=8.10D-09 MaxDP=3.19D-07 DE=-7.46D-11 OVMax= 5.84D-07

 Error on total polarization charges =  0.02309
 SCF Done:  E(RB3LYP) =  -1312.08853729     A.U. after   13 cycles
            NFock= 13  Conv=0.81D-08     -V/T= 2.0077
 KE= 1.302059418834D+03 PE=-6.412726010041D+03 EE= 2.128171410019D+03
 Leave Link  502 at Tue Sep 22 20:04:21 2020, MaxMem=  2147483648 cpu:             291.9 elap:              73.0
 (Enter /prod/apps/gaussian/g16b1/l601.exe)
 Copying SCF densities to generalized density rwf, IOpCl= 0 IROHF=0.

 **********************************************************************

            Population analysis using the SCF Density.

 **********************************************************************

 Alpha  occ. eigenvalues --  -89.13360 -19.24111 -19.16231 -19.16069 -14.39165
 Alpha  occ. eigenvalues --  -14.38339 -10.27961 -10.27110 -10.23742 -10.21803
 Alpha  occ. eigenvalues --  -10.21734 -10.21678 -10.20979 -10.20759 -10.20744
 Alpha  occ. eigenvalues --  -10.20307 -10.20253 -10.20090 -10.19893 -10.19783
 Alpha  occ. eigenvalues --  -10.19737  -8.15881  -6.12408  -6.12283  -6.12167
 Alpha  occ. eigenvalues --   -1.14693  -1.12757  -1.01632  -0.96420  -0.88212
 Alpha  occ. eigenvalues --   -0.87497  -0.85443  -0.81202  -0.78430  -0.76732
 Alpha  occ. eigenvalues --   -0.75492  -0.75326  -0.69741  -0.65064  -0.62956
 Alpha  occ. eigenvalues --   -0.62619  -0.61406  -0.60201  -0.57382  -0.55993
 Alpha  occ. eigenvalues --   -0.54913  -0.52300  -0.50347  -0.49155  -0.48871
 Alpha  occ. eigenvalues --   -0.47962  -0.47685  -0.46610  -0.45994  -0.45627
 Alpha  occ. eigenvalues --   -0.44803  -0.44167  -0.43316  -0.42674  -0.39781
 Alpha  occ. eigenvalues --   -0.39501  -0.38943  -0.38113  -0.37667  -0.36507
 Alpha  occ. eigenvalues --   -0.36431  -0.35798  -0.35040  -0.33772  -0.33236
 Alpha  occ. eigenvalues --   -0.32017  -0.31010  -0.30008  -0.27820  -0.27168
 Alpha  occ. eigenvalues --   -0.26272  -0.25836  -0.23648
 Alpha virt. eigenvalues --   -0.05325  -0.04460  -0.01996  -0.00985   0.01793
 Alpha virt. eigenvalues --    0.04971   0.06220   0.07189   0.07889   0.08771
 Alpha virt. eigenvalues --    0.10584   0.10895   0.11437   0.12458   0.13718
 Alpha virt. eigenvalues --    0.14231   0.15148   0.15391   0.16576   0.16870
 Alpha virt. eigenvalues --    0.17013   0.17927   0.18629   0.19324   0.19450
 Alpha virt. eigenvalues --    0.23244   0.24493   0.25493   0.26995   0.28342
 Alpha virt. eigenvalues --    0.29140   0.30030   0.30234   0.30899   0.32258
 Alpha virt. eigenvalues --    0.33035   0.34396   0.36520   0.38137   0.39858
 Alpha virt. eigenvalues --    0.42711   0.43870   0.44466   0.47264   0.48714
 Alpha virt. eigenvalues --    0.49980   0.50183   0.51697   0.52268   0.52749
 Alpha virt. eigenvalues --    0.53383   0.53393   0.54833   0.55586   0.55716
 Alpha virt. eigenvalues --    0.56713   0.57122   0.57747   0.57982   0.57990
 Alpha virt. eigenvalues --    0.58479   0.59078   0.59836   0.60130   0.60452
 Alpha virt. eigenvalues --    0.60850   0.61398   0.61905   0.62651   0.62938
 Alpha virt. eigenvalues --    0.63871   0.64893   0.65126   0.67576   0.68187
 Alpha virt. eigenvalues --    0.69790   0.71386   0.73226   0.74752   0.75915
 Alpha virt. eigenvalues --    0.77061   0.77572   0.77860   0.78967   0.79586
 Alpha virt. eigenvalues --    0.82135   0.82574   0.82758   0.83657   0.83777
 Alpha virt. eigenvalues --    0.84291   0.84650   0.84689   0.85214   0.86871
 Alpha virt. eigenvalues --    0.87498   0.88815   0.89472   0.90805   0.90951
 Alpha virt. eigenvalues --    0.91591   0.92385   0.92836   0.94480   0.95545
 Alpha virt. eigenvalues --    0.96236   0.97090   0.97827   0.99229   1.00197
 Alpha virt. eigenvalues --    1.01095   1.03571   1.03853   1.05352   1.07271
 Alpha virt. eigenvalues --    1.09588   1.09982   1.10963   1.12397   1.14685
 Alpha virt. eigenvalues --    1.15375   1.16042   1.16264   1.17511   1.18945
 Alpha virt. eigenvalues --    1.20381   1.22806   1.23937   1.24311   1.26578
 Alpha virt. eigenvalues --    1.28087   1.30389   1.30707   1.31604   1.34478
 Alpha virt. eigenvalues --    1.35762   1.37876   1.40847   1.40982   1.41684
 Alpha virt. eigenvalues --    1.42330   1.42431   1.44238   1.45463   1.46394
 Alpha virt. eigenvalues --    1.47120   1.47910   1.48266   1.48746   1.49969
 Alpha virt. eigenvalues --    1.50100   1.51784   1.53336   1.54730   1.57604
 Alpha virt. eigenvalues --    1.61659   1.65706   1.67079   1.71443   1.75112
 Alpha virt. eigenvalues --    1.75648   1.77257   1.78504   1.79200   1.79819
 Alpha virt. eigenvalues --    1.81115   1.82117   1.83037   1.84339   1.85815
 Alpha virt. eigenvalues --    1.87810   1.88739   1.89488   1.91345   1.91960
 Alpha virt. eigenvalues --    1.93759   1.95192   1.96070   1.96582   1.97036
 Alpha virt. eigenvalues --    1.97772   2.00070   2.04092   2.05216   2.06483
 Alpha virt. eigenvalues --    2.08556   2.10426   2.10545   2.11586   2.12416
 Alpha virt. eigenvalues --    2.12765   2.13212   2.13288   2.13953   2.14473
 Alpha virt. eigenvalues --    2.14999   2.17149   2.19264   2.21464   2.22717
 Alpha virt. eigenvalues --    2.26304   2.26402   2.27628   2.27995   2.28637
 Alpha virt. eigenvalues --    2.30003   2.30173   2.30745   2.32332   2.35481
 Alpha virt. eigenvalues --    2.42191   2.49972   2.52031   2.53458   2.53562
 Alpha virt. eigenvalues --    2.56881   2.57305   2.58117   2.59625   2.61577
 Alpha virt. eigenvalues --    2.63007   2.64748   2.66040   2.66398   2.69647
 Alpha virt. eigenvalues --    2.70474   2.71759   2.72436   2.73993   2.74024
 Alpha virt. eigenvalues --    2.74627   2.75631   2.79921   2.82281   2.85542
 Alpha virt. eigenvalues --    2.89380   2.90967   3.00994   3.02418   3.05155
 Alpha virt. eigenvalues --    3.13314   3.26811   3.36873   3.42845   3.79227
 Alpha virt. eigenvalues --    3.89994   3.94088   4.01962   4.05054   4.07536
 Alpha virt. eigenvalues --    4.08128   4.09342   4.10358   4.10887   4.13041
 Alpha virt. eigenvalues --    4.18221   4.22789   4.31218   4.31445   4.33905
 Alpha virt. eigenvalues --    4.36891   4.40173   4.55878   4.65135   4.74008
          Condensed to atoms (all electrons):
               1          2          3          4          5          6
     1  O    8.279197   0.441626  -0.048052  -0.006082   0.002465   0.000055
     2  S    0.441626  13.654306   0.106354  -0.010652   0.010707  -0.000436
     3  N   -0.048052   0.106354   7.441293   0.244475  -0.076481   0.005649
     4  C   -0.006082  -0.010652   0.244475   4.467691   0.412322  -0.040840
     5  N    0.002465   0.010707  -0.076481   0.412322   6.944655   0.109876
     6  O    0.000055  -0.000436   0.005649  -0.040840   0.109876   8.217700
     7  C   -0.000010   0.000374  -0.001314  -0.014095  -0.083218   0.244527
     8  C   -0.000000  -0.000006  -0.000230   0.002719   0.004400  -0.037982
     9  C    0.000000   0.000000   0.000003   0.000611  -0.000102   0.003112
    10  C    0.000000  -0.000000   0.000000  -0.000007   0.000001  -0.000061
    11  C   -0.000000  -0.000000   0.000000   0.000000  -0.000000   0.000002
    12  C    0.000000  -0.000000  -0.000000   0.000005   0.000000   0.000283
    13  C    0.000000  -0.000000  -0.000001  -0.000349   0.000131  -0.006747
    14  C   -0.000050   0.000872  -0.049775   0.459259  -0.043909  -0.089082
    15  C   -0.060117   0.175746  -0.051430   0.002843  -0.000007   0.000000
    16  C    0.001811  -0.015578   0.002123   0.000048  -0.000000  -0.000000
    17  C    0.000322   0.001965  -0.000067   0.000003  -0.000000   0.000000
    18  C   -0.000005  -0.000326   0.000008  -0.000000   0.000000  -0.000000
    19  C   -0.000041   0.003380  -0.000129  -0.000002   0.000000   0.000000
    20  C    0.000447  -0.024484  -0.001335  -0.000025   0.000001  -0.000000
    21  O   -0.046459   0.448772  -0.058513   0.003293  -0.001320  -0.000007
    22  H    0.001236  -0.007306   0.293145  -0.017704   0.002747  -0.000052
    23  H    0.000000  -0.000000  -0.000001   0.000073  -0.000005   0.000023
    24  H   -0.000000   0.000000  -0.000000  -0.000000  -0.000000   0.000000
    25  H   -0.000000  -0.000000  -0.000000  -0.000000   0.000000   0.000000
    26  H    0.000000   0.000000   0.000000  -0.000000   0.000000  -0.000003
    27  H    0.000000  -0.000000  -0.000000   0.000052  -0.000252   0.009803
    28  H    0.000000  -0.000120  -0.002065  -0.028370   0.004954   0.003340
    29  H    0.004028   0.000913   0.000912  -0.000050  -0.000003  -0.000000
    30  H    0.000001  -0.000054  -0.000001  -0.000000  -0.000000  -0.000000
    31  H   -0.000000   0.000005   0.000000   0.000000   0.000000  -0.000000
    32  H    0.000000  -0.000062   0.000000  -0.000000   0.000000  -0.000000
    33  H    0.000061  -0.003611   0.000152  -0.000012   0.000000  -0.000000
               7          8          9         10         11         12
     1  O   -0.000010  -0.000000   0.000000   0.000000  -0.000000   0.000000
     2  S    0.000374  -0.000006   0.000000  -0.000000  -0.000000  -0.000000
     3  N   -0.001314  -0.000230   0.000003   0.000000   0.000000  -0.000000
     4  C   -0.014095   0.002719   0.000611  -0.000007   0.000000   0.000005
     5  N   -0.083218   0.004400  -0.000102   0.000001  -0.000000   0.000000
     6  O    0.244527  -0.037982   0.003112  -0.000061   0.000002   0.000283
     7  C    4.725908   0.346454  -0.042850   0.006370   0.000861   0.004725
     8  C    0.346454   4.787799   0.536157  -0.011163  -0.033914  -0.009862
     9  C   -0.042850   0.536157   5.013314   0.517929  -0.040022  -0.041299
    10  C    0.006370  -0.011163   0.517929   4.884048   0.538975  -0.026081
    11  C    0.000861  -0.033914  -0.040022   0.538975   4.875529   0.538570
    12  C    0.004725  -0.009862  -0.041299  -0.026081   0.538570   4.890674
    13  C   -0.041480   0.471957  -0.081708  -0.042105  -0.038001   0.506146
    14  C    0.505466  -0.057630  -0.019756   0.000221   0.000015  -0.000228
    15  C    0.000003   0.000000  -0.000000  -0.000000   0.000000  -0.000000
    16  C   -0.000000   0.000000  -0.000000  -0.000000   0.000000  -0.000000
    17  C    0.000000   0.000000   0.000000   0.000000   0.000000  -0.000000
    18  C    0.000000   0.000000   0.000000   0.000000  -0.000000   0.000000
    19  C   -0.000000  -0.000000   0.000000   0.000000  -0.000000  -0.000000
    20  C   -0.000000  -0.000000   0.000000  -0.000000  -0.000000  -0.000000
    21  O    0.000012   0.000000  -0.000000  -0.000000   0.000000  -0.000000
    22  H    0.000017  -0.000001  -0.000000  -0.000000  -0.000000  -0.000000
    23  H   -0.012395  -0.036893   0.357637  -0.041664   0.004506   0.000162
    24  H   -0.000204   0.003218  -0.037458   0.363390  -0.040797   0.004378
    25  H    0.000003   0.000484   0.004801  -0.041582   0.364685  -0.041532
    26  H   -0.000173   0.003244   0.000763   0.004400  -0.041010   0.363826
    27  H   -0.012921  -0.043153   0.005299   0.000198   0.004569  -0.040849
    28  H   -0.027509  -0.003258   0.001135   0.000086  -0.000001   0.000001
    29  H   -0.000000  -0.000000  -0.000000   0.000000   0.000000   0.000000
    30  H   -0.000000  -0.000000   0.000000   0.000000   0.000000   0.000000
    31  H    0.000000   0.000000  -0.000000  -0.000000   0.000000   0.000000
    32  H   -0.000000  -0.000000   0.000000   0.000000   0.000000   0.000000
    33  H   -0.000000  -0.000000   0.000000  -0.000000  -0.000000   0.000000
              13         14         15         16         17         18
     1  O    0.000000  -0.000050  -0.060117   0.001811   0.000322  -0.000005
     2  S   -0.000000   0.000872   0.175746  -0.015578   0.001965  -0.000326
     3  N   -0.000001  -0.049775  -0.051430   0.002123  -0.000067   0.000008
     4  C   -0.000349   0.459259   0.002843   0.000048   0.000003  -0.000000
     5  N    0.000131  -0.043909  -0.000007  -0.000000  -0.000000   0.000000
     6  O   -0.006747  -0.089082   0.000000  -0.000000   0.000000  -0.000000
     7  C   -0.041480   0.505466   0.000003  -0.000000   0.000000   0.000000
     8  C    0.471957  -0.057630   0.000000   0.000000   0.000000   0.000000
     9  C   -0.081708  -0.019756  -0.000000  -0.000000   0.000000   0.000000
    10  C   -0.042105   0.000221  -0.000000  -0.000000   0.000000   0.000000
    11  C   -0.038001   0.000015   0.000000   0.000000   0.000000  -0.000000
    12  C    0.506146  -0.000228  -0.000000  -0.000000  -0.000000   0.000000
    13  C    5.058964   0.011769  -0.000000   0.000000  -0.000000   0.000000
    14  C    0.011769   5.220392  -0.000164  -0.000003  -0.000000   0.000000
    15  C   -0.000000  -0.000164   5.386837   0.472477  -0.029455  -0.039110
    16  C    0.000000  -0.000003   0.472477   4.920139   0.517603  -0.031275
    17  C   -0.000000  -0.000000  -0.029455   0.517603   4.879229   0.536684
    18  C    0.000000   0.000000  -0.039110  -0.031275   0.536684   4.855283
    19  C    0.000000   0.000000  -0.031639  -0.037112  -0.030206   0.538721
    20  C    0.000000  -0.000000   0.501153  -0.036342  -0.037810  -0.031611
    21  O   -0.000000  -0.000035  -0.059843   0.001398  -0.000042  -0.000004
    22  H    0.000000  -0.004987   0.001955   0.000134  -0.000060   0.000002
    23  H    0.005617   0.005872   0.000000   0.000000   0.000000   0.000000
    24  H    0.000786  -0.000001   0.000000   0.000000  -0.000000  -0.000000
    25  H    0.004686  -0.000000   0.000000   0.000000   0.000000   0.000000
    26  H   -0.037549   0.000001   0.000000   0.000000   0.000000   0.000000
    27  H    0.363101   0.000263  -0.000000   0.000000  -0.000000   0.000000
    28  H   -0.000100   0.355272  -0.000003   0.000000   0.000000   0.000000
    29  H   -0.000000   0.000002  -0.050572   0.364975  -0.032866   0.004185
    30  H   -0.000000   0.000000   0.004979  -0.040691   0.367287  -0.039829
    31  H   -0.000000  -0.000000   0.000441   0.004853  -0.040702   0.365696
    32  H   -0.000000   0.000000   0.004857   0.000610   0.004218  -0.039936
    33  H    0.000000   0.000001  -0.047537   0.004307   0.000240   0.004220
              19         20         21         22         23         24
     1  O   -0.000041   0.000447  -0.046459   0.001236   0.000000  -0.000000
     2  S    0.003380  -0.024484   0.448772  -0.007306  -0.000000   0.000000
     3  N   -0.000129  -0.001335  -0.058513   0.293145  -0.000001  -0.000000
     4  C   -0.000002  -0.000025   0.003293  -0.017704   0.000073  -0.000000
     5  N    0.000000   0.000001  -0.001320   0.002747  -0.000005  -0.000000
     6  O    0.000000  -0.000000  -0.000007  -0.000052   0.000023   0.000000
     7  C   -0.000000  -0.000000   0.000012   0.000017  -0.012395  -0.000204
     8  C   -0.000000  -0.000000   0.000000  -0.000001  -0.036893   0.003218
     9  C    0.000000   0.000000  -0.000000  -0.000000   0.357637  -0.037458
    10  C    0.000000  -0.000000  -0.000000  -0.000000  -0.041664   0.363390
    11  C   -0.000000  -0.000000   0.000000  -0.000000   0.004506  -0.040797
    12  C   -0.000000  -0.000000  -0.000000  -0.000000   0.000162   0.004378
    13  C    0.000000   0.000000  -0.000000   0.000000   0.005617   0.000786
    14  C    0.000000  -0.000000  -0.000035  -0.004987   0.005872  -0.000001
    15  C   -0.031639   0.501153  -0.059843   0.001955   0.000000   0.000000
    16  C   -0.037112  -0.036342   0.001398   0.000134   0.000000   0.000000
    17  C   -0.030206  -0.037810  -0.000042  -0.000060   0.000000  -0.000000
    18  C    0.538721  -0.031611  -0.000004   0.000002   0.000000  -0.000000
    19  C    4.886790   0.508257   0.000561   0.000008   0.000000  -0.000000
    20  C    0.508257   4.917585   0.002794   0.000478  -0.000000   0.000000
    21  O    0.000561   0.002794   8.246148  -0.000136  -0.000000   0.000000
    22  H    0.000008   0.000478  -0.000136   0.298959   0.000000   0.000000
    23  H    0.000000  -0.000000  -0.000000   0.000000   0.555156  -0.004882
    24  H   -0.000000   0.000000   0.000000   0.000000  -0.004882   0.556943
    25  H    0.000000  -0.000000   0.000000   0.000000  -0.000155  -0.005108
    26  H    0.000000   0.000000   0.000000   0.000000   0.000015  -0.000162
    27  H   -0.000000  -0.000000   0.000000   0.000000  -0.000138   0.000015
    28  H   -0.000000  -0.000000   0.000001   0.001623   0.001860  -0.000002
    29  H    0.000313   0.003966   0.000054   0.000004  -0.000000   0.000000
    30  H    0.004218   0.000608   0.000000   0.000000  -0.000000  -0.000000
    31  H   -0.040682   0.004767  -0.000000  -0.000000   0.000000   0.000000
    32  H    0.367830  -0.041018   0.000002   0.000001  -0.000000   0.000000
    33  H   -0.033436   0.363381   0.009482   0.000040  -0.000000   0.000000
              25         26         27         28         29         30
     1  O   -0.000000   0.000000   0.000000   0.000000   0.004028   0.000001
     2  S   -0.000000   0.000000  -0.000000  -0.000120   0.000913  -0.000054
     3  N   -0.000000   0.000000  -0.000000  -0.002065   0.000912  -0.000001
     4  C   -0.000000  -0.000000   0.000052  -0.028370  -0.000050  -0.000000
     5  N    0.000000   0.000000  -0.000252   0.004954  -0.000003  -0.000000
     6  O    0.000000  -0.000003   0.009803   0.003340  -0.000000  -0.000000
     7  C    0.000003  -0.000173  -0.012921  -0.027509  -0.000000  -0.000000
     8  C    0.000484   0.003244  -0.043153  -0.003258  -0.000000  -0.000000
     9  C    0.004801   0.000763   0.005299   0.001135  -0.000000   0.000000
    10  C   -0.041582   0.004400   0.000198   0.000086   0.000000   0.000000
    11  C    0.364685  -0.041010   0.004569  -0.000001   0.000000   0.000000
    12  C   -0.041532   0.363826  -0.040849   0.000001   0.000000   0.000000
    13  C    0.004686  -0.037549   0.363101  -0.000100  -0.000000  -0.000000
    14  C   -0.000000   0.000001   0.000263   0.355272   0.000002   0.000000
    15  C    0.000000   0.000000  -0.000000  -0.000003  -0.050572   0.004979
    16  C    0.000000   0.000000   0.000000   0.000000   0.364975  -0.040691
    17  C    0.000000   0.000000  -0.000000   0.000000  -0.032866   0.367287
    18  C    0.000000   0.000000   0.000000   0.000000   0.004185  -0.039829
    19  C    0.000000   0.000000  -0.000000  -0.000000   0.000313   0.004218
    20  C   -0.000000   0.000000  -0.000000  -0.000000   0.003966   0.000608
    21  O    0.000000   0.000000   0.000000   0.000001   0.000054   0.000000
    22  H    0.000000   0.000000   0.000000   0.001623   0.000004   0.000000
    23  H   -0.000155   0.000015  -0.000138   0.001860  -0.000000  -0.000000
    24  H   -0.005108  -0.000162   0.000015  -0.000002   0.000000  -0.000000
    25  H    0.560343  -0.005109  -0.000151  -0.000000  -0.000000   0.000000
    26  H   -0.005109   0.557233  -0.004940   0.000000  -0.000000  -0.000000
    27  H   -0.000151  -0.004940   0.553810  -0.000008  -0.000000  -0.000000
    28  H   -0.000000   0.000000  -0.000008   0.498623   0.000000   0.000000
    29  H   -0.000000  -0.000000  -0.000000   0.000000   0.521038  -0.005234
    30  H    0.000000  -0.000000  -0.000000   0.000000  -0.005234   0.541417
    31  H    0.000000   0.000000   0.000000  -0.000000  -0.000140  -0.005092
    32  H    0.000000   0.000000  -0.000000   0.000000   0.000013  -0.000154
    33  H   -0.000000  -0.000000  -0.000000  -0.000000  -0.000140   0.000013
              31         32         33
     1  O   -0.000000   0.000000   0.000061
     2  S    0.000005  -0.000062  -0.003611
     3  N    0.000000   0.000000   0.000152
     4  C    0.000000  -0.000000  -0.000012
     5  N    0.000000   0.000000   0.000000
     6  O   -0.000000  -0.000000  -0.000000
     7  C    0.000000  -0.000000  -0.000000
     8  C    0.000000  -0.000000  -0.000000
     9  C   -0.000000   0.000000   0.000000
    10  C   -0.000000   0.000000  -0.000000
    11  C    0.000000   0.000000  -0.000000
    12  C    0.000000   0.000000   0.000000
    13  C   -0.000000  -0.000000   0.000000
    14  C   -0.000000   0.000000   0.000001
    15  C    0.000441   0.004857  -0.047537
    16  C    0.004853   0.000610   0.004307
    17  C   -0.040702   0.004218   0.000240
    18  C    0.365696  -0.039936   0.004220
    19  C   -0.040682   0.367830  -0.033436
    20  C    0.004767  -0.041018   0.363381
    21  O   -0.000000   0.000002   0.009482
    22  H   -0.000000   0.000001   0.000040
    23  H    0.000000  -0.000000  -0.000000
    24  H    0.000000   0.000000   0.000000
    25  H    0.000000   0.000000  -0.000000
    26  H    0.000000   0.000000  -0.000000
    27  H    0.000000  -0.000000  -0.000000
    28  H   -0.000000   0.000000  -0.000000
    29  H   -0.000140   0.000013  -0.000140
    30  H   -0.005092  -0.000154   0.000013
    31  H    0.544738  -0.005121  -0.000136
    32  H   -0.005121   0.541655  -0.005046
    33  H   -0.000136  -0.005046   0.519782
 Mulliken charges:
               1
     1  O   -0.570435
     2  S    1.217613
     3  N   -0.804721
     4  C    0.524792
     5  N   -0.286964
     6  O   -0.419162
     7  C    0.401451
     8  C    0.077658
     9  C   -0.177567
    10  C   -0.152956
    11  C   -0.133968
    12  C   -0.148920
    13  C   -0.175117
    14  C   -0.293787
    15  C   -0.181415
    16  C   -0.129478
    17  C   -0.136343
    18  C   -0.122705
    19  C   -0.136831
    20  C   -0.130812
    21  O   -0.546157
    22  H    0.429898
    23  H    0.165210
    24  H    0.159883
    25  H    0.158635
    26  H    0.159464
    27  H    0.165300
    28  H    0.194540
    29  H    0.188602
    30  H    0.172531
    31  H    0.171372
    32  H    0.172150
    33  H    0.188240
 Sum of Mulliken charges =  -0.00000
 Mulliken charges with hydrogens summed into heavy atoms:
               1
     1  O   -0.570435
     2  S    1.217613
     3  N   -0.374823
     4  C    0.524792
     5  N   -0.286964
     6  O   -0.419162
     7  C    0.401451
     8  C    0.077658
     9  C   -0.012357
    10  C    0.006928
    11  C    0.024667
    12  C    0.010544
    13  C   -0.009817
    14  C   -0.099247
    15  C   -0.181415
    16  C    0.059124
    17  C    0.036187
    18  C    0.048667
    19  C    0.035318
    20  C    0.057428
    21  O   -0.546157
 Electronic spatial extent (au):  <R**2>=          10185.5093
 Charge=             -0.0000 electrons
 Dipole moment (field-independent basis, Debye):
    X=             -0.8494    Y=             10.9481    Z=              0.0539  Tot=             10.9811
 Quadrupole moment (field-independent basis, Debye-Ang):
   XX=            -72.6349   YY=           -129.4048   ZZ=           -127.9744
   XY=            -14.0254   XZ=              3.0411   YZ=              1.8879
 Traceless Quadrupole moment (field-independent basis, Debye-Ang):
   XX=             37.3698   YY=            -19.4001   ZZ=            -17.9697
   XY=            -14.0254   XZ=              3.0411   YZ=              1.8879
 Octapole moment (field-independent basis, Debye-Ang**2):
  XXX=            -18.4632  YYY=             29.4406  ZZZ=             -8.2905  XYY=             27.5630
  XXY=            100.7043  XXZ=             -4.6383  XZZ=            -44.3967  YZZ=              7.6148
  YYZ=              6.7876  XYZ=              1.5174
 Hexadecapole moment (field-independent basis, Debye-Ang**3):
 XXXX=          -9663.1408 YYYY=          -1073.6368 ZZZZ=           -485.8227 XXXY=           -387.8120
 XXXZ=             55.9280 YYYX=             14.9859 YYYZ=             -0.8268 ZZZX=             20.2580
 ZZZY=             10.0997 XXYY=          -2006.1710 XXZZ=          -2099.2749 YYZZ=           -279.3544
 XXYZ=             27.7022 YYXZ=             -0.0241 ZZXY=            -59.9502
 N-N= 1.670406643899D+03 E-N=-6.412726005454D+03  KE= 1.302059418834D+03
 No NMR shielding tensors so no spin-rotation constants.
 Leave Link  601 at Tue Sep 22 20:04:22 2020, MaxMem=  2147483648 cpu:               0.5 elap:               0.1
 (Enter /prod/apps/gaussian/g16b1/l701.exe)
 ... and contract with generalized density number  0.
 Compute integral first derivatives.
 D1PCM: PCM CHGder 1st derivatives, ID1Alg=3 FixD1E=F DoIter=F DoCFld=F I1PDM=0.
 GePol: Maximum number of non-zero 1st derivatives   =     179
 Leave Link  701 at Tue Sep 22 20:04:24 2020, MaxMem=  2147483648 cpu:              10.8 elap:               2.7
 (Enter /prod/apps/gaussian/g16b1/l702.exe)
 L702 exits ... SP integral derivatives will be done elsewhere.
 Leave Link  702 at Tue Sep 22 20:04:24 2020, MaxMem=  2147483648 cpu:               0.1 elap:               0.0
 (Enter /prod/apps/gaussian/g16b1/l703.exe)
 Integral derivatives from FoFJK, PRISM(SPDF).
 Compute integral first derivatives, UseDBF=F ICtDFT=           0.
 Calling FoFJK, ICntrl=      2127 FMM=F ISym2X=0 I1Cent= 0 IOpClX= 0 NMat=1 NMatS=1 NMatT=0.
 FoFJK:  IHMeth= 1 ICntrl=    2127 DoSepK=F KAlg= 0 I1Cent=           0 FoldK=F
 IRaf=         0 NMat=       1 IRICut=       1 DoRegI=T DoRafI=F ISym2E= 0 IDoP0=0 IntGTp=1.
 FoFCou: FMM=F IPFlag=           0 FMFlag=      100000 FMFlg1=         800
         NFxFlg=           0 DoJE=F BraDBF=F KetDBF=F FulRan=T
         wScrn=  0.000000 ICntrl=      2127 IOpCl=  0 I1Cent=           0 NGrid=           0
         NMat0=    1 NMatS0=      1 NMatT0=    0 NMatD0=    1 NMtDS0=    0 NMtDT0=    0
 Symmetry not used in FoFCou.
 Leave Link  703 at Tue Sep 22 20:04:41 2020, MaxMem=  2147483648 cpu:              65.4 elap:              16.4
 (Enter /prod/apps/gaussian/g16b1/l716.exe)
 Dipole        =-3.34174387D-01 4.30731364D+00 2.12081443D-02
 -------------------------------------------------------------------
 Center     Atomic                   Forces (Hartrees/Bohr)
 Number     Number              X              Y              Z
 -------------------------------------------------------------------
      1        8           0.000140330   -0.000090563   -0.000001318
      2       16           0.000154979   -0.000208467    0.000283118
      3        7           0.000086844    0.000614693    0.000022294
      4        6          -0.000110072   -0.000424030   -0.000230793
      5        7          -0.000226347   -0.000254932   -0.000036743
      6        8           0.000552810   -0.000137475   -0.000009675
      7        6           0.000562655   -0.000362301   -0.000069329
      8        6           0.000298935   -0.000551149    0.000101169
      9        6           0.000102183    0.000254856   -0.000257313
     10        6           0.000700247   -0.001258117    0.000083570
     11        6           0.000011731    0.000998648    0.000039132
[...]
 Alpha virt. eigenvalues --    4.04166   4.05701   4.14800   4.30816   4.62141
 Alpha virt. eigenvalues --    4.78461   4.88771
          Condensed to atoms (all electrons):
               1          2          3          4          5          6
     1  O    9.213188  -0.249117   0.150833  -0.020395  -0.039476  -0.012392
     2  S   -0.249117  15.129795  -0.065304   0.032151   0.002639  -0.048451
     3  N    0.150833  -0.065304   8.596646  -0.881995  -0.102073  -0.072377
     4  C   -0.020395   0.032151  -0.881995  12.613169  -0.760388   0.659275
     5  N   -0.039476   0.002639  -0.102073  -0.760388   9.165652  -1.079995
     6  O   -0.012392  -0.048451  -0.072377   0.659275  -1.079995  10.258526
     7  C   -0.036020  -0.158323   0.310086  -1.406371  -0.884934  -0.199840
     8  C    0.001539   0.018834  -0.118522   0.628255   0.285802   0.364271
     9  C    0.000918  -0.012960   0.080333  -0.666499   0.268686  -0.149710
    10  C    0.000114   0.000711  -0.026910   0.032321   0.057876   0.046162
    11  C   -0.000030  -0.001295   0.006767  -0.111793  -0.003749  -0.047539
    12  C   -0.000040   0.002527  -0.007492   0.290150  -0.060838   0.000827
    13  C   -0.001666  -0.010620   0.057413  -0.379851  -0.352089  -0.230865
    14  C    0.011304  -0.026993  -0.255421  -4.320409   0.795657  -0.322771
    15  C    0.321267  -0.906046   0.209359   0.095718   0.003537  -0.013276
    16  C   -0.157816   0.695537  -0.152778  -0.211990   0.015115  -0.000579
    17  C   -0.018889  -0.130618  -0.048766   0.031362   0.007094   0.000438
    18  C   -0.028761   0.207014  -0.007700  -0.046920   0.000455  -0.000213
    19  C    0.020066  -0.426921   0.026473   0.103699  -0.003373   0.000187
    20  C   -0.043818  -0.426099   0.056972  -0.146372  -0.012485  -0.001375
    21  O    0.046825  -0.463381   0.106479   0.008928   0.010430   0.004286
    22  H    0.002009  -0.246099   0.190149   0.225671  -0.019564   0.021620
    23  H    0.000190  -0.001367   0.013225   0.071542   0.000061   0.012628
    24  H    0.000006   0.000099  -0.001289   0.006263   0.001283   0.001285
    25  H   -0.000001  -0.000039   0.000222  -0.003421   0.000247  -0.000426
    26  H    0.000005   0.000067  -0.000509   0.005306  -0.002121   0.004733
    27  H   -0.000377  -0.000784   0.004064  -0.007113  -0.027962  -0.090728
    28  H   -0.004356   0.022346  -0.082179   0.337909  -0.062506  -0.010317
    29  H    0.023892  -0.113549  -0.032613   0.060757   0.000433  -0.000235
    30  H   -0.000498   0.007698   0.001909  -0.003448  -0.000020   0.000010
    31  H   -0.000781   0.002589   0.000084  -0.000900   0.000054  -0.000007
    32  H    0.000899   0.008842  -0.000504   0.004167   0.000020   0.000009
    33  H   -0.000650  -0.032220   0.012335   0.010074  -0.000461  -0.000771
               7          8          9         10         11         12
     1  O   -0.036020   0.001539   0.000918   0.000114  -0.000030  -0.000040
     2  S   -0.158323   0.018834  -0.012960   0.000711  -0.001295   0.002527
     3  N    0.310086  -0.118522   0.080333  -0.026910   0.006767  -0.007492
     4  C   -1.406371   0.628255  -0.666499   0.032321  -0.111793   0.290150
     5  N   -0.884934   0.285802   0.268686   0.057876  -0.003749  -0.060838
     6  O   -0.199840   0.364271  -0.149710   0.046162  -0.047539   0.000827
     7  C   20.416394  -4.542614  -0.798873  -0.558405   0.489978  -0.515085
     8  C   -4.542614  19.367264  -7.328126   2.384036  -3.727560   1.674169
     9  C   -0.798873  -7.328126  22.366064  -7.147335   3.636128  -3.460290
    10  C   -0.558405   2.384036  -7.147335  14.382232  -3.341956   3.682697
    11  C    0.489978  -3.727560   3.636128  -3.341956   9.351199  -3.047963
    12  C   -0.515085   1.674169  -3.460290   3.682697  -3.047963  11.799504
    13  C    0.246448  -6.132047   0.142749  -3.448970   2.745486  -4.314097
    14  C   -7.584093   0.782366  -1.176914   0.547391  -0.305742  -0.011620
    15  C    0.124490  -0.006116  -0.001895  -0.000646  -0.000057   0.000566
    16  C   -0.039593  -0.000110  -0.002297  -0.000153  -0.000030   0.000254
    17  C    0.014744  -0.000051  -0.000928  -0.000117  -0.000004   0.000050
    18  C   -0.011867   0.000178   0.000034   0.000015  -0.000003   0.000006
    19  C    0.013117   0.000044   0.000591   0.000074   0.000007  -0.000038
    20  C   -0.067924   0.000940   0.003727   0.000776  -0.000030  -0.000247
    21  O    0.065815  -0.002317   0.000106  -0.000144   0.000048  -0.000320
    22  H    0.044543   0.014358  -0.017826  -0.008685  -0.001846   0.004884
    23  H   -0.176563   0.924689  -1.237626   0.197663  -0.145279   0.103963
    24  H   -0.042299  -0.144495   0.929173  -0.988556   0.305278  -0.264597
    25  H   -0.015524   0.033062  -0.065827   0.266802  -0.547601   0.360409
    26  H    0.004205  -0.143184   0.073122  -0.218625   0.303248  -0.776801
    27  H    0.219447   0.326736  -0.077343   0.039626  -0.090065   0.335117
    28  H    0.965100  -0.046356  -0.021602   0.088046  -0.017746  -0.003501
    29  H    0.001295   0.000426  -0.000007   0.000119  -0.000020   0.000003
    30  H    0.000571  -0.000028  -0.000007  -0.000006   0.000000   0.000001
    31  H   -0.000404   0.000005   0.000009   0.000002  -0.000000   0.000000
    32  H    0.000766  -0.000011   0.000014   0.000000   0.000001  -0.000002
    33  H   -0.006067  -0.000244   0.000030   0.000074  -0.000022   0.000047
              13         14         15         16         17         18
     1  O   -0.001666   0.011304   0.321267  -0.157816  -0.018889  -0.028761
     2  S   -0.010620  -0.026993  -0.906046   0.695537  -0.130618   0.207014
     3  N    0.057413  -0.255421   0.209359  -0.152778  -0.048766  -0.007700
     4  C   -0.379851  -4.320409   0.095718  -0.211990   0.031362  -0.046920
     5  N   -0.352089   0.795657   0.003537   0.015115   0.007094   0.000455
     6  O   -0.230865  -0.322771  -0.013276  -0.000579   0.000438  -0.000213
     7  C    0.246448  -7.584093   0.124490  -0.039593   0.014744  -0.011867
     8  C   -6.132047   0.782366  -0.006116  -0.000110  -0.000051   0.000178
     9  C    0.142749  -1.176914  -0.001895  -0.002297  -0.000928   0.000034
    10  C   -3.448970   0.547391  -0.000646  -0.000153  -0.000117   0.000015
    11  C    2.745486  -0.305742  -0.000057  -0.000030  -0.000004  -0.000003
    12  C   -4.314097  -0.011620   0.000566   0.000254   0.000050   0.000006
    13  C   19.332086  -1.839300   0.002432   0.001674   0.000724  -0.000068
    14  C   -1.839300  19.678888  -0.264178   0.100481  -0.029839   0.024355
    15  C    0.002432  -0.264178  14.422390  -5.452788   2.070945  -3.670735
    16  C    0.001674   0.100481  -5.452788  16.016080  -3.954454   3.077333
    17  C    0.000724  -0.029839   2.070945  -3.954454  11.030390  -2.965680
    18  C   -0.000068   0.024355  -3.670735   3.077333  -2.965680   9.442851
    19  C   -0.000390  -0.059229   2.071209  -3.732876   3.167067  -3.051309
    20  C   -0.003526   0.104462  -4.863628   0.355191  -3.525075   2.833549
    21  O   -0.000327  -0.017841   0.286065  -0.129219   0.027519  -0.025829
    22  H   -0.001506  -0.191464   0.056482  -0.045311   0.054924  -0.021167
    23  H   -0.150819   0.152588   0.004452  -0.001520   0.000535  -0.000454
    24  H    0.110215   0.047467  -0.000057   0.000024  -0.000006   0.000006
    25  H   -0.067307   0.004111   0.000001  -0.000001   0.000000  -0.000000
    26  H    0.695731   0.001241   0.000011   0.000003   0.000000   0.000000
    27  H   -0.828024  -0.040141  -0.000060   0.000029   0.000041  -0.000022
    28  H    0.038126  -1.464490  -0.047236   0.017199  -0.007892   0.005995
    29  H   -0.000551  -0.022471   0.678099  -0.889729   0.171789  -0.215348
    30  H    0.000038   0.001192  -0.243562   0.524820  -0.634465   0.376329
    31  H   -0.000006   0.000969   0.123557  -0.142617   0.385697  -0.599572
    32  H   -0.000000  -0.001658  -0.180978   0.135257  -0.252365   0.331579
    33  H   -0.000137  -0.003393   0.528692  -0.052974   0.081262  -0.138000
              19         20         21         22         23         24
     1  O    0.020066  -0.043818   0.046825   0.002009   0.000190   0.000006
     2  S   -0.426921  -0.426099  -0.463381  -0.246099  -0.001367   0.000099
     3  N    0.026473   0.056972   0.106479   0.190149   0.013225  -0.001289
     4  C    0.103699  -0.146372   0.008928   0.225671   0.071542   0.006263
     5  N   -0.003373  -0.012485   0.010430  -0.019564   0.000061   0.001283
     6  O    0.000187  -0.001375   0.004286   0.021620   0.012628   0.001285
     7  C    0.013117  -0.067924   0.065815   0.044543  -0.176563  -0.042299
     8  C    0.000044   0.000940  -0.002317   0.014358   0.924689  -0.144495
     9  C    0.000591   0.003727   0.000106  -0.017826  -1.237626   0.929173
    10  C    0.000074   0.000776  -0.000144  -0.008685   0.197663  -0.988556
    11  C    0.000007  -0.000030   0.000048  -0.001846  -0.145279   0.305278
    12  C   -0.000038  -0.000247  -0.000320   0.004884   0.103963  -0.264597
    13  C   -0.000390  -0.003526  -0.000327  -0.001506  -0.150819   0.110215
    14  C   -0.059229   0.104462  -0.017841  -0.191464   0.152588   0.047467
    15  C    2.071209  -4.863628   0.286065   0.056482   0.004452  -0.000057
    16  C   -3.732876   0.355191  -0.129219  -0.045311  -0.001520   0.000024
    17  C    3.167067  -3.525075   0.027519   0.054924   0.000535  -0.000006
    18  C   -3.051309   2.833549  -0.025829  -0.021167  -0.000454   0.000006
    19  C   11.022926  -3.629475  -0.020801   0.041304   0.000511  -0.000006
    20  C   -3.629475  15.773636   0.039163  -0.075557  -0.001958   0.000046
    21  O   -0.020801   0.039163   9.276092   0.035966   0.000634  -0.000022
    22  H    0.041304  -0.075557   0.035966   0.982710   0.005532  -0.000348
    23  H    0.000511  -0.001958   0.000634   0.005532   2.010244  -0.075164
    24  H   -0.000006   0.000046  -0.000022  -0.000348  -0.075164   1.666678
    25  H    0.000000  -0.000003   0.000002  -0.000018  -0.016704  -0.052397
    26  H   -0.000001   0.000004  -0.000020   0.000046   0.009183  -0.020128
    27  H    0.000013  -0.000286   0.000363  -0.000280  -0.014162   0.006326
    28  H   -0.007141   0.015913  -0.005146  -0.006474  -0.099471  -0.001348
    29  H    0.134846  -0.072086   0.004440   0.004464  -0.000100   0.000009
    30  H   -0.240288   0.146504   0.000881   0.000926   0.000033  -0.000000
    31  H    0.351785  -0.162170  -0.000359  -0.001697  -0.000023   0.000000
    32  H   -0.736009   0.605022  -0.000500  -0.003775   0.000033  -0.000001
    33  H    0.357764  -0.968558  -0.020495   0.010549  -0.000173   0.000013
              25         26         27         28         29         30
     1  O   -0.000001   0.000005  -0.000377  -0.004356   0.023892  -0.000498
     2  S   -0.000039   0.000067  -0.000784   0.022346  -0.113549   0.007698
     3  N    0.000222  -0.000509   0.004064  -0.082179  -0.032613   0.001909
     4  C   -0.003421   0.005306  -0.007113   0.337909   0.060757  -0.003448
     5  N    0.000247  -0.002121  -0.027962  -0.062506   0.000433  -0.000020
     6  O   -0.000426   0.004733  -0.090728  -0.010317  -0.000235   0.000010
     7  C   -0.015524   0.004205   0.219447   0.965100   0.001295   0.000571
     8  C    0.033062  -0.143184   0.326736  -0.046356   0.000426  -0.000028
     9  C   -0.065827   0.073122  -0.077343  -0.021602  -0.000007  -0.000007
    10  C    0.266802  -0.218625   0.039626   0.088046   0.000119  -0.000006
    11  C   -0.547601   0.303248  -0.090065  -0.017746  -0.000020   0.000000
    12  C    0.360409  -0.776801   0.335117  -0.003501   0.000003   0.000001
    13  C   -0.067307   0.695731  -0.828024   0.038126  -0.000551   0.000038
    14  C    0.004111   0.001241  -0.040141  -1.464490  -0.022471   0.001192
    15  C    0.000001   0.000011  -0.000060  -0.047236   0.678099  -0.243562
    16  C   -0.000001   0.000003   0.000029   0.017199  -0.889729   0.524820
    17  C    0.000000   0.000000   0.000041  -0.007892   0.171789  -0.634465
    18  C   -0.000000   0.000000  -0.000022   0.005995  -0.215348   0.376329
    19  C    0.000000  -0.000001   0.000013  -0.007141   0.134846  -0.240288
    20  C   -0.000003   0.000004  -0.000286   0.015913  -0.072086   0.146504
    21  O    0.000002  -0.000020   0.000363  -0.005146   0.004440   0.000881
    22  H   -0.000018   0.000046  -0.000280  -0.006474   0.004464   0.000926
    23  H   -0.016704   0.009183  -0.014162  -0.099471  -0.000100   0.000033
    24  H   -0.052397  -0.020128   0.006326  -0.001348   0.000009  -0.000000
    25  H    1.609370  -0.057329  -0.011470   0.000379  -0.000001   0.000000
    26  H   -0.057329   1.646696  -0.086583   0.000542   0.000003  -0.000000
    27  H   -0.011470  -0.086583   1.996950   0.000019  -0.000031   0.000003
    28  H    0.000379   0.000542   0.000019   1.969468   0.000386  -0.000373
    29  H   -0.000001   0.000003  -0.000031   0.000386   1.959393  -0.111266
    30  H    0.000000  -0.000000   0.000003  -0.000373  -0.111266   1.687301
    31  H   -0.000000   0.000000  -0.000001   0.000291  -0.012983  -0.065731
    32  H    0.000000  -0.000000   0.000002  -0.000032   0.011433  -0.020056
    33  H   -0.000001   0.000003  -0.000049  -0.000864  -0.017631   0.009516
              31         32         33
     1  O   -0.000781   0.000899  -0.000650
     2  S    0.002589   0.008842  -0.032220
     3  N    0.000084  -0.000504   0.012335
     4  C   -0.000900   0.004167   0.010074
     5  N    0.000054   0.000020  -0.000461
     6  O   -0.000007   0.000009  -0.000771
     7  C   -0.000404   0.000766  -0.006067
     8  C    0.000005  -0.000011  -0.000244
     9  C    0.000009   0.000014   0.000030
    10  C    0.000002   0.000000   0.000074
    11  C   -0.000000   0.000001  -0.000022
    12  C    0.000000  -0.000002   0.000047
    13  C   -0.000006  -0.000000  -0.000137
    14  C    0.000969  -0.001658  -0.003393
    15  C    0.123557  -0.180978   0.528692
    16  C   -0.142617   0.135257  -0.052974
    17  C    0.385697  -0.252365   0.081262
    18  C   -0.599572   0.331579  -0.138000
    19  C    0.351785  -0.736009   0.357764
    20  C   -0.162170   0.605022  -0.968558
    21  O   -0.000359  -0.000500  -0.020495
    22  H   -0.001697  -0.003775   0.010549
    23  H   -0.000023   0.000033  -0.000173
    24  H    0.000000  -0.000001   0.000013
    25  H   -0.000000   0.000000  -0.000001
    26  H    0.000000  -0.000000   0.000003
    27  H   -0.000001   0.000002  -0.000049
    28  H    0.000291  -0.000032  -0.000864
    29  H   -0.012983   0.011433  -0.017631
    30  H   -0.065731  -0.020056   0.009516
    31  H    1.633578  -0.064250  -0.011786
    32  H   -0.064250   1.698690  -0.095788
    33  H   -0.011786  -0.095788   1.884401
 Mulliken charges:
               1
     1  O   -1.177970
     2  S    3.189336
     3  N   -0.966917
     4  C   -0.248851
     5  N   -0.203009
     6  O   -1.092387
     7  C    0.127801
     8  C    1.384806
     9  C    0.664381
    10  C    0.013773
    11  C    0.552189
    12  C    0.207757
    13  C    0.389042
    14  C    1.685491
    15  C    0.651988
    16  C    0.027838
    17  C    0.524567
    18  C    0.483947
    19  C    0.596173
    20  C    0.064768
    21  O   -1.227321
    22  H   -0.054519
    23  H   -0.586323
    24  H   -0.483456
    25  H   -0.436536
    26  H   -0.438848
    27  H   -0.653254
    28  H   -0.572691
    29  H   -0.563165
    30  H   -0.437986
    31  H   -0.435333
    32  H   -0.440807
    33  H   -0.544480
 Sum of Mulliken charges =  -0.00000
 Mulliken charges with hydrogens summed into heavy atoms:
               1
     1  O   -1.177970
     2  S    3.189336
     3  N   -1.021436
     4  C   -0.248851
     5  N   -0.203009
     6  O   -1.092387
     7  C    0.127801
     8  C    1.384806
     9  C    0.078058
    10  C   -0.469683
    11  C    0.115653
    12  C   -0.231091
    13  C   -0.264212
    14  C    1.112800
    15  C    0.651988
    16  C   -0.535327
    17  C    0.086581
    18  C    0.048614
    19  C    0.155366
    20  C   -0.479712
    21  O   -1.227321
 Electronic spatial extent (au):  <R**2>=          10197.8901
 Charge=             -0.0000 electrons
 Dipole moment (field-independent basis, Debye):
    X=             -0.4270    Y=              8.4310    Z=             -0.5280  Tot=              8.4583
 Quadrupole moment (field-independent basis, Debye-Ang):
   XX=            -82.4357   YY=           -133.9223   ZZ=           -133.5939
   XY=            -13.0104   XZ=              3.4615   YZ=              2.3432
 Traceless Quadrupole moment (field-independent basis, Debye-Ang):
   XX=             34.2149   YY=            -17.2717   ZZ=            -16.9433
   XY=            -13.0104   XZ=              3.4615   YZ=              2.3432
 Octapole moment (field-independent basis, Debye-Ang**2):
  XXX=             -1.4348  YYY=             15.9583  ZZZ=             -9.2717  XYY=             30.4376
  XXY=             77.1967  XXZ=             -6.6416  XZZ=            -50.4244  YZZ=              3.4842
  YYZ=              7.3383  XYZ=              1.1600
 Hexadecapole moment (field-independent basis, Debye-Ang**3):
 XXXX=         -10386.2508 YYYY=          -1119.0552 ZZZZ=           -520.5060 XXXY=           -391.9893
 XXXZ=             69.4796 YYYX=             21.5773 YYYZ=              0.6470 ZZZX=             21.7614
 ZZZY=             13.9799 XXYY=          -2120.2504 XXZZ=          -2220.3088 YYZZ=           -295.7278
 XXYZ=             36.7073 YYXZ=             -4.8852 ZZXY=            -58.9720
 N-N= 1.670100120073D+03 E-N=-6.409598722963D+03  KE= 1.304505980816D+03
 Leave Link  601 at Tue Sep 22 21:18:51 2020, MaxMem=   262144000 cpu:               0.7 elap:               0.2
 (Enter /prod/apps/gaussian/g16b1/l9999.exe)
 1\1\GINC-PIRINEUS15\SP\RMP2-FC\Aug-CC-pVDZ\C15H12N2O3S1\UBAFAR01\22-Se
 p-2020\0\\#p mp2/aug-cc-pVDZ scf=(MaxCycle=2000,NoVarAcc,NoIncFock) ma
 xdisk=120GB geom=allcheck\\SM42_m0.n.8.pdb.xyz\\0,1\O,0,-2.1498999306,
 -2.0596152021,-0.7042151644\S,0,-2.169602132,-0.9622681542,0.270682594
 9\N,0,-0.9740022494,0.1592560474,-0.2190483802\C,0,0.382793966,-0.1844
 294305,-0.1874064198\N,0,0.801190471,-1.4271800629,-0.3365614083\O,0,2
 .2024685003,-1.3352499465,-0.2872842309\C,0,2.5705077208,-0.0426814421
 ,-0.1194663646\C,0,3.9987746512,0.2455557165,-0.0477377503\C,0,4.44233
 81046,1.5666722759,0.1304040961\C,0,5.8048807881,1.8427301145,0.201135
 1737\C,0,6.7386876939,0.8084236745,0.0948513153\C,0,6.3028180199,-0.50
 66650579,-0.082673603\C,0,4.9410691678,-0.7902125031,-0.1537478895\C,0
 ,1.4524265606,0.7409447774,-0.0471991746\C,0,-3.6258407112,0.039451465
 ,0.0442965842\C,0,-4.1067133834,0.2593347014,-1.2492955357\C,0,-5.2597
 581879,1.0254015141,-1.4087845133\C,0,-5.9127633939,1.5507899316,-0.28
 95821102\C,0,-5.421147848,1.3142373068,0.9957474205\C,0,-4.2673074962,
 0.5510849422,1.1727258053\O,0,-2.0333753825,-1.292817144,1.6979927627\
 H,0,-1.161230178,1.0830032502,0.1740085567\H,0,3.7213319635,2.37247510
 35,0.2138104334\H,0,6.1384789805,2.8654207403,0.3392416922\H,0,7.79958
 47892,1.0272868436,0.1504216163\H,0,7.0235268768,-1.3130325864,-0.1657
 699053\H,0,4.5991742883,-1.809138795,-0.2909444125\H,0,1.3856795823,1.
 8081370246,0.0864190625\H,0,-3.5952587158,-0.1614617501,-2.1065636629\
 H,0,-5.6494087923,1.2082884486,-2.403775851\H,0,-6.8107724103,2.144432
 1947,-0.4212053089\H,0,-5.9345901992,1.7192937244,1.8602901485\H,0,-3.
 8700611138,0.3475322775,2.1592344231\\Version=ES64L-G16RevB.01\State=1
 -A\HF=-1305.9851401\MP2=-1309.0944039\RMSD=5.617e-09\PG=C01 [X(C15H12N
 2O3S1)]\\@


 ALL THINGS ARE POSSIBLE EXCEPT SKIING THROUGH A REVOLVING DOOR.
 Job cpu time:       0 days  3 hours  3 minutes 19.3 seconds.
 Elapsed time:       0 days  0 hours 51 minutes 27.1 seconds.
 File lengths (MBytes):  RWF= 103895 Int=      0 D2E=      0 Chk=     28 Scr=      1
 Normal termination of Gaussian 16 at Tue Sep 22 21:18:54 2020.
