 Entering Gaussian System, Link 0=g16
 Initial command:
 /prod/apps/gaussian/g16b1/l1.exe "/tmp/ubafar01/1461192/Gau-46305.inp" -scrdir="/tmp/ubafar01/1461192/"
 Entering Link 1 = /prod/apps/gaussian/g16b1/l1.exe PID=     46306.
  
 Copyright (c) 1988-2017, Gaussian, Inc.  All Rights Reserved.
  
 This is part of the Gaussian(R) 16 program.  It is based on
 the Gaussian(R) 09 system (copyright 2009, Gaussian, Inc.),
 the Gaussian(R) 03 system (copyright 2003, Gaussian, Inc.),
 the Gaussian(R) 98 system (copyright 1998, Gaussian, Inc.),
 the Gaussian(R) 94 system (copyright 1995, Gaussian, Inc.),
 the Gaussian 92(TM) system (copyright 1992, Gaussian, Inc.),
 the Gaussian 90(TM) system (copyright 1990, Gaussian, Inc.),
 the Gaussian 88(TM) system (copyright 1988, Gaussian, Inc.),
 the Gaussian 86(TM) system (copyright 1986, Carnegie Mellon
 University), and the Gaussian 82(TM) system (copyright 1983,
 Carnegie Mellon University). Gaussian is a federally registered
 trademark of Gaussian, Inc.
  
 This software contains proprietary and confidential information,
 including trade secrets, belonging to Gaussian, Inc.
  
 This software is provided under written license and may be
 used, copied, transmitted, or stored only in accord with that
 written license.
  
 The following legend is applicable only to US Government
 contracts under FAR:
  
                    RESTRICTED RIGHTS LEGEND
  
 Use, reproduction and disclosure by the US Government is
 subject to restrictions as set forth in subparagraphs (a)
 and (c) of the Commercial Computer Software - Restricted
 Rights clause in FAR 52.227-19.
  
 Gaussian, Inc.
 340 Quinnipiac St., Bldg. 40, Wallingford CT 06492
  
  
 ---------------------------------------------------------------
 Warning -- This program may not be used in any manner that
 competes with the business of Gaussian, Inc. or will provide
 assistance to any competitor of Gaussian, Inc.  The licensee
 of this program is prohibited from giving any competitor of
 Gaussian, Inc. access to this program.  By using this program,
 the user acknowledges that Gaussian, Inc. is engaged in the
 business of creating and licensing software in the field of
 computational chemistry and represents and warrants to the
 licensee that it is not a competitor of Gaussian, Inc. and that
 it will not use this program in any manner prohibited above.
 ---------------------------------------------------------------
  

 Cite this work as:
 Gaussian 16, Revision B.01,
 M. J. Frisch, G. W. Trucks, H. B. Schlegel, G. E. Scuseria, 
 M. A. Robb, J. R. Cheeseman, G. Scalmani, V. Barone, 
 G. A. Petersson, H. Nakatsuji, X. Li, M. Caricato, A. V. Marenich, 
 J. Bloino, B. G. Janesko, R. Gomperts, B. Mennucci, H. P. Hratchian, 
 J. V. Ortiz, A. F. Izmaylov, J. L. Sonnenberg, D. Williams-Young, 
 F. Ding, F. Lipparini, F. Egidi, J. Goings, B. Peng, A. Petrone, 
 T. Henderson, D. Ranasinghe, V. G. Zakrzewski, J. Gao, N. Rega, 
 G. Zheng, W. Liang, M. Hada, M. Ehara, K. Toyota, R. Fukuda, 
 J. Hasegawa, M. Ishida, T. Nakajima, Y. Honda, O. Kitao, H. Nakai, 
 T. Vreven, K. Throssell, J. A. Montgomery, Jr., J. E. Peralta, 
 F. Ogliaro, M. J. Bearpark, J. J. Heyd, E. N. Brothers, K. N. Kudin, 
 V. N. Staroverov, T. A. Keith, R. Kobayashi, J. Normand, 
 K. Raghavachari, A. P. Rendell, J. C. Burant, S. S. Iyengar, 
 J. Tomasi, M. Cossi, J. M. Millam, M. Klene, C. Adamo, R. Cammi, 
 J. W. Ochterski, R. L. Martin, K. Morokuma, O. Farkas, 
 J. B. Foresman, and D. J. Fox, Gaussian, Inc., Wallingford CT, 2016.
 
 ******************************************
 Gaussian 16:  ES64L-G16RevB.01 20-Dec-2017
                24-Sep-2020 
 ******************************************
 %nproc=4
 Will use up to    4 processors via shared memory.
 %Chk=SM43_m3.b.7.pdb.xyz.mst.b.w.chk
 %mem=16GB
 ----------------------------------------------------------------------
 #p b3lyp/6-31G(d) opt freq NoSymm scf=(MaxCycle=2000,NoVarAcc,NoIncFoc
 k) scrf=(iefpcm,read,solvent=water)
 ----------------------------------------------------------------------
 1/18=20,19=15,26=3,38=1,40=2/1,3;
 2/9=110,12=2,15=1,17=6,18=5,40=1/2;
 3/5=1,6=6,7=1,11=2,25=1,30=1,70=2203,71=1,72=1,74=-5/1,2,3;
 4//1;
 5/5=100002,7=2000,38=1,53=1/2;
 6/7=2,8=2,9=2,10=2,28=1/1;
 7/30=1/1,2,3,16;
 1/18=20,19=15,26=3/3(2);
 2/9=110,15=1/2;
 99//99;
 2/9=110,15=1/2;
 3/5=1,6=6,7=1,11=2,25=1,30=1,70=2205,71=1,72=1,74=-5/1,2,3;
 4/5=5,16=3,69=1/1;
 5/5=100002,7=2000,38=1,53=1/2;
 7/30=1/1,2,3,16;
 1/18=20,19=15,26=3/3(-5);
 2/9=110,15=1/2;
 6/7=2,8=2,9=2,10=2,19=2,28=1/1;
 99/9=1/99;
 Leave Link    1 at Thu Sep 24 06:49:44 2020, MaxMem=  2147483648 cpu:               0.1 elap:               0.0
 (Enter /prod/apps/gaussian/g16b1/l101.exe)
 -------------------
 SM43_m3.b.7.pdb.xyz
 -------------------
 Symbolic Z-matrix:
 Charge =  2 Multiplicity = 1
 O                    -3.95      0.015    -1.575 
 S                    -2.871    -0.227    -0.644 
 N                    -1.808     1.043    -0.752 
 C                    -0.453     1.014    -0.499 
 N                     0.207     2.158    -0.342 
 O                     1.538     1.916    -0.182 
 C                     1.691     0.566    -0.195 
 C                     3.038     0.054    -0.028 
 C                     4.099     0.917     0.306 
 C                     5.384     0.406     0.452 
 C                     5.624    -0.959     0.268 
 C                     4.572    -1.819    -0.063 
 C                     3.282    -1.32     -0.21 
 C                     0.468    -0.041    -0.391 
 N                    -3.654     0.061     1.029 
 C                    -4.951    -0.698     1.122 
 C                    -2.714    -0.254     2.158 
 O                    -2.141    -1.47     -0.521 
 H                    -2.25      1.951    -0.945 
 H                     3.915     1.976     0.454 
 H                     6.2       1.073     0.712 
 H                     6.63     -1.352     0.381 
 H                     4.758    -2.878    -0.21 
 H                     2.471    -1.989    -0.476 
 H                     0.254    -1.094    -0.454 
 H                    -5.586    -0.411     0.288 
 H                    -5.414    -0.409     2.066 
 H                    -4.736    -1.765     1.113 
 H                    -1.838     0.389     2.089 
 H                    -2.44     -1.306     2.106 
 H                    -3.25     -0.041     3.083 
 H                    -3.871     1.076     1.047 
 H                    -0.063     3.142    -0.427 
 
 ITRead=  0  0  0  0  0  0  0  0  0  0  0  0  0  0  0  0  0  0  0  0
 ITRead=  0  0  0  0  0  0  0  0  0  0  0  0  0
 MicOpt= -1 -1 -1 -1 -1 -1 -1 -1 -1 -1 -1 -1 -1 -1 -1 -1 -1 -1 -1 -1
 MicOpt= -1 -1 -1 -1 -1 -1 -1 -1 -1 -1 -1 -1 -1
 NAtoms=     33 NQM=       33 NQMF=       0 NMMI=      0 NMMIF=      0
                NMic=       0 NMicF=      0.
                    Isotopes and Nuclear Properties:
 (Nuclear quadrupole moments (NQMom) in fm**2, nuclear magnetic moments (NMagM)
  in nuclear magnetons)

  Atom         1           2           3           4           5           6           7           8           9          10
 IAtWgt=          16          32          14          12          14          16          12          12          12          12
 AtmWgt=  15.9949146  31.9720718  14.0030740  12.0000000  14.0030740  15.9949146  12.0000000  12.0000000  12.0000000  12.0000000
 NucSpn=           0           0           2           0           2           0           0           0           0           0
 AtZEff=  -0.0000000  -0.0000000  -0.0000000  -0.0000000  -0.0000000  -0.0000000  -0.0000000  -0.0000000  -0.0000000  -0.0000000
 NQMom=    0.0000000   0.0000000   2.0440000   0.0000000   2.0440000   0.0000000   0.0000000   0.0000000   0.0000000   0.0000000
 NMagM=    0.0000000   0.0000000   0.4037610   0.0000000   0.4037610   0.0000000   0.0000000   0.0000000   0.0000000   0.0000000
 AtZNuc=   8.0000000  16.0000000   7.0000000   6.0000000   7.0000000   8.0000000   6.0000000   6.0000000   6.0000000   6.0000000

  Atom        11          12          13          14          15          16          17          18          19          20
 IAtWgt=          12          12          12          12          14          12          12          16           1           1
 AtmWgt=  12.0000000  12.0000000  12.0000000  12.0000000  14.0030740  12.0000000  12.0000000  15.9949146   1.0078250   1.0078250
 NucSpn=           0           0           0           0           2           0           0           0           1           1
 AtZEff=  -0.0000000  -0.0000000  -0.0000000  -0.0000000  -0.0000000  -0.0000000  -0.0000000  -0.0000000  -0.0000000  -0.0000000
 NQMom=    0.0000000   0.0000000   0.0000000   0.0000000   2.0440000   0.0000000   0.0000000   0.0000000   0.0000000   0.0000000
 NMagM=    0.0000000   0.0000000   0.0000000   0.0000000   0.4037610   0.0000000   0.0000000   0.0000000   2.7928460   2.7928460
 AtZNuc=   6.0000000   6.0000000   6.0000000   6.0000000   7.0000000   6.0000000   6.0000000   8.0000000   1.0000000   1.0000000

  Atom        21          22          23          24          25          26          27          28          29          30
 IAtWgt=           1           1           1           1           1           1           1           1           1           1
 AtmWgt=   1.0078250   1.0078250   1.0078250   1.0078250   1.0078250   1.0078250   1.0078250   1.0078250   1.0078250   1.0078250
 NucSpn=           1           1           1           1           1           1           1           1           1           1
 AtZEff=  -0.0000000  -0.0000000  -0.0000000  -0.0000000  -0.0000000  -0.0000000  -0.0000000  -0.0000000  -0.0000000  -0.0000000
 NQMom=    0.0000000   0.0000000   0.0000000   0.0000000   0.0000000   0.0000000   0.0000000   0.0000000   0.0000000   0.0000000
 NMagM=    2.7928460   2.7928460   2.7928460   2.7928460   2.7928460   2.7928460   2.7928460   2.7928460   2.7928460   2.7928460
 AtZNuc=   1.0000000   1.0000000   1.0000000   1.0000000   1.0000000   1.0000000   1.0000000   1.0000000   1.0000000   1.0000000

  Atom        31          32          33
 IAtWgt=           1           1           1
 AtmWgt=   1.0078250   1.0078250   1.0078250
 NucSpn=           1           1           1
 AtZEff=  -0.0000000  -0.0000000  -0.0000000
 NQMom=    0.0000000   0.0000000   0.0000000
 NMagM=    2.7928460   2.7928460   2.7928460
 AtZNuc=   1.0000000   1.0000000   1.0000000
 Leave Link  101 at Thu Sep 24 06:49:45 2020, MaxMem=  2147483648 cpu:               1.3 elap:               0.3
 (Enter /prod/apps/gaussian/g16b1/l103.exe)

 GradGradGradGradGradGradGradGradGradGradGradGradGradGradGradGradGradGrad
 Berny optimization.
 Initialization pass.
                           ----------------------------
                           !    Initial Parameters    !
                           ! (Angstroms and Degrees)  !
 --------------------------                            --------------------------
 ! Name  Definition              Value          Derivative Info.                !
 --------------------------------------------------------------------------------
 ! R1    R(1,2)                  1.4455         estimate D2E/DX2                !
 ! R2    R(2,3)                  1.6597         estimate D2E/DX2                !
 ! R3    R(2,15)                 1.8695         estimate D2E/DX2                !
 ! R4    R(2,18)                 1.4467         estimate D2E/DX2                !
 ! R5    R(3,4)                  1.3787         estimate D2E/DX2                !
 ! R6    R(3,19)                 1.0281         estimate D2E/DX2                !
 ! R7    R(4,5)                  1.33           estimate D2E/DX2                !
 ! R8    R(4,14)                 1.4046         estimate D2E/DX2                !
 ! R9    R(5,6)                  1.3622         estimate D2E/DX2                !
 ! R10   R(5,33)                 1.0239         estimate D2E/DX2                !
 ! R11   R(6,7)                  1.3587         estimate D2E/DX2                !
 ! R12   R(7,8)                  1.4507         estimate D2E/DX2                !
 ! R13   R(7,14)                 1.3793         estimate D2E/DX2                !
 ! R14   R(8,9)                  1.4079         estimate D2E/DX2                !
 ! R15   R(8,13)                 1.4073         estimate D2E/DX2                !
 ! R16   R(9,10)                 1.3906         estimate D2E/DX2                !
 ! R17   R(9,20)                 1.085          estimate D2E/DX2                !
 ! R18   R(10,11)                1.3981         estimate D2E/DX2                !
 ! R19   R(10,21)                1.0855         estimate D2E/DX2                !
 ! R20   R(11,12)                1.3985         estimate D2E/DX2                !
 ! R21   R(11,22)                1.0859         estimate D2E/DX2                !
 ! R22   R(12,13)                1.3909         estimate D2E/DX2                !
 ! R23   R(12,23)                1.0852         estimate D2E/DX2                !
 ! R24   R(13,24)                1.0845         estimate D2E/DX2                !
 ! R25   R(14,25)                1.0764         estimate D2E/DX2                !
 ! R26   R(15,16)                1.5056         estimate D2E/DX2                !
 ! R27   R(15,17)                1.5025         estimate D2E/DX2                !
 ! R28   R(15,32)                1.0381         estimate D2E/DX2                !
 ! R29   R(16,26)                1.0868         estimate D2E/DX2                !
 ! R30   R(16,27)                1.0904         estimate D2E/DX2                !
 ! R31   R(16,28)                1.0885         estimate D2E/DX2                !
 ! R32   R(17,29)                1.0888         estimate D2E/DX2                !
 ! R33   R(17,30)                1.0883         estimate D2E/DX2                !
 ! R34   R(17,31)                1.0901         estimate D2E/DX2                !
 ! A1    A(1,2,3)              107.9428         estimate D2E/DX2                !
 ! A2    A(1,2,15)             103.765          estimate D2E/DX2                !
 ! A3    A(1,2,18)             125.1157         estimate D2E/DX2                !
 ! A4    A(3,2,15)             102.0407         estimate D2E/DX2                !
 ! A5    A(3,2,18)             109.8646         estimate D2E/DX2                !
 ! A6    A(15,2,18)            105.5221         estimate D2E/DX2                !
 ! A7    A(2,3,4)              126.9723         estimate D2E/DX2                !
 ! A8    A(2,3,19)             114.3721         estimate D2E/DX2                !
 ! A9    A(4,3,19)             118.3937         estimate D2E/DX2                !
 ! A10   A(3,4,5)              119.4234         estimate D2E/DX2                !
 ! A11   A(3,4,14)             132.4017         estimate D2E/DX2                !
 ! A12   A(5,4,14)             108.155          estimate D2E/DX2                !
 ! A13   A(4,5,6)              110.2373         estimate D2E/DX2                !
 ! A14   A(4,5,33)             133.3107         estimate D2E/DX2                !
 ! A15   A(6,5,33)             115.9841         estimate D2E/DX2                !
 ! A16   A(5,6,7)              106.5833         estimate D2E/DX2                !
 ! A17   A(6,7,8)              117.0095         estimate D2E/DX2                !
 ! A18   A(6,7,14)             109.8014         estimate D2E/DX2                !
 ! A19   A(8,7,14)             133.183          estimate D2E/DX2                !
 ! A20   A(7,8,9)              120.7128         estimate D2E/DX2                !
 ! A21   A(7,8,13)             119.3858         estimate D2E/DX2                !
 ! A22   A(9,8,13)             119.9006         estimate D2E/DX2                !
 ! A23   A(8,9,10)             119.7402         estimate D2E/DX2                !
 ! A24   A(8,9,20)             120.189          estimate D2E/DX2                !
 ! A25   A(10,9,20)            120.07           estimate D2E/DX2                !
 ! A26   A(9,10,11)            120.2378         estimate D2E/DX2                !
 ! A27   A(9,10,21)            119.6039         estimate D2E/DX2                !
 ! A28   A(11,10,21)           120.1582         estimate D2E/DX2                !
 ! A29   A(10,11,12)           120.1587         estimate D2E/DX2                !
 ! A30   A(10,11,22)           119.9116         estimate D2E/DX2                !
 ! A31   A(12,11,22)           119.9296         estimate D2E/DX2                !
 ! A32   A(11,12,13)           120.135          estimate D2E/DX2                !
 ! A33   A(11,12,23)           120.2129         estimate D2E/DX2                !
 ! A34   A(13,12,23)           119.6517         estimate D2E/DX2                !
 ! A35   A(8,13,12)            119.8274         estimate D2E/DX2                !
 ! A36   A(8,13,24)            120.2887         estimate D2E/DX2                !
 ! A37   A(12,13,24)           119.8798         estimate D2E/DX2                !
 ! A38   A(4,14,7)             105.1752         estimate D2E/DX2                !
 ! A39   A(4,14,25)            126.8646         estimate D2E/DX2                !
 ! A40   A(7,14,25)            127.9597         estimate D2E/DX2                !
 ! A41   A(2,15,16)            109.7802         estimate D2E/DX2                !
 ! A42   A(2,15,17)            112.217          estimate D2E/DX2                !
 ! A43   A(2,15,32)            104.6963         estimate D2E/DX2                !
 ! A44   A(16,15,17)           112.7577         estimate D2E/DX2                !
 ! A45   A(16,15,32)           108.1647         estimate D2E/DX2                !
 ! A46   A(17,15,32)           108.8287         estimate D2E/DX2                !
 ! A47   A(15,16,26)           108.832          estimate D2E/DX2                !
 ! A48   A(15,16,27)           106.5969         estimate D2E/DX2                !
 ! A49   A(15,16,28)           108.8744         estimate D2E/DX2                !
 ! A50   A(26,16,27)           110.2588         estimate D2E/DX2                !
 ! A51   A(26,16,28)           111.5879         estimate D2E/DX2                !
 ! A52   A(27,16,28)           110.5381         estimate D2E/DX2                !
 ! A53   A(15,17,29)           109.3846         estimate D2E/DX2                !
 ! A54   A(15,17,30)           108.9206         estimate D2E/DX2                !
 ! A55   A(15,17,31)           106.8001         estimate D2E/DX2                !
 ! A56   A(29,17,30)           111.4225         estimate D2E/DX2                !
 ! A57   A(29,17,31)           109.5099         estimate D2E/DX2                !
 ! A58   A(30,17,31)           110.6836         estimate D2E/DX2                !
 ! D1    D(1,2,3,4)           -151.8269         estimate D2E/DX2                !
 ! D2    D(1,2,3,19)            34.1958         estimate D2E/DX2                !
 ! D3    D(15,2,3,4)            99.2196         estimate D2E/DX2                !
 ! D4    D(15,2,3,19)          -74.7577         estimate D2E/DX2                !
 ! D5    D(18,2,3,4)           -12.3731         estimate D2E/DX2                !
 ! D6    D(18,2,3,19)          173.6496         estimate D2E/DX2                !
 ! D7    D(1,2,15,16)           49.0224         estimate D2E/DX2                !
 ! D8    D(1,2,15,17)          175.2465         estimate D2E/DX2                !
 ! D9    D(1,2,15,32)          -66.8791         estimate D2E/DX2                !
 ! D10   D(3,2,15,16)          161.1434         estimate D2E/DX2                !
 ! D11   D(3,2,15,17)          -72.6325         estimate D2E/DX2                !
 ! D12   D(3,2,15,32)           45.242          estimate D2E/DX2                !
 ! D13   D(18,2,15,16)         -84.0323         estimate D2E/DX2                !
 ! D14   D(18,2,15,17)          42.1918         estimate D2E/DX2                !
 ! D15   D(18,2,15,32)         160.0662         estimate D2E/DX2                !
 ! D16   D(2,3,4,5)           -165.2252         estimate D2E/DX2                !
 ! D17   D(2,3,4,14)            16.6085         estimate D2E/DX2                !
 ! D18   D(19,3,4,5)             8.5378         estimate D2E/DX2                !
 ! D19   D(19,3,4,14)         -169.6285         estimate D2E/DX2                !
 ! D20   D(3,4,5,6)           -176.3732         estimate D2E/DX2                !
 ! D21   D(3,4,5,33)            -4.7738         estimate D2E/DX2                !
 ! D22   D(14,4,5,6)             2.202          estimate D2E/DX2                !
 ! D23   D(14,4,5,33)          173.8013         estimate D2E/DX2                !
 ! D24   D(3,4,14,7)           176.981          estimate D2E/DX2                !
 ! D25   D(3,4,14,25)           -2.7619         estimate D2E/DX2                !
 ! D26   D(5,4,14,7)            -1.3383         estimate D2E/DX2                !
 ! D27   D(5,4,14,25)          178.9189         estimate D2E/DX2                !
 ! D28   D(4,5,6,7)             -2.1709         estimate D2E/DX2                !
 ! D29   D(33,5,6,7)          -175.3793         estimate D2E/DX2                !
 ! D30   D(5,6,7,8)           -179.4978         estimate D2E/DX2                !
 ! D31   D(5,6,7,14)             1.283          estimate D2E/DX2                !
 ! D32   D(6,7,8,9)              8.0533         estimate D2E/DX2                !
 ! D33   D(6,7,8,13)          -171.6108         estimate D2E/DX2                !
 ! D34   D(14,7,8,9)          -172.9543         estimate D2E/DX2                !
 ! D35   D(14,7,8,13)            7.3816         estimate D2E/DX2                !
 ! D36   D(6,7,14,4)             0.0078         estimate D2E/DX2                !
 ! D37   D(6,7,14,25)          179.7468         estimate D2E/DX2                !
 ! D38   D(8,7,14,4)          -179.0381         estimate D2E/DX2                !
 ! D39   D(8,7,14,25)            0.7009         estimate D2E/DX2                !
 ! D40   D(7,8,9,10)          -179.5526         estimate D2E/DX2                !
 ! D41   D(7,8,9,20)             0.7524         estimate D2E/DX2                !
 ! D42   D(13,8,9,10)            0.1098         estimate D2E/DX2                !
 ! D43   D(13,8,9,20)         -179.5852         estimate D2E/DX2                !
 ! D44   D(7,8,13,12)          179.4703         estimate D2E/DX2                !
 ! D45   D(7,8,13,24)            0.2114         estimate D2E/DX2                !
 ! D46   D(9,8,13,12)           -0.1965         estimate D2E/DX2                !
 ! D47   D(9,8,13,24)         -179.4555         estimate D2E/DX2                !
 ! D48   D(8,9,10,11)            0.017          estimate D2E/DX2                !
 ! D49   D(8,9,10,21)         -179.8478         estimate D2E/DX2                !
 ! D50   D(20,9,10,11)         179.7124         estimate D2E/DX2                !
 ! D51   D(20,9,10,21)          -0.1525         estimate D2E/DX2                !
 ! D52   D(9,10,11,12)          -0.0579         estimate D2E/DX2                !
 ! D53   D(9,10,11,22)         179.8537         estimate D2E/DX2                !
 ! D54   D(21,10,11,12)        179.8063         estimate D2E/DX2                !
 ! D55   D(21,10,11,22)         -0.2821         estimate D2E/DX2                !
 ! D56   D(10,11,12,13)         -0.0296         estimate D2E/DX2                !
 ! D57   D(10,11,12,23)        179.7499         estimate D2E/DX2                !
 ! D58   D(22,11,12,13)       -179.9412         estimate D2E/DX2                !
 ! D59   D(22,11,12,23)         -0.1616         estimate D2E/DX2                !
 ! D60   D(11,12,13,8)           0.1563         estimate D2E/DX2                !
 ! D61   D(11,12,13,24)        179.4184         estimate D2E/DX2                !
 ! D62   D(23,12,13,8)        -179.6245         estimate D2E/DX2                !
 ! D63   D(23,12,13,24)         -0.3624         estimate D2E/DX2                !
 ! D64   D(2,15,16,26)         -55.0211         estimate D2E/DX2                !
 ! D65   D(2,15,16,27)        -173.9289         estimate D2E/DX2                !
 ! D66   D(2,15,16,28)          66.8106         estimate D2E/DX2                !
 ! D67   D(17,15,16,26)        179.0621         estimate D2E/DX2                !
 ! D68   D(17,15,16,27)         60.1543         estimate D2E/DX2                !
 ! D69   D(17,15,16,28)        -59.1062         estimate D2E/DX2                !
 ! D70   D(32,15,16,26)         58.6658         estimate D2E/DX2                !
 ! D71   D(32,15,16,27)        -60.242          estimate D2E/DX2                !
 ! D72   D(32,15,16,28)       -179.5026         estimate D2E/DX2                !
 ! D73   D(2,15,17,29)          60.6377         estimate D2E/DX2                !
 ! D74   D(2,15,17,30)         -61.362          estimate D2E/DX2                !
 ! D75   D(2,15,17,31)         179.0658         estimate D2E/DX2                !
 ! D76   D(16,15,17,29)       -174.7689         estimate D2E/DX2                !
 ! D77   D(16,15,17,30)         63.2315         estimate D2E/DX2                !
 ! D78   D(16,15,17,31)        -56.3407         estimate D2E/DX2                !
 ! D79   D(32,15,17,29)        -54.7541         estimate D2E/DX2                !
 ! D80   D(32,15,17,30)       -176.7537         estimate D2E/DX2                !
 ! D81   D(32,15,17,31)         63.6741         estimate D2E/DX2                !
 --------------------------------------------------------------------------------
 Trust Radius=3.00D-01 FncErr=1.00D-07 GrdErr=1.00D-06 EigMax=2.50D+02 EigMin=1.00D-04
 Number of steps in this run=    183 maximum allowed number of steps=    198.
 GradGradGradGradGradGradGradGradGradGradGradGradGradGradGradGradGradGrad

 Leave Link  103 at Thu Sep 24 06:49:45 2020, MaxMem=  2147483648 cpu:               0.1 elap:               0.0
 (Enter /prod/apps/gaussian/g16b1/l202.exe)
                          Input orientation:                          
 ---------------------------------------------------------------------
 Center     Atomic      Atomic             Coordinates (Angstroms)
 Number     Number       Type             X           Y           Z
 ---------------------------------------------------------------------
      1          8           0       -3.950000    0.015000   -1.575000
      2         16           0       -2.871000   -0.227000   -0.644000
      3          7           0       -1.808000    1.043000   -0.752000
      4          6           0       -0.453000    1.014000   -0.499000
      5          7           0        0.207000    2.158000   -0.342000
      6          8           0        1.538000    1.916000   -0.182000
      7          6           0        1.691000    0.566000   -0.195000
      8          6           0        3.038000    0.054000   -0.028000
      9          6           0        4.099000    0.917000    0.306000
     10          6           0        5.384000    0.406000    0.452000
     11          6           0        5.624000   -0.959000    0.268000
     12          6           0        4.572000   -1.819000   -0.063000
     13          6           0        3.282000   -1.320000   -0.210000
     14          6           0        0.468000   -0.041000   -0.391000
     15          7           0       -3.654000    0.061000    1.029000
     16          6           0       -4.951000   -0.698000    1.122000
     17          6           0       -2.714000   -0.254000    2.158000
     18          8           0       -2.141000   -1.470000   -0.521000
     19          1           0       -2.250000    1.951000   -0.945000
     20          1           0        3.915000    1.976000    0.454000
     21          1           0        6.200000    1.073000    0.712000
     22          1           0        6.630000   -1.352000    0.381000
     23          1           0        4.758000   -2.878000   -0.210000
     24          1           0        2.471000   -1.989000   -0.476000
     25          1           0        0.254000   -1.094000   -0.454000
     26          1           0       -5.586000   -0.411000    0.288000
     27          1           0       -5.414000   -0.409000    2.066000
     28          1           0       -4.736000   -1.765000    1.113000
     29          1           0       -1.838000    0.389000    2.089000
     30          1           0       -2.440000   -1.306000    2.106000
     31          1           0       -3.250000   -0.041000    3.083000
     32          1           0       -3.871000    1.076000    1.047000
     33          1           0       -0.063000    3.142000   -0.427000
 ---------------------------------------------------------------------
                    Distance matrix (angstroms):
                    1          2          3          4          5
     1  O    0.000000
     2  S    1.445533   0.000000
     3  N    2.514414   1.659679   0.000000
     4  C    3.792728   2.721733   1.378722   0.000000
     5  N    4.836671   3.905575   2.339134   1.330032   0.000000
     6  O    5.972637   4.923939   3.504675   2.208659   1.362250
     7  C    5.833428   4.652128   3.575022   2.211302   2.181359
     8  C    7.157295   5.947663   4.998601   3.651099   3.541182
     9  C    8.314936   7.126860   6.002324   4.623650   4.136139
    10  C    9.559559   8.351463   7.319853   5.945135   5.522795
    11  C    9.798306   8.575115   7.764215   6.435134   6.279465
    12  C    8.847270   7.633497   7.026391   5.785033   5.911649
    13  C    7.479791   6.264377   5.637875   4.413763   4.644301
    14  C    4.574245   3.353733   2.546675   1.404610   2.214977
    15  N    2.621173   1.869482   2.746634   3.672791   4.602648
    16  C    2.963812   2.768934   4.052333   5.078444   6.074948
    17  C    3.941490   2.806525   3.312272   3.712088   4.538721
    18  O    2.566831   1.446747   2.545470   3.003345   4.325220
    19  H    2.652357   2.284716   1.028142   2.075113   2.538367
    20  H    8.355871   7.218629   5.922639   4.573082   3.796841
    21  H   10.458118   9.263465   8.140778   6.762574   6.180954
    22  H   10.845784   9.622123   8.844182   7.519391   7.355118
    23  H    9.276957   8.088127   7.666835   6.510431   6.788985
    24  H    6.815648   5.627596   5.251575   4.191457   4.726654
    25  H    4.490004   3.248602   2.984530   2.223857   3.254268
    26  H    2.515699   2.876405   4.179593   5.384950   6.368321
    27  H    3.947145   3.720762   4.801319   5.763304   6.632013
    28  H    3.318364   2.988431   4.465005   5.354015   6.476126
    29  H    4.245623   2.985939   2.915458   3.001099   3.636090
    30  H    4.192243   2.985381   3.753051   4.014548   4.999861
    31  H    4.710637   3.750835   4.238118   4.665507   5.340138
    32  H    2.829637   2.357391   2.737418   3.751891   4.441861
    33  H    5.119063   4.391140   2.748900   2.164640   1.023905
                    6          7          8          9         10
     6  O    0.000000
     7  C    1.358705   0.000000
     8  C    2.395988   1.450670   0.000000
     9  C    2.791929   2.484485   1.407852   0.000000
    10  C    4.180164   3.752660   2.420335   1.390562   0.000000
    11  C    5.016325   4.243640   2.793059   2.417942   1.398099
    12  C    4.813475   3.742434   2.421262   2.800997   2.423880
    13  C    3.676141   2.467489   1.407315   2.436784   2.799236
    14  C    2.240185   1.379345   2.597247   3.819389   5.007745
    15  N    5.644857   5.506562   6.774966   7.833548   9.062968
    16  C    7.116216   6.888276   8.106302   9.229116  10.415370
    17  C    5.316390   5.060932   6.161085   7.156683   8.302026
    18  O    5.011483   4.351528   5.421039   6.731961   7.816120
    19  H    3.864238   4.244079   5.692314   6.553164   7.913065
    20  H    2.461346   2.712098   2.166919   1.085007   2.150085
    21  H    4.821217   4.627178   3.403558   2.145547   1.085516
    22  H    6.076616   5.329561   3.878992   3.399992   2.155950
    23  H    5.775086   4.611708   3.404137   3.886201   3.408046
    24  H    4.025661   2.686147   2.167035   3.421512   3.883655
    25  H    3.283708   2.210803   3.041387   4.405195   5.421046
    26  H    7.509141   7.358162   8.642306   9.775640  11.001604
    27  H    7.667427   7.519559   8.719834   9.764888  10.948334
    28  H    7.388495   6.960658   8.065093   9.268311  10.371334
    29  H    4.345865   4.207354   5.326283   6.221402   7.405224
    30  H    5.607202   5.085680   6.034239   7.137244   8.178119
    31  H    6.116782   5.960471   7.016145   7.914373   9.037031
    32  H    5.610109   5.721757   7.066427   8.005952   9.298277
    33  H    2.031330   3.125079   4.394445   4.775998   6.158583
                   11         12         13         14         15
    11  C    0.000000
    12  C    1.398522   0.000000
    13  C    2.417389   1.390939   0.000000
    14  C    5.278384   4.484605   3.096320   0.000000
    15  N    9.364871   8.508463   7.179859   4.360927   0.000000
    16  C   10.612637   9.661697   8.363217   5.664484   1.505636
    17  C    8.578541   7.776108   6.534202   4.082633   1.502487
    18  O    7.821692   6.737650   5.433981   2.977553   2.652476
    19  H    8.481706   7.844138   6.468593   3.415041   3.072457
    20  H    3.401397   3.885996   3.421286   4.082171   7.828640
    21  H    2.158225   3.408031   3.884747   5.942510   9.910901
    22  H    1.085935   2.156522   3.399913   6.347043  10.400823
    23  H    2.158935   1.085212   2.146145   5.146400   8.996365
    24  H    3.399389   2.147946   1.084453   2.795342   6.631979
    25  H    5.420001   4.395865   3.046210   1.076371   4.336563
    26  H   11.223404  10.261122   8.928365   6.103184   2.122378
    27  H   11.196997  10.307324   9.034961   6.385154   2.096156
    28  H   10.425606   9.382151   8.138592   5.684699   2.124160
    29  H    7.798371   7.112979   5.866897   3.413640   2.128154
    30  H    8.278088   7.357708   6.172952   4.036298   2.121889
    31  H    9.354936   8.616396   7.426083   5.088438   2.095838
    32  H    9.741822   8.994297   7.647632   4.705577   1.038093
    33  H    7.045793   6.799062   5.580821   3.227189   4.950533
                   16         17         18         19         20
    16  C    0.000000
    17  C    2.504915   0.000000
    18  O    3.345375   2.997336   0.000000
    19  H    4.311043   3.834831   3.448898   0.000000
    20  H    9.284528   7.198622   7.035672   6.321792   0.000000
    21  H   11.298201   9.127499   8.806783   8.655578   2.470465
    22  H   11.623096   9.574637   8.818048   9.566738   4.295595
    23  H   10.039487   8.265808   7.048077   8.542338   4.971203
    24  H    7.701063   6.068971   4.641328   6.166961   4.321025
    25  H    5.452762   4.041926   2.425261   3.972798   4.863361
    26  H    1.086807   3.430734   3.693777   4.269453   9.797669
    27  H    1.090425   2.706010   4.304744   4.964536   9.763043
    28  H    1.088483   2.731964   3.080748   4.921810   9.448236
    29  H    3.436194   1.088846   3.218663   3.437258   6.187795
    30  H    2.764605   1.088340   2.649042   4.466850   7.340753
    31  H    2.677792   1.090087   4.032461   4.603569   7.894122
    32  H    2.078245   2.083715   3.454510   2.713177   7.860245
    33  H    6.406055   5.024226   5.059394   2.543575   4.237948
                   21         22         23         24         25
    21  H    0.000000
    22  H    2.484972   0.000000
    23  H    4.305792   2.486431   0.000000
    24  H    4.969168   4.293891   2.468085   0.000000
    25  H    6.435088   6.435617   4.850588   2.390941   0.000000
    26  H   11.886624  12.252542  10.645770   8.245546   5.926437
    27  H   11.786205  12.197803  10.711943   8.433943   6.240661
    28  H   11.305359  11.397032   9.650136   7.383491   5.273123
    29  H    8.183730   8.812228   7.711414   5.549918   3.611454
    30  H    9.069315   9.232694   7.723098   5.590271   3.722389
    31  H    9.806382  10.326370   9.111558   7.013631   5.088929
    32  H   10.076571  10.798599   9.574644   7.206575   4.896685
    33  H    6.693523   8.102169   7.715538   5.722824   4.247931
                   26         27         28         29         30
    26  H    0.000000
    27  H    1.786301   0.000000
    28  H    1.799011   1.790706   0.000000
    29  H    4.234514   3.664029   3.740414   0.000000
    30  H    3.742120   3.106587   2.543294   1.798810   0.000000
    31  H    3.661396   2.419217   3.010195   1.779517   1.791886
    32  H    2.393423   2.371589   2.970499   2.385544   2.973746
    33  H    6.605949   6.888966   6.948898   4.130362   5.643662
                   31         32         33
    31  H    0.000000
    32  H    2.403877   0.000000
    33  H    5.710390   4.576232   0.000000
 Symmetry turned off by external request.
 Stoichiometry    C11H15N3O3S(2+)
 Framework group  C1[X(C11H15N3O3S)]
 Deg. of freedom    93
 Full point group                 C1      NOp   1
 Rotational constants (GHZ):           0.9870460           0.1611867           0.1541601
 Leave Link  202 at Thu Sep 24 06:49:45 2020, MaxMem=  2147483648 cpu:               0.0 elap:               0.0
 (Enter /prod/apps/gaussian/g16b1/l301.exe)
 Standard basis: 6-31G(d) (6D, 7F)
 Ernie: Thresh=  0.10000D-02 Tol=  0.10000D-05 Strict=F.
   304 basis functions,   588 primitive gaussians,   304 cartesian basis functions
    70 alpha electrons       70 beta electrons
       nuclear repulsion energy      1485.0532611519 Hartrees.
 IExCor=  402 DFT=T Ex+Corr=B3LYP ExCW=0 ScaHFX=  0.200000
 ScaDFX=  0.800000  0.720000  1.000000  0.810000 ScalE2=  1.000000  1.000000
 IRadAn=      5 IRanWt=     -1 IRanGd=            0 ICorTp=0 IEmpDi=  4
 NAtoms=   33 NActive=   33 NUniq=   33 SFac= 1.00D+00 NAtFMM=   60 NAOKFM=F Big=F
 Integral buffers will be    131072 words long.
 Raffenetti 2 integral format.
 Two-electron integral symmetry is turned off.
 Using the following non-standard input for PCM:
 MSTModel=DFT cav MSTcharged
 --- end of non-standard input.
 MST model for solvation energy: B3LYP parametrization.
 MST cavity parameters:
 ISph   IAn     Re0     Alpha   Atom Type   QCorr
 ------------------------------------------------
   1      8     1.40     1.25      O          F
   2     16     1.75     1.25      S          F
   3      7     1.50     1.25      NH         F
   4      6     1.50     1.25      C          F
   5      7     1.50     1.15      NH         T
   6      8     1.40     1.25      O          F
   7      6     1.50     1.25      C          F
   8      6     1.50     1.25      C          F
   9      6     1.50     1.25      CH         F
  10      6     1.50     1.25      CH         F
  11      6     1.50     1.25      CH         F
  12      6     1.50     1.25      CH         F
  13      6     1.50     1.25      CH         F
  14      6     1.50     1.25      CH         F
  15      7     1.50     1.15      NH         T
  16      6     1.50     1.25      CH3        F
  17      6     1.50     1.25      CH3        F
  18      8     1.40     1.25      O          F
  19      1     0.90     1.25      NH         F
  20      1     1.20     1.25      CH         F
  21      1     1.20     1.25      CH         F
  22      1     1.20     1.25      CH         F
  23      1     1.20     1.25      CH         F
  24      1     1.20     1.25      CH         F
  25      1     1.20     1.25      CH         F
  26      1     1.20     1.25      CH3        F
  27      1     1.20     1.25      CH3        F
  28      1     1.20     1.25      CH3        F
  29      1     1.20     1.25      CH3        F
  30      1     1.20     1.25      CH3        F
  31      1     1.20     1.25      CH3        F
  32      1     0.90     1.15      NH         T
  33      1     0.90     1.15      NH         T
 ------------------------------------------------------------------------------
 Polarizable Continuum Model (PCM)
 =================================
 Model                : PCM.
 Atomic radii         : MST.
 Polarization charges : Total charges.
 Charge compensation  : None.
 Solution method      : On-the-fly selection.
 Cavity type          : Scaled VdW (van der Waals Surface) (Alpha=1.250).
 Cavity algorithm     : GePol (No added spheres)
                        Default sphere list used, NSphG=   33.
                        Lebedev-Laikov grids with approx.  5.0 points / Ang**2.
                        Smoothing algorithm: York/Karplus (Gamma=1.0000).
                        Polarization charges: spherical gaussians, with
                                              point-specific exponents (IZeta= 3).
                        Self-potential: point-specific (ISelfS= 7).
                        Self-field    : sphere-specific E.n sum rule (ISelfD= 2).
 1st derivatives      : Analytical E(r).r(x)/FMM algorithm (CHGder, D1EAlg=3).
                        Cavity 1st derivative terms included.
 Solvent              : Water, Eps=  78.355300 Eps(inf)=   1.777849
 ------------------------------------------------------------------------------
 GePol: Number of generator spheres                  =      33
 GePol: Total number of spheres                      =      33
 GePol: Number of exposed spheres                    =      33 (100.00%)
 GePol: Number of points                             =    2424
 GePol: Average weight of points                     =       0.13
 GePol: Minimum weight of points                     =   0.62D-10
 GePol: Maximum weight of points                     =    0.22001
 GePol: Number of points with low weight             =     153
 GePol: Fraction of low-weight points (<1% of avg)   =       6.31%
 GePol: Cavity surface area                          =    310.521 Ang**2
 GePol: Cavity volume                                =    295.083 Ang**3
 PCM non-electrostatic energy =         0.0020109332 Hartrees.
 Nuclear repulsion after PCM non-electrostatic terms =     1485.0552720851 Hartrees.
 Leave Link  301 at Thu Sep 24 06:49:45 2020, MaxMem=  2147483648 cpu:               0.3 elap:               0.1
 (Enter /prod/apps/gaussian/g16b1/l302.exe)
 NPDir=0 NMtPBC=     1 NCelOv=     1 NCel=       1 NClECP=     1 NCelD=      1
         NCelK=      1 NCelE2=     1 NClLst=     1 CellRange=     0.0.
 One-electron integrals computed using PRISM.
 NBasis=   304 RedAO= T EigKep=  4.67D-04  NBF=   304
 NBsUse=   304 1.00D-06 EigRej= -1.00D+00 NBFU=   304
 Precomputing XC quadrature grid using
 IXCGrd= 4 IRadAn=           5 IRanWt=          -1 IRanGd=           0 AccXCQ= 0.00D+00.
 Generated NRdTot=       0 NPtTot=           0 NUsed=           0 NTot=          32
 NSgBfM=   303   303   303   303   303 MxSgAt=    33 MxSgA2=    33.
 Leave Link  302 at Thu Sep 24 06:49:45 2020, MaxMem=  2147483648 cpu:               1.5 elap:               0.4
 (Enter /prod/apps/gaussian/g16b1/l303.exe)
 DipDrv:  MaxL=1.
 Leave Link  303 at Thu Sep 24 06:49:45 2020, MaxMem=  2147483648 cpu:               0.1 elap:               0.1
 (Enter /prod/apps/gaussian/g16b1/l401.exe)
 ExpMin= 1.17D-01 ExpMax= 2.19D+04 ExpMxC= 3.30D+03 IAcc=3 IRadAn=         5 AccDes= 0.00D+00
 Harris functional with IExCor=  402 and IRadAn=       5 diagonalized for initial guess.
 HarFok:  IExCor=  402 AccDes= 0.00D+00 IRadAn=         5 IDoV= 1 UseB2=F ITyADJ=14
 ICtDFT=  3500011 ScaDFX=  1.000000  1.000000  1.000000  1.000000
 FoFCou: FMM=F IPFlag=           0 FMFlag=      100000 FMFlg1=           0
         NFxFlg=           0 DoJE=T BraDBF=F KetDBF=T FulRan=T
         wScrn=  0.000000 ICntrl=       500 IOpCl=  0 I1Cent=   200000004 NGrid=           0
         NMat0=    1 NMatS0=      1 NMatT0=    0 NMatD0=    1 NMtDS0=    0 NMtDT0=    0
 Symmetry not used in FoFCou.
 Harris En= -1215.80135108781    
 JPrj=0 DoOrth=F DoCkMO=F.
 Leave Link  401 at Thu Sep 24 06:49:47 2020, MaxMem=  2147483648 cpu:               8.4 elap:               2.1
 (Enter /prod/apps/gaussian/g16b1/l502.exe)
 Two-electron integral symmetry not used.
 Closed shell SCF:
 Using DIIS extrapolation, IDIIS=  1040.
 NGot=  2147483648 LenX=  2147294283 LenY=  2147201426
 Requested convergence on RMS density matrix=1.00D-08 within2000 cycles.
 Requested convergence on MAX density matrix=1.00D-06.
 Requested convergence on             energy=1.00D-06.
 No special actions if energy rises.

 Cycle   1  Pass 1  IDiag  1:
 FoFJK:  IHMeth= 1 ICntrl=       0 DoSepK=F KAlg= 0 I1Cent=           0 FoldK=F
 IRaf= 760000000 NMat=       1 IRICut=       1 DoRegI=T DoRafI=F ISym2E= 0 IDoP0=0 IntGTp=1.
 FoFCou: FMM=F IPFlag=           0 FMFlag=      100000 FMFlg1=           0
         NFxFlg=           0 DoJE=F BraDBF=F KetDBF=F FulRan=T
         wScrn=  0.000000 ICntrl=         0 IOpCl=  0 I1Cent=           0 NGrid=           0
         NMat0=    1 NMatS0=      1 NMatT0=    0 NMatD0=    1 NMtDS0=    0 NMtDT0=    0
 Symmetry not used in FoFCou.
 Inv3:  Mode=1 IEnd=    17627328.
 Iteration    1 A*A^-1 deviation from unit magnitude is 3.11D-15 for    576.
 Iteration    1 A*A^-1 deviation from orthogonality  is 2.95D-15 for   1954    812.
 Iteration    1 A^-1*A deviation from unit magnitude is 3.00D-15 for   1664.
 Iteration    1 A^-1*A deviation from orthogonality  is 1.55D-15 for    974     32.
 E= -1215.33193604809    
 DIIS: error= 3.93D-02 at cycle   1 NSaved=   1.
 NSaved= 1 IEnMin= 1 EnMin= -1215.33193604809     IErMin= 1 ErrMin= 3.93D-02
 ErrMax= 3.93D-02  0.00D+00 EMaxC= 1.00D-01 BMatC= 6.11D-01 BMatP= 6.11D-01
 IDIUse=3 WtCom= 6.07D-01 WtEn= 3.93D-01
 Coeff-Com:  0.100D+01
 Coeff-En:   0.100D+01
 Coeff:      0.100D+01
 Gap=     0.341 Goal=   None    Shift=    0.000
 GapD=    0.341 DampG=1.000 DampE=0.500 DampFc=0.5000 IDamp=-1.
 Damping current iteration by 5.00D-01
 RMSDP=6.79D-03 MaxDP=6.88D-01              OVMax= 4.03D-01

 Cycle   2  Pass 1  IDiag  1:
 E= -1215.40163375319     Delta-E=       -0.069697705099 Rises=F Damp=T
 DIIS: error= 2.34D-02 at cycle   2 NSaved=   2.
 NSaved= 2 IEnMin= 2 EnMin= -1215.40163375319     IErMin= 2 ErrMin= 2.34D-02
 ErrMax= 2.34D-02  0.00D+00 EMaxC= 1.00D-01 BMatC= 1.35D-01 BMatP= 6.11D-01
 IDIUse=3 WtCom= 7.66D-01 WtEn= 2.34D-01
 Coeff-Com:  0.277D+00 0.723D+00
 Coeff-En:   0.441D+00 0.559D+00
 Coeff:      0.315D+00 0.685D+00
 Gap=     0.165 Goal=   None    Shift=    0.000
 RMSDP=2.02D-03 MaxDP=1.50D-01 DE=-6.97D-02 OVMax= 3.30D-01

 Cycle   3  Pass 1  IDiag  1:
 E= -1215.82903117840     Delta-E=       -0.427397425208 Rises=F Damp=F
 DIIS: error= 8.65D-03 at cycle   3 NSaved=   3.
 NSaved= 3 IEnMin= 3 EnMin= -1215.82903117840     IErMin= 3 ErrMin= 8.65D-03
 ErrMax= 8.65D-03  0.00D+00 EMaxC= 1.00D-01 BMatC= 4.83D-02 BMatP= 1.35D-01
 IDIUse=3 WtCom= 9.13D-01 WtEn= 8.65D-02
 Coeff-Com:  0.101D+00 0.374D+00 0.525D+00
 Coeff-En:   0.000D+00 0.000D+00 0.100D+01
 Coeff:      0.926D-01 0.342D+00 0.566D+00
 Gap=     0.171 Goal=   None    Shift=    0.000
 RMSDP=8.98D-04 MaxDP=3.61D-02 DE=-4.27D-01 OVMax= 5.01D-02

 Cycle   4  Pass 1  IDiag  1:
 E= -1215.86466198802     Delta-E=       -0.035630809618 Rises=F Damp=F
 DIIS: error= 2.93D-03 at cycle   4 NSaved=   4.
 NSaved= 4 IEnMin= 4 EnMin= -1215.86466198802     IErMin= 4 ErrMin= 2.93D-03
 ErrMax= 2.93D-03  0.00D+00 EMaxC= 1.00D-01 BMatC= 8.62D-03 BMatP= 4.83D-02
 IDIUse=3 WtCom= 9.71D-01 WtEn= 2.93D-02
 Coeff-Com:  0.776D-02 0.877D-01 0.309D+00 0.595D+00
 Coeff-En:   0.000D+00 0.000D+00 0.139D+00 0.861D+00
 Coeff:      0.753D-02 0.852D-01 0.304D+00 0.603D+00
 Gap=     0.168 Goal=   None    Shift=    0.000
 RMSDP=3.34D-04 MaxDP=1.49D-02 DE=-3.56D-02 OVMax= 3.11D-02

 Cycle   5  Pass 1  IDiag  1:
 E= -1215.87144875280     Delta-E=       -0.006786764779 Rises=F Damp=F
 DIIS: error= 1.55D-03 at cycle   5 NSaved=   5.
 NSaved= 5 IEnMin= 5 EnMin= -1215.87144875280     IErMin= 5 ErrMin= 1.55D-03
 ErrMax= 1.55D-03  0.00D+00 EMaxC= 1.00D-01 BMatC= 9.85D-04 BMatP= 8.62D-03
 IDIUse=3 WtCom= 9.85D-01 WtEn= 1.55D-02
 Coeff-Com: -0.560D-02 0.210D-01 0.127D+00 0.346D+00 0.512D+00
 Coeff-En:   0.000D+00 0.000D+00 0.000D+00 0.284D-01 0.972D+00
 Coeff:     -0.551D-02 0.207D-01 0.125D+00 0.341D+00 0.519D+00
 Gap=     0.168 Goal=   None    Shift=    0.000
 RMSDP=1.12D-04 MaxDP=7.34D-03 DE=-6.79D-03 OVMax= 1.35D-02

 Cycle   6  Pass 1  IDiag  1:
 E= -1215.87223416816     Delta-E=       -0.000785415362 Rises=F Damp=F
 DIIS: error= 4.65D-04 at cycle   6 NSaved=   6.
 NSaved= 6 IEnMin= 6 EnMin= -1215.87223416816     IErMin= 6 ErrMin= 4.65D-04
 ErrMax= 4.65D-04  0.00D+00 EMaxC= 1.00D-01 BMatC= 8.42D-05 BMatP= 9.85D-04
 IDIUse=3 WtCom= 9.95D-01 WtEn= 4.65D-03
 Coeff-Com: -0.383D-02 0.529D-02 0.387D-01 0.125D+00 0.285D+00 0.550D+00
 Coeff-En:   0.000D+00 0.000D+00 0.000D+00 0.000D+00 0.101D-01 0.990D+00
 Coeff:     -0.381D-02 0.526D-02 0.385D-01 0.124D+00 0.284D+00 0.552D+00
 Gap=     0.169 Goal=   None    Shift=    0.000
 RMSDP=3.13D-05 MaxDP=2.11D-03 DE=-7.85D-04 OVMax= 3.31D-03

 Cycle   7  Pass 1  IDiag  1:
 E= -1215.87230162755     Delta-E=       -0.000067459391 Rises=F Damp=F
 DIIS: error= 1.08D-04 at cycle   7 NSaved=   7.
 NSaved= 7 IEnMin= 7 EnMin= -1215.87230162755     IErMin= 7 ErrMin= 1.08D-04
 ErrMax= 1.08D-04  0.00D+00 EMaxC= 1.00D-01 BMatC= 7.84D-06 BMatP= 8.42D-05
 IDIUse=3 WtCom= 9.99D-01 WtEn= 1.08D-03
 Coeff-Com: -0.192D-02 0.127D-02 0.111D-01 0.413D-01 0.116D+00 0.315D+00
 Coeff-Com:  0.517D+00
 Coeff-En:   0.000D+00 0.000D+00 0.000D+00 0.000D+00 0.000D+00 0.000D+00
 Coeff-En:   0.100D+01
 Coeff:     -0.192D-02 0.127D-02 0.111D-01 0.412D-01 0.116D+00 0.315D+00
 Coeff:      0.518D+00
 Gap=     0.169 Goal=   None    Shift=    0.000
 RMSDP=8.35D-06 MaxDP=4.47D-04 DE=-6.75D-05 OVMax= 4.68D-04

 Cycle   8  Pass 1  IDiag  1:
 E= -1215.87230770762     Delta-E=       -0.000006080067 Rises=F Damp=F
 DIIS: error= 3.00D-05 at cycle   8 NSaved=   8.
 NSaved= 8 IEnMin= 8 EnMin= -1215.87230770762     IErMin= 8 ErrMin= 3.00D-05
 ErrMax= 3.00D-05  0.00D+00 EMaxC= 1.00D-01 BMatC= 4.66D-07 BMatP= 7.84D-06
 IDIUse=1 WtCom= 1.00D+00 WtEn= 0.00D+00
 Coeff-Com: -0.534D-03 0.851D-04 0.435D-03 0.433D-02 0.213D-01 0.938D-01
 Coeff-Com:  0.239D+00 0.642D+00
 Coeff:     -0.534D-03 0.851D-04 0.435D-03 0.433D-02 0.213D-01 0.938D-01
 Coeff:      0.239D+00 0.642D+00
 Gap=     0.169 Goal=   None    Shift=    0.000
 RMSDP=2.46D-06 MaxDP=1.10D-04 DE=-6.08D-06 OVMax= 1.23D-04

 Cycle   9  Pass 1  IDiag  1:
 E= -1215.87230805076     Delta-E=       -0.000000343143 Rises=F Damp=F
 DIIS: error= 1.16D-05 at cycle   9 NSaved=   9.
 NSaved= 9 IEnMin= 9 EnMin= -1215.87230805076     IErMin= 9 ErrMin= 1.16D-05
 ErrMax= 1.16D-05  0.00D+00 EMaxC= 1.00D-01 BMatC= 7.70D-08 BMatP= 4.66D-07
 IDIUse=1 WtCom= 1.00D+00 WtEn= 0.00D+00
 Coeff-Com: -0.972D-04-0.224D-04-0.903D-03-0.196D-02-0.909D-03 0.179D-01
 Coeff-Com:  0.690D-01 0.343D+00 0.574D+00
 Coeff:     -0.972D-04-0.224D-04-0.903D-03-0.196D-02-0.909D-03 0.179D-01
 Coeff:      0.690D-01 0.343D+00 0.574D+00
 Gap=     0.169 Goal=   None    Shift=    0.000
 RMSDP=9.92D-07 MaxDP=4.56D-05 DE=-3.43D-07 OVMax= 6.62D-05

 Cycle  10  Pass 1  IDiag  1:
 E= -1215.87230810595     Delta-E=       -0.000000055186 Rises=F Damp=F
 DIIS: error= 7.52D-06 at cycle  10 NSaved=  10.
 NSaved=10 IEnMin=10 EnMin= -1215.87230810595     IErMin=10 ErrMin= 7.52D-06
 ErrMax= 7.52D-06  0.00D+00 EMaxC= 1.00D-01 BMatC= 1.31D-08 BMatP= 7.70D-08
 IDIUse=1 WtCom= 1.00D+00 WtEn= 0.00D+00
 Coeff-Com: -0.201D-04-0.129D-04-0.607D-03-0.160D-02-0.256D-02 0.279D-02
 Coeff-Com:  0.203D-01 0.155D+00 0.358D+00 0.469D+00
 Coeff:     -0.201D-04-0.129D-04-0.607D-03-0.160D-02-0.256D-02 0.279D-02
 Coeff:      0.203D-01 0.155D+00 0.358D+00 0.469D+00
 Gap=     0.169 Goal=   None    Shift=    0.000
 RMSDP=3.56D-07 MaxDP=2.26D-05 DE=-5.52D-08 OVMax= 2.77D-05

 Cycle  11  Pass 1  IDiag  1:
 E= -1215.87230811561     Delta-E=       -0.000000009667 Rises=F Damp=F
 DIIS: error= 9.50D-07 at cycle  11 NSaved=  11.
 NSaved=11 IEnMin=11 EnMin= -1215.87230811561     IErMin=11 ErrMin= 9.50D-07
 ErrMax= 9.50D-07  0.00D+00 EMaxC= 1.00D-01 BMatC= 7.44D-10 BMatP= 1.31D-08
 IDIUse=1 WtCom= 1.00D+00 WtEn= 0.00D+00
 Coeff-Com: -0.938D-07 0.125D-05-0.200D-03-0.557D-03-0.125D-02-0.894D-03
 Coeff-Com:  0.389D-03 0.310D-01 0.101D+00 0.222D+00 0.649D+00
 Coeff:     -0.938D-07 0.125D-05-0.200D-03-0.557D-03-0.125D-02-0.894D-03
 Coeff:      0.389D-03 0.310D-01 0.101D+00 0.222D+00 0.649D+00
 Gap=     0.169 Goal=   None    Shift=    0.000
 RMSDP=1.04D-07 MaxDP=4.42D-06 DE=-9.67D-09 OVMax= 6.17D-06

 Cycle  12  Pass 1  IDiag  1:
 E= -1215.87230811611     Delta-E=       -0.000000000494 Rises=F Damp=F
 DIIS: error= 5.52D-07 at cycle  12 NSaved=  12.
 NSaved=12 IEnMin=12 EnMin= -1215.87230811611     IErMin=12 ErrMin= 5.52D-07
 ErrMax= 5.52D-07  0.00D+00 EMaxC= 1.00D-01 BMatC= 1.67D-10 BMatP= 7.44D-10
 IDIUse=1 WtCom= 1.00D+00 WtEn= 0.00D+00
 Coeff-Com:  0.201D-05 0.411D-05-0.410D-04-0.119D-03-0.419D-03-0.854D-03
 Coeff-Com: -0.255D-02-0.213D-02 0.124D-01 0.672D-01 0.389D+00 0.538D+00
 Coeff:      0.201D-05 0.411D-05-0.410D-04-0.119D-03-0.419D-03-0.854D-03
 Coeff:     -0.255D-02-0.213D-02 0.124D-01 0.672D-01 0.389D+00 0.538D+00
 Gap=     0.169 Goal=   None    Shift=    0.000
 RMSDP=4.19D-08 MaxDP=2.43D-06 DE=-4.94D-10 OVMax= 2.76D-06

 Cycle  13  Pass 1  IDiag  1:
 E= -1215.87230811626     Delta-E=       -0.000000000149 Rises=F Damp=F
 DIIS: error= 9.02D-08 at cycle  13 NSaved=  13.
 NSaved=13 IEnMin=13 EnMin= -1215.87230811626     IErMin=13 ErrMin= 9.02D-08
 ErrMax= 9.02D-08  0.00D+00 EMaxC= 1.00D-01 BMatC= 3.89D-12 BMatP= 1.67D-10
 IDIUse=1 WtCom= 1.00D+00 WtEn= 0.00D+00
 Coeff-Com:  0.410D-06 0.140D-05-0.339D-05-0.861D-05-0.749D-04-0.216D-03
 Coeff-Com: -0.886D-03-0.266D-02-0.177D-02 0.995D-02 0.928D-01 0.189D+00
 Coeff-Com:  0.713D+00
 Coeff:      0.410D-06 0.140D-05-0.339D-05-0.861D-05-0.749D-04-0.216D-03
 Coeff:     -0.886D-03-0.266D-02-0.177D-02 0.995D-02 0.928D-01 0.189D+00
 Coeff:      0.713D+00
 Gap=     0.169 Goal=   None    Shift=    0.000
 RMSDP=9.28D-09 MaxDP=4.56D-07 DE=-1.49D-10 OVMax= 8.41D-07

 Error on total polarization charges =  0.01828
 SCF Done:  E(RB3LYP) =  -1215.87230812     A.U. after   13 cycles
            NFock= 13  Conv=0.93D-08     -V/T= 2.0079
 KE= 1.206351925855D+03 PE=-5.775535146060D+03 EE= 1.868255640004D+03
 Leave Link  502 at Thu Sep 24 06:50:51 2020, MaxMem=  2147483648 cpu:             255.4 elap:              63.9
 (Enter /prod/apps/gaussian/g16b1/l601.exe)
 Copying SCF densities to generalized density rwf, IOpCl= 0 IROHF=0.

 **********************************************************************

            Population analysis using the SCF Density.

 **********************************************************************

 Alpha  occ. eigenvalues --  -89.20596 -19.30776 -19.22774 -19.22464 -14.49474
 Alpha  occ. eigenvalues --  -14.49291 -14.45727 -10.35910 -10.32229 -10.25956
 Alpha  occ. eigenvalues --  -10.25817 -10.24438 -10.23466 -10.21800 -10.21695
 Alpha  occ. eigenvalues --  -10.21180 -10.20801 -10.20781  -8.22889  -6.19379
 Alpha  occ. eigenvalues --   -6.19330  -6.19234  -1.23068  -1.20030  -1.08951
 Alpha  occ. eigenvalues --   -1.03369  -1.02008  -0.94504  -0.88868  -0.86158
 Alpha  occ. eigenvalues --   -0.78248  -0.77093  -0.76810  -0.76097  -0.71160
 Alpha  occ. eigenvalues --   -0.69110  -0.67704  -0.65318  -0.63024  -0.62068
 Alpha  occ. eigenvalues --   -0.60787  -0.57120  -0.56353  -0.55641  -0.54534
 Alpha  occ. eigenvalues --   -0.54291  -0.52088  -0.50584  -0.50107  -0.48923
 Alpha  occ. eigenvalues --   -0.47271  -0.46929  -0.45741  -0.44805  -0.44205
 Alpha  occ. eigenvalues --   -0.43984  -0.43759  -0.43431  -0.42784  -0.41240
 Alpha  occ. eigenvalues --   -0.39685  -0.39361  -0.38645  -0.37966  -0.37303
 Alpha  occ. eigenvalues --   -0.36253  -0.34079  -0.32036  -0.27221  -0.26417
 Alpha virt. eigenvalues --   -0.09546  -0.06263  -0.02395  -0.01661   0.00415
 Alpha virt. eigenvalues --    0.01963   0.04168   0.04898   0.05191   0.06136
 Alpha virt. eigenvalues --    0.08393   0.08551   0.09612   0.09816   0.11772
 Alpha virt. eigenvalues --    0.12470   0.12622   0.13505   0.14133   0.14353
 Alpha virt. eigenvalues --    0.14641   0.15000   0.15484   0.16651   0.17371
 Alpha virt. eigenvalues --    0.17751   0.18701   0.21520   0.22049   0.24558
 Alpha virt. eigenvalues --    0.26488   0.28276   0.29048   0.30652   0.31651
 Alpha virt. eigenvalues --    0.32626   0.35056   0.37686   0.38646   0.41504
 Alpha virt. eigenvalues --    0.42526   0.44738   0.45625   0.46380   0.47744
 Alpha virt. eigenvalues --    0.48429   0.49851   0.51189   0.51868   0.52377
 Alpha virt. eigenvalues --    0.52794   0.53775   0.54496   0.56485   0.56850
 Alpha virt. eigenvalues --    0.56923   0.57241   0.58231   0.59891   0.60183
 Alpha virt. eigenvalues --    0.60270   0.61019   0.61503   0.62903   0.63626
 Alpha virt. eigenvalues --    0.65474   0.66985   0.68821   0.69353   0.71124
 Alpha virt. eigenvalues --    0.71903   0.73249   0.74112   0.74899   0.76095
 Alpha virt. eigenvalues --    0.77118   0.78701   0.79381   0.79770   0.81404
 Alpha virt. eigenvalues --    0.81503   0.83018   0.83413   0.83735   0.84339
 Alpha virt. eigenvalues --    0.85362   0.86738   0.87323   0.88163   0.89531
 Alpha virt. eigenvalues --    0.89968   0.90116   0.91651   0.91955   0.93330
 Alpha virt. eigenvalues --    0.93642   0.94911   0.95850   0.97011   0.97895
 Alpha virt. eigenvalues --    0.98880   0.99323   1.01282   1.02890   1.06175
 Alpha virt. eigenvalues --    1.06470   1.08287   1.09467   1.10800   1.13498
 Alpha virt. eigenvalues --    1.14118   1.15263   1.16211   1.16502   1.17314
 Alpha virt. eigenvalues --    1.18225   1.20005   1.22787   1.24695   1.26210
 Alpha virt. eigenvalues --    1.28837   1.30075   1.30798   1.34716   1.35470
 Alpha virt. eigenvalues --    1.37146   1.39104   1.41202   1.43160   1.44462
 Alpha virt. eigenvalues --    1.45650   1.46913   1.46948   1.47174   1.48873
 Alpha virt. eigenvalues --    1.49549   1.52372   1.53617   1.57951   1.62205
 Alpha virt. eigenvalues --    1.67931   1.68631   1.71649   1.72156   1.74316
 Alpha virt. eigenvalues --    1.75134   1.76253   1.76762   1.78399   1.79288
 Alpha virt. eigenvalues --    1.79743   1.81825   1.84705   1.86197   1.87373
 Alpha virt. eigenvalues --    1.88014   1.88773   1.90164   1.91268   1.93891
 Alpha virt. eigenvalues --    1.94892   1.95587   1.97886   1.97977   1.98789
 Alpha virt. eigenvalues --    2.01377   2.02659   2.03994   2.04746   2.06543
 Alpha virt. eigenvalues --    2.07433   2.11585   2.11845   2.12165   2.14681
 Alpha virt. eigenvalues --    2.15497   2.16609   2.18084   2.19004   2.19607
 Alpha virt. eigenvalues --    2.22052   2.24276   2.25300   2.25933   2.28419
 Alpha virt. eigenvalues --    2.28934   2.29851   2.30779   2.31412   2.37753
 Alpha virt. eigenvalues --    2.39615   2.45150   2.49043   2.50443   2.51948
 Alpha virt. eigenvalues --    2.52336   2.56621   2.57422   2.59034   2.63728
 Alpha virt. eigenvalues --    2.63861   2.65392   2.66741   2.72248   2.72609
 Alpha virt. eigenvalues --    2.73442   2.74739   2.77987   2.85824   2.87223
 Alpha virt. eigenvalues --    2.89577   3.00659   3.01660   3.09972   3.24851
 Alpha virt. eigenvalues --    3.40998   3.77247   3.81416   3.88267   3.91043
 Alpha virt. eigenvalues --    3.97372   4.05268   4.07337   4.07712   4.09781
 Alpha virt. eigenvalues --    4.12572   4.18996   4.22953   4.29032   4.30410
 Alpha virt. eigenvalues --    4.35775   4.37783   4.52718   4.72028
          Condensed to atoms (all electrons):
               1          2          3          4          5          6
     1  O    8.122352   0.464940  -0.051555   0.000523  -0.000018   0.000000
     2  S    0.464940  13.501171   0.173395  -0.009459  -0.001087   0.000069
     3  N   -0.051555   0.173395   7.366256   0.240527  -0.061863   0.003982
     4  C    0.000523  -0.009459   0.240527   4.376800   0.304396  -0.036163
     5  N   -0.000018  -0.001087  -0.061863   0.304396   6.677954   0.162077
     6  O    0.000000   0.000069   0.003982  -0.036163   0.162077   8.095472
     7  C   -0.000001  -0.000014   0.000610   0.010828  -0.097618   0.247440
     8  C   -0.000000  -0.000010  -0.000193   0.001030   0.004747  -0.030746
     9  C    0.000000   0.000000  -0.000000  -0.000474   0.000323  -0.008239
    10  C   -0.000000  -0.000000  -0.000000   0.000006   0.000001   0.000189
    11  C    0.000000   0.000000   0.000000   0.000000  -0.000000   0.000003
    12  C   -0.000000  -0.000000  -0.000000  -0.000011   0.000002  -0.000064
    13  C   -0.000000  -0.000002   0.000003   0.000918  -0.000134   0.003002
    14  C   -0.000036  -0.005482  -0.056383   0.475326  -0.030301  -0.076091
    15  N   -0.045954   0.100389  -0.045232   0.000673  -0.000015   0.000000
    16  C    0.000431  -0.013585   0.001376  -0.000007  -0.000000   0.000000
    17  C    0.001093  -0.009947  -0.000475   0.000363  -0.000064  -0.000000
    18  O   -0.033833   0.421115  -0.049258   0.003408   0.000137  -0.000001
    19  H    0.000174  -0.006153   0.283314  -0.009157  -0.002888  -0.000013
    20  H   -0.000000   0.000000  -0.000000   0.000027  -0.000158   0.006449
    21  H   -0.000000   0.000000   0.000000  -0.000000   0.000000  -0.000002
    22  H   -0.000000  -0.000000  -0.000000  -0.000000  -0.000000   0.000000
    23  H   -0.000000   0.000000  -0.000000   0.000000  -0.000000   0.000000
    24  H   -0.000000  -0.000001  -0.000000   0.000160  -0.000010   0.000033
    25  H    0.000004   0.000066  -0.001743  -0.027276   0.004131   0.002531
    26  H    0.006869  -0.002590   0.000021  -0.000001   0.000000  -0.000000
    27  H    0.000106   0.001789  -0.000065  -0.000001   0.000000  -0.000000
    28  H   -0.000724  -0.000908   0.000010   0.000006   0.000000  -0.000000
    29  H   -0.000008  -0.002042   0.002347   0.001891   0.000018  -0.000009
    30  H   -0.000004  -0.004179   0.000028   0.000040   0.000003  -0.000000
    31  H   -0.000038   0.001692  -0.000122   0.000001   0.000000  -0.000000
    32  H    0.000004  -0.005690   0.001943   0.000089   0.000003   0.000000
    33  H   -0.000001  -0.000037  -0.001390  -0.022594   0.306370  -0.019967
               7          8          9         10         11         12
     1  O   -0.000001  -0.000000   0.000000  -0.000000   0.000000  -0.000000
     2  S   -0.000014  -0.000010   0.000000  -0.000000   0.000000  -0.000000
     3  N    0.000610  -0.000193  -0.000000  -0.000000   0.000000  -0.000000
     4  C    0.010828   0.001030  -0.000474   0.000006   0.000000  -0.000011
     5  N   -0.097618   0.004747   0.000323   0.000001  -0.000000   0.000002
     6  O    0.247440  -0.030746  -0.008239   0.000189   0.000003  -0.000064
     7  C    4.702759   0.365955  -0.037542   0.004800   0.000878   0.006462
     8  C    0.365955   4.768828   0.471732  -0.009893  -0.032926  -0.012163
     9  C   -0.037542   0.471732   5.019633   0.514096  -0.037797  -0.041077
    10  C    0.004800  -0.009893   0.514096   4.873645   0.535464  -0.025562
    11  C    0.000878  -0.032926  -0.037797   0.535464   4.859116   0.536945
    12  C    0.006462  -0.012163  -0.041077  -0.025562   0.536945   4.871998
    13  C   -0.041094   0.533048  -0.074025  -0.040146  -0.039240   0.521387
    14  C    0.456739  -0.055770   0.010597  -0.000220   0.000013   0.000249
    15  N   -0.000008  -0.000000   0.000000  -0.000000  -0.000000  -0.000000
    16  C    0.000000   0.000000   0.000000   0.000000  -0.000000   0.000000
    17  C   -0.000003   0.000001   0.000000  -0.000000   0.000000  -0.000000
    18  O    0.000387  -0.000003   0.000000   0.000000  -0.000000  -0.000000
    19  H    0.000088   0.000002  -0.000000   0.000000   0.000000  -0.000000
    20  H   -0.011382  -0.042721   0.364410  -0.036811   0.004346   0.000192
    21  H   -0.000174   0.003176  -0.036608   0.364976  -0.039324   0.004233
    22  H    0.000002   0.000444   0.004717  -0.040348   0.365314  -0.040635
    23  H   -0.000212   0.003261   0.000763   0.004207  -0.039341   0.364470
    24  H   -0.011797  -0.038217   0.004889   0.000160   0.004338  -0.037470
    25  H   -0.022217  -0.003811  -0.000042   0.000001  -0.000001   0.000069
    26  H    0.000000   0.000000  -0.000000   0.000000   0.000000   0.000000
    27  H   -0.000000  -0.000000  -0.000000   0.000000   0.000000  -0.000000
    28  H    0.000000   0.000000  -0.000000  -0.000000   0.000000   0.000000
    29  H   -0.000031   0.000001   0.000000  -0.000000   0.000000   0.000000
    30  H   -0.000002  -0.000000  -0.000000   0.000000  -0.000000  -0.000000
    31  H    0.000000  -0.000000  -0.000000   0.000000   0.000000  -0.000000
    32  H   -0.000000   0.000000  -0.000000  -0.000000  -0.000000   0.000000
    33  H    0.002638  -0.000000  -0.000000  -0.000000   0.000000  -0.000000
              13         14         15         16         17         18
     1  O   -0.000000  -0.000036  -0.045954   0.000431   0.001093  -0.033833
     2  S   -0.000002  -0.005482   0.100389  -0.013585  -0.009947   0.421115
     3  N    0.000003  -0.056383  -0.045232   0.001376  -0.000475  -0.049258
     4  C    0.000918   0.475326   0.000673  -0.000007   0.000363   0.003408
     5  N   -0.000134  -0.030301  -0.000015  -0.000000  -0.000064   0.000137
     6  O    0.003002  -0.076091   0.000000   0.000000  -0.000000  -0.000001
     7  C   -0.041094   0.456739  -0.000008   0.000000  -0.000003   0.000387
     8  C    0.533048  -0.055770  -0.000000   0.000000   0.000001  -0.000003
     9  C   -0.074025   0.010597   0.000000   0.000000   0.000000   0.000000
    10  C   -0.040146  -0.000220  -0.000000   0.000000  -0.000000   0.000000
    11  C   -0.039240   0.000013  -0.000000  -0.000000   0.000000  -0.000000
    12  C    0.521387   0.000249  -0.000000   0.000000  -0.000000  -0.000000
    13  C    4.977502  -0.017467  -0.000000   0.000000  -0.000000   0.000002
    14  C   -0.017467   5.174060   0.000026  -0.000002   0.000023  -0.001438
    15  N   -0.000000   0.000026   7.113406   0.209821   0.204450  -0.043283
    16  C    0.000000  -0.000002   0.209821   5.071808  -0.039781  -0.001278
    17  C   -0.000000   0.000023   0.204450  -0.039781   5.071557   0.003356
    18  O    0.000002  -0.001438  -0.043283  -0.001278   0.003356   8.166034
    19  H    0.000000   0.001883   0.000662  -0.000002   0.000058   0.000701
    20  H    0.004685   0.000144  -0.000000   0.000000   0.000000  -0.000000
    21  H    0.000737   0.000001  -0.000000   0.000000  -0.000000   0.000000
    22  H    0.004812  -0.000000  -0.000000   0.000000   0.000000  -0.000000
    23  H   -0.036477  -0.000000   0.000000   0.000000   0.000000   0.000000
    24  H    0.359197   0.005797  -0.000000   0.000000  -0.000000  -0.000012
    25  H    0.001217   0.359940   0.000059   0.000000  -0.000049   0.007403
    26  H   -0.000000   0.000000  -0.026922   0.376039   0.003369  -0.000071
    27  H    0.000000   0.000000  -0.026168   0.376855  -0.002209  -0.000067
    28  H   -0.000000  -0.000000  -0.032581   0.378741  -0.001825   0.002462
    29  H   -0.000000   0.000337  -0.027258   0.003389   0.376235  -0.001062
    30  H    0.000000   0.000043  -0.031755  -0.002128   0.379911   0.005083
    31  H   -0.000000   0.000012  -0.024866  -0.002742   0.374215   0.000124
    32  H    0.000000  -0.000006   0.278086  -0.018524  -0.019190   0.000671
    33  H    0.000001   0.003836   0.000000   0.000000  -0.000001   0.000002
              19         20         21         22         23         24
     1  O    0.000174  -0.000000  -0.000000  -0.000000  -0.000000  -0.000000
     2  S   -0.006153   0.000000   0.000000  -0.000000   0.000000  -0.000001
     3  N    0.283314  -0.000000   0.000000  -0.000000  -0.000000  -0.000000
     4  C   -0.009157   0.000027  -0.000000  -0.000000   0.000000   0.000160
     5  N   -0.002888  -0.000158   0.000000  -0.000000  -0.000000  -0.000010
     6  O   -0.000013   0.006449  -0.000002   0.000000   0.000000   0.000033
     7  C    0.000088  -0.011382  -0.000174   0.000002  -0.000212  -0.011797
     8  C    0.000002  -0.042721   0.003176   0.000444   0.003261  -0.038217
     9  C   -0.000000   0.364410  -0.036608   0.004717   0.000763   0.004889
    10  C    0.000000  -0.036811   0.364976  -0.040348   0.004207   0.000160
    11  C    0.000000   0.004346  -0.039324   0.365314  -0.039341   0.004338
    12  C   -0.000000   0.000192   0.004233  -0.040635   0.364470  -0.037470
    13  C    0.000000   0.004685   0.000737   0.004812  -0.036477   0.359197
    14  C    0.001883   0.000144   0.000001  -0.000000  -0.000000   0.005797
    15  N    0.000662  -0.000000  -0.000000  -0.000000   0.000000  -0.000000
    16  C   -0.000002   0.000000   0.000000   0.000000   0.000000   0.000000
    17  C    0.000058   0.000000  -0.000000   0.000000   0.000000  -0.000000
    18  O    0.000701  -0.000000   0.000000  -0.000000   0.000000  -0.000012
    19  H    0.240427  -0.000000  -0.000000  -0.000000   0.000000  -0.000000
    20  H   -0.000000   0.534974  -0.004723  -0.000144   0.000014  -0.000122
    21  H   -0.000000  -0.004723   0.541908  -0.004937  -0.000150   0.000014
    22  H   -0.000000  -0.000144  -0.004937   0.544474  -0.004950  -0.000146
    23  H    0.000000   0.000014  -0.000150  -0.004950   0.541841  -0.004675
    24  H   -0.000000  -0.000122   0.000014  -0.000146  -0.004675   0.535645
    25  H   -0.000037  -0.000006   0.000000  -0.000000  -0.000002   0.001736
    26  H    0.000002   0.000000   0.000000   0.000000   0.000000   0.000000
    27  H    0.000000  -0.000000  -0.000000  -0.000000   0.000000  -0.000000
    28  H   -0.000000   0.000000   0.000000   0.000000   0.000000   0.000000
    29  H    0.000014  -0.000000  -0.000000   0.000000   0.000000  -0.000000
    30  H   -0.000003  -0.000000   0.000000  -0.000000   0.000000  -0.000000
    31  H   -0.000001  -0.000000  -0.000000  -0.000000   0.000000  -0.000000
    32  H    0.000084   0.000000  -0.000000   0.000000  -0.000000   0.000000
    33  H    0.001445   0.000005   0.000000  -0.000000   0.000000   0.000000
              25         26         27         28         29         30
     1  O    0.000004   0.006869   0.000106  -0.000724  -0.000008  -0.000004
     2  S    0.000066  -0.002590   0.001789  -0.000908  -0.002042  -0.004179
     3  N   -0.001743   0.000021  -0.000065   0.000010   0.002347   0.000028
     4  C   -0.027276  -0.000001  -0.000001   0.000006   0.001891   0.000040
     5  N    0.004131   0.000000   0.000000   0.000000   0.000018   0.000003
     6  O    0.002531  -0.000000  -0.000000  -0.000000  -0.000009  -0.000000
     7  C   -0.022217   0.000000  -0.000000   0.000000  -0.000031  -0.000002
     8  C   -0.003811   0.000000  -0.000000   0.000000   0.000001  -0.000000
     9  C   -0.000042  -0.000000  -0.000000  -0.000000   0.000000  -0.000000
    10  C    0.000001   0.000000   0.000000  -0.000000  -0.000000   0.000000
    11  C   -0.000001   0.000000   0.000000   0.000000   0.000000  -0.000000
    12  C    0.000069   0.000000  -0.000000   0.000000   0.000000  -0.000000
    13  C    0.001217  -0.000000   0.000000  -0.000000  -0.000000   0.000000
    14  C    0.359940   0.000000   0.000000  -0.000000   0.000337   0.000043
    15  N    0.000059  -0.026922  -0.026168  -0.032581  -0.027258  -0.031755
    16  C    0.000000   0.376039   0.376855   0.378741   0.003389  -0.002128
    17  C   -0.000049   0.003369  -0.002209  -0.001825   0.376235   0.379911
    18  O    0.007403  -0.000071  -0.000067   0.002462  -0.001062   0.005083
    19  H   -0.000037   0.000002   0.000000  -0.000000   0.000014  -0.000003
    20  H   -0.000006   0.000000  -0.000000   0.000000  -0.000000  -0.000000
    21  H    0.000000   0.000000  -0.000000   0.000000  -0.000000   0.000000
    22  H   -0.000000   0.000000  -0.000000   0.000000   0.000000  -0.000000
    23  H   -0.000002   0.000000   0.000000   0.000000   0.000000   0.000000
    24  H    0.001736   0.000000  -0.000000   0.000000  -0.000000  -0.000000
    25  H    0.431292  -0.000000   0.000000  -0.000000   0.000022   0.000027
    26  H   -0.000000   0.446508  -0.019094  -0.021611  -0.000149  -0.000022
    27  H    0.000000  -0.019094   0.450348  -0.022376   0.000015  -0.000492
    28  H   -0.000000  -0.021611  -0.022376   0.455845  -0.000005   0.003606
    29  H    0.000022  -0.000149   0.000015  -0.000005   0.458027  -0.022082
    30  H    0.000027  -0.000022  -0.000492   0.003606  -0.022082   0.450478
    31  H    0.000001   0.000001   0.003139  -0.000500  -0.020638  -0.020504
    32  H   -0.000001  -0.001801  -0.003321   0.002874  -0.001943   0.002776
    33  H   -0.000052   0.000000  -0.000000  -0.000000   0.000003  -0.000000
              31         32         33
     1  O   -0.000038   0.000004  -0.000001
     2  S    0.001692  -0.005690  -0.000037
     3  N   -0.000122   0.001943  -0.001390
     4  C    0.000001   0.000089  -0.022594
     5  N    0.000000   0.000003   0.306370
     6  O   -0.000000   0.000000  -0.019967
     7  C    0.000000  -0.000000   0.002638
     8  C   -0.000000   0.000000  -0.000000
     9  C   -0.000000  -0.000000  -0.000000
    10  C    0.000000  -0.000000  -0.000000
    11  C    0.000000  -0.000000   0.000000
    12  C   -0.000000   0.000000  -0.000000
    13  C   -0.000000   0.000000   0.000001
    14  C    0.000012  -0.000006   0.003836
    15  N   -0.024866   0.278086   0.000000
    16  C   -0.002742  -0.018524   0.000000
    17  C    0.374215  -0.019190  -0.000001
    18  O    0.000124   0.000671   0.000002
    19  H   -0.000001   0.000084   0.001445
    20  H   -0.000000   0.000000   0.000005
    21  H   -0.000000  -0.000000   0.000000
    22  H   -0.000000   0.000000  -0.000000
    23  H    0.000000  -0.000000   0.000000
    24  H   -0.000000   0.000000   0.000000
    25  H    0.000001  -0.000001  -0.000052
    26  H    0.000001  -0.001801   0.000000
    27  H    0.003139  -0.003321  -0.000000
    28  H   -0.000500   0.002874  -0.000000
    29  H   -0.020638  -0.001943   0.000003
    30  H   -0.020504   0.002776  -0.000000
    31  H    0.450792  -0.002337   0.000000
    32  H   -0.002337   0.254673  -0.000000
    33  H    0.000000  -0.000000   0.243687
 Mulliken charges:
               1
     1  O   -0.464323
     2  S    1.396562
     3  N   -0.805532
     4  C    0.688129
     5  N   -0.266006
     6  O   -0.349950
     7  C    0.422508
     8  C    0.074229
     9  C   -0.155357
    10  C   -0.144564
    11  C   -0.117789
    12  C   -0.149025
    13  C   -0.157926
    14  C   -0.245832
    15  N   -0.603531
    16  C   -0.340411
    17  C   -0.341087
    18  O   -0.480580
    19  H    0.489401
    20  H    0.180819
    21  H    0.170873
    22  H    0.171398
    23  H    0.171251
    24  H    0.180481
    25  H    0.246735
    26  H    0.239453
    27  H    0.241542
    28  H    0.236987
    29  H    0.232931
    30  H    0.239177
    31  H    0.241771
    32  H    0.511611
    33  H    0.486056
 Sum of Mulliken charges =   2.00000
 Mulliken charges with hydrogens summed into heavy atoms:
               1
     1  O   -0.464323
     2  S    1.396562
     3  N   -0.316131
     4  C    0.688129
     5  N    0.220049
     6  O   -0.349950
     7  C    0.422508
     8  C    0.074229
     9  C    0.025462
    10  C    0.026309
    11  C    0.053609
    12  C    0.022226
    13  C    0.022554
    14  C    0.000903
    15  N   -0.091919
    16  C    0.377571
    17  C    0.372792
    18  O   -0.480580
 Electronic spatial extent (au):  <R**2>=           6880.8025
 Charge=              2.0000 electrons
 Dipole moment (field-independent basis, Debye):
    X=            -12.9893    Y=              9.2752    Z=              5.3479  Tot=             16.8331
 Quadrupole moment (field-independent basis, Debye-Ang):
   XX=             -5.6971   YY=            -73.0293   ZZ=            -98.6041
   XY=            -13.7561   XZ=            -24.0646   YZ=             -4.4885
 Traceless Quadrupole moment (field-independent basis, Debye-Ang):
   XX=             53.4131   YY=            -13.9191   ZZ=            -39.4940
   XY=            -13.7561   XZ=            -24.0646   YZ=             -4.4885
 Octapole moment (field-independent basis, Debye-Ang**2):
  XXX=           -157.3734  YYY=             58.9336  ZZZ=             27.0740  XYY=            -17.7401
  XXY=             -2.7274  XXZ=            128.7664  XZZ=            -62.6328  YZZ=              1.4400
  YYZ=            -10.8417  XYZ=             14.4557
 Hexadecapole moment (field-independent basis, Debye-Ang**3):
 XXXX=          -4972.4661 YYYY=           -585.4279 ZZZZ=           -516.9762 XXXY=            -78.6773
 XXXZ=           -337.1399 YYYX=            -59.0975 YYYZ=             -1.1985 ZZZX=            -90.1393
 ZZZY=             32.4037 XXYY=          -1162.8786 XXZZ=          -1265.7036 YYZZ=           -229.2915
 XXYZ=             13.7840 YYXZ=              4.2380 ZZXY=             15.4302
 N-N= 1.485055272085D+03 E-N=-5.775535149615D+03  KE= 1.206351925855D+03
 No NMR shielding tensors so no spin-rotation constants.
 Leave Link  601 at Thu Sep 24 06:50:51 2020, MaxMem=  2147483648 cpu:               0.4 elap:               0.1
 (Enter /prod/apps/gaussian/g16b1/l701.exe)
 ... and contract with generalized density number  0.
 Compute integral first derivatives.
 D1PCM: PCM CHGder 1st derivatives, ID1Alg=3 FixD1E=F DoIter=F DoCFld=F I1PDM=0.
 GePol: Maximum number of non-zero 1st derivatives   =     173
 Leave Link  701 at Thu Sep 24 06:50:54 2020, MaxMem=  2147483648 cpu:               9.0 elap:               2.3
 (Enter /prod/apps/gaussian/g16b1/l702.exe)
 L702 exits ... SP integral derivatives will be done elsewhere.
 Leave Link  702 at Thu Sep 24 06:50:54 2020, MaxMem=  2147483648 cpu:               0.1 elap:               0.0
 (Enter /prod/apps/gaussian/g16b1/l703.exe)
 Integral derivatives from FoFJK, PRISM(SPDF).
 Compute integral first derivatives, UseDBF=F ICtDFT=           0.
 Calling FoFJK, ICntrl=      2127 FMM=F ISym2X=0 I1Cent= 0 IOpClX= 0 NMat=1 NMatS=1 NMatT=0.
 FoFJK:  IHMeth= 1 ICntrl=    2127 DoSepK=F KAlg= 0 I1Cent=           0 FoldK=F
 IRaf=         0 NMat=       1 IRICut=       1 DoRegI=T DoRafI=F ISym2E= 0 IDoP0=0 IntGTp=1.
 FoFCou: FMM=F IPFlag=           0 FMFlag=      100000 FMFlg1=         800
         NFxFlg=           0 DoJE=F BraDBF=F KetDBF=F FulRan=T
         wScrn=  0.000000 ICntrl=      2127 IOpCl=  0 I1Cent=           0 NGrid=           0
         NMat0=    1 NMatS0=      1 NMatT0=    0 NMatD0=    1 NMtDS0=    0 NMtDT0=    0
 Symmetry not used in FoFCou.
 Leave Link  703 at Thu Sep 24 06:51:08 2020, MaxMem=  2147483648 cpu:              59.1 elap:              14.8
 (Enter /prod/apps/gaussian/g16b1/l716.exe)
 Dipole        =-5.11039579D+00 3.64915225D+00 2.10400897D+00
 -------------------------------------------------------------------
 Center     Atomic                   Forces (Hartrees/Bohr)
 Number     Number              X              Y              Z
 -------------------------------------------------------------------
      1        8           0.000923320   -0.000329078    0.001649049
      2       16          -0.000527593   -0.001078524    0.000432620
      3        7          -0.000565149    0.001324623   -0.000252137
      4        6          -0.000101866    0.000021779   -0.000023757
      5        7           0.000065965    0.000239126   -0.000124712
      6        8           0.000442546   -0.000712420    0.000188998
      7        6          -0.000271955    0.000144830   -0.000264170
      8        6           0.000239841   -0.000131216    0.000191109
      9        6          -0.000899748    0.000430367   -0.000173910
     10        6           0.000873010    0.000063127    0.000302691
     11        6          -0.000086537   -0.000233141   -0.000125782
     12        6           0.000319602   -0.000088775    0.000115740
     13        6          -0.000111687    0.000524082    0.000014537
     14        6           0.000376458   -0.001182678    0.000132297
     15        7           0.000239857    0.000538270    0.000441563
     16        6           0.000249983    0.000496270    0.000837495
     17        6          -0.000226625    0.000269062   -0.000861112
     18        8           0.000137204    0.001629825    0.000200290
     19        1           0.000678884   -0.001364156    0.000258949
     20        1          -0.000317228   -0.001281913   -0.000353717
[...]
          Condensed to atoms (all electrons):
               1          2          3          4          5          6
     1  O    8.878859   0.029707  -0.018954  -0.019437  -0.002330   0.001755
     2  S    0.029707  13.837149   0.026599  -0.144775  -0.022443  -0.001324
     3  N   -0.018954   0.026599   8.779598  -1.572708   0.028741  -0.074591
     4  C   -0.019437  -0.144775  -1.572708  16.696990  -1.738677   0.953045
     5  N   -0.002330  -0.022443   0.028741  -1.738677   7.840462  -0.689916
     6  O    0.001755  -0.001324  -0.074591   0.953045  -0.689916  10.323590
     7  C    0.013292  -0.168245   0.137656  -1.981655   0.298752  -1.356459
     8  C   -0.001023   0.015621  -0.098841   0.592170  -0.187914   0.830850
     9  C    0.000456  -0.015615   0.034207  -0.111219  -0.077807  -0.325439
    10  C    0.000014   0.001136  -0.006793   0.316833  -0.095477   0.011632
    11  C    0.000008  -0.002024   0.003879  -0.067883   0.017577  -0.058626
    12  C   -0.000101   0.000049  -0.005987  -0.126523   0.018808   0.021052
    13  C    0.000273  -0.037507   0.028430  -0.380570   0.239916  -0.293339
    14  C    0.024778  -0.090207   0.538953  -7.259260   1.008777  -0.003756
    15  N   -0.014415  -0.608030  -0.054362  -0.078078   0.006768   0.010210
    16  C    0.005494   0.096303  -0.031270   0.017568  -0.001879   0.000543
    17  C    0.002907   0.085370   0.048649  -0.017999   0.006970   0.003779
    18  O    0.039178  -0.127780  -0.061784   0.239693   0.019093  -0.004145
    19  H    0.006233  -0.047139   0.274589  -0.071626  -0.031526   0.002568
    20  H    0.000040  -0.001908   0.003068   0.011063  -0.043637  -0.138112
    21  H   -0.000000   0.000030  -0.000301   0.003649  -0.002897   0.006382
    22  H    0.000001  -0.000076   0.000072  -0.001255   0.000453  -0.000572
    23  H   -0.000012   0.000541  -0.000155  -0.000011   0.000112   0.001345
    24  H    0.000633  -0.015252  -0.009320   0.137961  -0.016432   0.009301
    25  H   -0.004001   0.047019  -0.069889   0.548537  -0.143682   0.048393
    26  H   -0.030355   0.027345   0.021005   0.004003   0.000269   0.000082
    27  H   -0.005575   0.085339  -0.024017  -0.002087  -0.000694   0.000021
    28  H    0.019669  -0.074302   0.025515  -0.000395  -0.000335  -0.000118
    29  H    0.000780  -0.029256   0.032984   0.049277   0.003601  -0.009934
    30  H   -0.002763   0.051001  -0.028342  -0.003540   0.002594   0.000973
    31  H    0.000333   0.020602   0.008739   0.029324  -0.004838   0.000542
    32  H    0.022695   0.023162  -0.057569   0.014933   0.003262   0.001500
    33  H   -0.000218   0.004575   0.004031  -0.016208   0.619247  -0.245938
               7          8          9         10         11         12
     1  O    0.013292  -0.001023   0.000456   0.000014   0.000008  -0.000101
     2  S   -0.168245   0.015621  -0.015615   0.001136  -0.002024   0.000049
     3  N    0.137656  -0.098841   0.034207  -0.006793   0.003879  -0.005987
     4  C   -1.981655   0.592170  -0.111219   0.316833  -0.067883  -0.126523
     5  N    0.298752  -0.187914  -0.077807  -0.095477   0.017577   0.018808
     6  O   -1.356459   0.830850  -0.325439   0.011632  -0.058626   0.021052
     7  C   23.809589  -6.305416   0.257478  -0.666410   0.785171  -0.607435
     8  C   -6.305416  22.099223  -6.336463   1.554975  -4.166783   1.544458
     9  C    0.257478  -6.336463  19.414657  -4.090200   2.729304  -2.767950
    10  C   -0.666410   1.554975  -4.090200  11.437687  -2.808384   3.148353
    11  C    0.785171  -4.166783   2.729304  -2.808384   9.229778  -2.838526
    12  C   -0.607435   1.544458  -2.767950   3.148353  -2.838526  13.306074
    13  C    0.165474  -8.086317  -0.041568  -2.940065   3.424550  -5.813596
    14  C   -8.760977   1.809570  -2.704572  -0.033922  -0.559390   0.592684
    15  N    0.036583   0.002666   0.002864   0.000003   0.000094  -0.000529
    16  C   -0.015253   0.000209  -0.000775   0.000035  -0.000051   0.000225
    17  C   -0.052244   0.000547  -0.002962   0.001252  -0.000923   0.001250
    18  O   -0.089120  -0.000716  -0.008782  -0.000740  -0.000035   0.004314
    19  H   -0.070975   0.006346  -0.004680   0.000634  -0.000419   0.000281
    20  H    0.295350   0.279161  -0.782093   0.343980  -0.092467   0.066313
    21  H   -0.016808  -0.113676   0.639384  -0.684458   0.264572  -0.213017
    22  H   -0.024188   0.079476  -0.103356   0.371024  -0.496920   0.252387
    23  H   -0.036798  -0.148983   0.106263  -0.257460   0.270064  -0.910410
    24  H   -0.093071   0.851065  -0.107250   0.113650  -0.127361   0.142126
    25  H    0.561248   0.092391   0.003764   0.013023  -0.039173   0.036942
    26  H    0.000734  -0.000397  -0.000018   0.000004  -0.000008  -0.000011
    27  H   -0.002924   0.000320  -0.000135   0.000005  -0.000005   0.000038
    28  H    0.004366  -0.000381   0.000242  -0.000003   0.000018  -0.000164
    29  H    0.041557  -0.005162  -0.001095  -0.000155  -0.000050  -0.001049
    30  H    0.007409  -0.001033   0.001212   0.000020   0.000229  -0.000418
    31  H   -0.008009   0.000113  -0.000246   0.000228  -0.000162   0.000167
    32  H   -0.002714   0.000453   0.000382  -0.000032   0.000069  -0.000074
    33  H    0.032545  -0.003121  -0.011201  -0.001284  -0.000273  -0.000382
              13         14         15         16         17         18
     1  O    0.000273   0.024778  -0.014415   0.005494   0.002907   0.039178
     2  S   -0.037507  -0.090207  -0.608030   0.096303   0.085370  -0.127780
     3  N    0.028430   0.538953  -0.054362  -0.031270   0.048649  -0.061784
     4  C   -0.380570  -7.259260  -0.078078   0.017568  -0.017999   0.239693
     5  N    0.239916   1.008777   0.006768  -0.001879   0.006970   0.019093
     6  O   -0.293339  -0.003756   0.010210   0.000543   0.003779  -0.004145
     7  C    0.165474  -8.760977   0.036583  -0.015253  -0.052244  -0.089120
     8  C   -8.086317   1.809570   0.002666   0.000209   0.000547  -0.000716
     9  C   -0.041568  -2.704572   0.002864  -0.000775  -0.002962  -0.008782
    10  C   -2.940065  -0.033922   0.000003   0.000035   0.001252  -0.000740
    11  C    3.424550  -0.559390   0.000094  -0.000051  -0.000923  -0.000035
    12  C   -5.813596   0.592684  -0.000529   0.000225   0.001250   0.004314
    13  C   21.978719  -2.392698   0.004555  -0.000628  -0.008100  -0.002349
    14  C   -2.392698  23.263264   0.042438  -0.015426   0.043143   0.005748
    15  N    0.004555   0.042438   8.841343  -0.027133  -0.034268   0.082475
    16  C   -0.000628  -0.015426  -0.027133   4.129020  -0.034530  -0.038883
    17  C   -0.008100   0.043143  -0.034268  -0.034530   4.073986   0.014915
    18  O   -0.002349   0.005748   0.082475  -0.038883   0.014915   8.981806
    19  H   -0.002165   0.034352  -0.042828   0.008330  -0.004097  -0.000893
    20  H   -0.105943  -0.083067   0.000156  -0.000135  -0.000136  -0.000381
    21  H    0.076138   0.007882   0.000006   0.000004   0.000039  -0.000009
    22  H   -0.085460   0.006754   0.000009  -0.000004  -0.000030  -0.000027
    23  H    0.910144   0.053869  -0.000093   0.000025   0.000165   0.000220
    24  H   -1.132963   0.024527   0.004586  -0.000724  -0.003751  -0.007544
    25  H   -0.074710  -1.541670  -0.032514   0.001934   0.019812  -0.029398
    26  H   -0.000164  -0.006344  -0.062488   0.406089  -0.016335   0.003149
    27  H    0.000002  -0.002849  -0.201258   0.417804   0.032571  -0.013560
    28  H   -0.000221  -0.000684  -0.001558   0.276882   0.014302   0.028699
    29  H   -0.000161  -0.044937  -0.098251  -0.031894   0.277917   0.047537
    30  H    0.003473   0.005054  -0.173722   0.036911   0.310021  -0.038215
    31  H   -0.001411  -0.021444  -0.119352   0.025286   0.400533  -0.000313
    32  H    0.000912  -0.010163   0.323941  -0.027060   0.008575  -0.006647
    33  H    0.004731  -0.155243   0.000827  -0.000021  -0.000638   0.000201
              19         20         21         22         23         24
     1  O    0.006233   0.000040  -0.000000   0.000001  -0.000012   0.000633
     2  S   -0.047139  -0.001908   0.000030  -0.000076   0.000541  -0.015252
     3  N    0.274589   0.003068  -0.000301   0.000072  -0.000155  -0.009320
     4  C   -0.071626   0.011063   0.003649  -0.001255  -0.000011   0.137961
     5  N   -0.031526  -0.043637  -0.002897   0.000453   0.000112  -0.016432
     6  O    0.002568  -0.138112   0.006382  -0.000572   0.001345   0.009301
     7  C   -0.070975   0.295350  -0.016808  -0.024188  -0.036798  -0.093071
     8  C    0.006346   0.279161  -0.113676   0.079476  -0.148983   0.851065
     9  C   -0.004680  -0.782093   0.639384  -0.103356   0.106263  -0.107250
    10  C    0.000634   0.343980  -0.684458   0.371024  -0.257460   0.113650
    11  C   -0.000419  -0.092467   0.264572  -0.496920   0.270064  -0.127361
    12  C    0.000281   0.066313  -0.213017   0.252387  -0.910410   0.142126
    13  C   -0.002165  -0.105943   0.076138  -0.085460   0.910144  -1.132963
    14  C    0.034352  -0.083067   0.007882   0.006754   0.053869   0.024527
    15  N   -0.042828   0.000156   0.000006   0.000009  -0.000093   0.004586
    16  C    0.008330  -0.000135   0.000004  -0.000004   0.000025  -0.000724
    17  C   -0.004097  -0.000136   0.000039  -0.000030   0.000165  -0.003751
    18  O   -0.000893  -0.000381  -0.000009  -0.000027   0.000220  -0.007544
    19  H    1.013788  -0.000873   0.000023  -0.000018   0.000047   0.000302
    20  H   -0.000873   2.020696  -0.086359  -0.014853   0.007119  -0.014709
    21  H    0.000023  -0.086359   1.601522  -0.060041  -0.019333   0.008910
    22  H   -0.000018  -0.014853  -0.060041   1.544228  -0.053548  -0.019013
    23  H    0.000047   0.007119  -0.019333  -0.053548   1.604809  -0.069817
    24  H    0.000302  -0.014709   0.008910  -0.019013  -0.069817   1.988592
    25  H   -0.003033  -0.005168   0.001266   0.000464  -0.003618  -0.095253
    26  H   -0.000660  -0.000008  -0.000000  -0.000000   0.000003  -0.000146
    27  H    0.001585  -0.000021   0.000001  -0.000000   0.000003  -0.000114
    28  H   -0.001433   0.000014  -0.000001   0.000001  -0.000011   0.000299
    29  H    0.004407  -0.000363   0.000004  -0.000011  -0.000076   0.002694
    30  H    0.004128   0.000133  -0.000003   0.000014  -0.000056   0.000651
    31  H   -0.000139  -0.000054   0.000007  -0.000006   0.000037  -0.001039
    32  H    0.019824   0.000078  -0.000003   0.000004  -0.000012   0.000103
    33  H   -0.020269  -0.001610   0.000076   0.000019  -0.000069   0.000713
              25         26         27         28         29         30
     1  O   -0.004001  -0.030355  -0.005575   0.019669   0.000780  -0.002763
     2  S    0.047019   0.027345   0.085339  -0.074302  -0.029256   0.051001
     3  N   -0.069889   0.021005  -0.024017   0.025515   0.032984  -0.028342
     4  C    0.548537   0.004003  -0.002087  -0.000395   0.049277  -0.003540
     5  N   -0.143682   0.000269  -0.000694  -0.000335   0.003601   0.002594
     6  O    0.048393   0.000082   0.000021  -0.000118  -0.009934   0.000973
     7  C    0.561248   0.000734  -0.002924   0.004366   0.041557   0.007409
     8  C    0.092391  -0.000397   0.000320  -0.000381  -0.005162  -0.001033
     9  C    0.003764  -0.000018  -0.000135   0.000242  -0.001095   0.001212
    10  C    0.013023   0.000004   0.000005  -0.000003  -0.000155   0.000020
    11  C   -0.039173  -0.000008  -0.000005   0.000018  -0.000050   0.000229
    12  C    0.036942  -0.000011   0.000038  -0.000164  -0.001049  -0.000418
    13  C   -0.074710  -0.000164   0.000002  -0.000221  -0.000161   0.003473
    14  C   -1.541670  -0.006344  -0.002849  -0.000684  -0.044937   0.005054
    15  N   -0.032514  -0.062488  -0.201258  -0.001558  -0.098251  -0.173722
    16  C    0.001934   0.406089   0.417804   0.276882  -0.031894   0.036911
    17  C    0.019812  -0.016335   0.032571   0.014302   0.277917   0.310021
    18  O   -0.029398   0.003149  -0.013560   0.028699   0.047537  -0.038215
    19  H   -0.003033  -0.000660   0.001585  -0.001433   0.004407   0.004128
    20  H   -0.005168  -0.000008  -0.000021   0.000014  -0.000363   0.000133
    21  H    0.001266  -0.000000   0.000001  -0.000001   0.000004  -0.000003
    22  H    0.000464  -0.000000  -0.000000   0.000001  -0.000011   0.000014
    23  H   -0.003618   0.000003   0.000003  -0.000011  -0.000076  -0.000056
    24  H   -0.095253  -0.000146  -0.000114   0.000299   0.002694   0.000651
    25  H    2.298536   0.000344   0.002868  -0.002977  -0.013228  -0.003065
    26  H    0.000344   1.124485  -0.243066  -0.167445  -0.005373   0.001486
    27  H    0.002868  -0.243066   1.226341  -0.190047   0.001956   0.008022
    28  H   -0.002977  -0.167445  -0.190047   1.110602   0.010995  -0.016237
    29  H   -0.013228  -0.005373   0.001956   0.010995   1.506126  -0.230304
    30  H   -0.003065   0.001486   0.008022  -0.016237  -0.230304   1.249011
    31  H    0.008336   0.012057   0.001735  -0.007287  -0.303062  -0.188925
    32  H   -0.000326  -0.007944  -0.006961   0.006346  -0.029174   0.031820
    33  H    0.004475  -0.000021   0.000048   0.000010   0.000764   0.000118
              31         32         33
     1  O    0.000333   0.022695  -0.000218
     2  S    0.020602   0.023162   0.004575
     3  N    0.008739  -0.057569   0.004031
     4  C    0.029324   0.014933  -0.016208
     5  N   -0.004838   0.003262   0.619247
     6  O    0.000542   0.001500  -0.245938
     7  C   -0.008009  -0.002714   0.032545
     8  C    0.000113   0.000453  -0.003121
     9  C   -0.000246   0.000382  -0.011201
    10  C    0.000228  -0.000032  -0.001284
    11  C   -0.000162   0.000069  -0.000273
    12  C    0.000167  -0.000074  -0.000382
    13  C   -0.001411   0.000912   0.004731
    14  C   -0.021444  -0.010163  -0.155243
    15  N   -0.119352   0.323941   0.000827
    16  C    0.025286  -0.027060  -0.000021
    17  C    0.400533   0.008575  -0.000638
    18  O   -0.000313  -0.006647   0.000201
    19  H   -0.000139   0.019824  -0.020269
    20  H   -0.000054   0.000078  -0.001610
    21  H    0.000007  -0.000003   0.000076
    22  H   -0.000006   0.000004   0.000019
    23  H    0.000037  -0.000012  -0.000069
    24  H   -0.001039   0.000103   0.000713
    25  H    0.008336  -0.000326   0.004475
    26  H    0.012057  -0.007944  -0.000021
    27  H    0.001735  -0.006961   0.000048
    28  H   -0.007287   0.006346   0.000010
    29  H   -0.303062  -0.029174   0.000764
    30  H   -0.188925   0.031820   0.000118
    31  H    1.273292  -0.027026  -0.000375
    32  H   -0.027026   0.521442   0.000359
    33  H   -0.000375   0.000359   0.748522
 Mulliken charges:
               1
     1  O   -0.947921
     2  S    3.034335
     3  N   -0.881833
     4  C   -0.021142
     5  N   -0.054916
     6  O   -1.025294
     7  C   -0.188501
     8  C    1.696612
     9  C    0.303214
    10  C    0.270894
    11  C    0.534148
    12  C    0.150651
    13  C    0.562619
    14  C    2.224817
    15  N   -0.810644
    16  C    0.803004
    17  C    0.829307
    18  O   -1.035705
    19  H   -0.074662
    20  H   -0.655274
    21  H   -0.412990
    22  H   -0.395529
    23  H   -0.454302
    24  H   -0.572357
    25  H   -0.627646
    26  H   -0.060271
    27  H   -0.085343
    28  H   -0.034360
    29  H   -0.177065
    30  H   -0.027659
    31  H   -0.097642
    32  H    0.195845
    33  H    0.035609
 Sum of Mulliken charges =   2.00000
 Mulliken charges with hydrogens summed into heavy atoms:
               1
     1  O   -0.947921
     2  S    3.034335
     3  N   -0.956495
     4  C   -0.021142
     5  N   -0.019307
     6  O   -1.025294
     7  C   -0.188501
     8  C    1.696612
     9  C   -0.352059
    10  C   -0.142096
    11  C    0.138619
    12  C   -0.303651
    13  C   -0.009738
    14  C    1.597171
    15  N   -0.614799
    16  C    0.623029
    17  C    0.526941
    18  O   -1.035705
 Electronic spatial extent (au):  <R**2>=           6825.3540
 Charge=              2.0000 electrons
 Dipole moment (field-independent basis, Debye):
    X=             -8.5636    Y=              3.3636    Z=              6.2749  Tot=             11.1366
 Quadrupole moment (field-independent basis, Debye-Ang):
   XX=             22.3917   YY=            -76.1350   ZZ=           -101.5674
   XY=             -4.2452   XZ=            -22.8825   YZ=              0.4636
 Traceless Quadrupole moment (field-independent basis, Debye-Ang):
   XX=             74.1619   YY=            -24.3648   ZZ=            -49.7972
   XY=             -4.2452   XZ=            -22.8825   YZ=              0.4636
 Octapole moment (field-independent basis, Debye-Ang**2):
  XXX=            -42.1699  YYY=             52.0242  ZZZ=             26.0051  XYY=            -19.1774
  XXY=            -77.5004  XXZ=            117.4492  XZZ=            -61.9011  YZZ=             -4.0140
  YYZ=              5.1899  XYZ=             29.7789
 Hexadecapole moment (field-independent basis, Debye-Ang**3):
 XXXX=          -3857.3016 YYYY=           -653.4186 ZZZZ=           -492.6942 XXXY=            -14.6035
 XXXZ=           -294.8369 YYYX=            -46.3183 YYYZ=             26.7275 ZZZX=            -89.2606
 ZZZY=            -16.1557 XXYY=          -1100.0177 XXZZ=          -1266.6181 YYZZ=           -232.0916
 XXYZ=             27.0032 YYXZ=            -34.8461 ZZXY=             45.3748
 N-N= 1.488073935831D+03 E-N=-5.782276203524D+03  KE= 1.208707876359D+03
 Leave Link  601 at Thu Sep 24 08:40:13 2020, MaxMem=   262144000 cpu:               0.5 elap:               0.2
 (Enter /prod/apps/gaussian/g16b1/l9999.exe)
 1\1\GINC-PIRINEUS12\SP\RMP2-FC\Aug-CC-pVDZ\C11H15N3O3S1(2+)\UBAFAR01\2
 4-Sep-2020\0\\#p mp2/aug-cc-pVDZ scf=(MaxCycle=2000,NoVarAcc,NoIncFock
 ) maxdisk=120GB geom=allcheck\\SM43_m3.b.7.pdb.xyz\\2,1\O,0,-3.9150387
 267,0.000686972,-1.5718265993\S,0,-2.842129056,-0.2191481366,-0.630600
 6888\N,0,-1.803883862,1.072627687,-0.7157792646\C,0,-0.447816962,1.045
 9730935,-0.4745296391\N,0,0.2185986323,2.1871604394,-0.32946065\O,0,1.
 54932159,1.9385692784,-0.1730185977\C,0,1.6932821923,0.588753482,-0.18
 18076324\C,0,3.0350319705,0.0669039368,-0.023123485\C,0,4.1141314741,0
 .9279339678,0.2426458717\C,0,5.3947244226,0.4040904218,0.380385375\C,0
 ,5.6080006792,-0.97121562,0.2538530898\C,0,4.536460531,-1.8290285944,-
 0.0096712888\C,0,3.2517872164,-1.3162428637,-0.1474839893\C,0,0.467864
 6938,-0.0132066085,-0.3658368495\N,0,-3.6475836802,0.0486304708,1.0274
 29563\C,0,-4.9479956845,-0.7034999685,1.0869165655\C,0,-2.7261657688,-
 0.2986289041,2.1562928252\O,0,-2.086429264,-1.4442189856,-0.4986555534
 \H,0,-2.2533504223,1.9739632216,-0.9117899988\H,0,3.9451600253,1.99338
 06645,0.3408796156\H,0,6.2267264461,1.0675635074,0.5862471969\H,0,6.60
 90797498,-1.3741023529,0.3598232296\H,0,4.7027723045,-2.895421313,-0.1
 10304945\H,0,2.4206335674,-1.9791108449,-0.3578839262\H,0,0.2458770045
 ,-1.0627628046,-0.4254100804\H,0,-5.5549404775,-0.4157845881,0.2331659
 197\H,0,-5.4318553792,-0.4109744361,2.017025934\H,0,-4.7367604839,-1.7
 705393373,1.0843539752\H,0,-1.8645078596,0.3634458805,2.1372946975\H,0
 ,-2.427823339,-1.33900595,2.0542876361\H,0,-3.2853857754,-0.1472919751
 ,3.0776879034\H,0,-3.8594593044,1.0632723924,1.0614266085\H,0,-0.04732
 64542,3.1712278672,-0.4125328183\\Version=ES64L-G16RevB.01\State=1-A\H
 F=-1210.1107186\MP2=-1212.8773782\RMSD=9.302e-09\PG=C01 [X(C11H15N3O3S
 1)]\\@


 SCIENCE IS A VERY HUMAN FORM OF KNOWLEDGE.
 WE ARE ALWAYS AT THE BRINK OF THE KNOWN,
 WE ALWAYS FEEL FORWARD FOR WHAT IS HOPED.
 EVERY JUDGEMENT IN SCIENCE STANDS ON THE EDGE OF ERROR, AND IS PERSONAL.
 SCIENCE IS A TRIBUTE TO WHAT WE CAN KNOW ALTHOUGH WE ARE FALLIBLE.

                     -- J. BRONOWSKI
 Job cpu time:       0 days  2 hours 48 minutes 32.5 seconds.
 Elapsed time:       0 days  0 hours 49 minutes 18.1 seconds.
 File lengths (MBytes):  RWF=  81040 Int=      0 D2E=      0 Chk=     25 Scr=      1
 Normal termination of Gaussian 16 at Thu Sep 24 08:40:14 2020.
