 Entering Gaussian System, Link 0=g16
 Initial command:
 /prod/apps/gaussian/g16b1/l1.exe "/tmp/ubafar01/1462012/Gau-214667.inp" -scrdir="/tmp/ubafar01/1462012/"
 Entering Link 1 = /prod/apps/gaussian/g16b1/l1.exe PID=    214668.
  
 Copyright (c) 1988-2017, Gaussian, Inc.  All Rights Reserved.
  
 This is part of the Gaussian(R) 16 program.  It is based on
 the Gaussian(R) 09 system (copyright 2009, Gaussian, Inc.),
 the Gaussian(R) 03 system (copyright 2003, Gaussian, Inc.),
 the Gaussian(R) 98 system (copyright 1998, Gaussian, Inc.),
 the Gaussian(R) 94 system (copyright 1995, Gaussian, Inc.),
 the Gaussian 92(TM) system (copyright 1992, Gaussian, Inc.),
 the Gaussian 90(TM) system (copyright 1990, Gaussian, Inc.),
 the Gaussian 88(TM) system (copyright 1988, Gaussian, Inc.),
 the Gaussian 86(TM) system (copyright 1986, Carnegie Mellon
 University), and the Gaussian 82(TM) system (copyright 1983,
 Carnegie Mellon University). Gaussian is a federally registered
 trademark of Gaussian, Inc.
  
 This software contains proprietary and confidential information,
 including trade secrets, belonging to Gaussian, Inc.
  
 This software is provided under written license and may be
 used, copied, transmitted, or stored only in accord with that
 written license.
  
 The following legend is applicable only to US Government
 contracts under FAR:
  
                    RESTRICTED RIGHTS LEGEND
  
 Use, reproduction and disclosure by the US Government is
 subject to restrictions as set forth in subparagraphs (a)
 and (c) of the Commercial Computer Software - Restricted
 Rights clause in FAR 52.227-19.
  
 Gaussian, Inc.
 340 Quinnipiac St., Bldg. 40, Wallingford CT 06492
  
  
 ---------------------------------------------------------------
 Warning -- This program may not be used in any manner that
 competes with the business of Gaussian, Inc. or will provide
 assistance to any competitor of Gaussian, Inc.  The licensee
 of this program is prohibited from giving any competitor of
 Gaussian, Inc. access to this program.  By using this program,
 the user acknowledges that Gaussian, Inc. is engaged in the
 business of creating and licensing software in the field of
 computational chemistry and represents and warrants to the
 licensee that it is not a competitor of Gaussian, Inc. and that
 it will not use this program in any manner prohibited above.
 ---------------------------------------------------------------
  

 Cite this work as:
 Gaussian 16, Revision B.01,
 M. J. Frisch, G. W. Trucks, H. B. Schlegel, G. E. Scuseria, 
 M. A. Robb, J. R. Cheeseman, G. Scalmani, V. Barone, 
 G. A. Petersson, H. Nakatsuji, X. Li, M. Caricato, A. V. Marenich, 
 J. Bloino, B. G. Janesko, R. Gomperts, B. Mennucci, H. P. Hratchian, 
 J. V. Ortiz, A. F. Izmaylov, J. L. Sonnenberg, D. Williams-Young, 
 F. Ding, F. Lipparini, F. Egidi, J. Goings, B. Peng, A. Petrone, 
 T. Henderson, D. Ranasinghe, V. G. Zakrzewski, J. Gao, N. Rega, 
 G. Zheng, W. Liang, M. Hada, M. Ehara, K. Toyota, R. Fukuda, 
 J. Hasegawa, M. Ishida, T. Nakajima, Y. Honda, O. Kitao, H. Nakai, 
 T. Vreven, K. Throssell, J. A. Montgomery, Jr., J. E. Peralta, 
 F. Ogliaro, M. J. Bearpark, J. J. Heyd, E. N. Brothers, K. N. Kudin, 
 V. N. Staroverov, T. A. Keith, R. Kobayashi, J. Normand, 
 K. Raghavachari, A. P. Rendell, J. C. Burant, S. S. Iyengar, 
 J. Tomasi, M. Cossi, J. M. Millam, M. Klene, C. Adamo, R. Cammi, 
 J. W. Ochterski, R. L. Martin, K. Morokuma, O. Farkas, 
 J. B. Foresman, and D. J. Fox, Gaussian, Inc., Wallingford CT, 2016.
 
 ******************************************
 Gaussian 16:  ES64L-G16RevB.01 20-Dec-2017
                28-Sep-2020 
 ******************************************
 %nproc=4
 Will use up to    4 processors via shared memory.
 %Chk=SM43_m3.b.10.pdb.xyz.mst.b.w.chk
 %mem=16GB
 ----------------------------------------------------------------------
 #p b3lyp/6-31G(d) opt freq NoSymm scf=(MaxCycle=2000,NoVarAcc,NoIncFoc
 k) scrf=(iefpcm,read,solvent=water)
 ----------------------------------------------------------------------
 1/18=20,19=15,26=3,38=1,40=2/1,3;
 2/9=110,12=2,15=1,17=6,18=5,40=1/2;
 3/5=1,6=6,7=1,11=2,25=1,30=1,70=2203,71=1,72=1,74=-5/1,2,3;
 4//1;
 5/5=100002,7=2000,38=1,53=1/2;
 6/7=2,8=2,9=2,10=2,28=1/1;
 7/30=1/1,2,3,16;
 1/18=20,19=15,26=3/3(2);
 2/9=110,15=1/2;
 99//99;
 2/9=110,15=1/2;
 3/5=1,6=6,7=1,11=2,25=1,30=1,70=2205,71=1,72=1,74=-5/1,2,3;
 4/5=5,16=3,69=1/1;
 5/5=100002,7=2000,38=1,53=1/2;
 7/30=1/1,2,3,16;
 1/18=20,19=15,26=3/3(-5);
 2/9=110,15=1/2;
 6/7=2,8=2,9=2,10=2,19=2,28=1/1;
 99/9=1/99;
 Leave Link    1 at Mon Sep 28 08:11:45 2020, MaxMem=  2147483648 cpu:               0.2 elap:               0.0
 (Enter /prod/apps/gaussian/g16b1/l101.exe)
 --------------------
 SM43_m3.b.10.pdb.xyz
 --------------------
 Symbolic Z-matrix:
 Charge =  2 Multiplicity = 1
 O                    -2.775     0.576    -1.804 
 S                    -3.09     -0.364    -0.75 
 N                    -1.692    -0.775     0.052 
 C                    -0.428    -0.27     -0.169 
 N                    -0.147     0.858    -0.811 
 O                     1.203     1.063    -0.82 
 C                     1.762     0.019    -0.157 
 C                     3.205     0.012    -0.033 
 C                     3.832    -1.052     0.639 
 C                     5.216    -1.066     0.768 
 C                     5.981    -0.026     0.232 
 C                     5.359     1.032    -0.436 
 C                     3.976     1.056    -0.571 
 C                     0.777    -0.842     0.268 
 N                    -4.        0.639     0.519 
 C                    -4.197    -0.121     1.8 
 C                    -3.418     2.007     0.709 
 O                    -3.907    -1.546    -0.893 
 H                    -1.741    -1.668     0.553 
 H                     3.24     -1.858     1.055 
 H                     5.699    -1.887     1.286 
 H                     7.06     -0.041     0.335 
 H                     5.953     1.839    -0.851 
 H                     3.492     1.876    -1.087 
 H                     0.887    -1.763     0.815 
 H                    -4.64     -1.086     1.567 
 H                    -4.878     0.469     2.411 
 H                    -3.238    -0.231     2.3 
 H                    -3.305     2.474    -0.265 
 H                    -2.464     1.93      1.226 
 H                    -4.13      2.565     1.315 
 H                    -4.932     0.749     0.074 
 H                    -0.699     1.589    -1.261 
 
 ITRead=  0  0  0  0  0  0  0  0  0  0  0  0  0  0  0  0  0  0  0  0
 ITRead=  0  0  0  0  0  0  0  0  0  0  0  0  0
 MicOpt= -1 -1 -1 -1 -1 -1 -1 -1 -1 -1 -1 -1 -1 -1 -1 -1 -1 -1 -1 -1
 MicOpt= -1 -1 -1 -1 -1 -1 -1 -1 -1 -1 -1 -1 -1
 NAtoms=     33 NQM=       33 NQMF=       0 NMMI=      0 NMMIF=      0
                NMic=       0 NMicF=      0.
                    Isotopes and Nuclear Properties:
 (Nuclear quadrupole moments (NQMom) in fm**2, nuclear magnetic moments (NMagM)
  in nuclear magnetons)

  Atom         1           2           3           4           5           6           7           8           9          10
 IAtWgt=          16          32          14          12          14          16          12          12          12          12
 AtmWgt=  15.9949146  31.9720718  14.0030740  12.0000000  14.0030740  15.9949146  12.0000000  12.0000000  12.0000000  12.0000000
 NucSpn=           0           0           2           0           2           0           0           0           0           0
 AtZEff=  -0.0000000  -0.0000000  -0.0000000  -0.0000000  -0.0000000  -0.0000000  -0.0000000  -0.0000000  -0.0000000  -0.0000000
 NQMom=    0.0000000   0.0000000   2.0440000   0.0000000   2.0440000   0.0000000   0.0000000   0.0000000   0.0000000   0.0000000
 NMagM=    0.0000000   0.0000000   0.4037610   0.0000000   0.4037610   0.0000000   0.0000000   0.0000000   0.0000000   0.0000000
 AtZNuc=   8.0000000  16.0000000   7.0000000   6.0000000   7.0000000   8.0000000   6.0000000   6.0000000   6.0000000   6.0000000

  Atom        11          12          13          14          15          16          17          18          19          20
 IAtWgt=          12          12          12          12          14          12          12          16           1           1
 AtmWgt=  12.0000000  12.0000000  12.0000000  12.0000000  14.0030740  12.0000000  12.0000000  15.9949146   1.0078250   1.0078250
 NucSpn=           0           0           0           0           2           0           0           0           1           1
 AtZEff=  -0.0000000  -0.0000000  -0.0000000  -0.0000000  -0.0000000  -0.0000000  -0.0000000  -0.0000000  -0.0000000  -0.0000000
 NQMom=    0.0000000   0.0000000   0.0000000   0.0000000   2.0440000   0.0000000   0.0000000   0.0000000   0.0000000   0.0000000
 NMagM=    0.0000000   0.0000000   0.0000000   0.0000000   0.4037610   0.0000000   0.0000000   0.0000000   2.7928460   2.7928460
 AtZNuc=   6.0000000   6.0000000   6.0000000   6.0000000   7.0000000   6.0000000   6.0000000   8.0000000   1.0000000   1.0000000

  Atom        21          22          23          24          25          26          27          28          29          30
 IAtWgt=           1           1           1           1           1           1           1           1           1           1
 AtmWgt=   1.0078250   1.0078250   1.0078250   1.0078250   1.0078250   1.0078250   1.0078250   1.0078250   1.0078250   1.0078250
 NucSpn=           1           1           1           1           1           1           1           1           1           1
 AtZEff=  -0.0000000  -0.0000000  -0.0000000  -0.0000000  -0.0000000  -0.0000000  -0.0000000  -0.0000000  -0.0000000  -0.0000000
 NQMom=    0.0000000   0.0000000   0.0000000   0.0000000   0.0000000   0.0000000   0.0000000   0.0000000   0.0000000   0.0000000
 NMagM=    2.7928460   2.7928460   2.7928460   2.7928460   2.7928460   2.7928460   2.7928460   2.7928460   2.7928460   2.7928460
 AtZNuc=   1.0000000   1.0000000   1.0000000   1.0000000   1.0000000   1.0000000   1.0000000   1.0000000   1.0000000   1.0000000

  Atom        31          32          33
 IAtWgt=           1           1           1
 AtmWgt=   1.0078250   1.0078250   1.0078250
 NucSpn=           1           1           1
 AtZEff=  -0.0000000  -0.0000000  -0.0000000
 NQMom=    0.0000000   0.0000000   0.0000000
 NMagM=    2.7928460   2.7928460   2.7928460
 AtZNuc=   1.0000000   1.0000000   1.0000000
 Leave Link  101 at Mon Sep 28 08:11:45 2020, MaxMem=  2147483648 cpu:               1.5 elap:               0.4
 (Enter /prod/apps/gaussian/g16b1/l103.exe)

 GradGradGradGradGradGradGradGradGradGradGradGradGradGradGradGradGradGrad
 Berny optimization.
 Initialization pass.
                           ----------------------------
                           !    Initial Parameters    !
                           ! (Angstroms and Degrees)  !
 --------------------------                            --------------------------
 ! Name  Definition              Value          Derivative Info.                !
 --------------------------------------------------------------------------------
 ! R1    R(1,2)                  1.447          estimate D2E/DX2                !
 ! R2    R(2,3)                  1.6633         estimate D2E/DX2                !
 ! R3    R(2,15)                 1.8559         estimate D2E/DX2                !
 ! R4    R(2,18)                 1.444          estimate D2E/DX2                !
 ! R5    R(3,4)                  1.379          estimate D2E/DX2                !
 ! R6    R(3,19)                 1.0251         estimate D2E/DX2                !
 ! R7    R(4,5)                  1.328          estimate D2E/DX2                !
 ! R8    R(4,14)                 1.4036         estimate D2E/DX2                !
 ! R9    R(5,6)                  1.3655         estimate D2E/DX2                !
 ! R10   R(5,33)                 1.0206         estimate D2E/DX2                !
 ! R11   R(6,7)                  1.3572         estimate D2E/DX2                !
 ! R12   R(7,8)                  1.4483         estimate D2E/DX2                !
 ! R13   R(7,14)                 1.3756         estimate D2E/DX2                !
 ! R14   R(8,9)                  1.406          estimate D2E/DX2                !
 ! R15   R(8,13)                 1.4049         estimate D2E/DX2                !
 ! R16   R(9,10)                 1.3901         estimate D2E/DX2                !
 ! R17   R(9,20)                 1.0831         estimate D2E/DX2                !
 ! R18   R(10,11)                1.3979         estimate D2E/DX2                !
 ! R19   R(10,21)                1.0843         estimate D2E/DX2                !
 ! R20   R(11,12)                1.3973         estimate D2E/DX2                !
 ! R21   R(11,22)                1.084          estimate D2E/DX2                !
 ! R22   R(12,13)                1.3898         estimate D2E/DX2                !
 ! R23   R(12,23)                1.0846         estimate D2E/DX2                !
 ! R24   R(13,24)                1.083          estimate D2E/DX2                !
 ! R25   R(14,25)                1.0768         estimate D2E/DX2                !
 ! R26   R(15,16)                1.5025         estimate D2E/DX2                !
 ! R27   R(15,17)                1.4987         estimate D2E/DX2                !
 ! R28   R(15,32)                1.0386         estimate D2E/DX2                !
 ! R29   R(16,26)                1.0871         estimate D2E/DX2                !
 ! R30   R(16,27)                1.0887         estimate D2E/DX2                !
 ! R31   R(16,28)                1.0871         estimate D2E/DX2                !
 ! R32   R(17,29)                1.0861         estimate D2E/DX2                !
 ! R33   R(17,30)                1.0878         estimate D2E/DX2                !
 ! R34   R(17,31)                1.0888         estimate D2E/DX2                !
 ! A1    A(1,2,3)              109.1945         estimate D2E/DX2                !
 ! A2    A(1,2,15)             104.6976         estimate D2E/DX2                !
 ! A3    A(1,2,18)             125.6481         estimate D2E/DX2                !
 ! A4    A(3,2,15)             102.4722         estimate D2E/DX2                !
 ! A5    A(3,2,18)             108.7257         estimate D2E/DX2                !
 ! A6    A(15,2,18)            103.4545         estimate D2E/DX2                !
 ! A7    A(2,3,4)              127.0606         estimate D2E/DX2                !
 ! A8    A(2,3,19)             114.2509         estimate D2E/DX2                !
 ! A9    A(4,3,19)             116.1779         estimate D2E/DX2                !
 ! A10   A(3,4,5)              125.627          estimate D2E/DX2                !
 ! A11   A(3,4,14)             125.9995         estimate D2E/DX2                !
 ! A12   A(5,4,14)             108.3612         estimate D2E/DX2                !
 ! A13   A(4,5,6)              109.8711         estimate D2E/DX2                !
 ! A14   A(4,5,33)             135.0013         estimate D2E/DX2                !
 ! A15   A(6,5,33)             115.106          estimate D2E/DX2                !
 ! A16   A(5,6,7)              106.7681         estimate D2E/DX2                !
 ! A17   A(6,7,8)              117.123          estimate D2E/DX2                !
 ! A18   A(6,7,14)             109.7234         estimate D2E/DX2                !
 ! A19   A(8,7,14)             133.1536         estimate D2E/DX2                !
 ! A20   A(7,8,9)              119.2673         estimate D2E/DX2                !
 ! A21   A(7,8,13)             120.6894         estimate D2E/DX2                !
 ! A22   A(9,8,13)             120.0428         estimate D2E/DX2                !
 ! A23   A(8,9,10)             119.7343         estimate D2E/DX2                !
 ! A24   A(8,9,20)             120.1966         estimate D2E/DX2                !
 ! A25   A(10,9,20)            120.0691         estimate D2E/DX2                !
 ! A26   A(9,10,11)            120.1181         estimate D2E/DX2                !
 ! A27   A(9,10,21)            119.701          estimate D2E/DX2                !
 ! A28   A(11,10,21)           120.1808         estimate D2E/DX2                !
 ! A29   A(10,11,12)           120.1997         estimate D2E/DX2                !
 ! A30   A(10,11,22)           119.8674         estimate D2E/DX2                !
 ! A31   A(12,11,22)           119.933          estimate D2E/DX2                !
 ! A32   A(11,12,13)           120.1644         estimate D2E/DX2                !
 ! A33   A(11,12,23)           120.1666         estimate D2E/DX2                !
 ! A34   A(13,12,23)           119.669          estimate D2E/DX2                !
 ! A35   A(8,13,12)            119.7407         estimate D2E/DX2                !
 ! A36   A(8,13,24)            119.9891         estimate D2E/DX2                !
 ! A37   A(12,13,24)           120.2702         estimate D2E/DX2                !
 ! A38   A(4,14,7)             105.2762         estimate D2E/DX2                !
 ! A39   A(4,14,25)            126.4693         estimate D2E/DX2                !
 ! A40   A(7,14,25)            128.254          estimate D2E/DX2                !
 ! A41   A(2,15,16)            111.9559         estimate D2E/DX2                !
 ! A42   A(2,15,17)            112.9272         estimate D2E/DX2                !
 ! A43   A(2,15,32)            101.7865         estimate D2E/DX2                !
 ! A44   A(16,15,17)           113.8623         estimate D2E/DX2                !
 ! A45   A(16,15,32)           107.5305         estimate D2E/DX2                !
 ! A46   A(17,15,32)           107.8246         estimate D2E/DX2                !
 ! A47   A(15,16,26)           108.6459         estimate D2E/DX2                !
 ! A48   A(15,16,27)           106.6423         estimate D2E/DX2                !
 ! A49   A(15,16,28)           109.127          estimate D2E/DX2                !
 ! A50   A(26,16,27)           110.2712         estimate D2E/DX2                !
 ! A51   A(26,16,28)           111.6077         estimate D2E/DX2                !
 ! A52   A(27,16,28)           110.3975         estimate D2E/DX2                !
 ! A53   A(15,17,29)           108.6141         estimate D2E/DX2                !
 ! A54   A(15,17,30)           109.6454         estimate D2E/DX2                !
 ! A55   A(15,17,31)           106.5228         estimate D2E/DX2                !
 ! A56   A(29,17,30)           111.4332         estimate D2E/DX2                !
 ! A57   A(29,17,31)           110.2923         estimate D2E/DX2                !
 ! A58   A(30,17,31)           110.1963         estimate D2E/DX2                !
 ! D1    D(1,2,3,4)              3.3765         estimate D2E/DX2                !
 ! D2    D(1,2,3,19)          -157.8061         estimate D2E/DX2                !
 ! D3    D(15,2,3,4)          -107.2422         estimate D2E/DX2                !
 ! D4    D(15,2,3,19)           91.5752         estimate D2E/DX2                !
 ! D5    D(18,2,3,4)           143.6957         estimate D2E/DX2                !
 ! D6    D(18,2,3,19)          -17.487          estimate D2E/DX2                !
 ! D7    D(1,2,15,16)         -169.9432         estimate D2E/DX2                !
 ! D8    D(1,2,15,17)          -39.8448         estimate D2E/DX2                !
 ! D9    D(1,2,15,32)           75.4819         estimate D2E/DX2                !
 ! D10   D(3,2,15,16)          -55.9813         estimate D2E/DX2                !
 ! D11   D(3,2,15,17)           74.1172         estimate D2E/DX2                !
 ! D12   D(3,2,15,32)         -170.5561         estimate D2E/DX2                !
 ! D13   D(18,2,15,16)          57.0349         estimate D2E/DX2                !
 ! D14   D(18,2,15,17)        -172.8666         estimate D2E/DX2                !
 ! D15   D(18,2,15,32)         -57.5399         estimate D2E/DX2                !
 ! D16   D(2,3,4,5)             18.1961         estimate D2E/DX2                !
 ! D17   D(2,3,4,14)          -163.2321         estimate D2E/DX2                !
 ! D18   D(19,3,4,5)           179.0667         estimate D2E/DX2                !
 ! D19   D(19,3,4,14)           -2.3615         estimate D2E/DX2                !
 ! D20   D(3,4,5,6)            178.7732         estimate D2E/DX2                !
 ! D21   D(3,4,5,33)             0.6086         estimate D2E/DX2                !
 ! D22   D(14,4,5,6)            -0.0094         estimate D2E/DX2                !
 ! D23   D(14,4,5,33)         -178.174          estimate D2E/DX2                !
 ! D24   D(3,4,14,7)          -178.7283         estimate D2E/DX2                !
 ! D25   D(3,4,14,25)            1.5221         estimate D2E/DX2                !
 ! D26   D(5,4,14,7)             0.0486         estimate D2E/DX2                !
 ! D27   D(5,4,14,25)         -179.701          estimate D2E/DX2                !
 ! D28   D(4,5,6,7)             -0.0345         estimate D2E/DX2                !
 ! D29   D(33,5,6,7)           178.5324         estimate D2E/DX2                !
 ! D30   D(5,6,7,8)           -179.9973         estimate D2E/DX2                !
 ! D31   D(5,6,7,14)             0.0661         estimate D2E/DX2                !
 ! D32   D(6,7,8,9)           -179.6606         estimate D2E/DX2                !
 ! D33   D(6,7,8,13)             0.5914         estimate D2E/DX2                !
 ! D34   D(14,7,8,9)             0.2576         estimate D2E/DX2                !
 ! D35   D(14,7,8,13)         -179.4904         estimate D2E/DX2                !
 ! D36   D(6,7,14,4)            -0.0707         estimate D2E/DX2                !
 ! D37   D(6,7,14,25)          179.6729         estimate D2E/DX2                !
 ! D38   D(8,7,14,4)          -179.9933         estimate D2E/DX2                !
 ! D39   D(8,7,14,25)           -0.2497         estimate D2E/DX2                !
 ! D40   D(7,8,9,10)          -179.7617         estimate D2E/DX2                !
 ! D41   D(7,8,9,20)             0.2311         estimate D2E/DX2                !
 ! D42   D(13,8,9,10)           -0.0121         estimate D2E/DX2                !
 ! D43   D(13,8,9,20)          179.9808         estimate D2E/DX2                !
 ! D44   D(7,8,13,12)          179.7463         estimate D2E/DX2                !
 ! D45   D(7,8,13,24)           -0.1505         estimate D2E/DX2                !
 ! D46   D(9,8,13,12)            0.0003         estimate D2E/DX2                !
 ! D47   D(9,8,13,24)         -179.8965         estimate D2E/DX2                !
 ! D48   D(8,9,10,11)            0.0204         estimate D2E/DX2                !
 ! D49   D(8,9,10,21)         -179.9761         estimate D2E/DX2                !
 ! D50   D(20,9,10,11)        -179.9724         estimate D2E/DX2                !
 ! D51   D(20,9,10,21)           0.0311         estimate D2E/DX2                !
 ! D52   D(9,10,11,12)          -0.0172         estimate D2E/DX2                !
 ! D53   D(9,10,11,22)         179.9968         estimate D2E/DX2                !
 ! D54   D(21,10,11,12)        179.9793         estimate D2E/DX2                !
 ! D55   D(21,10,11,22)         -0.0067         estimate D2E/DX2                !
 ! D56   D(10,11,12,13)          0.0053         estimate D2E/DX2                !
 ! D57   D(10,11,12,23)        179.9536         estimate D2E/DX2                !
 ! D58   D(22,11,12,13)        179.9913         estimate D2E/DX2                !
 ! D59   D(22,11,12,23)         -0.0604         estimate D2E/DX2                !
 ! D60   D(11,12,13,8)           0.0031         estimate D2E/DX2                !
 ! D61   D(11,12,13,24)        179.8996         estimate D2E/DX2                !
 ! D62   D(23,12,13,8)        -179.9454         estimate D2E/DX2                !
 ! D63   D(23,12,13,24)         -0.0489         estimate D2E/DX2                !
 ! D64   D(2,15,16,26)         -51.5869         estimate D2E/DX2                !
 ! D65   D(2,15,16,27)        -170.4361         estimate D2E/DX2                !
 ! D66   D(2,15,16,28)          70.3093         estimate D2E/DX2                !
 ! D67   D(17,15,16,26)        178.7993         estimate D2E/DX2                !
 ! D68   D(17,15,16,27)         59.95           estimate D2E/DX2                !
 ! D69   D(17,15,16,28)        -59.3046         estimate D2E/DX2                !
 ! D70   D(32,15,16,26)         59.4094         estimate D2E/DX2                !
 ! D71   D(32,15,16,27)        -59.4398         estimate D2E/DX2                !
 ! D72   D(32,15,16,28)       -178.6944         estimate D2E/DX2                !
 ! D73   D(2,15,17,29)          50.415          estimate D2E/DX2                !
 ! D74   D(2,15,17,30)         -71.567          estimate D2E/DX2                !
 ! D75   D(2,15,17,31)         169.2067         estimate D2E/DX2                !
 ! D76   D(16,15,17,29)        179.5399         estimate D2E/DX2                !
 ! D77   D(16,15,17,30)         57.5579         estimate D2E/DX2                !
 ! D78   D(16,15,17,31)        -61.6684         estimate D2E/DX2                !
 ! D79   D(32,15,17,29)        -61.2373         estimate D2E/DX2                !
 ! D80   D(32,15,17,30)        176.7808         estimate D2E/DX2                !
 ! D81   D(32,15,17,31)         57.5545         estimate D2E/DX2                !
 --------------------------------------------------------------------------------
 Trust Radius=3.00D-01 FncErr=1.00D-07 GrdErr=1.00D-06 EigMax=2.50D+02 EigMin=1.00D-04
 Number of steps in this run=    183 maximum allowed number of steps=    198.
 GradGradGradGradGradGradGradGradGradGradGradGradGradGradGradGradGradGrad

 Leave Link  103 at Mon Sep 28 08:11:45 2020, MaxMem=  2147483648 cpu:               0.1 elap:               0.0
 (Enter /prod/apps/gaussian/g16b1/l202.exe)
                          Input orientation:                          
 ---------------------------------------------------------------------
 Center     Atomic      Atomic             Coordinates (Angstroms)
 Number     Number       Type             X           Y           Z
 ---------------------------------------------------------------------
      1          8           0       -2.775000    0.576000   -1.804000
      2         16           0       -3.090000   -0.364000   -0.750000
      3          7           0       -1.692000   -0.775000    0.052000
      4          6           0       -0.428000   -0.270000   -0.169000
      5          7           0       -0.147000    0.858000   -0.811000
      6          8           0        1.203000    1.063000   -0.820000
      7          6           0        1.762000    0.019000   -0.157000
      8          6           0        3.205000    0.012000   -0.033000
      9          6           0        3.832000   -1.052000    0.639000
     10          6           0        5.216000   -1.066000    0.768000
     11          6           0        5.981000   -0.026000    0.232000
     12          6           0        5.359000    1.032000   -0.436000
     13          6           0        3.976000    1.056000   -0.571000
     14          6           0        0.777000   -0.842000    0.268000
     15          7           0       -4.000000    0.639000    0.519000
     16          6           0       -4.197000   -0.121000    1.800000
     17          6           0       -3.418000    2.007000    0.709000
     18          8           0       -3.907000   -1.546000   -0.893000
     19          1           0       -1.741000   -1.668000    0.553000
     20          1           0        3.240000   -1.858000    1.055000
     21          1           0        5.699000   -1.887000    1.286000
     22          1           0        7.060000   -0.041000    0.335000
     23          1           0        5.953000    1.839000   -0.851000
     24          1           0        3.492000    1.876000   -1.087000
     25          1           0        0.887000   -1.763000    0.815000
     26          1           0       -4.640000   -1.086000    1.567000
     27          1           0       -4.878000    0.469000    2.411000
     28          1           0       -3.238000   -0.231000    2.300000
     29          1           0       -3.305000    2.474000   -0.265000
     30          1           0       -2.464000    1.930000    1.226000
     31          1           0       -4.130000    2.565000    1.315000
     32          1           0       -4.932000    0.749000    0.074000
     33          1           0       -0.699000    1.589000   -1.261000
 ---------------------------------------------------------------------
                    Distance matrix (angstroms):
                    1          2          3          4          5
     1  O    0.000000
     2  S    1.446977   0.000000
     3  N    2.538272   1.663289   0.000000
     4  C    2.982843   2.726287   1.378971   0.000000
     5  N    2.823465   3.187202   2.408004   1.327972   0.000000
     6  O    4.126731   4.524498   3.538312   2.204734   1.365506
     7  C    4.858727   4.903085   3.550244   2.209019   2.185387
     8  C    6.262183   6.346849   4.960565   3.646465   3.543572
     9  C    7.229874   7.093430   5.562003   4.405904   4.645755
    10  C    8.553796   8.472707   6.951101   5.776359   5.912426
    11  C    9.009730   9.130258   7.711571   6.426167   6.278669
    12  C    8.260830   8.569306   7.295203   5.937665   5.521498
    13  C    6.879440   7.209494   5.988899   4.616827   4.134723
    14  C    4.349783   4.027220   2.479336   1.403630   2.215404
    15  N    2.626961   1.855928   2.746698   3.749508   4.081969
    16  C    3.936586   2.790519   3.123819   4.254941   4.917140
    17  C    2.962495   2.803196   3.339199   3.859496   3.785504
    18  O    2.571814   1.443974   2.528575   3.775684   4.463579
    19  H    3.414695   2.284300   1.025110   2.049306   3.283597
    20  H    7.090731   6.749738   5.148157   4.180209   4.725503
    21  H    9.350034   9.149390   7.575367   6.501680   6.790298
    22  H   10.083811  10.212936   8.787283   7.508435   7.352711
    23  H    8.870252   9.308021   8.129848   6.755010   6.178508
    24  H    6.440449   6.960883   5.932873   4.562285   3.788776
    25  H    5.073492   4.496994   2.865232   2.219579   3.253102
    26  H    4.195725   2.879631   3.329061   4.628228   5.442524
    27  H    4.711718   3.725957   4.154878   5.196636   5.737157
    28  H    4.208139   3.056484   2.782006   3.740800   4.518686
    29  H    2.500365   2.887160   3.641189   3.976919   3.589225
    30  H    3.333307   3.091745   3.048161   3.306255   3.266044
    31  H    3.939582   3.731604   4.323727   4.893290   4.826802
    32  H    2.865216   2.304498   3.580595   4.624222   4.867374
    33  H    2.372929   3.129251   2.880714   2.172967   1.020571
                    6          7          8          9         10
     6  O    0.000000
     7  C    1.357198   0.000000
     8  C    2.394154   1.448335   0.000000
     9  C    3.676078   2.462835   1.405990   0.000000
    10  C    4.812334   3.736705   2.418224   1.390069   0.000000
    11  C    5.012176   4.237134   2.788879   2.415890   1.397899
    12  C    4.173818   3.747322   2.417132   2.798287   2.423153
    13  C    2.784166   2.479629   1.404927   2.434851   2.798822
    14  C    2.234781   1.375562   2.591351   3.084601   4.472683
    15  N    5.389240   5.834554   7.253265   8.013370   9.375696
    16  C    6.117700   6.273686   7.626741   8.165753   9.516439
    17  C    4.958086   5.615559   6.956631   7.869236   9.164757
    18  O    5.737971   5.926929   7.331269   7.904630   9.285389
    19  H    4.243893   3.952351   5.256302   5.607600   6.986306
    20  H    4.024579   2.678910   2.163763   1.083123   2.148071
    21  H    5.775098   4.605980   3.400882   2.145116   1.084276
    22  H    6.071021   5.321134   3.872888   3.396251   2.153706
    23  H    4.813069   4.621528   3.399788   3.882863   3.406370
    24  H    2.443722   2.703007   2.160505   3.415825   3.881825
    25  H    3.280146   2.210415   3.040206   3.034719   4.385004
    26  H    6.667580   6.721518   8.081437   8.522742   9.888354
    27  H    6.911639   7.133493   8.456765   9.017623  10.341398
    28  H    5.579545   5.576679   6.856689   7.308752   8.632170
    29  H    4.756155   5.631445   6.963862   8.011658   9.284726
    30  H    4.287738   4.839802   6.115666   6.991174   8.256402
    31  H    5.937602   6.585178   7.882711   8.771152  10.041468
    32  H    6.207742   6.737648   8.171009   8.964961  10.332365
    33  H    2.022068   3.120935   4.385901   5.578068   6.793607
                   11         12         13         14         15
    11  C    0.000000
    12  C    1.397309   0.000000
    13  C    2.415690   1.389781   0.000000
    14  C    5.267710   5.000222   3.813125   0.000000
    15  N   10.007245   9.415803   8.060928   5.007603   0.000000
    16  C   10.298511   9.881611   8.590978   5.254288   1.502455
    17  C    9.628178   8.904908   7.563996   5.090119   1.498749
    18  O   10.067203   9.628795   8.307573   4.876822   2.603194
    19  H    7.901170   7.660165   6.431768   2.665300   3.229007
    20  H    3.398034   3.881410   3.417158   2.778128   7.677233
    21  H    2.157258   3.406089   3.883095   5.133657  10.051844
    22  H    1.084009   2.153873   3.396366   6.334207  11.082412
    23  H    2.156826   1.084578   2.144765   5.935562  10.118256
    24  H    3.398895   2.149843   1.083011   4.073668   7.761409
    25  H    5.413492   5.419946   4.405642   1.076824   5.453438
    26  H   10.756926  10.415274   9.132068   5.575915   2.117435
    27  H   11.086521  10.640420   9.361101   6.187907   2.092713
    28  H    9.450323   9.109845   7.870248   4.541208   2.123560
    29  H    9.629476   8.784845   7.424104   5.286083   2.113032
    30  H    8.725365   8.047855   6.742899   4.371022   2.127399
    31  H   10.493736   9.770221   8.458210   6.064858   2.088059
    32  H   10.941625  10.307515   8.936595   5.929722   1.038628
    33  H    7.032757   6.139238   4.755609   3.228959   3.868785
                   16         17         18         19         20
    16  C    0.000000
    17  C    2.515056   0.000000
    18  O    3.060551   3.928019   0.000000
    19  H    3.159138   4.042560   2.607174   0.000000
    20  H    7.673406   7.706290   7.414287   5.009837   0.000000
    21  H   10.065474   9.930552   9.855940   7.479228   2.469997
    22  H   11.352210  10.682821  11.137688   8.952779   4.290954
    23  H   10.672015   9.501445  10.424950   8.571342   4.965986
    24  H    8.452426   7.140790   8.154319   6.529458   4.312125
    25  H    5.432628   5.723387   5.093799   2.642736   2.367115
    26  H    1.087089   3.434545   2.607775   3.125879   7.934263
    27  H    1.088661   2.719163   3.989923   4.226074   8.553104
    28  H    1.087098   2.751786   3.517390   2.712561   6.794236
    29  H    3.434227   1.086064   4.113051   4.502375   7.958998
    30  H    2.745791   1.087812   4.319142   3.731121   6.849365
    31  H    2.730258   1.088827   4.671757   4.919985   8.599269
    32  H    2.067898   2.068329   2.693091   4.031602   8.633678
    33  H    4.952759   3.383576   4.500546   3.870970   5.723756
                   21         22         23         24         25
    21  H    0.000000
    22  H    2.482829   0.000000
    23  H    4.302832   2.483233   0.000000
    24  H    4.966100   4.292738   2.472567   0.000000
    25  H    4.836586   6.426633   6.435396   4.862710   0.000000
    26  H   10.373788  11.811005  11.252289   9.052435   5.618858
    27  H   10.894461  12.127890  11.394214   9.180008   6.384690
    28  H    9.145518  10.485520   9.934193   7.823306   4.644123
    29  H   10.124028  10.682624   9.298236   6.872590   6.057345
    30  H    9.011529   9.766540   8.669954   6.389587   5.003636
    31  H   10.790291  11.531164  10.338545   8.021173   6.644688
    32  H   11.019782  12.020827  10.978477   8.577985   6.381221
    33  H    7.713896   8.087410   6.669311   4.204417   4.249832
                   26         27         28         29         30
    26  H    0.000000
    27  H    1.785218   0.000000
    28  H    1.798310   1.786595   0.000000
    29  H    4.220432   3.695312   3.728369   0.000000
    30  H    3.734637   3.060415   2.534260   1.796190   0.000000
    31  H    3.695051   2.480713   3.095724   1.784743   1.785134
    32  H    2.383598   2.354333   2.963969   2.395344   2.968651
    33  H    5.539376   5.674683   4.737050   2.926854   3.068660
                   31         32         33
    31  H    0.000000
    32  H    2.341184   0.000000
    33  H    4.400013   4.517313   0.000000
 Symmetry turned off by external request.
 Stoichiometry    C11H15N3O3S(2+)
 Framework group  C1[X(C11H15N3O3S)]
 Deg. of freedom    93
 Full point group                 C1      NOp   1
 Rotational constants (GHZ):           1.1706285           0.1492635           0.1458389
 Leave Link  202 at Mon Sep 28 08:11:45 2020, MaxMem=  2147483648 cpu:               0.1 elap:               0.0
 (Enter /prod/apps/gaussian/g16b1/l301.exe)
 Standard basis: 6-31G(d) (6D, 7F)
 Ernie: Thresh=  0.10000D-02 Tol=  0.10000D-05 Strict=F.
   304 basis functions,   588 primitive gaussians,   304 cartesian basis functions
    70 alpha electrons       70 beta electrons
       nuclear repulsion energy      1483.3609074043 Hartrees.
 IExCor=  402 DFT=T Ex+Corr=B3LYP ExCW=0 ScaHFX=  0.200000
 ScaDFX=  0.800000  0.720000  1.000000  0.810000 ScalE2=  1.000000  1.000000
 IRadAn=      5 IRanWt=     -1 IRanGd=            0 ICorTp=0 IEmpDi=  4
 NAtoms=   33 NActive=   33 NUniq=   33 SFac= 1.00D+00 NAtFMM=   60 NAOKFM=F Big=F
 Integral buffers will be    131072 words long.
 Raffenetti 2 integral format.
 Two-electron integral symmetry is turned off.
 Using the following non-standard input for PCM:
 MSTModel=DFT cav MSTcharged
 --- end of non-standard input.
 MST model for solvation energy: B3LYP parametrization.
 MST cavity parameters:
 ISph   IAn     Re0     Alpha   Atom Type   QCorr
 ------------------------------------------------
   1      8     1.40     1.25      O          F
   2     16     1.75     1.25      S          F
   3      7     1.50     1.25      NH         F
   4      6     1.50     1.25      C          F
   5      7     1.50     1.15      NH         T
   6      8     1.40     1.25      O          F
   7      6     1.50     1.25      C          F
   8      6     1.50     1.25      C          F
   9      6     1.50     1.25      CH         F
  10      6     1.50     1.25      CH         F
  11      6     1.50     1.25      CH         F
  12      6     1.50     1.25      CH         F
  13      6     1.50     1.25      CH         F
  14      6     1.50     1.25      CH         F
  15      7     1.50     1.15      NH         T
  16      6     1.50     1.25      CH3        F
  17      6     1.50     1.25      CH3        F
  18      8     1.40     1.25      O          F
  19      1     0.90     1.25      NH         F
  20      1     1.20     1.25      CH         F
  21      1     1.20     1.25      CH         F
  22      1     1.20     1.25      CH         F
  23      1     1.20     1.25      CH         F
  24      1     1.20     1.25      CH         F
  25      1     1.20     1.25      CH         F
  26      1     1.20     1.25      CH3        F
  27      1     1.20     1.25      CH3        F
  28      1     1.20     1.25      CH3        F
  29      1     1.20     1.25      CH3        F
  30      1     1.20     1.25      CH3        F
  31      1     1.20     1.25      CH3        F
  32      1     0.90     1.15      NH         T
  33      1     0.90     1.15      NH         T
 ------------------------------------------------------------------------------
 Polarizable Continuum Model (PCM)
 =================================
 Model                : PCM.
 Atomic radii         : MST.
 Polarization charges : Total charges.
 Charge compensation  : None.
 Solution method      : On-the-fly selection.
 Cavity type          : Scaled VdW (van der Waals Surface) (Alpha=1.250).
 Cavity algorithm     : GePol (No added spheres)
                        Default sphere list used, NSphG=   33.
                        Lebedev-Laikov grids with approx.  5.0 points / Ang**2.
                        Smoothing algorithm: York/Karplus (Gamma=1.0000).
                        Polarization charges: spherical gaussians, with
                                              point-specific exponents (IZeta= 3).
                        Self-potential: point-specific (ISelfS= 7).
                        Self-field    : sphere-specific E.n sum rule (ISelfD= 2).
 1st derivatives      : Analytical E(r).r(x)/FMM algorithm (CHGder, D1EAlg=3).
                        Cavity 1st derivative terms included.
 Solvent              : Water, Eps=  78.355300 Eps(inf)=   1.777849
 ------------------------------------------------------------------------------
 GePol: Number of generator spheres                  =      33
 GePol: Total number of spheres                      =      33
 GePol: Number of exposed spheres                    =      33 (100.00%)
 GePol: Number of points                             =    2432
 GePol: Average weight of points                     =       0.13
 GePol: Minimum weight of points                     =   0.52D-11
 GePol: Maximum weight of points                     =    0.22001
 GePol: Number of points with low weight             =     142
 GePol: Fraction of low-weight points (<1% of avg)   =       5.84%
 GePol: Cavity surface area                          =    312.298 Ang**2
 GePol: Cavity volume                                =    295.494 Ang**3
 PCM non-electrostatic energy =         0.0020287450 Hartrees.
 Nuclear repulsion after PCM non-electrostatic terms =     1483.3629361492 Hartrees.
 Leave Link  301 at Mon Sep 28 08:11:45 2020, MaxMem=  2147483648 cpu:               0.5 elap:               0.1
 (Enter /prod/apps/gaussian/g16b1/l302.exe)
 NPDir=0 NMtPBC=     1 NCelOv=     1 NCel=       1 NClECP=     1 NCelD=      1
         NCelK=      1 NCelE2=     1 NClLst=     1 CellRange=     0.0.
 One-electron integrals computed using PRISM.
 NBasis=   304 RedAO= T EigKep=  4.63D-04  NBF=   304
 NBsUse=   304 1.00D-06 EigRej= -1.00D+00 NBFU=   304
 Precomputing XC quadrature grid using
 IXCGrd= 4 IRadAn=           5 IRanWt=          -1 IRanGd=           0 AccXCQ= 0.00D+00.
 Generated NRdTot=       0 NPtTot=           0 NUsed=           0 NTot=          32
 NSgBfM=   303   303   303   303   303 MxSgAt=    33 MxSgA2=    33.
 Leave Link  302 at Mon Sep 28 08:11:46 2020, MaxMem=  2147483648 cpu:               1.8 elap:               0.5
 (Enter /prod/apps/gaussian/g16b1/l303.exe)
 DipDrv:  MaxL=1.
 Leave Link  303 at Mon Sep 28 08:11:46 2020, MaxMem=  2147483648 cpu:               0.2 elap:               0.1
 (Enter /prod/apps/gaussian/g16b1/l401.exe)
 ExpMin= 1.17D-01 ExpMax= 2.19D+04 ExpMxC= 3.30D+03 IAcc=3 IRadAn=         5 AccDes= 0.00D+00
 Harris functional with IExCor=  402 and IRadAn=       5 diagonalized for initial guess.
 HarFok:  IExCor=  402 AccDes= 0.00D+00 IRadAn=         5 IDoV= 1 UseB2=F ITyADJ=14
 ICtDFT=  3500011 ScaDFX=  1.000000  1.000000  1.000000  1.000000
 FoFCou: FMM=F IPFlag=           0 FMFlag=      100000 FMFlg1=           0
         NFxFlg=           0 DoJE=T BraDBF=F KetDBF=T FulRan=T
         wScrn=  0.000000 ICntrl=       500 IOpCl=  0 I1Cent=   200000004 NGrid=           0
         NMat0=    1 NMatS0=      1 NMatT0=    0 NMatD0=    1 NMtDS0=    0 NMtDT0=    0
 Symmetry not used in FoFCou.
 Harris En= -1215.80271528790    
 JPrj=0 DoOrth=F DoCkMO=F.
 Leave Link  401 at Mon Sep 28 08:11:48 2020, MaxMem=  2147483648 cpu:               9.1 elap:               2.3
 (Enter /prod/apps/gaussian/g16b1/l502.exe)
 Two-electron integral symmetry not used.
 Closed shell SCF:
 Using DIIS extrapolation, IDIIS=  1040.
 NGot=  2147483648 LenX=  2147294283 LenY=  2147201426
 Requested convergence on RMS density matrix=1.00D-08 within2000 cycles.
 Requested convergence on MAX density matrix=1.00D-06.
 Requested convergence on             energy=1.00D-06.
 No special actions if energy rises.

 Cycle   1  Pass 1  IDiag  1:
 FoFJK:  IHMeth= 1 ICntrl=       0 DoSepK=F KAlg= 0 I1Cent=           0 FoldK=F
 IRaf= 750000000 NMat=       1 IRICut=       1 DoRegI=T DoRafI=F ISym2E= 0 IDoP0=0 IntGTp=1.
 FoFCou: FMM=F IPFlag=           0 FMFlag=      100000 FMFlg1=           0
         NFxFlg=           0 DoJE=F BraDBF=F KetDBF=F FulRan=T
         wScrn=  0.000000 ICntrl=         0 IOpCl=  0 I1Cent=           0 NGrid=           0
         NMat0=    1 NMatS0=      1 NMatT0=    0 NMatD0=    1 NMtDS0=    0 NMtDT0=    0
 Symmetry not used in FoFCou.
 Inv3:  Mode=1 IEnd=    17743872.
 Iteration    1 A*A^-1 deviation from unit magnitude is 3.33D-15 for   1272.
 Iteration    1 A*A^-1 deviation from orthogonality  is 2.33D-15 for   2190    995.
 Iteration    1 A^-1*A deviation from unit magnitude is 3.55D-15 for    419.
 Iteration    1 A^-1*A deviation from orthogonality  is 3.39D-15 for   2143   2080.
 E= -1215.32550635143    
 DIIS: error= 4.00D-02 at cycle   1 NSaved=   1.
 NSaved= 1 IEnMin= 1 EnMin= -1215.32550635143     IErMin= 1 ErrMin= 4.00D-02
 ErrMax= 4.00D-02  0.00D+00 EMaxC= 1.00D-01 BMatC= 6.18D-01 BMatP= 6.18D-01
 IDIUse=3 WtCom= 6.00D-01 WtEn= 4.00D-01
 Coeff-Com:  0.100D+01
 Coeff-En:   0.100D+01
 Coeff:      0.100D+01
 Gap=     0.345 Goal=   None    Shift=    0.000
 GapD=    0.345 DampG=1.000 DampE=0.500 DampFc=0.5000 IDamp=-1.
 Damping current iteration by 5.00D-01
 RMSDP=6.73D-03 MaxDP=6.83D-01              OVMax= 3.62D-01

 Cycle   2  Pass 1  IDiag  1:
 E= -1215.40466303841     Delta-E=       -0.079156686975 Rises=F Damp=T
 DIIS: error= 1.66D-02 at cycle   2 NSaved=   2.
 NSaved= 2 IEnMin= 2 EnMin= -1215.40466303841     IErMin= 2 ErrMin= 1.66D-02
 ErrMax= 1.66D-02  0.00D+00 EMaxC= 1.00D-01 BMatC= 1.33D-01 BMatP= 6.18D-01
 IDIUse=3 WtCom= 8.34D-01 WtEn= 1.66D-01
 Coeff-Com:  0.274D+00 0.726D+00
 Coeff-En:   0.433D+00 0.567D+00
 Coeff:      0.300D+00 0.700D+00
 Gap=     0.180 Goal=   None    Shift=    0.000
 RMSDP=1.99D-03 MaxDP=1.52D-01 DE=-7.92D-02 OVMax= 2.74D-01

 Cycle   3  Pass 1  IDiag  1:
 E= -1215.82493397969     Delta-E=       -0.420270941281 Rises=F Damp=F
 DIIS: error= 8.44D-03 at cycle   3 NSaved=   3.
 NSaved= 3 IEnMin= 3 EnMin= -1215.82493397969     IErMin= 3 ErrMin= 8.44D-03
 ErrMax= 8.44D-03  0.00D+00 EMaxC= 1.00D-01 BMatC= 5.28D-02 BMatP= 1.33D-01
 IDIUse=3 WtCom= 9.16D-01 WtEn= 8.44D-02
 Coeff-Com:  0.934D-01 0.390D+00 0.517D+00
 Coeff-En:   0.000D+00 0.000D+00 0.100D+01
 Coeff:      0.855D-01 0.357D+00 0.558D+00
 Gap=     0.173 Goal=   None    Shift=    0.000
 RMSDP=9.17D-04 MaxDP=3.56D-02 DE=-4.20D-01 OVMax= 6.31D-02

 Cycle   4  Pass 1  IDiag  1:
 E= -1215.86356400242     Delta-E=       -0.038630022733 Rises=F Damp=F
 DIIS: error= 3.00D-03 at cycle   4 NSaved=   4.
 NSaved= 4 IEnMin= 4 EnMin= -1215.86356400242     IErMin= 4 ErrMin= 3.00D-03
 ErrMax= 3.00D-03  0.00D+00 EMaxC= 1.00D-01 BMatC= 8.66D-03 BMatP= 5.28D-02
 IDIUse=3 WtCom= 9.70D-01 WtEn= 3.00D-02
 Coeff-Com:  0.462D-02 0.937D-01 0.305D+00 0.596D+00
 Coeff-En:   0.000D+00 0.000D+00 0.129D+00 0.871D+00
 Coeff:      0.448D-02 0.909D-01 0.300D+00 0.604D+00
 Gap=     0.169 Goal=   None    Shift=    0.000
 RMSDP=3.35D-04 MaxDP=1.50D-02 DE=-3.86D-02 OVMax= 3.01D-02

 Cycle   5  Pass 1  IDiag  1:
 E= -1215.87028984268     Delta-E=       -0.006725840256 Rises=F Damp=F
 DIIS: error= 9.71D-04 at cycle   5 NSaved=   5.
 NSaved= 5 IEnMin= 5 EnMin= -1215.87028984268     IErMin= 5 ErrMin= 9.71D-04
 ErrMax= 9.71D-04  0.00D+00 EMaxC= 1.00D-01 BMatC= 1.00D-03 BMatP= 8.66D-03
 IDIUse=3 WtCom= 9.90D-01 WtEn= 9.71D-03
 Coeff-Com: -0.656D-02 0.230D-01 0.125D+00 0.348D+00 0.510D+00
 Coeff-En:   0.000D+00 0.000D+00 0.000D+00 0.357D-01 0.964D+00
 Coeff:     -0.650D-02 0.228D-01 0.124D+00 0.345D+00 0.514D+00
 Gap=     0.170 Goal=   None    Shift=    0.000
 RMSDP=1.12D-04 MaxDP=6.23D-03 DE=-6.73D-03 OVMax= 1.31D-02

 Cycle   6  Pass 1  IDiag  1:
 E= -1215.87109449235     Delta-E=       -0.000804649676 Rises=F Damp=F
 DIIS: error= 2.69D-04 at cycle   6 NSaved=   6.
 NSaved= 6 IEnMin= 6 EnMin= -1215.87109449235     IErMin= 6 ErrMin= 2.69D-04
 ErrMax= 2.69D-04  0.00D+00 EMaxC= 1.00D-01 BMatC= 7.82D-05 BMatP= 1.00D-03
 IDIUse=3 WtCom= 9.97D-01 WtEn= 2.69D-03
 Coeff-Com: -0.409D-02 0.577D-02 0.377D-01 0.125D+00 0.278D+00 0.558D+00
 Coeff-En:   0.000D+00 0.000D+00 0.000D+00 0.000D+00 0.000D+00 0.100D+01
 Coeff:     -0.408D-02 0.576D-02 0.376D-01 0.124D+00 0.278D+00 0.559D+00
 Gap=     0.170 Goal=   None    Shift=    0.000
 RMSDP=3.04D-05 MaxDP=1.76D-03 DE=-8.05D-04 OVMax= 3.06D-03

 Cycle   7  Pass 1  IDiag  1:
 E= -1215.87115698638     Delta-E=       -0.000062494023 Rises=F Damp=F
 DIIS: error= 8.56D-05 at cycle   7 NSaved=   7.
 NSaved= 7 IEnMin= 7 EnMin= -1215.87115698638     IErMin= 7 ErrMin= 8.56D-05
 ErrMax= 8.56D-05  0.00D+00 EMaxC= 1.00D-01 BMatC= 7.83D-06 BMatP= 7.82D-05
 IDIUse=1 WtCom= 1.00D+00 WtEn= 0.00D+00
 Coeff-Com: -0.200D-02 0.136D-02 0.106D-01 0.410D-01 0.113D+00 0.320D+00
 Coeff-Com:  0.516D+00
 Coeff:     -0.200D-02 0.136D-02 0.106D-01 0.410D-01 0.113D+00 0.320D+00
 Coeff:      0.516D+00
 Gap=     0.170 Goal=   None    Shift=    0.000
 RMSDP=8.30D-06 MaxDP=4.28D-04 DE=-6.25D-05 OVMax= 4.18D-04

 Cycle   8  Pass 1  IDiag  1:
 E= -1215.87116300878     Delta-E=       -0.000006022409 Rises=F Damp=F
 DIIS: error= 4.50D-05 at cycle   8 NSaved=   8.
 NSaved= 8 IEnMin= 8 EnMin= -1215.87116300878     IErMin= 8 ErrMin= 4.50D-05
 ErrMax= 4.50D-05  0.00D+00 EMaxC= 1.00D-01 BMatC= 4.76D-07 BMatP= 7.83D-06
 IDIUse=1 WtCom= 1.00D+00 WtEn= 0.00D+00
 Coeff-Com: -0.543D-03 0.928D-04 0.457D-03 0.455D-02 0.212D-01 0.973D-01
 Coeff-Com:  0.241D+00 0.636D+00
 Coeff:     -0.543D-03 0.928D-04 0.457D-03 0.455D-02 0.212D-01 0.973D-01
 Coeff:      0.241D+00 0.636D+00
 Gap=     0.170 Goal=   None    Shift=    0.000
 RMSDP=2.45D-06 MaxDP=1.11D-04 DE=-6.02D-06 OVMax= 1.31D-04

 Cycle   9  Pass 1  IDiag  1:
 E= -1215.87116335293     Delta-E=       -0.000000344144 Rises=F Damp=F
 DIIS: error= 1.05D-05 at cycle   9 NSaved=   9.
 NSaved= 9 IEnMin= 9 EnMin= -1215.87116335293     IErMin= 9 ErrMin= 1.05D-05
 ErrMax= 1.05D-05  0.00D+00 EMaxC= 1.00D-01 BMatC= 8.10D-08 BMatP= 4.76D-07
 IDIUse=1 WtCom= 1.00D+00 WtEn= 0.00D+00
 Coeff-Com: -0.962D-04-0.296D-04-0.847D-03-0.182D-02-0.544D-03 0.200D-01
 Coeff-Com:  0.717D-01 0.345D+00 0.566D+00
 Coeff:     -0.962D-04-0.296D-04-0.847D-03-0.182D-02-0.544D-03 0.200D-01
 Coeff:      0.717D-01 0.345D+00 0.566D+00
 Gap=     0.170 Goal=   None    Shift=    0.000
 RMSDP=1.00D-06 MaxDP=4.43D-05 DE=-3.44D-07 OVMax= 7.12D-05

 Cycle  10  Pass 1  IDiag  1:
 E= -1215.87116341019     Delta-E=       -0.000000057262 Rises=F Damp=F
 DIIS: error= 6.21D-06 at cycle  10 NSaved=  10.
 NSaved=10 IEnMin=10 EnMin= -1215.87116341019     IErMin=10 ErrMin= 6.21D-06
 ErrMax= 6.21D-06  0.00D+00 EMaxC= 1.00D-01 BMatC= 1.39D-08 BMatP= 8.10D-08
 IDIUse=1 WtCom= 1.00D+00 WtEn= 0.00D+00
 Coeff-Com: -0.155D-04-0.203D-04-0.574D-03-0.156D-02-0.247D-02 0.324D-02
 Coeff-Com:  0.204D-01 0.153D+00 0.356D+00 0.472D+00
 Coeff:     -0.155D-04-0.203D-04-0.574D-03-0.156D-02-0.247D-02 0.324D-02
 Coeff:      0.204D-01 0.153D+00 0.356D+00 0.472D+00
 Gap=     0.170 Goal=   None    Shift=    0.000
 RMSDP=3.56D-07 MaxDP=2.23D-05 DE=-5.73D-08 OVMax= 2.56D-05

 Cycle  11  Pass 1  IDiag  1:
 E= -1215.87116342049     Delta-E=       -0.000000010303 Rises=F Damp=F
 DIIS: error= 8.87D-07 at cycle  11 NSaved=  11.
 NSaved=11 IEnMin=11 EnMin= -1215.87116342049     IErMin=11 ErrMin= 8.87D-07
 ErrMax= 8.87D-07  0.00D+00 EMaxC= 1.00D-01 BMatC= 6.93D-10 BMatP= 1.39D-08
 IDIUse=1 WtCom= 1.00D+00 WtEn= 0.00D+00
 Coeff-Com:  0.172D-05-0.293D-05-0.196D-03-0.564D-03-0.125D-02-0.732D-03
 Coeff-Com:  0.747D-03 0.329D-01 0.105D+00 0.216D+00 0.648D+00
 Coeff:      0.172D-05-0.293D-05-0.196D-03-0.564D-03-0.125D-02-0.732D-03
 Coeff:      0.747D-03 0.329D-01 0.105D+00 0.216D+00 0.648D+00
 Gap=     0.170 Goal=   None    Shift=    0.000
 RMSDP=9.80D-08 MaxDP=4.09D-06 DE=-1.03D-08 OVMax= 5.92D-06

 Cycle  12  Pass 1  IDiag  1:
 E= -1215.87116342096     Delta-E=       -0.000000000464 Rises=F Damp=F
 DIIS: error= 3.63D-07 at cycle  12 NSaved=  12.
 NSaved=12 IEnMin=12 EnMin= -1215.87116342096     IErMin=12 ErrMin= 3.63D-07
 ErrMax= 3.63D-07  0.00D+00 EMaxC= 1.00D-01 BMatC= 1.51D-10 BMatP= 6.93D-10
 IDIUse=1 WtCom= 1.00D+00 WtEn= 0.00D+00
 Coeff-Com:  0.271D-05 0.272D-05-0.379D-04-0.116D-03-0.413D-03-0.827D-03
 Coeff-Com: -0.246D-02-0.178D-02 0.124D-01 0.585D-01 0.378D+00 0.557D+00
 Coeff:      0.271D-05 0.272D-05-0.379D-04-0.116D-03-0.413D-03-0.827D-03
 Coeff:     -0.246D-02-0.178D-02 0.124D-01 0.585D-01 0.378D+00 0.557D+00
 Gap=     0.170 Goal=   None    Shift=    0.000
 RMSDP=3.99D-08 MaxDP=1.89D-06 DE=-4.64D-10 OVMax= 2.67D-06

 Cycle  13  Pass 1  IDiag  1:
 E= -1215.87116342110     Delta-E=       -0.000000000138 Rises=F Damp=F
 DIIS: error= 8.34D-08 at cycle  13 NSaved=  13.
 NSaved=13 IEnMin=13 EnMin= -1215.87116342110     IErMin=13 ErrMin= 8.34D-08
 ErrMax= 8.34D-08  0.00D+00 EMaxC= 1.00D-01 BMatC= 3.89D-12 BMatP= 1.51D-10
 IDIUse=1 WtCom= 1.00D+00 WtEn= 0.00D+00
 Coeff-Com:  0.571D-06 0.110D-05-0.199D-05-0.571D-05-0.693D-04-0.213D-03
 Coeff-Com: -0.872D-03-0.259D-02-0.219D-02 0.686D-02 0.877D-01 0.199D+00
 Coeff-Com:  0.712D+00
 Coeff:      0.571D-06 0.110D-05-0.199D-05-0.571D-05-0.693D-04-0.213D-03
 Coeff:     -0.872D-03-0.259D-02-0.219D-02 0.686D-02 0.877D-01 0.199D+00
 Coeff:      0.712D+00
 Gap=     0.170 Goal=   None    Shift=    0.000
 RMSDP=9.24D-09 MaxDP=4.34D-07 DE=-1.38D-10 OVMax= 9.24D-07

 Error on total polarization charges =  0.01847
 SCF Done:  E(RB3LYP) =  -1215.87116342     A.U. after   13 cycles
            NFock= 13  Conv=0.92D-08     -V/T= 2.0078
 KE= 1.206446592750D+03 PE=-5.771673793574D+03 EE= 1.865993101254D+03
 Leave Link  502 at Mon Sep 28 08:12:52 2020, MaxMem=  2147483648 cpu:             254.0 elap:              63.6
 (Enter /prod/apps/gaussian/g16b1/l601.exe)
 Copying SCF densities to generalized density rwf, IOpCl= 0 IROHF=0.

 **********************************************************************

            Population analysis using the SCF Density.

 **********************************************************************

 Alpha  occ. eigenvalues --  -89.20788 -19.30704 -19.22955 -19.22704 -14.49671
 Alpha  occ. eigenvalues --  -14.49432 -14.45859 -10.36059 -10.32169 -10.25970
 Alpha  occ. eigenvalues --  -10.25876 -10.24439 -10.23386 -10.21761 -10.21628
 Alpha  occ. eigenvalues --  -10.21142 -10.20772 -10.20753  -8.23100  -6.19579
 Alpha  occ. eigenvalues --   -6.19543  -6.19448  -1.23042  -1.20337  -1.09288
 Alpha  occ. eigenvalues --   -1.03343  -1.02405  -0.94848  -0.88940  -0.86296
 Alpha  occ. eigenvalues --   -0.78481  -0.77199  -0.76891  -0.76057  -0.71873
 Alpha  occ. eigenvalues --   -0.70666  -0.67966  -0.63749  -0.62565  -0.61559
 Alpha  occ. eigenvalues --   -0.60825  -0.58262  -0.56293  -0.55661  -0.54768
 Alpha  occ. eigenvalues --   -0.54317  -0.52881  -0.50585  -0.50230  -0.49101
 Alpha  occ. eigenvalues --   -0.47157  -0.47041  -0.45821  -0.44814  -0.44452
 Alpha  occ. eigenvalues --   -0.43883  -0.43689  -0.43542  -0.43107  -0.41808
 Alpha  occ. eigenvalues --   -0.39881  -0.39575  -0.38670  -0.38249  -0.37301
 Alpha  occ. eigenvalues --   -0.36261  -0.34274  -0.32067  -0.27235  -0.26417
 Alpha virt. eigenvalues --   -0.09404  -0.05758  -0.02840  -0.01776   0.01523
 Alpha virt. eigenvalues --    0.01822   0.02981   0.04246   0.04653   0.05773
 Alpha virt. eigenvalues --    0.08045   0.08815   0.09480   0.10476   0.11159
 Alpha virt. eigenvalues --    0.12255   0.12975   0.13942   0.14244   0.14706
 Alpha virt. eigenvalues --    0.14901   0.15433   0.16084   0.16483   0.17630
 Alpha virt. eigenvalues --    0.17850   0.18701   0.20395   0.23177   0.23704
 Alpha virt. eigenvalues --    0.27380   0.27654   0.29042   0.29893   0.31327
 Alpha virt. eigenvalues --    0.33725   0.34604   0.36506   0.39176   0.41579
 Alpha virt. eigenvalues --    0.42941   0.44709   0.45113   0.46596   0.48264
 Alpha virt. eigenvalues --    0.49472   0.50303   0.51138   0.51827   0.52033
 Alpha virt. eigenvalues --    0.53069   0.54025   0.54490   0.55672   0.56199
 Alpha virt. eigenvalues --    0.56626   0.56932   0.58023   0.58214   0.60158
 Alpha virt. eigenvalues --    0.60301   0.61347   0.61518   0.62436   0.63418
 Alpha virt. eigenvalues --    0.65085   0.66573   0.68598   0.68982   0.70256
 Alpha virt. eigenvalues --    0.73215   0.73637   0.73964   0.75752   0.75880
 Alpha virt. eigenvalues --    0.76847   0.78463   0.79356   0.80523   0.81192
 Alpha virt. eigenvalues --    0.82116   0.82789   0.83718   0.83980   0.84618
 Alpha virt. eigenvalues --    0.85067   0.85978   0.86746   0.88760   0.88970
 Alpha virt. eigenvalues --    0.89649   0.90302   0.91616   0.92904   0.93420
 Alpha virt. eigenvalues --    0.93834   0.95178   0.95527   0.96629   0.97099
 Alpha virt. eigenvalues --    0.98984   0.99773   1.01202   1.02507   1.03850
 Alpha virt. eigenvalues --    1.06365   1.08034   1.08848   1.11228   1.11708
 Alpha virt. eigenvalues --    1.12991   1.14722   1.15502   1.16897   1.18472
 Alpha virt. eigenvalues --    1.21487   1.22885   1.23509   1.26022   1.27785
 Alpha virt. eigenvalues --    1.29436   1.29476   1.32244   1.32720   1.35380
 Alpha virt. eigenvalues --    1.36909   1.38802   1.41182   1.41607   1.44154
 Alpha virt. eigenvalues --    1.44542   1.45256   1.46857   1.47161   1.47660
 Alpha virt. eigenvalues --    1.48825   1.51680   1.54633   1.59250   1.65515
 Alpha virt. eigenvalues --    1.68367   1.70360   1.70572   1.72419   1.73664
 Alpha virt. eigenvalues --    1.74338   1.76296   1.77403   1.78236   1.78894
 Alpha virt. eigenvalues --    1.80360   1.81842   1.86072   1.87210   1.87791
 Alpha virt. eigenvalues --    1.88673   1.89968   1.91194   1.92134   1.92501
 Alpha virt. eigenvalues --    1.93572   1.96209   1.97251   1.98852   2.00460
 Alpha virt. eigenvalues --    2.01264   2.01462   2.04694   2.05312   2.06487
 Alpha virt. eigenvalues --    2.07370   2.10843   2.12010   2.12463   2.14425
 Alpha virt. eigenvalues --    2.15344   2.15913   2.18112   2.19529   2.20451
 Alpha virt. eigenvalues --    2.21686   2.22961   2.24963   2.25525   2.28872
 Alpha virt. eigenvalues --    2.29785   2.30694   2.31778   2.33024   2.38608
 Alpha virt. eigenvalues --    2.40134   2.44917   2.48820   2.50082   2.52792
 Alpha virt. eigenvalues --    2.53198   2.56909   2.57228   2.60543   2.63312
 Alpha virt. eigenvalues --    2.64395   2.65642   2.68924   2.71498   2.72541
 Alpha virt. eigenvalues --    2.73463   2.75971   2.78092   2.85789   2.88125
 Alpha virt. eigenvalues --    2.90576   2.98038   3.02621   3.10177   3.26040
 Alpha virt. eigenvalues --    3.41596   3.72532   3.82017   3.88116   3.97364
 Alpha virt. eigenvalues --    4.01174   4.05645   4.07558   4.09301   4.09871
 Alpha virt. eigenvalues --    4.11622   4.20071   4.25645   4.27293   4.30424
 Alpha virt. eigenvalues --    4.35649   4.38594   4.55400   4.72414
          Condensed to atoms (all electrons):
               1          2          3          4          5          6
     1  O    8.168209   0.426589  -0.050909   0.004790  -0.001668   0.000111
     2  S    0.426589  13.495083   0.152414  -0.011177  -0.005821   0.000240
     3  N   -0.050909   0.152414   7.370445   0.252030  -0.067541   0.004102
     4  C    0.004790  -0.011177   0.252030   4.353103   0.306230  -0.034008
     5  N   -0.001668  -0.005821  -0.067541   0.306230   6.704183   0.158688
     6  O    0.000111   0.000240   0.004102  -0.034008   0.158688   8.106211
     7  C   -0.000035  -0.000056   0.000284   0.009281  -0.098643   0.245306
     8  C   -0.000000  -0.000004  -0.000204   0.001192   0.004757  -0.030462
     9  C    0.000000   0.000000   0.000004   0.000960  -0.000154   0.003179
    10  C    0.000000   0.000000  -0.000000  -0.000011   0.000002  -0.000067
    11  C   -0.000000  -0.000000   0.000000   0.000000  -0.000000   0.000003
    12  C    0.000000  -0.000000  -0.000000   0.000006   0.000001   0.000191
    13  C    0.000000  -0.000000  -0.000000  -0.000571   0.000362  -0.008915
    14  C    0.000392   0.001181  -0.048342   0.463475  -0.027190  -0.077839
    15  N   -0.043190   0.113195  -0.046952  -0.000034   0.000026  -0.000000
    16  C    0.000959  -0.012820   0.001323   0.000483  -0.000004  -0.000000
    17  C    0.000304  -0.011303   0.000905   0.000392  -0.000128   0.000001
    18  O   -0.031691   0.460300  -0.047456   0.000165   0.000018   0.000000
    19  H    0.000642  -0.007581   0.289254  -0.012323   0.001883  -0.000020
    20  H    0.000000  -0.000000  -0.000001   0.000148  -0.000009   0.000034
    21  H   -0.000000  -0.000000  -0.000000   0.000000  -0.000000   0.000000
    22  H   -0.000000  -0.000000  -0.000000  -0.000000  -0.000000   0.000000
    23  H    0.000000  -0.000000   0.000000  -0.000000   0.000000  -0.000002
    24  H    0.000000  -0.000000  -0.000000   0.000017  -0.000151   0.006761
    25  H    0.000001  -0.000039  -0.002725  -0.025817   0.004227   0.002539
    26  H    0.000026   0.001511  -0.000594  -0.000026  -0.000000   0.000000
    27  H   -0.000039   0.001625   0.000038  -0.000007  -0.000000   0.000000
    28  H    0.000000  -0.006166   0.004591   0.000406  -0.000015   0.000000
    29  H    0.006483  -0.003161  -0.000094  -0.000002   0.000045  -0.000001
    30  H   -0.000464  -0.004079   0.002748   0.000536   0.000469  -0.000008
    31  H    0.000124   0.001908  -0.000081  -0.000018   0.000017  -0.000000
    32  H   -0.000100  -0.008607   0.001133   0.000013  -0.000004   0.000000
    33  H    0.007701   0.000625  -0.000799  -0.023622   0.303380  -0.018683
               7          8          9         10         11         12
     1  O   -0.000035  -0.000000   0.000000   0.000000  -0.000000   0.000000
     2  S   -0.000056  -0.000004   0.000000   0.000000  -0.000000  -0.000000
     3  N    0.000284  -0.000204   0.000004  -0.000000   0.000000  -0.000000
     4  C    0.009281   0.001192   0.000960  -0.000011   0.000000   0.000006
     5  N   -0.098643   0.004757  -0.000154   0.000002  -0.000000   0.000001
     6  O    0.245306  -0.030462   0.003179  -0.000067   0.000003   0.000191
     7  C    4.684677   0.370104  -0.040953   0.006627   0.000929   0.004942
     8  C    0.370104   4.762324   0.533658  -0.011326  -0.033154  -0.008965
     9  C   -0.040953   0.533658   4.979104   0.520897  -0.039232  -0.040344
    10  C    0.006627  -0.011326   0.520897   4.872336   0.536814  -0.025222
    11  C    0.000929  -0.033154  -0.039232   0.536814   4.858760   0.535763
    12  C    0.004942  -0.008965  -0.040344  -0.025222   0.535763   4.873550
    13  C   -0.038668   0.470847  -0.076306  -0.041260  -0.037744   0.512949
    14  C    0.462477  -0.055580  -0.017890   0.000255   0.000013  -0.000230
    15  N    0.000001  -0.000000  -0.000000   0.000000   0.000000  -0.000000
    16  C   -0.000000   0.000000  -0.000000  -0.000000   0.000000  -0.000000
    17  C   -0.000001   0.000000  -0.000000   0.000000   0.000000   0.000000
    18  O   -0.000000  -0.000000  -0.000000  -0.000000   0.000000  -0.000000
    19  H    0.000023  -0.000001  -0.000000   0.000000  -0.000000  -0.000000
    20  H   -0.012303  -0.037841   0.359187  -0.037854   0.004354   0.000156
    21  H   -0.000219   0.003241  -0.036472   0.364541  -0.039489   0.004230
    22  H    0.000002   0.000450   0.004854  -0.040808   0.365597  -0.040527
    23  H   -0.000179   0.003162   0.000747   0.004252  -0.039427   0.365046
    24  H   -0.012002  -0.042846   0.004794   0.000187   0.004362  -0.037036
    25  H   -0.021954  -0.003614   0.001073   0.000077  -0.000001   0.000001
    26  H   -0.000000  -0.000000   0.000000   0.000000  -0.000000  -0.000000
    27  H    0.000000  -0.000000   0.000000  -0.000000  -0.000000  -0.000000
    28  H    0.000001   0.000000  -0.000000  -0.000000   0.000000  -0.000000
    29  H   -0.000000  -0.000000  -0.000000  -0.000000   0.000000   0.000000
    30  H   -0.000004   0.000000   0.000000  -0.000000  -0.000000  -0.000000
    31  H   -0.000000  -0.000000   0.000000  -0.000000  -0.000000  -0.000000
    32  H    0.000000   0.000000  -0.000000  -0.000000   0.000000   0.000000
    33  H    0.002487  -0.000000   0.000001  -0.000000   0.000000  -0.000000
              13         14         15         16         17         18
     1  O    0.000000   0.000392  -0.043190   0.000959   0.000304  -0.031691
     2  S   -0.000000   0.001181   0.113195  -0.012820  -0.011303   0.460300
     3  N   -0.000000  -0.048342  -0.046952   0.001323   0.000905  -0.047456
     4  C   -0.000571   0.463475  -0.000034   0.000483   0.000392   0.000165
     5  N    0.000362  -0.027190   0.000026  -0.000004  -0.000128   0.000018
     6  O   -0.008915  -0.077839  -0.000000  -0.000000   0.000001   0.000000
     7  C   -0.038668   0.462477   0.000001  -0.000000  -0.000001  -0.000000
     8  C    0.470847  -0.055580  -0.000000   0.000000   0.000000  -0.000000
     9  C   -0.076306  -0.017890  -0.000000  -0.000000  -0.000000  -0.000000
    10  C   -0.041260   0.000255   0.000000  -0.000000   0.000000  -0.000000
    11  C   -0.037744   0.000013   0.000000   0.000000   0.000000   0.000000
    12  C    0.512949  -0.000230  -0.000000  -0.000000   0.000000  -0.000000
    13  C    5.024886   0.011174   0.000000   0.000000   0.000000   0.000000
    14  C    0.011174   5.182022  -0.000035  -0.000002   0.000034  -0.000047
    15  N    0.000000  -0.000035   7.108219   0.204226   0.203648  -0.046028
    16  C    0.000000  -0.000002   0.204226   5.080459  -0.039965  -0.002073
    17  C    0.000000   0.000034   0.203648  -0.039965   5.076634   0.001155
    18  O    0.000000  -0.000047  -0.046028  -0.002073   0.001155   8.125959
    19  H    0.000000  -0.002987   0.000305  -0.000120   0.000069   0.001031
    20  H    0.004999   0.005774  -0.000000   0.000000   0.000000  -0.000000
    21  H    0.000779   0.000000  -0.000000   0.000000   0.000000   0.000000
    22  H    0.004753  -0.000000   0.000000   0.000000  -0.000000  -0.000000
    23  H   -0.036597   0.000001   0.000000   0.000000  -0.000000   0.000000
    24  H    0.364621   0.000177  -0.000000   0.000000   0.000000  -0.000000
    25  H   -0.000045   0.363307  -0.000000   0.000001   0.000000  -0.000001
    26  H    0.000000   0.000002  -0.029013   0.374801   0.003341   0.005769
    27  H    0.000000  -0.000000  -0.025012   0.375989  -0.002029   0.000008
    28  H   -0.000000  -0.000006  -0.032205   0.380840  -0.001521  -0.000098
    29  H   -0.000000   0.000000  -0.027312   0.003398   0.376104   0.000004
    30  H    0.000000  -0.000048  -0.031357  -0.001939   0.379966  -0.000018
    31  H    0.000000  -0.000000  -0.024605  -0.001920   0.374157  -0.000043
    32  H   -0.000000   0.000000   0.280889  -0.018939  -0.018278   0.001369
    33  H    0.000002   0.003598  -0.000074   0.000000   0.000362   0.000009
              19         20         21         22         23         24
     1  O    0.000642   0.000000  -0.000000  -0.000000   0.000000   0.000000
     2  S   -0.007581  -0.000000  -0.000000  -0.000000  -0.000000  -0.000000
     3  N    0.289254  -0.000001  -0.000000  -0.000000   0.000000  -0.000000
     4  C   -0.012323   0.000148   0.000000  -0.000000  -0.000000   0.000017
     5  N    0.001883  -0.000009  -0.000000  -0.000000   0.000000  -0.000151
     6  O   -0.000020   0.000034   0.000000   0.000000  -0.000002   0.006761
     7  C    0.000023  -0.012303  -0.000219   0.000002  -0.000179  -0.012002
     8  C   -0.000001  -0.037841   0.003241   0.000450   0.003162  -0.042846
     9  C   -0.000000   0.359187  -0.036472   0.004854   0.000747   0.004794
    10  C    0.000000  -0.037854   0.364541  -0.040808   0.004252   0.000187
    11  C   -0.000000   0.004354  -0.039489   0.365597  -0.039427   0.004362
    12  C   -0.000000   0.000156   0.004230  -0.040527   0.365046  -0.037036
    13  C    0.000000   0.004999   0.000779   0.004753  -0.036597   0.364621
    14  C   -0.002987   0.005774   0.000000  -0.000000   0.000001   0.000177
    15  N    0.000305  -0.000000  -0.000000   0.000000   0.000000  -0.000000
    16  C   -0.000120   0.000000   0.000000   0.000000   0.000000   0.000000
    17  C    0.000069   0.000000   0.000000  -0.000000  -0.000000   0.000000
    18  O    0.001031  -0.000000   0.000000  -0.000000   0.000000  -0.000000
    19  H    0.237507   0.000000   0.000000   0.000000   0.000000   0.000000
    20  H    0.000000   0.536547  -0.004654  -0.000147   0.000014  -0.000125
    21  H    0.000000  -0.004654   0.542144  -0.005004  -0.000150   0.000014
    22  H    0.000000  -0.000147  -0.005004   0.544779  -0.004967  -0.000145
    23  H    0.000000   0.000014  -0.000150  -0.004967   0.542020  -0.004700
    24  H    0.000000  -0.000125   0.000014  -0.000145  -0.004700   0.535088
    25  H    0.001398   0.001842  -0.000002  -0.000000   0.000000  -0.000005
    26  H    0.000080   0.000000  -0.000000  -0.000000   0.000000   0.000000
    27  H   -0.000005  -0.000000  -0.000000   0.000000   0.000000  -0.000000
    28  H    0.000270  -0.000000   0.000000   0.000000  -0.000000   0.000000
    29  H   -0.000006  -0.000000   0.000000   0.000000  -0.000000  -0.000000
    30  H    0.000002   0.000000   0.000000   0.000000  -0.000000  -0.000000
    31  H    0.000000  -0.000000   0.000000  -0.000000   0.000000  -0.000000
    32  H    0.000002  -0.000000  -0.000000   0.000000  -0.000000   0.000000
    33  H   -0.000046   0.000000   0.000000  -0.000000   0.000000   0.000006
              25         26         27         28         29         30
     1  O    0.000001   0.000026  -0.000039   0.000000   0.006483  -0.000464
     2  S   -0.000039   0.001511   0.001625  -0.006166  -0.003161  -0.004079
     3  N   -0.002725  -0.000594   0.000038   0.004591  -0.000094   0.002748
     4  C   -0.025817  -0.000026  -0.000007   0.000406  -0.000002   0.000536
     5  N    0.004227  -0.000000  -0.000000  -0.000015   0.000045   0.000469
     6  O    0.002539   0.000000   0.000000   0.000000  -0.000001  -0.000008
     7  C   -0.021954  -0.000000   0.000000   0.000001  -0.000000  -0.000004
     8  C   -0.003614  -0.000000  -0.000000   0.000000  -0.000000   0.000000
     9  C    0.001073   0.000000   0.000000  -0.000000  -0.000000   0.000000
    10  C    0.000077   0.000000  -0.000000  -0.000000  -0.000000  -0.000000
    11  C   -0.000001  -0.000000  -0.000000   0.000000   0.000000  -0.000000
    12  C    0.000001  -0.000000  -0.000000  -0.000000   0.000000  -0.000000
    13  C   -0.000045   0.000000   0.000000  -0.000000  -0.000000   0.000000
    14  C    0.363307   0.000002  -0.000000  -0.000006   0.000000  -0.000048
    15  N   -0.000000  -0.029013  -0.025012  -0.032205  -0.027312  -0.031357
    16  C    0.000001   0.374801   0.375989   0.380840   0.003398  -0.001939
    17  C    0.000000   0.003341  -0.002029  -0.001521   0.376104   0.379966
    18  O   -0.000001   0.005769   0.000008  -0.000098   0.000004  -0.000018
    19  H    0.001398   0.000080  -0.000005   0.000270  -0.000006   0.000002
    20  H    0.001842   0.000000  -0.000000  -0.000000  -0.000000   0.000000
    21  H   -0.000002  -0.000000  -0.000000   0.000000   0.000000   0.000000
    22  H   -0.000000  -0.000000   0.000000   0.000000   0.000000   0.000000
    23  H    0.000000   0.000000   0.000000  -0.000000  -0.000000  -0.000000
    24  H   -0.000005   0.000000  -0.000000   0.000000  -0.000000  -0.000000
    25  H    0.435734   0.000000  -0.000000   0.000002   0.000000   0.000000
    26  H    0.000000   0.446454  -0.019010  -0.021588  -0.000149   0.000002
    27  H   -0.000000  -0.019010   0.445545  -0.021084  -0.000029  -0.000463
    28  H    0.000002  -0.021588  -0.021084   0.453395  -0.000012   0.003596
    29  H    0.000000  -0.000149  -0.000029  -0.000012   0.446835  -0.021928
    30  H    0.000000   0.000002  -0.000463   0.003596  -0.021928   0.455307
    31  H   -0.000000  -0.000060   0.002564  -0.000478  -0.018825  -0.021292
    32  H    0.000000  -0.001681  -0.002733   0.002808  -0.001631   0.002719
    33  H   -0.000056  -0.000000  -0.000000   0.000001   0.000358   0.000112
              31         32         33
     1  O    0.000124  -0.000100   0.007701
     2  S    0.001908  -0.008607   0.000625
     3  N   -0.000081   0.001133  -0.000799
     4  C   -0.000018   0.000013  -0.023622
     5  N    0.000017  -0.000004   0.303380
     6  O   -0.000000   0.000000  -0.018683
     7  C   -0.000000   0.000000   0.002487
     8  C   -0.000000   0.000000  -0.000000
     9  C    0.000000  -0.000000   0.000001
    10  C   -0.000000  -0.000000  -0.000000
    11  C   -0.000000   0.000000   0.000000
    12  C   -0.000000   0.000000  -0.000000
    13  C    0.000000  -0.000000   0.000002
    14  C   -0.000000   0.000000   0.003598
    15  N   -0.024605   0.280889  -0.000074
    16  C   -0.001920  -0.018939   0.000000
    17  C    0.374157  -0.018278   0.000362
    18  O   -0.000043   0.001369   0.000009
    19  H    0.000000   0.000002  -0.000046
    20  H   -0.000000  -0.000000   0.000000
    21  H    0.000000  -0.000000   0.000000
    22  H   -0.000000   0.000000  -0.000000
    23  H    0.000000  -0.000000   0.000000
    24  H   -0.000000   0.000000   0.000006
    25  H   -0.000000   0.000000  -0.000056
    26  H   -0.000060  -0.001681  -0.000000
    27  H    0.002564  -0.002733  -0.000000
    28  H   -0.000478   0.002808   0.000001
    29  H   -0.018825  -0.001631   0.000358
    30  H   -0.021292   0.002719   0.000112
    31  H    0.448176  -0.003094  -0.000000
    32  H   -0.003094   0.250374   0.000004
    33  H   -0.000000   0.000004   0.241885
 Mulliken charges:
               1
     1  O   -0.488237
     2  S    1.416140
     3  N   -0.813575
     4  C    0.714390
     5  N   -0.282960
     6  O   -0.357363
     7  C    0.437875
     8  C    0.074261
     9  C   -0.157108
    10  C   -0.149439
    11  C   -0.117550
    12  C   -0.144510
    13  C   -0.155265
    14  C   -0.263686
    15  N   -0.604691
    16  C   -0.344697
    17  C   -0.343850
    18  O   -0.468334
    19  H    0.490621
    20  H    0.179877
    21  H    0.171041
    22  H    0.171163
    23  H    0.170780
    24  H    0.180983
    25  H    0.244058
    26  H    0.240135
    27  H    0.244642
    28  H    0.237263
    29  H    0.239923
    30  H    0.236143
    31  H    0.243467
    32  H    0.515757
    33  H    0.482749
 Sum of Mulliken charges =   2.00000
 Mulliken charges with hydrogens summed into heavy atoms:
               1
     1  O   -0.488237
     2  S    1.416140
     3  N   -0.322955
     4  C    0.714390
     5  N    0.199788
     6  O   -0.357363
     7  C    0.437875
     8  C    0.074261
     9  C    0.022770
    10  C    0.021602
    11  C    0.053613
    12  C    0.026270
    13  C    0.025718
    14  C   -0.019628
    15  N   -0.088935
    16  C    0.377342
    17  C    0.375683
    18  O   -0.468334
 Electronic spatial extent (au):  <R**2>=           7220.6641
 Charge=              2.0000 electrons
 Dipole moment (field-independent basis, Debye):
    X=            -13.9520    Y=              3.2572    Z=              4.9124  Tot=             15.1460
 Quadrupole moment (field-independent basis, Debye-Ang):
   XX=              7.8195   YY=            -86.1992   ZZ=           -100.9105
   XY=            -18.1323   XZ=            -19.0715   YZ=             -8.2104
 Traceless Quadrupole moment (field-independent basis, Debye-Ang):
   XX=             67.5829   YY=            -26.4359   ZZ=            -41.1471
   XY=            -18.1323   XZ=            -19.0715   YZ=             -8.2104
 Octapole moment (field-independent basis, Debye-Ang**2):
  XXX=           -190.4959  YYY=             -2.0901  ZZZ=             39.7201  XYY=            -29.0693
  XXY=             73.6336  XXZ=            104.0697  XZZ=            -42.5909  YZZ=             -3.0739
  YYZ=             17.2497  XYZ=            -20.9901
 Hexadecapole moment (field-independent basis, Debye-Ang**3):
 XXXX=          -5027.9966 YYYY=           -623.4509 ZZZZ=           -556.4907 XXXY=           -301.1754
 XXXZ=           -314.7874 YYYX=            -41.1491 YYYZ=             10.6362 ZZZX=            -94.0345
 ZZZY=             41.5634 XXYY=          -1275.2323 XXZZ=          -1359.7639 YYZZ=           -186.6710
 XXYZ=            -69.7124 YYXZ=            -38.6101 ZZXY=             -6.8849
 N-N= 1.483362936149D+03 E-N=-5.771673791220D+03  KE= 1.206446592750D+03
 No NMR shielding tensors so no spin-rotation constants.
 Leave Link  601 at Mon Sep 28 08:12:52 2020, MaxMem=  2147483648 cpu:               0.8 elap:               0.2
 (Enter /prod/apps/gaussian/g16b1/l701.exe)
 ... and contract with generalized density number  0.
 Compute integral first derivatives.
 D1PCM: PCM CHGder 1st derivatives, ID1Alg=3 FixD1E=F DoIter=F DoCFld=F I1PDM=0.
 GePol: Maximum number of non-zero 1st derivatives   =     172
 Leave Link  701 at Mon Sep 28 08:12:54 2020, MaxMem=  2147483648 cpu:               9.4 elap:               2.4
 (Enter /prod/apps/gaussian/g16b1/l702.exe)
 L702 exits ... SP integral derivatives will be done elsewhere.
 Leave Link  702 at Mon Sep 28 08:12:54 2020, MaxMem=  2147483648 cpu:               0.1 elap:               0.0
 (Enter /prod/apps/gaussian/g16b1/l703.exe)
 Integral derivatives from FoFJK, PRISM(SPDF).
 Compute integral first derivatives, UseDBF=F ICtDFT=           0.
 Calling FoFJK, ICntrl=      2127 FMM=F ISym2X=0 I1Cent= 0 IOpClX= 0 NMat=1 NMatS=1 NMatT=0.
 FoFJK:  IHMeth= 1 ICntrl=    2127 DoSepK=F KAlg= 0 I1Cent=           0 FoldK=F
 IRaf=         0 NMat=       1 IRICut=       1 DoRegI=T DoRafI=F ISym2E= 0 IDoP0=0 IntGTp=1.
 FoFCou: FMM=F IPFlag=           0 FMFlag=      100000 FMFlg1=         800
         NFxFlg=           0 DoJE=F BraDBF=F KetDBF=F FulRan=T
         wScrn=  0.000000 ICntrl=      2127 IOpCl=  0 I1Cent=           0 NGrid=           0
         NMat0=    1 NMatS0=      1 NMatT0=    0 NMatD0=    1 NMtDS0=    0 NMtDT0=    0
 Symmetry not used in FoFCou.
 Leave Link  703 at Mon Sep 28 08:13:08 2020, MaxMem=  2147483648 cpu:              55.3 elap:              13.9
 (Enter /prod/apps/gaussian/g16b1/l716.exe)
 Dipole        =-5.48915521D+00 1.28148753D+00 1.93268228D+00
 -------------------------------------------------------------------
 Center     Atomic                   Forces (Hartrees/Bohr)
 Number     Number              X              Y              Z
 -------------------------------------------------------------------
      1        8           0.000109990   -0.000027469   -0.000107662
      2       16          -0.000297043    0.000273440    0.000118213
      3        7          -0.000172097   -0.000044503   -0.000050448
      4        6           0.000046331   -0.000472978    0.000242311
      5        7           0.000235831    0.000501968   -0.000264976
      6        8          -0.000250580    0.000513112   -0.000238117
      7        6           0.000682878   -0.000050406   -0.000219830
      8        6          -0.000083519   -0.000479502    0.000413512
      9        6           0.000365297    0.000533409   -0.000315235
     10        6           0.000151748   -0.000236057    0.000112856
     11        6          -0.000449598   -0.000284448    0.000052523
     12        6           0.000633828    0.000535219   -0.000250401
     13        6          -0.000127671    0.000149590   -0.000072301
     14        6          -0.000407128   -0.000798316    0.000582591
     15        7          -0.000557123   -0.000347984   -0.000344125
     16        6          -0.000162968    0.000333295    0.000188848
     17        6           0.000196351    0.000078815    0.000336764
     18        8           0.000062449   -0.000045818   -0.000014768
     19        1           0.000111664   -0.000041297    0.000056293
     20        1          -0.000296432   -0.000286870    0.000141429
     21        1          -0.000150393    0.000171517   -0.000106345
[...]
 Alpha virt. eigenvalues --    3.54653   3.57092   3.60337   3.64729   3.65078
 Alpha virt. eigenvalues --    3.68011   3.74261   3.74490   3.84476   3.93476
 Alpha virt. eigenvalues --    4.08721   4.46392   4.70144
          Condensed to atoms (all electrons):
               1          2          3          4          5          6
     1  O    8.937467  -0.020658  -0.156481   0.243165  -0.045186  -0.015206
     2  S   -0.020658  13.825332   0.042299  -0.495682   0.173395  -0.094071
     3  N   -0.156481   0.042299   9.698703  -2.342978   0.193379  -0.101266
     4  C    0.243165  -0.495682  -2.342978  17.020903  -1.563614   0.536790
     5  N   -0.045186   0.173395   0.193379  -1.563614   8.944766  -1.186696
     6  O   -0.015206  -0.094071  -0.101266   0.536790  -1.186696  10.530385
     7  C   -0.047960  -0.037397   0.290316  -1.070203  -0.890003  -0.048492
     8  C    0.011635   0.000083  -0.119944   0.394738   0.336271   0.241626
     9  C   -0.001893   0.005038   0.101620  -0.514335   0.368730  -0.172334
    10  C   -0.000107   0.002499  -0.023942  -0.041688   0.046849   0.017234
    11  C    0.000005  -0.000575   0.008205  -0.094755   0.016929  -0.035535
    12  C    0.000310  -0.000097  -0.011273   0.270415  -0.085201  -0.031560
    13  C   -0.000794  -0.009439   0.066269  -0.475406  -0.340869  -0.110427
    14  C   -0.037217  -0.011621   0.260592  -7.026437   0.545394  -0.067322
    15  N    0.035283  -0.449323  -0.274250   0.335684  -0.021012   0.010462
    16  C    0.013685  -0.077172   0.152724  -0.069005  -0.019760   0.000636
    17  C    0.010445   0.101404   0.075081  -0.141013   0.034109  -0.002968
    18  O    0.025375   0.046928  -0.098714   0.105782  -0.029204   0.002282
    19  H    0.013110  -0.043308   0.088948   0.259825  -0.015831  -0.001995
    20  H   -0.000223   0.000056   0.010063   0.091673  -0.016397   0.012424
    21  H    0.000005   0.000148  -0.001056   0.003021   0.001321   0.000300
    22  H    0.000000  -0.000018   0.000267  -0.003689   0.000709  -0.000312
    23  H    0.000008  -0.000028  -0.000717   0.005572  -0.004512   0.005342
    24  H   -0.000639  -0.000085   0.009476  -0.027701  -0.039107  -0.142255
    25  H    0.001887   0.001435  -0.077118   0.675762  -0.050186  -0.005462
    26  H   -0.002882   0.158944  -0.081808   0.029672  -0.001096  -0.000026
    27  H    0.002919  -0.060380   0.037585  -0.012780  -0.000607  -0.000265
    28  H    0.000608  -0.019673  -0.018815   0.074447  -0.011305   0.002461
    29  H   -0.004961   0.119505  -0.032561   0.011849   0.002827  -0.003495
    30  H    0.021098  -0.050199  -0.024148   0.098927  -0.013457   0.001679
    31  H   -0.001708  -0.018189   0.046010  -0.034022  -0.004357  -0.000151
    32  H    0.012716  -0.058845   0.087663  -0.043551   0.008000  -0.000685
    33  H    0.005479   0.006614  -0.006448  -0.119450   0.661256  -0.273619
               7          8          9         10         11         12
     1  O   -0.047960   0.011635  -0.001893  -0.000107   0.000005   0.000310
     2  S   -0.037397   0.000083   0.005038   0.002499  -0.000575  -0.000097
     3  N    0.290316  -0.119944   0.101620  -0.023942   0.008205  -0.011273
     4  C   -1.070203   0.394738  -0.514335  -0.041688  -0.094755   0.270415
     5  N   -0.890003   0.336271   0.368730   0.046849   0.016929  -0.085201
     6  O   -0.048492   0.241626  -0.172334   0.017234  -0.035535  -0.031560
     7  C   21.254082  -4.450901  -1.290295  -0.582640   0.444851  -0.619059
     8  C   -4.450901  21.414741  -7.323136   1.801196  -3.646610   1.418540
     9  C   -1.290295  -7.323136  22.531181  -6.290922   3.480172  -2.900275
    10  C   -0.582640   1.801196  -6.290922  13.588779  -2.921681   3.174546
    11  C    0.444851  -3.646610   3.480172  -2.921681   8.880213  -2.678290
    12  C   -0.619059   1.418540  -2.900275   3.174546  -2.678290  11.360540
    13  C   -0.724673  -5.614664  -0.608198  -2.753256   2.432875  -3.930956
    14  C   -7.107482  -1.138129  -1.557893   0.531005  -0.296143  -0.024557
    15  N   -0.003123  -0.000240  -0.001562   0.000048  -0.000041   0.000030
    16  C   -0.001903  -0.001705   0.000455  -0.000120   0.000046   0.000013
    17  C   -0.007902  -0.002682   0.000290   0.000243  -0.000108   0.000310
    18  O    0.026318  -0.000446  -0.000421  -0.000102   0.000016  -0.000006
    19  H    0.016170   0.006094  -0.002646  -0.004138  -0.000081   0.001665
    20  H   -0.099896   0.951619  -1.257508   0.140861  -0.131270   0.089767
    21  H   -0.046424  -0.143994   0.916220  -0.923041   0.275448  -0.262883
    22  H   -0.016819   0.035987  -0.095673   0.217216  -0.415244   0.328653
    23  H   -0.004013  -0.111560   0.078359  -0.215535   0.254163  -0.677685
    24  H    0.216403   0.313898  -0.096084   0.054951  -0.085592   0.311874
    25  H    0.828348   0.030145  -0.036963   0.082658  -0.030710   0.009234
    26  H    0.005136  -0.000445   0.000112   0.000027  -0.000003  -0.000003
    27  H   -0.001696  -0.000105   0.000143   0.000000   0.000010  -0.000020
    28  H   -0.002496   0.000485  -0.001113  -0.000268  -0.000026   0.000132
    29  H   -0.004462   0.001376   0.000019   0.000172  -0.000030  -0.000131
    30  H    0.013503   0.001289  -0.000489  -0.000011  -0.000013  -0.000126
    31  H   -0.001141  -0.000595   0.000032  -0.000001  -0.000007   0.000055
    32  H   -0.001939  -0.000131   0.000031   0.000017  -0.000009  -0.000000
    33  H    0.128499  -0.023619   0.013425  -0.001294   0.000064  -0.002530
              13         14         15         16         17         18
     1  O   -0.000794  -0.037217   0.035283   0.013685   0.010445   0.025375
     2  S   -0.009439  -0.011621  -0.449323  -0.077172   0.101404   0.046928
     3  N    0.066269   0.260592  -0.274250   0.152724   0.075081  -0.098714
     4  C   -0.475406  -7.026437   0.335684  -0.069005  -0.141013   0.105782
     5  N   -0.340869   0.545394  -0.021012  -0.019760   0.034109  -0.029204
     6  O   -0.110427  -0.067322   0.010462   0.000636  -0.002968   0.002282
     7  C   -0.724673  -7.107482  -0.003123  -0.001903  -0.007902   0.026318
     8  C   -5.614664  -1.138129  -0.000240  -0.001705  -0.002682  -0.000446
     9  C   -0.608198  -1.557893  -0.001562   0.000455   0.000290  -0.000421
    10  C   -2.753256   0.531005   0.000048  -0.000120   0.000243  -0.000102
    11  C    2.432875  -0.296143  -0.000041   0.000046  -0.000108   0.000016
    12  C   -3.930956  -0.024557   0.000030   0.000013   0.000310  -0.000006
    13  C   19.395411  -1.470424  -0.001737   0.001827  -0.000561   0.000590
    14  C   -1.470424  23.542485  -0.098002   0.032767   0.042972  -0.047700
    15  N   -0.001737  -0.098002   8.856714  -0.111027  -0.124917  -0.078043
    16  C    0.001827   0.032767  -0.111027   4.178816  -0.041072   0.033426
    17  C   -0.000561   0.042972  -0.124917  -0.041072   4.138269  -0.010714
    18  O    0.000590  -0.047700  -0.078043   0.033426  -0.010714   8.889908
    19  H   -0.002629  -0.177037  -0.014117  -0.019587   0.005657   0.022301
    20  H   -0.119007   0.114466  -0.000541   0.000385  -0.000136   0.000711
    21  H    0.115845   0.049401  -0.000002  -0.000004   0.000022  -0.000014
    22  H   -0.052956   0.004380  -0.000003   0.000002  -0.000003   0.000001
    23  H    0.641426   0.001316   0.000013  -0.000006   0.000009  -0.000001
    24  H   -0.770785  -0.020206  -0.000558   0.000216  -0.000108   0.000081
    25  H   -0.014984  -1.756376   0.001489  -0.002761   0.002301  -0.006627
    26  H    0.000064  -0.020858  -0.101045   0.273821  -0.007769   0.027582
    27  H    0.000087   0.015245  -0.126606   0.419150   0.051513   0.000024
    28  H   -0.000056  -0.032456  -0.131784   0.364539  -0.007024   0.012586
    29  H   -0.000050   0.023074  -0.053094  -0.021368   0.269590  -0.001964
    30  H   -0.001292  -0.058161  -0.081705  -0.001701   0.289766   0.007636
    31  H    0.000097   0.009162  -0.184529   0.049219   0.463131  -0.001480
    32  H   -0.000145   0.011977   0.292635   0.018180  -0.014937   0.016013
    33  H   -0.016690  -0.160595   0.001741   0.001092  -0.004871   0.001067
              19         20         21         22         23         24
     1  O    0.013110  -0.000223   0.000005   0.000000   0.000008  -0.000639
     2  S   -0.043308   0.000056   0.000148  -0.000018  -0.000028  -0.000085
     3  N    0.088948   0.010063  -0.001056   0.000267  -0.000717   0.009476
     4  C    0.259825   0.091673   0.003021  -0.003689   0.005572  -0.027701
     5  N   -0.015831  -0.016397   0.001321   0.000709  -0.004512  -0.039107
     6  O   -0.001995   0.012424   0.000300  -0.000312   0.005342  -0.142255
     7  C    0.016170  -0.099896  -0.046424  -0.016819  -0.004013   0.216403
     8  C    0.006094   0.951619  -0.143994   0.035987  -0.111560   0.313898
     9  C   -0.002646  -1.257508   0.916220  -0.095673   0.078359  -0.096084
    10  C   -0.004138   0.140861  -0.923041   0.217216  -0.215535   0.054951
    11  C   -0.000081  -0.131270   0.275448  -0.415244   0.254163  -0.085592
    12  C    0.001665   0.089767  -0.262883   0.328653  -0.677685   0.311874
    13  C   -0.002629  -0.119007   0.115845  -0.052956   0.641426  -0.770785
    14  C   -0.177037   0.114466   0.049401   0.004380   0.001316  -0.020206
    15  N   -0.014117  -0.000541  -0.000002  -0.000003   0.000013  -0.000558
    16  C   -0.019587   0.000385  -0.000004   0.000002  -0.000006   0.000216
    17  C    0.005657  -0.000136   0.000022  -0.000003   0.000009  -0.000108
    18  O    0.022301   0.000711  -0.000014   0.000001  -0.000001   0.000081
    19  H    0.849749  -0.001169  -0.000036   0.000002   0.000001  -0.000326
    20  H   -0.001169   1.962919  -0.067748  -0.017612   0.008313  -0.012508
    21  H   -0.000036  -0.067748   1.605657  -0.055211  -0.019196   0.006770
    22  H    0.000002  -0.017612  -0.055211   1.534618  -0.061479  -0.011113
    23  H    0.000001   0.008313  -0.019196  -0.061479   1.602788  -0.089691
    24  H   -0.000326  -0.012508   0.006770  -0.011113  -0.089691   2.047616
    25  H    0.030362  -0.087098  -0.002928   0.000353   0.001048  -0.005666
    26  H    0.017867   0.000076   0.000001   0.000000  -0.000000   0.000014
    27  H   -0.005198  -0.000032  -0.000000   0.000000  -0.000001   0.000027
    28  H   -0.003390   0.000109  -0.000011  -0.000002   0.000004  -0.000025
    29  H   -0.001811  -0.000019   0.000003  -0.000001  -0.000007   0.000309
    30  H    0.004568  -0.000146   0.000000  -0.000002   0.000009  -0.000414
    31  H    0.002808   0.000021   0.000001  -0.000000   0.000001   0.000032
    32  H   -0.005486   0.000010   0.000001  -0.000000   0.000001  -0.000024
    33  H    0.005905   0.000398  -0.000068   0.000013   0.000097  -0.001156
              25         26         27         28         29         30
     1  O    0.001887  -0.002882   0.002919   0.000608  -0.004961   0.021098
     2  S    0.001435   0.158944  -0.060380  -0.019673   0.119505  -0.050199
     3  N   -0.077118  -0.081808   0.037585  -0.018815  -0.032561  -0.024148
     4  C    0.675762   0.029672  -0.012780   0.074447   0.011849   0.098927
     5  N   -0.050186  -0.001096  -0.000607  -0.011305   0.002827  -0.013457
     6  O   -0.005462  -0.000026  -0.000265   0.002461  -0.003495   0.001679
     7  C    0.828348   0.005136  -0.001696  -0.002496  -0.004462   0.013503
     8  C    0.030145  -0.000445  -0.000105   0.000485   0.001376   0.001289
     9  C   -0.036963   0.000112   0.000143  -0.001113   0.000019  -0.000489
    10  C    0.082658   0.000027   0.000000  -0.000268   0.000172  -0.000011
    11  C   -0.030710  -0.000003   0.000010  -0.000026  -0.000030  -0.000013
    12  C    0.009234  -0.000003  -0.000020   0.000132  -0.000131  -0.000126
    13  C   -0.014984   0.000064   0.000087  -0.000056  -0.000050  -0.001292
    14  C   -1.756376  -0.020858   0.015245  -0.032456   0.023074  -0.058161
    15  N    0.001489  -0.101045  -0.126606  -0.131784  -0.053094  -0.081705
    16  C   -0.002761   0.273821   0.419150   0.364539  -0.021368  -0.001701
    17  C    0.002301  -0.007769   0.051513  -0.007024   0.269590   0.289766
    18  O   -0.006627   0.027582   0.000024   0.012586  -0.001964   0.007636
    19  H    0.030362   0.017867  -0.005198  -0.003390  -0.001811   0.004568
    20  H   -0.087098   0.000076  -0.000032   0.000109  -0.000019  -0.000146
    21  H   -0.002928   0.000001  -0.000000  -0.000011   0.000003   0.000000
    22  H    0.000353   0.000000   0.000000  -0.000002  -0.000001  -0.000002
    23  H    0.001048  -0.000000  -0.000001   0.000004  -0.000007   0.000009
    24  H   -0.005666   0.000014   0.000027  -0.000025   0.000309  -0.000414
    25  H    1.981646  -0.000521   0.000871  -0.003137   0.000185  -0.000111
    26  H   -0.000521   1.259307  -0.264107  -0.171169  -0.003015   0.005298
    27  H    0.000871  -0.264107   1.241495  -0.201340   0.006025  -0.003620
    28  H   -0.003137  -0.171169  -0.201340   1.210764   0.003959  -0.003705
    29  H    0.000185  -0.003015   0.006025   0.003959   1.365186  -0.190486
    30  H   -0.000111   0.005298  -0.003620  -0.003705  -0.190486   1.261197
    31  H   -0.000408   0.006021   0.009123  -0.008153  -0.326595  -0.228002
    32  H   -0.000410  -0.030401  -0.020342   0.035462  -0.028044   0.024187
    33  H    0.005284   0.000381  -0.000100  -0.000195  -0.001674   0.001502
              31         32         33
     1  O   -0.001708   0.012716   0.005479
     2  S   -0.018189  -0.058845   0.006614
     3  N    0.046010   0.087663  -0.006448
     4  C   -0.034022  -0.043551  -0.119450
     5  N   -0.004357   0.008000   0.661256
     6  O   -0.000151  -0.000685  -0.273619
     7  C   -0.001141  -0.001939   0.128499
     8  C   -0.000595  -0.000131  -0.023619
     9  C    0.000032   0.000031   0.013425
    10  C   -0.000001   0.000017  -0.001294
    11  C   -0.000007  -0.000009   0.000064
    12  C    0.000055  -0.000000  -0.002530
    13  C    0.000097  -0.000145  -0.016690
    14  C    0.009162   0.011977  -0.160595
    15  N   -0.184529   0.292635   0.001741
    16  C    0.049219   0.018180   0.001092
    17  C    0.463131  -0.014937  -0.004871
    18  O   -0.001480   0.016013   0.001067
    19  H    0.002808  -0.005486   0.005905
    20  H    0.000021   0.000010   0.000398
    21  H    0.000001   0.000001  -0.000068
    22  H   -0.000000  -0.000000   0.000013
    23  H    0.000001   0.000001   0.000097
    24  H    0.000032  -0.000024  -0.001156
    25  H   -0.000408  -0.000410   0.005284
    26  H    0.006021  -0.030401   0.000381
    27  H    0.009123  -0.020342  -0.000100
    28  H   -0.008153   0.035462  -0.000195
    29  H   -0.326595  -0.028044  -0.001674
    30  H   -0.228002   0.024187   0.001502
    31  H    1.361331  -0.016896  -0.000787
    32  H   -0.016896   0.507400  -0.000455
    33  H   -0.000787  -0.000455   0.718342
 Mulliken charges:
               1
     1  O   -0.999286
     2  S    2.963081
     3  N   -0.797681
     4  C   -0.081916
     5  N    0.004466
     6  O   -1.067477
     7  C   -0.162709
     8  C    1.619182
     9  C    0.655915
    10  C    0.100446
    11  C    0.543725
    12  C    0.258569
    13  C    0.365508
    14  C    1.924378
    15  N   -0.676836
    16  C    0.826190
    17  C    0.881671
    18  O   -0.943193
    19  H   -0.026248
    20  H   -0.572560
    21  H   -0.451551
    22  H   -0.392064
    23  H   -0.414039
    24  H   -0.657623
    25  H   -0.571541
    26  H   -0.099176
    27  H   -0.087014
    28  H   -0.089412
    29  H   -0.130310
    30  H   -0.072875
    31  H   -0.120023
    32  H    0.208007
    33  H    0.062395
 Sum of Mulliken charges =   2.00000
 Mulliken charges with hydrogens summed into heavy atoms:
               1
     1  O   -0.999286
     2  S    2.963081
     3  N   -0.823929
     4  C   -0.081916
     5  N    0.066861
     6  O   -1.067477
     7  C   -0.162709
     8  C    1.619182
     9  C    0.083355
    10  C   -0.351105
    11  C    0.151661
    12  C   -0.155470
    13  C   -0.292115
    14  C    1.352838
    15  N   -0.468829
    16  C    0.550588
    17  C    0.558463
    18  O   -0.943193
 Electronic spatial extent (au):  <R**2>=           7194.1516
 Charge=              2.0000 electrons
 Dipole moment (field-independent basis, Debye):
    X=             -8.6450    Y=             -0.5649    Z=              6.4437  Tot=             10.7971
 Quadrupole moment (field-independent basis, Debye-Ang):
   XX=             34.0902   YY=            -83.6888   ZZ=           -104.1620
   XY=             -5.1662   XZ=            -25.1540   YZ=             -0.3468
 Traceless Quadrupole moment (field-independent basis, Debye-Ang):
   XX=             85.3437   YY=            -32.4353   ZZ=            -52.9084
   XY=             -5.1662   XZ=            -25.1540   YZ=             -0.3468
 Octapole moment (field-independent basis, Debye-Ang**2):
  XXX=            -11.7242  YYY=              1.7705  ZZZ=             17.8030  XYY=            -11.9975
  XXY=             12.8555  XXZ=            132.0319  XZZ=            -77.8776  YZZ=              5.5734
  YYZ=             12.3066  XYZ=             -6.4770
 Hexadecapole moment (field-independent basis, Debye-Ang**3):
 XXXX=          -3980.3108 YYYY=           -619.6100 ZZZZ=           -493.7168 XXXY=           -110.7567
 XXXZ=           -373.9902 YYYX=             -9.4411 YYYZ=             -6.2605 ZZZX=           -106.1699
 ZZZY=              6.5917 XXYY=          -1191.0695 XXZZ=          -1376.9516 YYZZ=           -208.3154
 XXYZ=            -35.9019 YYXZ=            -43.8502 ZZXY=             -2.5521
 N-N= 1.483281814584D+03 E-N=-5.772357069917D+03  KE= 1.208689578975D+03
 Leave Link  601 at Mon Sep 28 09:00:32 2020, MaxMem=   262144000 cpu:               0.6 elap:               0.2
 (Enter /prod/apps/gaussian/g16b1/l9999.exe)
 1\1\GINC-PIRINEUS39\SP\RMP2-FC\Aug-CC-pVDZ\C11H15N3O3S1(2+)\UBAFAR01\2
 8-Sep-2020\0\\#p mp2/aug-cc-pVDZ scf=(MaxCycle=2000,NoVarAcc,NoIncFock
 ) maxdisk=120GB geom=allcheck\\SM43_m3.b.10.pdb.xyz\\2,1\O,0,-2.774660
 8043,0.5752994244,-1.8043553133\S,0,-3.0905495914,-0.3640229132,-0.749
 938557\N,0,-1.692325548,-0.7753445856,0.05193459\C,0,-0.4280306849,-0.
 2704298179,-0.1687615787\N,0,-0.1469423461,0.8582880557,-0.8106723468\
 O,0,1.202898449,1.0635194846,-0.819927774\C,0,1.7623832139,0.018505907
 5,-0.1575303157\C,0,3.2051496401,0.0117078446,-0.0326959577\C,0,3.8323
 636427,-1.0521921102,0.6384491839\C,0,5.2162508823,-1.0663822268,0.767
 6667461\C,0,5.9807577254,-0.0260030868,0.2321111337\C,0,5.3592464318,1
 .0327060659,-0.4357087628\C,0,3.9759815165,1.0564003335,-0.5706645769\
 C,0,0.7767529493,-0.8425489548,0.2682800783\N,0,-4.0002789929,0.638705
 6907,0.5187742787\C,0,-4.1970774029,-0.1204078364,1.8004622916\C,0,-3.
 4175228998,2.0069026005,0.7086871909\O,0,-3.907076242,-1.5463439608,-0
 .8931259011\H,0,-1.7406465843,-1.6682425175,0.5533061221\H,0,3.2395489
 662,-1.8585865537,1.0541478678\H,0,5.6989140128,-1.8872321516,1.285418
 4636\H,0,7.0600781571,-0.0403770415,0.3355207949\H,0,5.952549331,1.839
 4801942,-0.8504429666\H,0,3.4917497357,1.8762063832,-1.0868831144\H,0,
 0.8867158201,-1.763212946,0.8147564767\H,0,-4.6398293131,-1.0856073289
 ,1.567251312\H,0,-4.878082455,0.4695580874,2.411177661\H,0,-3.23778403
 79,-0.2305857316,2.3003820146\H,0,-3.3046996865,2.473884135,-0.2655388
 235\H,0,-2.4637933788,1.9301464979,1.2256172798\H,0,-4.1295855528,2.56
 47016167,1.3143485884\H,0,-4.9318020098,0.7495156551,0.0742621325\H,0,
 -0.6996529436,1.5889917863,-1.260308218\\Version=ES64L-G16RevB.01\Stat
 e=1-A\HF=-1210.1136457\MP2=-1212.8799994\RMSD=4.167e-09\PG=C01 [X(C11H
 15N3O3S1)]\\@


 When cryptography is outlawed, bayl bhgynjf jvyy unir cevinpl.
 Job cpu time:       0 days  1 hours 56 minutes 50.1 seconds.
 Elapsed time:       0 days  0 hours 31 minutes 14.7 seconds.
 File lengths (MBytes):  RWF=  80136 Int=      0 D2E=      0 Chk=     25 Scr=      1
 Normal termination of Gaussian 16 at Mon Sep 28 09:00:34 2020.
