 Entering Gaussian System, Link 0=g16
 Initial command:
 /prod/apps/gaussian/g16b1/l1.exe "/tmp/ubafar01/1462014/Gau-29539.inp" -scrdir="/tmp/ubafar01/1462014/"
 Entering Link 1 = /prod/apps/gaussian/g16b1/l1.exe PID=     29541.
  
 Copyright (c) 1988-2017, Gaussian, Inc.  All Rights Reserved.
  
 This is part of the Gaussian(R) 16 program.  It is based on
 the Gaussian(R) 09 system (copyright 2009, Gaussian, Inc.),
 the Gaussian(R) 03 system (copyright 2003, Gaussian, Inc.),
 the Gaussian(R) 98 system (copyright 1998, Gaussian, Inc.),
 the Gaussian(R) 94 system (copyright 1995, Gaussian, Inc.),
 the Gaussian 92(TM) system (copyright 1992, Gaussian, Inc.),
 the Gaussian 90(TM) system (copyright 1990, Gaussian, Inc.),
 the Gaussian 88(TM) system (copyright 1988, Gaussian, Inc.),
 the Gaussian 86(TM) system (copyright 1986, Carnegie Mellon
 University), and the Gaussian 82(TM) system (copyright 1983,
 Carnegie Mellon University). Gaussian is a federally registered
 trademark of Gaussian, Inc.
  
 This software contains proprietary and confidential information,
 including trade secrets, belonging to Gaussian, Inc.
  
 This software is provided under written license and may be
 used, copied, transmitted, or stored only in accord with that
 written license.
  
 The following legend is applicable only to US Government
 contracts under FAR:
  
                    RESTRICTED RIGHTS LEGEND
  
 Use, reproduction and disclosure by the US Government is
 subject to restrictions as set forth in subparagraphs (a)
 and (c) of the Commercial Computer Software - Restricted
 Rights clause in FAR 52.227-19.
  
 Gaussian, Inc.
 340 Quinnipiac St., Bldg. 40, Wallingford CT 06492
  
  
 ---------------------------------------------------------------
 Warning -- This program may not be used in any manner that
 competes with the business of Gaussian, Inc. or will provide
 assistance to any competitor of Gaussian, Inc.  The licensee
 of this program is prohibited from giving any competitor of
 Gaussian, Inc. access to this program.  By using this program,
 the user acknowledges that Gaussian, Inc. is engaged in the
 business of creating and licensing software in the field of
 computational chemistry and represents and warrants to the
 licensee that it is not a competitor of Gaussian, Inc. and that
 it will not use this program in any manner prohibited above.
 ---------------------------------------------------------------
  

 Cite this work as:
 Gaussian 16, Revision B.01,
 M. J. Frisch, G. W. Trucks, H. B. Schlegel, G. E. Scuseria, 
 M. A. Robb, J. R. Cheeseman, G. Scalmani, V. Barone, 
 G. A. Petersson, H. Nakatsuji, X. Li, M. Caricato, A. V. Marenich, 
 J. Bloino, B. G. Janesko, R. Gomperts, B. Mennucci, H. P. Hratchian, 
 J. V. Ortiz, A. F. Izmaylov, J. L. Sonnenberg, D. Williams-Young, 
 F. Ding, F. Lipparini, F. Egidi, J. Goings, B. Peng, A. Petrone, 
 T. Henderson, D. Ranasinghe, V. G. Zakrzewski, J. Gao, N. Rega, 
 G. Zheng, W. Liang, M. Hada, M. Ehara, K. Toyota, R. Fukuda, 
 J. Hasegawa, M. Ishida, T. Nakajima, Y. Honda, O. Kitao, H. Nakai, 
 T. Vreven, K. Throssell, J. A. Montgomery, Jr., J. E. Peralta, 
 F. Ogliaro, M. J. Bearpark, J. J. Heyd, E. N. Brothers, K. N. Kudin, 
 V. N. Staroverov, T. A. Keith, R. Kobayashi, J. Normand, 
 K. Raghavachari, A. P. Rendell, J. C. Burant, S. S. Iyengar, 
 J. Tomasi, M. Cossi, J. M. Millam, M. Klene, C. Adamo, R. Cammi, 
 J. W. Ochterski, R. L. Martin, K. Morokuma, O. Farkas, 
 J. B. Foresman, and D. J. Fox, Gaussian, Inc., Wallingford CT, 2016.
 
 ******************************************
 Gaussian 16:  ES64L-G16RevB.01 20-Dec-2017
                28-Sep-2020 
 ******************************************
 %nproc=4
 Will use up to    4 processors via shared memory.
 %Chk=SM43_m3.b.2.pdb.xyz.mst.b.w.chk
 %mem=16GB
 ----------------------------------------------------------------------
 #p b3lyp/6-31G(d) opt freq NoSymm scf=(MaxCycle=2000,NoVarAcc,NoIncFoc
 k) scrf=(iefpcm,read,solvent=water)
 ----------------------------------------------------------------------
 1/18=20,19=15,26=3,38=1,40=2/1,3;
 2/9=110,12=2,15=1,17=6,18=5,40=1/2;
 3/5=1,6=6,7=1,11=2,25=1,30=1,70=2203,71=1,72=1,74=-5/1,2,3;
 4//1;
 5/5=100002,7=2000,38=1,53=1/2;
 6/7=2,8=2,9=2,10=2,28=1/1;
 7/30=1/1,2,3,16;
 1/18=20,19=15,26=3/3(2);
 2/9=110,15=1/2;
 99//99;
 2/9=110,15=1/2;
 3/5=1,6=6,7=1,11=2,25=1,30=1,70=2205,71=1,72=1,74=-5/1,2,3;
 4/5=5,16=3,69=1/1;
 5/5=100002,7=2000,38=1,53=1/2;
 7/30=1/1,2,3,16;
 1/18=20,19=15,26=3/3(-5);
 2/9=110,15=1/2;
 6/7=2,8=2,9=2,10=2,19=2,28=1/1;
 99/9=1/99;
 Leave Link    1 at Mon Sep 28 08:11:44 2020, MaxMem=  2147483648 cpu:               0.2 elap:               0.0
 (Enter /prod/apps/gaussian/g16b1/l101.exe)
 -------------------
 SM43_m3.b.2.pdb.xyz
 -------------------
 Symbolic Z-matrix:
 Charge =  2 Multiplicity = 1
 O                     4.026    -0.216    -1.017 
 S                     2.74      0.223    -0.53 
 N                     1.771    -1.113    -0.386 
 C                     0.403    -1.089    -0.225 
 N                    -0.245    -2.196     0.121 
 O                    -1.587    -1.959     0.17 
 C                    -1.758    -0.644    -0.121 
 C                    -3.113    -0.132    -0.112 
 C                    -3.337     1.218    -0.433 
 C                    -4.632     1.724    -0.427 
 C                    -5.707     0.891    -0.101 
 C                    -5.486    -0.451     0.218 
 C                    -4.195    -0.967     0.214 
 C                    -0.537    -0.058    -0.377 
 N                     3.031     0.689     1.244 
 C                     3.969    -0.272     1.907 
 C                     3.499     2.117     1.327 
 O                     1.975     1.327    -1.066 
 H                     2.267    -2.007    -0.304 
 H                    -2.504     1.864    -0.686 
 H                    -4.803     2.765    -0.676 
 H                    -6.716     1.289    -0.096 
 H                    -6.321    -1.095     0.471 
 H                    -4.022    -2.007     0.462 
 H                    -0.335     0.962    -0.651 
 H                     3.55     -1.275     1.863 
 H                     4.065     0.043     2.944 
 H                     4.928    -0.226     1.397 
 H                     2.782     2.745     0.806 
 H                     4.49      2.189     0.884 
 H                     3.535     2.371     2.385 
 H                     2.102     0.629     1.699 
 H                     0.044    -3.168     0.249 
 
 ITRead=  0  0  0  0  0  0  0  0  0  0  0  0  0  0  0  0  0  0  0  0
 ITRead=  0  0  0  0  0  0  0  0  0  0  0  0  0
 MicOpt= -1 -1 -1 -1 -1 -1 -1 -1 -1 -1 -1 -1 -1 -1 -1 -1 -1 -1 -1 -1
 MicOpt= -1 -1 -1 -1 -1 -1 -1 -1 -1 -1 -1 -1 -1
 NAtoms=     33 NQM=       33 NQMF=       0 NMMI=      0 NMMIF=      0
                NMic=       0 NMicF=      0.
                    Isotopes and Nuclear Properties:
 (Nuclear quadrupole moments (NQMom) in fm**2, nuclear magnetic moments (NMagM)
  in nuclear magnetons)

  Atom         1           2           3           4           5           6           7           8           9          10
 IAtWgt=          16          32          14          12          14          16          12          12          12          12
 AtmWgt=  15.9949146  31.9720718  14.0030740  12.0000000  14.0030740  15.9949146  12.0000000  12.0000000  12.0000000  12.0000000
 NucSpn=           0           0           2           0           2           0           0           0           0           0
 AtZEff=  -0.0000000  -0.0000000  -0.0000000  -0.0000000  -0.0000000  -0.0000000  -0.0000000  -0.0000000  -0.0000000  -0.0000000
 NQMom=    0.0000000   0.0000000   2.0440000   0.0000000   2.0440000   0.0000000   0.0000000   0.0000000   0.0000000   0.0000000
 NMagM=    0.0000000   0.0000000   0.4037610   0.0000000   0.4037610   0.0000000   0.0000000   0.0000000   0.0000000   0.0000000
 AtZNuc=   8.0000000  16.0000000   7.0000000   6.0000000   7.0000000   8.0000000   6.0000000   6.0000000   6.0000000   6.0000000

  Atom        11          12          13          14          15          16          17          18          19          20
 IAtWgt=          12          12          12          12          14          12          12          16           1           1
 AtmWgt=  12.0000000  12.0000000  12.0000000  12.0000000  14.0030740  12.0000000  12.0000000  15.9949146   1.0078250   1.0078250
 NucSpn=           0           0           0           0           2           0           0           0           1           1
 AtZEff=  -0.0000000  -0.0000000  -0.0000000  -0.0000000  -0.0000000  -0.0000000  -0.0000000  -0.0000000  -0.0000000  -0.0000000
 NQMom=    0.0000000   0.0000000   0.0000000   0.0000000   2.0440000   0.0000000   0.0000000   0.0000000   0.0000000   0.0000000
 NMagM=    0.0000000   0.0000000   0.0000000   0.0000000   0.4037610   0.0000000   0.0000000   0.0000000   2.7928460   2.7928460
 AtZNuc=   6.0000000   6.0000000   6.0000000   6.0000000   7.0000000   6.0000000   6.0000000   8.0000000   1.0000000   1.0000000

  Atom        21          22          23          24          25          26          27          28          29          30
 IAtWgt=           1           1           1           1           1           1           1           1           1           1
 AtmWgt=   1.0078250   1.0078250   1.0078250   1.0078250   1.0078250   1.0078250   1.0078250   1.0078250   1.0078250   1.0078250
 NucSpn=           1           1           1           1           1           1           1           1           1           1
 AtZEff=  -0.0000000  -0.0000000  -0.0000000  -0.0000000  -0.0000000  -0.0000000  -0.0000000  -0.0000000  -0.0000000  -0.0000000
 NQMom=    0.0000000   0.0000000   0.0000000   0.0000000   0.0000000   0.0000000   0.0000000   0.0000000   0.0000000   0.0000000
 NMagM=    2.7928460   2.7928460   2.7928460   2.7928460   2.7928460   2.7928460   2.7928460   2.7928460   2.7928460   2.7928460
 AtZNuc=   1.0000000   1.0000000   1.0000000   1.0000000   1.0000000   1.0000000   1.0000000   1.0000000   1.0000000   1.0000000

  Atom        31          32          33
 IAtWgt=           1           1           1
 AtmWgt=   1.0078250   1.0078250   1.0078250
 NucSpn=           1           1           1
 AtZEff=  -0.0000000  -0.0000000  -0.0000000
 NQMom=    0.0000000   0.0000000   0.0000000
 NMagM=    2.7928460   2.7928460   2.7928460
 AtZNuc=   1.0000000   1.0000000   1.0000000
 Leave Link  101 at Mon Sep 28 08:11:44 2020, MaxMem=  2147483648 cpu:               1.4 elap:               0.4
 (Enter /prod/apps/gaussian/g16b1/l103.exe)

 GradGradGradGradGradGradGradGradGradGradGradGradGradGradGradGradGradGrad
 Berny optimization.
 Initialization pass.
                           ----------------------------
                           !    Initial Parameters    !
                           ! (Angstroms and Degrees)  !
 --------------------------                            --------------------------
 ! Name  Definition              Value          Derivative Info.                !
 --------------------------------------------------------------------------------
 ! R1    R(1,2)                  1.4435         estimate D2E/DX2                !
 ! R2    R(2,3)                  1.6567         estimate D2E/DX2                !
 ! R3    R(2,15)                 1.8571         estimate D2E/DX2                !
 ! R4    R(2,18)                 1.4461         estimate D2E/DX2                !
 ! R5    R(3,4)                  1.3777         estimate D2E/DX2                !
 ! R6    R(3,19)                 1.0257         estimate D2E/DX2                !
 ! R7    R(4,5)                  1.3286         estimate D2E/DX2                !
 ! R8    R(4,14)                 1.4034         estimate D2E/DX2                !
 ! R9    R(5,6)                  1.3636         estimate D2E/DX2                !
 ! R10   R(5,33)                 1.0221         estimate D2E/DX2                !
 ! R11   R(6,7)                  1.3576         estimate D2E/DX2                !
 ! R12   R(7,8)                  1.4485         estimate D2E/DX2                !
 ! R13   R(7,14)                 1.3783         estimate D2E/DX2                !
 ! R14   R(8,9)                  1.4056         estimate D2E/DX2                !
 ! R15   R(8,13)                 1.4051         estimate D2E/DX2                !
 ! R16   R(9,10)                 1.3904         estimate D2E/DX2                !
 ! R17   R(9,20)                 1.0841         estimate D2E/DX2                !
 ! R18   R(10,11)                1.3985         estimate D2E/DX2                !
 ! R19   R(10,21)                1.0839         estimate D2E/DX2                !
 ! R20   R(11,12)                1.397          estimate D2E/DX2                !
 ! R21   R(11,22)                1.0847         estimate D2E/DX2                !
 ! R22   R(12,13)                1.3903         estimate D2E/DX2                !
 ! R23   R(12,23)                1.0844         estimate D2E/DX2                !
 ! R24   R(13,24)                1.0831         estimate D2E/DX2                !
 ! R25   R(14,25)                1.0753         estimate D2E/DX2                !
 ! R26   R(15,16)                1.4976         estimate D2E/DX2                !
 ! R27   R(15,17)                1.505          estimate D2E/DX2                !
 ! R28   R(15,32)                1.0362         estimate D2E/DX2                !
 ! R29   R(16,26)                1.0879         estimate D2E/DX2                !
 ! R30   R(16,27)                1.088          estimate D2E/DX2                !
 ! R31   R(16,28)                1.0872         estimate D2E/DX2                !
 ! R32   R(17,29)                1.0862         estimate D2E/DX2                !
 ! R33   R(17,30)                1.0879         estimate D2E/DX2                !
 ! R34   R(17,31)                1.0887         estimate D2E/DX2                !
 ! A1    A(1,2,3)              107.7676         estimate D2E/DX2                !
 ! A2    A(1,2,15)             105.0101         estimate D2E/DX2                !
 ! A3    A(1,2,18)             125.3381         estimate D2E/DX2                !
 ! A4    A(3,2,15)             102.1795         estimate D2E/DX2                !
 ! A5    A(3,2,18)             109.7821         estimate D2E/DX2                !
 ! A6    A(15,2,18)            104.2044         estimate D2E/DX2                !
 ! A7    A(2,3,4)              125.2339         estimate D2E/DX2                !
 ! A8    A(2,3,19)             115.2778         estimate D2E/DX2                !
 ! A9    A(4,3,19)             119.081          estimate D2E/DX2                !
 ! A10   A(3,4,5)              120.0165         estimate D2E/DX2                !
 ! A11   A(3,4,14)             131.6998         estimate D2E/DX2                !
 ! A12   A(5,4,14)             108.2783         estimate D2E/DX2                !
 ! A13   A(4,5,6)              110.1541         estimate D2E/DX2                !
 ! A14   A(4,5,33)             133.4006         estimate D2E/DX2                !
 ! A15   A(6,5,33)             116.0428         estimate D2E/DX2                !
 ! A16   A(5,6,7)              106.5347         estimate D2E/DX2                !
 ! A17   A(6,7,8)              117.3132         estimate D2E/DX2                !
 ! A18   A(6,7,14)             109.8792         estimate D2E/DX2                !
 ! A19   A(8,7,14)             132.8075         estimate D2E/DX2                !
 ! A20   A(7,8,9)              119.1523         estimate D2E/DX2                !
 ! A21   A(7,8,13)             120.7792         estimate D2E/DX2                !
 ! A22   A(9,8,13)             120.0684         estimate D2E/DX2                !
 ! A23   A(8,9,10)             119.8008         estimate D2E/DX2                !
 ! A24   A(8,9,20)             120.2101         estimate D2E/DX2                !
 ! A25   A(10,9,20)            119.9891         estimate D2E/DX2                !
 ! A26   A(9,10,11)            120.0129         estimate D2E/DX2                !
 ! A27   A(9,10,21)            119.7004         estimate D2E/DX2                !
 ! A28   A(11,10,21)           120.2867         estimate D2E/DX2                !
 ! A29   A(10,11,12)           120.2532         estimate D2E/DX2                !
 ! A30   A(10,11,22)           119.8395         estimate D2E/DX2                !
 ! A31   A(12,11,22)           119.9073         estimate D2E/DX2                !
 ! A32   A(11,12,13)           120.1837         estimate D2E/DX2                !
 ! A33   A(11,12,23)           120.1293         estimate D2E/DX2                !
 ! A34   A(13,12,23)           119.6869         estimate D2E/DX2                !
 ! A35   A(8,13,12)            119.681          estimate D2E/DX2                !
 ! A36   A(8,13,24)            120.0508         estimate D2E/DX2                !
 ! A37   A(12,13,24)           120.2681         estimate D2E/DX2                !
 ! A38   A(4,14,7)             105.1227         estimate D2E/DX2                !
 ! A39   A(4,14,25)            126.7707         estimate D2E/DX2                !
 ! A40   A(7,14,25)            128.0994         estimate D2E/DX2                !
 ! A41   A(2,15,16)            111.1007         estimate D2E/DX2                !
 ! A42   A(2,15,17)            109.8458         estimate D2E/DX2                !
 ! A43   A(2,15,32)            105.3339         estimate D2E/DX2                !
 ! A44   A(16,15,17)           112.9335         estimate D2E/DX2                !
 ! A45   A(16,15,32)           109.2678         estimate D2E/DX2                !
 ! A46   A(17,15,32)           108.0303         estimate D2E/DX2                !
 ! A47   A(15,16,26)           109.419          estimate D2E/DX2                !
 ! A48   A(15,16,27)           106.943          estimate D2E/DX2                !
 ! A49   A(15,16,28)           108.5216         estimate D2E/DX2                !
 ! A50   A(26,16,27)           109.8436         estimate D2E/DX2                !
 ! A51   A(26,16,28)           111.087          estimate D2E/DX2                !
 ! A52   A(27,16,28)           110.918          estimate D2E/DX2                !
 ! A53   A(15,17,29)           108.4723         estimate D2E/DX2                !
 ! A54   A(15,17,30)           108.8809         estimate D2E/DX2                !
 ! A55   A(15,17,31)           106.574          estimate D2E/DX2                !
 ! A56   A(29,17,30)           111.5745         estimate D2E/DX2                !
 ! A57   A(29,17,31)           110.6751         estimate D2E/DX2                !
 ! A58   A(30,17,31)           110.4981         estimate D2E/DX2                !
 ! D1    D(1,2,3,4)           -165.5764         estimate D2E/DX2                !
 ! D2    D(1,2,3,19)            21.8522         estimate D2E/DX2                !
 ! D3    D(15,2,3,4)            84.0962         estimate D2E/DX2                !
 ! D4    D(15,2,3,19)          -88.4753         estimate D2E/DX2                !
 ! D5    D(18,2,3,4)           -26.0492         estimate D2E/DX2                !
 ! D6    D(18,2,3,19)          161.3793         estimate D2E/DX2                !
 ! D7    D(1,2,15,16)          -39.3309         estimate D2E/DX2                !
 ! D8    D(1,2,15,17)           86.353          estimate D2E/DX2                !
 ! D9    D(1,2,15,32)         -157.5319         estimate D2E/DX2                !
 ! D10   D(3,2,15,16)           73.07           estimate D2E/DX2                !
 ! D11   D(3,2,15,17)         -161.2461         estimate D2E/DX2                !
 ! D12   D(3,2,15,32)          -45.131          estimate D2E/DX2                !
 ! D13   D(18,2,15,16)        -172.6129         estimate D2E/DX2                !
 ! D14   D(18,2,15,17)         -46.9289         estimate D2E/DX2                !
 ! D15   D(18,2,15,32)          69.1862         estimate D2E/DX2                !
 ! D16   D(2,3,4,5)           -167.7938         estimate D2E/DX2                !
 ! D17   D(2,3,4,14)            13.1533         estimate D2E/DX2                !
 ! D18   D(19,3,4,5)             4.5185         estimate D2E/DX2                !
 ! D19   D(19,3,4,14)         -174.5344         estimate D2E/DX2                !
 ! D20   D(3,4,5,6)           -177.5167         estimate D2E/DX2                !
 ! D21   D(3,4,5,33)            -5.3106         estimate D2E/DX2                !
 ! D22   D(14,4,5,6)             1.7386         estimate D2E/DX2                !
 ! D23   D(14,4,5,33)          173.9447         estimate D2E/DX2                !
 ! D24   D(3,4,14,7)           178.1391         estimate D2E/DX2                !
 ! D25   D(3,4,14,25)           -0.9427         estimate D2E/DX2                !
 ! D26   D(5,4,14,7)            -0.9973         estimate D2E/DX2                !
 ! D27   D(5,4,14,25)          179.9209         estimate D2E/DX2                !
 ! D28   D(4,5,6,7)             -1.7746         estimate D2E/DX2                !
 ! D29   D(33,5,6,7)          -175.4786         estimate D2E/DX2                !
 ! D30   D(5,6,7,8)           -179.0218         estimate D2E/DX2                !
 ! D31   D(5,6,7,14)             1.1148         estimate D2E/DX2                !
 ! D32   D(6,7,8,9)           -178.7846         estimate D2E/DX2                !
 ! D33   D(6,7,8,13)             1.2982         estimate D2E/DX2                !
 ! D34   D(14,7,8,9)             1.0403         estimate D2E/DX2                !
 ! D35   D(14,7,8,13)         -178.8769         estimate D2E/DX2                !
 ! D36   D(6,7,14,4)            -0.0955         estimate D2E/DX2                !
 ! D37   D(6,7,14,25)          178.9699         estimate D2E/DX2                !
 ! D38   D(8,7,14,4)          -179.9301         estimate D2E/DX2                !
 ! D39   D(8,7,14,25)           -0.8647         estimate D2E/DX2                !
 ! D40   D(7,8,9,10)          -179.9246         estimate D2E/DX2                !
 ! D41   D(7,8,9,20)             0.1539         estimate D2E/DX2                !
 ! D42   D(13,8,9,10)           -0.0067         estimate D2E/DX2                !
 ! D43   D(13,8,9,20)         -179.9283         estimate D2E/DX2                !
 ! D44   D(7,8,13,12)          179.8789         estimate D2E/DX2                !
 ! D45   D(7,8,13,24)           -0.0389         estimate D2E/DX2                !
 ! D46   D(9,8,13,12)           -0.0376         estimate D2E/DX2                !
 ! D47   D(9,8,13,24)         -179.9554         estimate D2E/DX2                !
 ! D48   D(8,9,10,11)            0.0633         estimate D2E/DX2                !
 ! D49   D(8,9,10,21)         -179.9241         estimate D2E/DX2                !
 ! D50   D(20,9,10,11)         179.985          estimate D2E/DX2                !
 ! D51   D(20,9,10,21)          -0.0024         estimate D2E/DX2                !
 ! D52   D(9,10,11,12)          -0.0761         estimate D2E/DX2                !
 ! D53   D(9,10,11,22)         179.9245         estimate D2E/DX2                !
 ! D54   D(21,10,11,12)        179.9113         estimate D2E/DX2                !
 ! D55   D(21,10,11,22)         -0.088          estimate D2E/DX2                !
 ! D56   D(10,11,12,13)          0.0315         estimate D2E/DX2                !
 ! D57   D(10,11,12,23)        179.9674         estimate D2E/DX2                !
 ! D58   D(22,11,12,13)       -179.9691         estimate D2E/DX2                !
 ! D59   D(22,11,12,23)         -0.0333         estimate D2E/DX2                !
 ! D60   D(11,12,13,8)           0.0251         estimate D2E/DX2                !
 ! D61   D(11,12,13,24)        179.9428         estimate D2E/DX2                !
 ! D62   D(23,12,13,8)        -179.911          estimate D2E/DX2                !
 ! D63   D(23,12,13,24)          0.0067         estimate D2E/DX2                !
 ! D64   D(2,15,16,26)         -59.2387         estimate D2E/DX2                !
 ! D65   D(2,15,16,27)        -178.1632         estimate D2E/DX2                !
 ! D66   D(2,15,16,28)          62.1223         estimate D2E/DX2                !
 ! D67   D(17,15,16,26)        176.8169         estimate D2E/DX2                !
 ! D68   D(17,15,16,27)         57.8925         estimate D2E/DX2                !
 ! D69   D(17,15,16,28)        -61.8221         estimate D2E/DX2                !
 ! D70   D(32,15,16,26)         56.5566         estimate D2E/DX2                !
 ! D71   D(32,15,16,27)        -62.3678         estimate D2E/DX2                !
 ! D72   D(32,15,16,28)        177.9176         estimate D2E/DX2                !
 ! D73   D(2,15,17,29)          54.0236         estimate D2E/DX2                !
 ! D74   D(2,15,17,30)         -67.576          estimate D2E/DX2                !
 ! D75   D(2,15,17,31)         173.2201         estimate D2E/DX2                !
 ! D76   D(16,15,17,29)        178.6552         estimate D2E/DX2                !
 ! D77   D(16,15,17,30)         57.0555         estimate D2E/DX2                !
 ! D78   D(16,15,17,31)        -62.1484         estimate D2E/DX2                !
 ! D79   D(32,15,17,29)        -60.3787         estimate D2E/DX2                !
 ! D80   D(32,15,17,30)        178.0217         estimate D2E/DX2                !
 ! D81   D(32,15,17,31)         58.8178         estimate D2E/DX2                !
 --------------------------------------------------------------------------------
 Trust Radius=3.00D-01 FncErr=1.00D-07 GrdErr=1.00D-06 EigMax=2.50D+02 EigMin=1.00D-04
 Number of steps in this run=    183 maximum allowed number of steps=    198.
 GradGradGradGradGradGradGradGradGradGradGradGradGradGradGradGradGradGrad

 Leave Link  103 at Mon Sep 28 08:11:44 2020, MaxMem=  2147483648 cpu:               0.1 elap:               0.0
 (Enter /prod/apps/gaussian/g16b1/l202.exe)
                          Input orientation:                          
 ---------------------------------------------------------------------
 Center     Atomic      Atomic             Coordinates (Angstroms)
 Number     Number       Type             X           Y           Z
 ---------------------------------------------------------------------
      1          8           0        4.026000   -0.216000   -1.017000
      2         16           0        2.740000    0.223000   -0.530000
      3          7           0        1.771000   -1.113000   -0.386000
      4          6           0        0.403000   -1.089000   -0.225000
      5          7           0       -0.245000   -2.196000    0.121000
      6          8           0       -1.587000   -1.959000    0.170000
      7          6           0       -1.758000   -0.644000   -0.121000
      8          6           0       -3.113000   -0.132000   -0.112000
      9          6           0       -3.337000    1.218000   -0.433000
     10          6           0       -4.632000    1.724000   -0.427000
     11          6           0       -5.707000    0.891000   -0.101000
     12          6           0       -5.486000   -0.451000    0.218000
     13          6           0       -4.195000   -0.967000    0.214000
     14          6           0       -0.537000   -0.058000   -0.377000
     15          7           0        3.031000    0.689000    1.244000
     16          6           0        3.969000   -0.272000    1.907000
     17          6           0        3.499000    2.117000    1.327000
     18          8           0        1.975000    1.327000   -1.066000
     19          1           0        2.267000   -2.007000   -0.304000
     20          1           0       -2.504000    1.864000   -0.686000
     21          1           0       -4.803000    2.765000   -0.676000
     22          1           0       -6.716000    1.289000   -0.096000
     23          1           0       -6.321000   -1.095000    0.471000
     24          1           0       -4.022000   -2.007000    0.462000
     25          1           0       -0.335000    0.962000   -0.651000
     26          1           0        3.550000   -1.275000    1.863000
     27          1           0        4.065000    0.043000    2.944000
     28          1           0        4.928000   -0.226000    1.397000
     29          1           0        2.782000    2.745000    0.806000
     30          1           0        4.490000    2.189000    0.884000
     31          1           0        3.535000    2.371000    2.385000
     32          1           0        2.102000    0.629000    1.699000
     33          1           0        0.044000   -3.168000    0.249000
 ---------------------------------------------------------------------
                    Distance matrix (angstroms):
                    1          2          3          4          5
     1  O    0.000000
     2  S    1.443498   0.000000
     3  N    2.507548   1.656681   0.000000
     4  C    3.809924   2.697395   1.377651   0.000000
     5  N    4.843231   3.896869   2.343970   1.328559   0.000000
     6  O    5.996064   4.896331   3.507280   2.207493   1.363647
     7  C    5.868616   4.599019   3.569878   2.208792   2.180926
     8  C    7.196624   5.878636   4.989077   3.645665   3.541159
     9  C    7.524040   6.158682   5.614930   4.399217   4.639265
    10  C    8.892281   7.523961   7.003475   5.771048   5.908678
    11  C    9.838485   8.484225   7.747111   6.424008   6.277921
    12  C    9.594717   8.287391   7.312121   5.940001   5.524719
    13  C    8.346508   7.075582   5.997872   4.620520   4.137824
    14  C    4.610372   3.292582   2.537710   1.403448   2.214568
    15  N    2.630812   1.857125   2.737098   3.496517   4.507386
    16  C    2.925092   2.773884   3.285778   4.234297   4.964813
    17  C    3.348874   2.758943   4.043916   4.719360   5.837289
    18  O    2.567071   1.446146   2.541184   3.002586   4.330000
    19  H    2.609623   2.290787   1.025659   2.079293   2.554700
    20  H    6.861258   5.496977   5.218060   4.169338   4.715711
    21  H    9.324907   7.961151   7.638093   6.493008   6.783959
    22  H   10.885946   9.525789   8.825127   7.506776   7.352969
    23  H   10.490338   9.210909   8.137275   6.759928   6.184859
    24  H    8.376481   7.188992   5.922600   4.571140   3.797069
    25  H    4.532103   3.164868   2.968347   2.220973   3.252237
    26  H    3.105231   2.937099   2.872122   3.781263   4.276076
    27  H    3.969650   3.722459   4.205671   4.973352   5.617700
    28  H    2.577033   2.949962   3.732627   4.883777   5.680581
    29  H    3.693019   2.854320   4.162589   4.628408   5.834847
    30  H    3.100504   2.987817   4.461958   5.355253   6.498509
    31  H    4.302006   3.707176   4.788360   5.347254   6.345990
    32  H    3.434015   2.353789   2.737033   3.088673   3.997389
    33  H    5.115993   4.401606   2.758402   2.162359   1.022100
                    6          7          8          9         10
     6  O    0.000000
     7  C    1.357626   0.000000
     8  C    2.397108   1.448534   0.000000
     9  C    3.676879   2.461225   1.405602   0.000000
    10  C    4.815903   3.736434   2.418951   1.390359   0.000000
    11  C    5.017005   4.236889   2.788456   2.415378   1.398496
    12  C    4.180738   3.748354   2.416980   2.797778   2.424039
    13  C    2.790639   2.481033   1.405071   2.434953   2.800595
    14  C    2.239533   1.378323   2.590652   3.077550   4.466212
    15  N    5.430590   5.155059   6.345196   6.606330   7.911070
    16  C    6.060716   6.086846   7.365506   7.814943   9.132840
    17  C    6.619654   6.111945   7.130727   7.115947   8.327312
    18  O    5.001333   4.325870   5.378340   5.350693   6.649690
    19  H    3.883336   4.253455   5.700604   6.466999   7.844214
    20  H    4.023550   2.676902   2.164341   1.084073   2.148270
    21  H    5.777071   4.604490   3.401001   2.145091   1.083939
    22  H    6.076751   5.321548   3.873126   3.396506   2.154493
    23  H    4.821603   4.623293   3.399783   3.882195   3.406741
    24  H    2.452915   2.706170   2.161338   3.416266   3.883656
    25  H    3.282345   2.210218   3.033915   3.020772   4.369786
    26  H    5.451869   5.701691   7.042914   7.675769   9.010173
    27  H    6.606677   6.616156   7.803425   8.220362   9.477722
    28  H    6.852302   6.868890   8.181907   8.587448   9.925879
    29  H    6.451378   5.740753   6.623509   6.427209   7.584862
    30  H    7.392268   6.933500   8.011533   7.996203   9.227450
    31  H    7.063286   6.586813   7.529669   7.516310   8.661746
    32  H    4.758603   4.453373   5.572707   5.871547   7.146024
    33  H    2.031768   3.123248   4.394800   5.579721   6.801001
                   11         12         13         14         15
    11  C    0.000000
    12  C    1.396985   0.000000
    13  C    2.416099   1.390307   0.000000
    14  C    5.263618   5.000107   3.815302   0.000000
    15  N    8.843216   8.653991   7.484538   3.989521   0.000000
    16  C    9.950357   9.606341   8.366610   5.056331   1.497643
    17  C    9.396419   9.410352   8.363460   4.891169   1.505024
    18  O    7.754640   7.776661   6.705948   2.950100   2.618832
    19  H    8.486712   7.924811   6.565620   3.415603   3.201315
    20  H    3.398259   3.881851   3.418193   2.767427   5.978440
    21  H    2.158638   3.407107   3.884532   5.124206   8.328729
    22  H    1.084670   2.153856   3.397216   6.330356   9.856957
    23  H    2.156009   1.084422   2.145299   5.937098   9.551968
    24  H    3.399205   2.150341   1.083066   4.080165   7.591097
    25  H    5.400549   5.411518   4.401007   1.075305   3.872404
    26  H    9.707775   9.221404   7.924588   4.816872   2.123633
    27  H   10.270497   9.944683   8.757888   5.676059   2.092002
    28  H   10.797913  10.482941   9.229177   5.748176   2.111692
    29  H    8.736308   8.883692   7.925146   4.502450   2.116833
    30  H   10.326366  10.340877   9.264905   5.648881   2.123271
    31  H    9.684274   9.697320   8.695308   5.487246   2.094044
    32  H    8.018050   7.806248   6.663681   3.427253   1.036179
    33  H    7.047835   6.161489   4.776479   3.225141   4.978819
                   16         17         18         19         20
    16  C    0.000000
    17  C    2.502922   0.000000
    18  O    3.920659   2.945017   0.000000
    19  H    3.285658   4.602756   3.432414   0.000000
    20  H    7.292865   6.336575   4.527053   6.155730   0.000000
    21  H    9.635520   8.564760   6.939829   8.537873   2.469272
    22  H   10.982621  10.346823   8.745046   9.570850   4.291814
    23  H   10.422261  10.367356   8.777931   8.670993   4.966268
    24  H    8.303874   8.620965   7.029534   6.335478   4.313568
    25  H    5.156601   4.466102   2.375195   3.963051   2.349338
    26  H    1.087891   3.434467   4.222567   2.622556   7.280222
    27  H    1.088030   2.690078   4.700729   4.240850   7.722998
    28  H    1.087151   2.745285   4.147094   3.625780   7.996350
    29  H    3.423954   1.086238   2.483215   4.907018   5.562735
    30  H    2.715601   1.087894   3.297085   4.894843   7.175414
    31  H    2.720715   1.088658   3.928478   5.292016   6.793939
    32  H    2.083448   2.074641   2.854568   3.314775   5.331856
    33  H    5.151835   6.405492   5.065867   2.568163   5.717303
                   21         22         23         24         25
    21  H    0.000000
    22  H    2.484863   0.000000
    23  H    4.303433   2.482130   0.000000
    24  H    4.967594   4.293322   2.473303   0.000000
    25  H    4.818138   6.413432   6.428245   4.862890   0.000000
    26  H    9.619809  10.761159   9.970291   7.735232   5.139804
    27  H    9.957666  11.270496  10.736842   8.704160   5.755744
    28  H   10.389214  11.836681  11.320452   9.173259   5.771033
    29  H    7.728451   9.651194   9.885466   8.306278   3.875258
    30  H    9.440616  11.284717  11.306323   9.499402   5.209835
    31  H    8.890849  10.602315  10.621548   8.942766   5.116588
    32  H    7.608032   9.023012   8.684877   6.781006   3.401817
    33  H    7.716834   8.104411   6.697749   4.233869   4.243883
                   26         27         28         29         30
    26  H    0.000000
    27  H    1.780705   0.000000
    28  H    1.793444   1.791742   0.000000
    29  H    4.226993   3.676675   3.712336   0.000000
    30  H    3.720395   3.004919   2.507437   1.797911   0.000000
    31  H    3.683209   2.452135   3.108215   1.788890   1.788337
    32  H    2.397669   2.397246   2.967913   2.395267   2.966542
    33  H    4.298893   5.808785   5.816075   6.539913   6.990536
                   31         32         33
    31  H    0.000000
    32  H    2.357679   0.000000
    33  H    6.886951   4.555774   0.000000
 Symmetry turned off by external request.
 Stoichiometry    C11H15N3O3S(2+)
 Framework group  C1[X(C11H15N3O3S)]
 Deg. of freedom    93
 Full point group                 C1      NOp   1
 Rotational constants (GHZ):           0.9227355           0.1669352           0.1555024
 Leave Link  202 at Mon Sep 28 08:11:44 2020, MaxMem=  2147483648 cpu:               0.0 elap:               0.0
 (Enter /prod/apps/gaussian/g16b1/l301.exe)
 Standard basis: 6-31G(d) (6D, 7F)
 Ernie: Thresh=  0.10000D-02 Tol=  0.10000D-05 Strict=F.
   304 basis functions,   588 primitive gaussians,   304 cartesian basis functions
    70 alpha electrons       70 beta electrons
       nuclear repulsion energy      1488.6742478453 Hartrees.
 IExCor=  402 DFT=T Ex+Corr=B3LYP ExCW=0 ScaHFX=  0.200000
 ScaDFX=  0.800000  0.720000  1.000000  0.810000 ScalE2=  1.000000  1.000000
 IRadAn=      5 IRanWt=     -1 IRanGd=            0 ICorTp=0 IEmpDi=  4
 NAtoms=   33 NActive=   33 NUniq=   33 SFac= 1.00D+00 NAtFMM=   60 NAOKFM=F Big=F
 Integral buffers will be    131072 words long.
 Raffenetti 2 integral format.
 Two-electron integral symmetry is turned off.
 Using the following non-standard input for PCM:
 MSTModel=DFT cav MSTcharged
 --- end of non-standard input.
 MST model for solvation energy: B3LYP parametrization.
 MST cavity parameters:
 ISph   IAn     Re0     Alpha   Atom Type   QCorr
 ------------------------------------------------
   1      8     1.40     1.25      O          F
   2     16     1.75     1.25      S          F
   3      7     1.50     1.25      NH         F
   4      6     1.50     1.25      C          F
   5      7     1.50     1.15      NH         T
   6      8     1.40     1.25      O          F
   7      6     1.50     1.25      C          F
   8      6     1.50     1.25      C          F
   9      6     1.50     1.25      CH         F
  10      6     1.50     1.25      CH         F
  11      6     1.50     1.25      CH         F
  12      6     1.50     1.25      CH         F
  13      6     1.50     1.25      CH         F
  14      6     1.50     1.25      CH         F
  15      7     1.50     1.15      NH         T
  16      6     1.50     1.25      CH3        F
  17      6     1.50     1.25      CH3        F
  18      8     1.40     1.25      O          F
  19      1     0.90     1.25      NH         F
  20      1     1.20     1.25      CH         F
  21      1     1.20     1.25      CH         F
  22      1     1.20     1.25      CH         F
  23      1     1.20     1.25      CH         F
  24      1     1.20     1.25      CH         F
  25      1     1.20     1.25      CH         F
  26      1     1.20     1.25      CH3        F
  27      1     1.20     1.25      CH3        F
  28      1     1.20     1.25      CH3        F
  29      1     1.20     1.25      CH3        F
  30      1     1.20     1.25      CH3        F
  31      1     1.20     1.25      CH3        F
  32      1     0.90     1.15      NH         T
  33      1     0.90     1.15      NH         T
 ------------------------------------------------------------------------------
 Polarizable Continuum Model (PCM)
 =================================
 Model                : PCM.
 Atomic radii         : MST.
 Polarization charges : Total charges.
 Charge compensation  : None.
 Solution method      : On-the-fly selection.
 Cavity type          : Scaled VdW (van der Waals Surface) (Alpha=1.250).
 Cavity algorithm     : GePol (No added spheres)
                        Default sphere list used, NSphG=   33.
                        Lebedev-Laikov grids with approx.  5.0 points / Ang**2.
                        Smoothing algorithm: York/Karplus (Gamma=1.0000).
                        Polarization charges: spherical gaussians, with
                                              point-specific exponents (IZeta= 3).
                        Self-potential: point-specific (ISelfS= 7).
                        Self-field    : sphere-specific E.n sum rule (ISelfD= 2).
 1st derivatives      : Analytical E(r).r(x)/FMM algorithm (CHGder, D1EAlg=3).
                        Cavity 1st derivative terms included.
 Solvent              : Water, Eps=  78.355300 Eps(inf)=   1.777849
 ------------------------------------------------------------------------------
 GePol: Number of generator spheres                  =      33
 GePol: Total number of spheres                      =      33
 GePol: Number of exposed spheres                    =      33 (100.00%)
 GePol: Number of points                             =    2422
 GePol: Average weight of points                     =       0.13
 GePol: Minimum weight of points                     =   0.43D-09
 GePol: Maximum weight of points                     =    0.22001
 GePol: Number of points with low weight             =     157
 GePol: Fraction of low-weight points (<1% of avg)   =       6.48%
 GePol: Cavity surface area                          =    310.141 Ang**2
 GePol: Cavity volume                                =    294.071 Ang**3
 PCM non-electrostatic energy =         0.0019845376 Hartrees.
 Nuclear repulsion after PCM non-electrostatic terms =     1488.6762323829 Hartrees.
 Leave Link  301 at Mon Sep 28 08:11:44 2020, MaxMem=  2147483648 cpu:               0.3 elap:               0.1
 (Enter /prod/apps/gaussian/g16b1/l302.exe)
 NPDir=0 NMtPBC=     1 NCelOv=     1 NCel=       1 NClECP=     1 NCelD=      1
         NCelK=      1 NCelE2=     1 NClLst=     1 CellRange=     0.0.
 One-electron integrals computed using PRISM.
 NBasis=   304 RedAO= T EigKep=  4.62D-04  NBF=   304
 NBsUse=   304 1.00D-06 EigRej= -1.00D+00 NBFU=   304
 Precomputing XC quadrature grid using
 IXCGrd= 4 IRadAn=           5 IRanWt=          -1 IRanGd=           0 AccXCQ= 0.00D+00.
 Generated NRdTot=       0 NPtTot=           0 NUsed=           0 NTot=          32
 NSgBfM=   303   303   303   303   303 MxSgAt=    33 MxSgA2=    33.
 Leave Link  302 at Mon Sep 28 08:11:45 2020, MaxMem=  2147483648 cpu:               1.7 elap:               0.4
 (Enter /prod/apps/gaussian/g16b1/l303.exe)
 DipDrv:  MaxL=1.
 Leave Link  303 at Mon Sep 28 08:11:45 2020, MaxMem=  2147483648 cpu:               0.2 elap:               0.1
 (Enter /prod/apps/gaussian/g16b1/l401.exe)
 ExpMin= 1.17D-01 ExpMax= 2.19D+04 ExpMxC= 3.30D+03 IAcc=3 IRadAn=         5 AccDes= 0.00D+00
 Harris functional with IExCor=  402 and IRadAn=       5 diagonalized for initial guess.
 HarFok:  IExCor=  402 AccDes= 0.00D+00 IRadAn=         5 IDoV= 1 UseB2=F ITyADJ=14
 ICtDFT=  3500011 ScaDFX=  1.000000  1.000000  1.000000  1.000000
 FoFCou: FMM=F IPFlag=           0 FMFlag=      100000 FMFlg1=           0
         NFxFlg=           0 DoJE=T BraDBF=F KetDBF=T FulRan=T
         wScrn=  0.000000 ICntrl=       500 IOpCl=  0 I1Cent=   200000004 NGrid=           0
         NMat0=    1 NMatS0=      1 NMatT0=    0 NMatD0=    1 NMtDS0=    0 NMtDT0=    0
 Symmetry not used in FoFCou.
 Harris En= -1215.80279516197    
 JPrj=0 DoOrth=F DoCkMO=F.
 Leave Link  401 at Mon Sep 28 08:11:47 2020, MaxMem=  2147483648 cpu:               8.8 elap:               2.2
 (Enter /prod/apps/gaussian/g16b1/l502.exe)
 Two-electron integral symmetry not used.
 Closed shell SCF:
 Using DIIS extrapolation, IDIIS=  1040.
 NGot=  2147483648 LenX=  2147294283 LenY=  2147201426
 Requested convergence on RMS density matrix=1.00D-08 within2000 cycles.
 Requested convergence on MAX density matrix=1.00D-06.
 Requested convergence on             energy=1.00D-06.
 No special actions if energy rises.

 Cycle   1  Pass 1  IDiag  1:
 FoFJK:  IHMeth= 1 ICntrl=       0 DoSepK=F KAlg= 0 I1Cent=           0 FoldK=F
 IRaf= 760000000 NMat=       1 IRICut=       1 DoRegI=T DoRafI=F ISym2E= 0 IDoP0=0 IntGTp=1.
 FoFCou: FMM=F IPFlag=           0 FMFlag=      100000 FMFlg1=           0
         NFxFlg=           0 DoJE=F BraDBF=F KetDBF=F FulRan=T
         wScrn=  0.000000 ICntrl=         0 IOpCl=  0 I1Cent=           0 NGrid=           0
         NMat0=    1 NMatS0=      1 NMatT0=    0 NMatD0=    1 NMtDS0=    0 NMtDT0=    0
 Symmetry not used in FoFCou.
 Inv3:  Mode=1 IEnd=    17598252.
 Iteration    1 A*A^-1 deviation from unit magnitude is 3.00D-15 for   1882.
 Iteration    1 A*A^-1 deviation from orthogonality  is 3.18D-15 for   2069    539.
 Iteration    1 A^-1*A deviation from unit magnitude is 3.11D-15 for   1279.
 Iteration    1 A^-1*A deviation from orthogonality  is 2.70D-15 for   2138   2069.
 E= -1215.33337564955    
 DIIS: error= 3.69D-02 at cycle   1 NSaved=   1.
 NSaved= 1 IEnMin= 1 EnMin= -1215.33337564955     IErMin= 1 ErrMin= 3.69D-02
 ErrMax= 3.69D-02  0.00D+00 EMaxC= 1.00D-01 BMatC= 6.12D-01 BMatP= 6.12D-01
 IDIUse=3 WtCom= 6.31D-01 WtEn= 3.69D-01
 Coeff-Com:  0.100D+01
 Coeff-En:   0.100D+01
 Coeff:      0.100D+01
 Gap=     0.340 Goal=   None    Shift=    0.000
 GapD=    0.340 DampG=1.000 DampE=0.500 DampFc=0.5000 IDamp=-1.
 Damping current iteration by 5.00D-01
 RMSDP=6.72D-03 MaxDP=6.80D-01              OVMax= 3.88D-01

 Cycle   2  Pass 1  IDiag  1:
 E= -1215.41037913729     Delta-E=       -0.077003487736 Rises=F Damp=T
 DIIS: error= 1.60D-02 at cycle   2 NSaved=   2.
 NSaved= 2 IEnMin= 2 EnMin= -1215.41037913729     IErMin= 2 ErrMin= 1.60D-02
 ErrMax= 1.60D-02  0.00D+00 EMaxC= 1.00D-01 BMatC= 1.31D-01 BMatP= 6.12D-01
 IDIUse=3 WtCom= 8.40D-01 WtEn= 1.60D-01
 Coeff-Com:  0.273D+00 0.727D+00
 Coeff-En:   0.434D+00 0.566D+00
 Coeff:      0.298D+00 0.702D+00
 Gap=     0.175 Goal=   None    Shift=    0.000
 RMSDP=2.02D-03 MaxDP=1.54D-01 DE=-7.70D-02 OVMax= 3.11D-01

 Cycle   3  Pass 1  IDiag  1:
 E= -1215.82806702882     Delta-E=       -0.417687891533 Rises=F Damp=F
 DIIS: error= 7.61D-03 at cycle   3 NSaved=   3.
 NSaved= 3 IEnMin= 3 EnMin= -1215.82806702882     IErMin= 3 ErrMin= 7.61D-03
 ErrMax= 7.61D-03  0.00D+00 EMaxC= 1.00D-01 BMatC= 5.19D-02 BMatP= 1.31D-01
 IDIUse=3 WtCom= 9.24D-01 WtEn= 7.61D-02
 Coeff-Com:  0.900D-01 0.390D+00 0.520D+00
 Coeff-En:   0.000D+00 0.000D+00 0.100D+01
 Coeff:      0.832D-01 0.360D+00 0.557D+00
 Gap=     0.171 Goal=   None    Shift=    0.000
 RMSDP=8.95D-04 MaxDP=3.66D-02 DE=-4.18D-01 OVMax= 6.25D-02

 Cycle   4  Pass 1  IDiag  1:
 E= -1215.86647129425     Delta-E=       -0.038404265428 Rises=F Damp=F
 DIIS: error= 2.94D-03 at cycle   4 NSaved=   4.
 NSaved= 4 IEnMin= 4 EnMin= -1215.86647129425     IErMin= 4 ErrMin= 2.94D-03
 ErrMax= 2.94D-03  0.00D+00 EMaxC= 1.00D-01 BMatC= 7.81D-03 BMatP= 5.19D-02
 IDIUse=3 WtCom= 9.71D-01 WtEn= 2.94D-02
 Coeff-Com:  0.230D-02 0.942D-01 0.299D+00 0.605D+00
 Coeff-En:   0.000D+00 0.000D+00 0.112D+00 0.888D+00
 Coeff:      0.223D-02 0.914D-01 0.293D+00 0.613D+00
 Gap=     0.168 Goal=   None    Shift=    0.000
 RMSDP=3.21D-04 MaxDP=1.47D-02 DE=-3.84D-02 OVMax= 2.96D-02

 Cycle   5  Pass 1  IDiag  1:
 E= -1215.87255104071     Delta-E=       -0.006079746463 Rises=F Damp=F
 DIIS: error= 1.18D-03 at cycle   5 NSaved=   5.
 NSaved= 5 IEnMin= 5 EnMin= -1215.87255104071     IErMin= 5 ErrMin= 1.18D-03
 ErrMax= 1.18D-03  0.00D+00 EMaxC= 1.00D-01 BMatC= 9.45D-04 BMatP= 7.81D-03
 IDIUse=3 WtCom= 9.88D-01 WtEn= 1.18D-02
 Coeff-Com: -0.760D-02 0.239D-01 0.120D+00 0.350D+00 0.513D+00
 Coeff-En:   0.000D+00 0.000D+00 0.000D+00 0.386D-01 0.961D+00
 Coeff:     -0.751D-02 0.236D-01 0.119D+00 0.346D+00 0.519D+00
 Gap=     0.169 Goal=   None    Shift=    0.000
 RMSDP=1.09D-04 MaxDP=7.06D-03 DE=-6.08D-03 OVMax= 1.32D-02

 Cycle   6  Pass 1  IDiag  1:
 E= -1215.87330563201     Delta-E=       -0.000754591301 Rises=F Damp=F
 DIIS: error= 3.91D-04 at cycle   6 NSaved=   6.
 NSaved= 6 IEnMin= 6 EnMin= -1215.87330563201     IErMin= 6 ErrMin= 3.91D-04
 ErrMax= 3.91D-04  0.00D+00 EMaxC= 1.00D-01 BMatC= 7.84D-05 BMatP= 9.45D-04
 IDIUse=3 WtCom= 9.96D-01 WtEn= 3.91D-03
 Coeff-Com: -0.445D-02 0.622D-02 0.357D-01 0.125D+00 0.283D+00 0.554D+00
 Coeff-En:   0.000D+00 0.000D+00 0.000D+00 0.000D+00 0.214D-02 0.998D+00
 Coeff:     -0.443D-02 0.619D-02 0.356D-01 0.125D+00 0.282D+00 0.556D+00
 Gap=     0.169 Goal=   None    Shift=    0.000
 RMSDP=3.03D-05 MaxDP=2.06D-03 DE=-7.55D-04 OVMax= 3.29D-03

 Cycle   7  Pass 1  IDiag  1:
 E= -1215.87336863250     Delta-E=       -0.000063000486 Rises=F Damp=F
 DIIS: error= 1.13D-04 at cycle   7 NSaved=   7.
 NSaved= 7 IEnMin= 7 EnMin= -1215.87336863250     IErMin= 7 ErrMin= 1.13D-04
 ErrMax= 1.13D-04  0.00D+00 EMaxC= 1.00D-01 BMatC= 7.24D-06 BMatP= 7.84D-05
 IDIUse=3 WtCom= 9.99D-01 WtEn= 1.13D-03
 Coeff-Com: -0.211D-02 0.154D-02 0.973D-02 0.407D-01 0.113D+00 0.314D+00
 Coeff-Com:  0.523D+00
 Coeff-En:   0.000D+00 0.000D+00 0.000D+00 0.000D+00 0.000D+00 0.000D+00
 Coeff-En:   0.100D+01
 Coeff:     -0.210D-02 0.153D-02 0.972D-02 0.406D-01 0.113D+00 0.314D+00
 Coeff:      0.523D+00
 Gap=     0.169 Goal=   None    Shift=    0.000
 RMSDP=7.97D-06 MaxDP=4.48D-04 DE=-6.30D-05 OVMax= 4.58D-04

 Cycle   8  Pass 1  IDiag  1:
 E= -1215.87337427672     Delta-E=       -0.000005644218 Rises=F Damp=F
 DIIS: error= 3.74D-05 at cycle   8 NSaved=   8.
 NSaved= 8 IEnMin= 8 EnMin= -1215.87337427672     IErMin= 8 ErrMin= 3.74D-05
 ErrMax= 3.74D-05  0.00D+00 EMaxC= 1.00D-01 BMatC= 4.26D-07 BMatP= 7.24D-06
 IDIUse=1 WtCom= 1.00D+00 WtEn= 0.00D+00
 Coeff-Com: -0.514D-03 0.979D-04-0.572D-04 0.326D-02 0.184D-01 0.890D-01
 Coeff-Com:  0.235D+00 0.654D+00
 Coeff:     -0.514D-03 0.979D-04-0.572D-04 0.326D-02 0.184D-01 0.890D-01
 Coeff:      0.235D+00 0.654D+00
 Gap=     0.169 Goal=   None    Shift=    0.000
 RMSDP=2.27D-06 MaxDP=1.20D-04 DE=-5.64D-06 OVMax= 1.14D-04

 Cycle   9  Pass 1  IDiag  1:
 E= -1215.87337460138     Delta-E=       -0.000000324659 Rises=F Damp=F
 DIIS: error= 7.61D-06 at cycle   9 NSaved=   9.
 NSaved= 9 IEnMin= 9 EnMin= -1215.87337460138     IErMin= 9 ErrMin= 7.61D-06
 ErrMax= 7.61D-06  0.00D+00 EMaxC= 1.00D-01 BMatC= 5.63D-08 BMatP= 4.26D-07
 IDIUse=1 WtCom= 1.00D+00 WtEn= 0.00D+00
 Coeff-Com: -0.660D-04-0.345D-04-0.928D-03-0.225D-02-0.199D-02 0.141D-01
 Coeff-Com:  0.603D-01 0.325D+00 0.606D+00
 Coeff:     -0.660D-04-0.345D-04-0.928D-03-0.225D-02-0.199D-02 0.141D-01
 Coeff:      0.603D-01 0.325D+00 0.606D+00
 Gap=     0.169 Goal=   None    Shift=    0.000
 RMSDP=8.26D-07 MaxDP=3.05D-05 DE=-3.25D-07 OVMax= 5.55D-05

 Cycle  10  Pass 1  IDiag  1:
 E= -1215.87337464462     Delta-E=       -0.000000043243 Rises=F Damp=F
 DIIS: error= 4.24D-06 at cycle  10 NSaved=  10.
 NSaved=10 IEnMin=10 EnMin= -1215.87337464462     IErMin=10 ErrMin= 4.24D-06
 ErrMax= 4.24D-06  0.00D+00 EMaxC= 1.00D-01 BMatC= 7.12D-09 BMatP= 5.63D-08
 IDIUse=1 WtCom= 1.00D+00 WtEn= 0.00D+00
 Coeff-Com: -0.995D-05-0.204D-04-0.537D-03-0.151D-02-0.246D-02 0.227D-02
 Coeff-Com:  0.176D-01 0.141D+00 0.346D+00 0.498D+00
 Coeff:     -0.995D-05-0.204D-04-0.537D-03-0.151D-02-0.246D-02 0.227D-02
 Coeff:      0.176D-01 0.141D+00 0.346D+00 0.498D+00
 Gap=     0.169 Goal=   None    Shift=    0.000
 RMSDP=2.86D-07 MaxDP=1.58D-05 DE=-4.32D-08 OVMax= 1.94D-05

 Cycle  11  Pass 1  IDiag  1:
 E= -1215.87337465005     Delta-E=       -0.000000005431 Rises=F Damp=F
 DIIS: error= 1.39D-06 at cycle  11 NSaved=  11.
 NSaved=11 IEnMin=11 EnMin= -1215.87337465005     IErMin=11 ErrMin= 1.39D-06
 ErrMax= 1.39D-06  0.00D+00 EMaxC= 1.00D-01 BMatC= 6.64D-10 BMatP= 7.12D-09
 IDIUse=1 WtCom= 1.00D+00 WtEn= 0.00D+00
 Coeff-Com:  0.314D-05-0.192D-05-0.161D-03-0.488D-03-0.111D-02-0.872D-03
 Coeff-Com: -0.274D-03 0.260D-01 0.923D-01 0.257D+00 0.628D+00
 Coeff:      0.314D-05-0.192D-05-0.161D-03-0.488D-03-0.111D-02-0.872D-03
 Coeff:     -0.274D-03 0.260D-01 0.923D-01 0.257D+00 0.628D+00
 Gap=     0.169 Goal=   None    Shift=    0.000
 RMSDP=9.82D-08 MaxDP=5.12D-06 DE=-5.43D-09 OVMax= 7.44D-06

 Cycle  12  Pass 1  IDiag  1:
 E= -1215.87337465047     Delta-E=       -0.000000000425 Rises=F Damp=F
 DIIS: error= 6.02D-07 at cycle  12 NSaved=  12.
 NSaved=12 IEnMin=12 EnMin= -1215.87337465047     IErMin=12 ErrMin= 6.02D-07
 ErrMax= 6.02D-07  0.00D+00 EMaxC= 1.00D-01 BMatC= 1.62D-10 BMatP= 6.64D-10
 IDIUse=1 WtCom= 1.00D+00 WtEn= 0.00D+00
 Coeff-Com:  0.285D-05 0.253D-05-0.338D-04-0.113D-03-0.392D-03-0.802D-03
 Coeff-Com: -0.252D-02-0.180D-02 0.132D-01 0.967D-01 0.399D+00 0.497D+00
 Coeff:      0.285D-05 0.253D-05-0.338D-04-0.113D-03-0.392D-03-0.802D-03
 Coeff:     -0.252D-02-0.180D-02 0.132D-01 0.967D-01 0.399D+00 0.497D+00
 Gap=     0.169 Goal=   None    Shift=    0.000
 RMSDP=4.00D-08 MaxDP=1.75D-06 DE=-4.25D-10 OVMax= 2.75D-06

 Cycle  13  Pass 1  IDiag  1:
 E= -1215.87337465061     Delta-E=       -0.000000000131 Rises=F Damp=F
 DIIS: error= 9.02D-08 at cycle  13 NSaved=  13.
 NSaved=13 IEnMin=13 EnMin= -1215.87337465061     IErMin=13 ErrMin= 9.02D-08
 ErrMax= 9.02D-08  0.00D+00 EMaxC= 1.00D-01 BMatC= 4.52D-12 BMatP= 1.62D-10
 IDIUse=1 WtCom= 1.00D+00 WtEn= 0.00D+00
 Coeff-Com:  0.600D-06 0.103D-05-0.131D-05-0.556D-05-0.662D-04-0.208D-03
 Coeff-Com: -0.908D-03-0.269D-02-0.220D-02 0.165D-01 0.961D-01 0.196D+00
 Coeff-Com:  0.698D+00
 Coeff:      0.600D-06 0.103D-05-0.131D-05-0.556D-05-0.662D-04-0.208D-03
 Coeff:     -0.908D-03-0.269D-02-0.220D-02 0.165D-01 0.961D-01 0.196D+00
 Coeff:      0.698D+00
 Gap=     0.169 Goal=   None    Shift=    0.000
 RMSDP=9.37D-09 MaxDP=4.31D-07 DE=-1.31D-10 OVMax= 8.67D-07

 Error on total polarization charges =  0.01840
 SCF Done:  E(RB3LYP) =  -1215.87337465     A.U. after   13 cycles
            NFock= 13  Conv=0.94D-08     -V/T= 2.0078
 KE= 1.206458512033D+03 PE=-5.782376756254D+03 EE= 1.871368637187D+03
 Leave Link  502 at Mon Sep 28 08:12:54 2020, MaxMem=  2147483648 cpu:             268.3 elap:              67.1
 (Enter /prod/apps/gaussian/g16b1/l601.exe)
 Copying SCF densities to generalized density rwf, IOpCl= 0 IROHF=0.

 **********************************************************************

            Population analysis using the SCF Density.

 **********************************************************************

 Alpha  occ. eigenvalues --  -89.20561 -19.30764 -19.22602 -19.22570 -14.49446
 Alpha  occ. eigenvalues --  -14.49262 -14.45703 -10.35839 -10.32194 -10.25843
 Alpha  occ. eigenvalues --  -10.25808 -10.24357 -10.23399 -10.21777 -10.21656
 Alpha  occ. eigenvalues --  -10.21166 -10.20793 -10.20768  -8.22873  -6.19362
 Alpha  occ. eigenvalues --   -6.19308  -6.19223  -1.23049  -1.20190  -1.09059
 Alpha  occ. eigenvalues --   -1.03471  -1.02231  -0.94596  -0.88935  -0.86182
 Alpha  occ. eigenvalues --   -0.78314  -0.77180  -0.76871  -0.76062  -0.71280
 Alpha  occ. eigenvalues --   -0.69306  -0.67703  -0.65324  -0.63294  -0.62195
 Alpha  occ. eigenvalues --   -0.60850  -0.57219  -0.56346  -0.55517  -0.54654
 Alpha  occ. eigenvalues --   -0.54360  -0.52202  -0.50552  -0.50202  -0.48956
 Alpha  occ. eigenvalues --   -0.47155  -0.47116  -0.45792  -0.44917  -0.44155
 Alpha  occ. eigenvalues --   -0.43900  -0.43648  -0.43567  -0.42858  -0.41322
 Alpha  occ. eigenvalues --   -0.39718  -0.39313  -0.38749  -0.38055  -0.37309
 Alpha  occ. eigenvalues --   -0.36284  -0.34139  -0.32092  -0.27243  -0.26424
 Alpha virt. eigenvalues --   -0.09517  -0.05731  -0.02333  -0.01632   0.00520
 Alpha virt. eigenvalues --    0.02264   0.04273   0.04644   0.05026   0.06401
 Alpha virt. eigenvalues --    0.08244   0.08485   0.09560   0.10559   0.11541
 Alpha virt. eigenvalues --    0.12427   0.12623   0.13516   0.14037   0.14571
 Alpha virt. eigenvalues --    0.14998   0.15460   0.15772   0.16614   0.17524
 Alpha virt. eigenvalues --    0.18458   0.18851   0.21508   0.22457   0.24807
 Alpha virt. eigenvalues --    0.26548   0.28065   0.29086   0.30703   0.31672
 Alpha virt. eigenvalues --    0.32763   0.34875   0.37881   0.39064   0.42152
 Alpha virt. eigenvalues --    0.43256   0.45281   0.46227   0.46568   0.47505
 Alpha virt. eigenvalues --    0.47978   0.49479   0.51856   0.51895   0.52425
 Alpha virt. eigenvalues --    0.52960   0.53539   0.54607   0.56061   0.56632
 Alpha virt. eigenvalues --    0.56752   0.57139   0.58188   0.59742   0.60216
 Alpha virt. eigenvalues --    0.60272   0.60822   0.61508   0.62932   0.63442
 Alpha virt. eigenvalues --    0.64670   0.65549   0.68753   0.70460   0.71815
 Alpha virt. eigenvalues --    0.72253   0.73250   0.74193   0.75544   0.75944
 Alpha virt. eigenvalues --    0.76395   0.77845   0.78813   0.80940   0.81198
 Alpha virt. eigenvalues --    0.81554   0.83162   0.83687   0.84209   0.84517
 Alpha virt. eigenvalues --    0.86003   0.86825   0.87283   0.88023   0.89059
 Alpha virt. eigenvalues --    0.89723   0.90243   0.91667   0.92548   0.93629
 Alpha virt. eigenvalues --    0.94405   0.94873   0.96272   0.96390   0.98286
 Alpha virt. eigenvalues --    0.99703   1.00877   1.01750   1.03683   1.04464
 Alpha virt. eigenvalues --    1.06390   1.08552   1.09109   1.11640   1.13016
 Alpha virt. eigenvalues --    1.14191   1.15819   1.16532   1.17086   1.17891
 Alpha virt. eigenvalues --    1.18798   1.21088   1.22770   1.25371   1.27393
 Alpha virt. eigenvalues --    1.28875   1.29181   1.32233   1.33532   1.35243
 Alpha virt. eigenvalues --    1.36348   1.40926   1.41224   1.42485   1.44650
 Alpha virt. eigenvalues --    1.45466   1.47168   1.47268   1.47405   1.48798
 Alpha virt. eigenvalues --    1.49953   1.52591   1.54567   1.55742   1.65108
 Alpha virt. eigenvalues --    1.66952   1.68306   1.72486   1.72901   1.74370
 Alpha virt. eigenvalues --    1.75772   1.76449   1.77678   1.78105   1.79983
 Alpha virt. eigenvalues --    1.80314   1.82337   1.86241   1.87156   1.87673
 Alpha virt. eigenvalues --    1.88983   1.89491   1.91087   1.91474   1.93371
 Alpha virt. eigenvalues --    1.94972   1.95596   1.96557   1.98526   1.99962
 Alpha virt. eigenvalues --    2.01524   2.03118   2.04416   2.05148   2.07094
 Alpha virt. eigenvalues --    2.07428   2.11773   2.12022   2.12240   2.15070
 Alpha virt. eigenvalues --    2.15449   2.16975   2.18107   2.19453   2.19844
 Alpha virt. eigenvalues --    2.22183   2.23417   2.24757   2.25742   2.28832
 Alpha virt. eigenvalues --    2.29551   2.30519   2.31410   2.31478   2.38572
 Alpha virt. eigenvalues --    2.39836   2.45062   2.49574   2.50596   2.52433
 Alpha virt. eigenvalues --    2.52979   2.56908   2.57679   2.59104   2.63621
 Alpha virt. eigenvalues --    2.64327   2.65510   2.67059   2.72326   2.73012
 Alpha virt. eigenvalues --    2.73521   2.74966   2.78232   2.85555   2.87829
 Alpha virt. eigenvalues --    2.89994   3.00837   3.02072   3.10221   3.25599
 Alpha virt. eigenvalues --    3.41464   3.76521   3.81700   3.90029   3.95309
 Alpha virt. eigenvalues --    3.99953   4.01520   4.06523   4.08053   4.09821
 Alpha virt. eigenvalues --    4.14325   4.19768   4.21408   4.29329   4.30592
 Alpha virt. eigenvalues --    4.37006   4.37926   4.53534   4.72395
          Condensed to atoms (all electrons):
               1          2          3          4          5          6
     1  O    8.129615   0.458216  -0.048435   0.000774  -0.000017   0.000000
     2  S    0.458216  13.489956   0.174396  -0.005779  -0.001038   0.000064
     3  N   -0.048435   0.174396   7.364484   0.240899  -0.062615   0.004027
     4  C    0.000774  -0.005779   0.240899   4.369653   0.304404  -0.034030
     5  N   -0.000017  -0.001038  -0.062615   0.304404   6.681410   0.160099
     6  O    0.000000   0.000064   0.004027  -0.034030   0.160099   8.100334
     7  C   -0.000000   0.000385   0.000274   0.011588  -0.097634   0.247473
     8  C   -0.000000  -0.000008  -0.000200   0.001073   0.004740  -0.029877
     9  C   -0.000000  -0.000001   0.000003   0.000995  -0.000142   0.003184
    10  C   -0.000000  -0.000000  -0.000000  -0.000012   0.000002  -0.000066
    11  C   -0.000000   0.000000   0.000000   0.000000  -0.000000   0.000003
    12  C   -0.000000  -0.000000  -0.000000   0.000006   0.000001   0.000189
    13  C   -0.000000   0.000000  -0.000000  -0.000499   0.000330  -0.008875
    14  C   -0.000020  -0.005440  -0.056277   0.470886  -0.028251  -0.078736
    15  N   -0.046017   0.097350  -0.046762   0.001215  -0.000046   0.000000
    16  C    0.003172  -0.010918  -0.001534   0.000167   0.000013  -0.000000
    17  C   -0.001289  -0.014794   0.001502   0.000012  -0.000000   0.000000
    18  O   -0.032995   0.426803  -0.050358   0.002030   0.000132  -0.000001
    19  H    0.000529  -0.007367   0.284503  -0.008707  -0.003093  -0.000015
    20  H   -0.000000  -0.000000  -0.000000   0.000197  -0.000011   0.000035
    21  H   -0.000000   0.000000  -0.000000   0.000000  -0.000000   0.000000
    22  H   -0.000000  -0.000000  -0.000000  -0.000000  -0.000000   0.000000
    23  H    0.000000   0.000000   0.000000  -0.000000   0.000000  -0.000002
    24  H   -0.000000  -0.000000  -0.000000   0.000025  -0.000151   0.006638
    25  H    0.000010   0.000136  -0.001849  -0.027720   0.004205   0.002511
    26  H   -0.001281  -0.001705   0.004479   0.000050  -0.000011   0.000000
    27  H    0.000189   0.001988  -0.000134  -0.000009  -0.000000   0.000000
    28  H    0.005217  -0.004428   0.000029  -0.000003   0.000000  -0.000000
    29  H   -0.000071  -0.003733   0.000056   0.000008   0.000000  -0.000000
    30  H    0.002230  -0.000294  -0.000011   0.000002   0.000000  -0.000000
    31  H   -0.000066   0.001842  -0.000069  -0.000003   0.000000  -0.000000
    32  H    0.000688  -0.006344   0.000588   0.001121   0.000019  -0.000004
    33  H   -0.000001  -0.000044  -0.001510  -0.022838   0.307501  -0.020097
               7          8          9         10         11         12
     1  O   -0.000000  -0.000000  -0.000000  -0.000000  -0.000000  -0.000000
     2  S    0.000385  -0.000008  -0.000001  -0.000000   0.000000  -0.000000
     3  N    0.000274  -0.000200   0.000003  -0.000000   0.000000  -0.000000
     4  C    0.011588   0.001073   0.000995  -0.000012   0.000000   0.000006
     5  N   -0.097634   0.004740  -0.000142   0.000002  -0.000000   0.000001
     6  O    0.247473  -0.029877   0.003184  -0.000066   0.000003   0.000189
     7  C    4.702284   0.366928  -0.040261   0.006568   0.000907   0.004880
     8  C    0.366928   4.764535   0.532822  -0.011449  -0.033181  -0.008933
     9  C   -0.040261   0.532822   4.982581   0.520645  -0.039187  -0.040195
    10  C    0.006568  -0.011449   0.520645   4.872472   0.536496  -0.025286
    11  C    0.000907  -0.033181  -0.039187   0.536496   4.859217   0.535804
    12  C    0.004880  -0.008933  -0.040195  -0.025286   0.535804   4.873705
    13  C   -0.038054   0.470628  -0.076829  -0.041130  -0.037721   0.512562
    14  C    0.455931  -0.056266  -0.018687   0.000276   0.000013  -0.000233
    15  N   -0.000025   0.000000  -0.000000  -0.000000  -0.000000  -0.000000
    16  C    0.000001   0.000000   0.000000   0.000000  -0.000000   0.000000
    17  C   -0.000000   0.000000   0.000000   0.000000  -0.000000  -0.000000
    18  O    0.000462  -0.000003   0.000002  -0.000000  -0.000000   0.000000
    19  H    0.000090   0.000002   0.000000  -0.000000   0.000000   0.000000
    20  H   -0.012415  -0.037938   0.358790  -0.037706   0.004346   0.000160
    21  H   -0.000217   0.003253  -0.036413   0.364621  -0.039414   0.004210
    22  H    0.000002   0.000447   0.004854  -0.040813   0.365517  -0.040497
    23  H   -0.000177   0.003157   0.000743   0.004251  -0.039467   0.365161
    24  H   -0.011834  -0.042773   0.004777   0.000187   0.004360  -0.037003
    25  H   -0.021809  -0.003941   0.001200   0.000078  -0.000001   0.000001
    26  H    0.000000   0.000000   0.000000   0.000000  -0.000000   0.000000
    27  H   -0.000000  -0.000000  -0.000000   0.000000  -0.000000  -0.000000
    28  H    0.000000   0.000000  -0.000000  -0.000000   0.000000  -0.000000
    29  H   -0.000000  -0.000000   0.000000  -0.000000  -0.000000   0.000000
    30  H    0.000000   0.000000  -0.000000   0.000000   0.000000  -0.000000
    31  H   -0.000000  -0.000000   0.000000  -0.000000   0.000000   0.000000
    32  H    0.000031  -0.000001  -0.000000   0.000000   0.000000   0.000000
    33  H    0.002632   0.000000   0.000001  -0.000000   0.000000  -0.000000
              13         14         15         16         17         18
     1  O   -0.000000  -0.000020  -0.046017   0.003172  -0.001289  -0.032995
     2  S    0.000000  -0.005440   0.097350  -0.010918  -0.014794   0.426803
     3  N   -0.000000  -0.056277  -0.046762  -0.001534   0.001502  -0.050358
     4  C   -0.000499   0.470886   0.001215   0.000167   0.000012   0.002030
     5  N    0.000330  -0.028251  -0.000046   0.000013  -0.000000   0.000132
     6  O   -0.008875  -0.078736   0.000000  -0.000000   0.000000  -0.000001
     7  C   -0.038054   0.455931  -0.000025   0.000001  -0.000000   0.000462
     8  C    0.470628  -0.056266   0.000000   0.000000   0.000000  -0.000003
     9  C   -0.076829  -0.018687  -0.000000   0.000000   0.000000   0.000002
    10  C   -0.041130   0.000276  -0.000000   0.000000   0.000000  -0.000000
    11  C   -0.037721   0.000013  -0.000000  -0.000000  -0.000000  -0.000000
    12  C    0.512562  -0.000233  -0.000000   0.000000  -0.000000   0.000000
    13  C    5.025173   0.011179   0.000000  -0.000000   0.000000   0.000000
    14  C    0.011179   5.184522   0.000025   0.000005  -0.000041  -0.002064
    15  N    0.000000   0.000025   7.120710   0.205572   0.211315  -0.043391
    16  C   -0.000000   0.000005   0.205572   5.071070  -0.040029   0.001166
    17  C    0.000000  -0.000041   0.211315  -0.040029   5.072338   0.000040
    18  O    0.000000  -0.002064  -0.043391   0.001166   0.000040   8.167124
    19  H   -0.000000   0.001982   0.000368   0.000128  -0.000010   0.000667
    20  H    0.004953   0.006203  -0.000000   0.000000   0.000000  -0.000017
    21  H    0.000774   0.000000   0.000000  -0.000000  -0.000000   0.000000
    22  H    0.004755  -0.000000   0.000000   0.000000  -0.000000  -0.000000
    23  H   -0.036564   0.000001  -0.000000   0.000000   0.000000   0.000000
    24  H    0.364652   0.000157   0.000000   0.000000   0.000000  -0.000000
    25  H   -0.000042   0.358352   0.000097  -0.000001  -0.000013   0.008100
    26  H    0.000000  -0.000009  -0.027376   0.376520   0.003480  -0.000006
    27  H    0.000000   0.000000  -0.024933   0.374679  -0.002527  -0.000038
    28  H    0.000000  -0.000000  -0.032333   0.380518  -0.002333  -0.000010
    29  H   -0.000000  -0.000009  -0.026872   0.003441   0.375889   0.007730
    30  H    0.000000   0.000001  -0.032785  -0.001998   0.379048  -0.000765
    31  H   -0.000000   0.000002  -0.026267  -0.001986   0.377077   0.000120
    32  H   -0.000000   0.000885   0.277721  -0.019070  -0.018988  -0.000138
    33  H   -0.000000   0.003883  -0.000000  -0.000000  -0.000000   0.000002
              19         20         21         22         23         24
     1  O    0.000529  -0.000000  -0.000000  -0.000000   0.000000  -0.000000
     2  S   -0.007367  -0.000000   0.000000  -0.000000   0.000000  -0.000000
     3  N    0.284503  -0.000000  -0.000000  -0.000000   0.000000  -0.000000
     4  C   -0.008707   0.000197   0.000000  -0.000000  -0.000000   0.000025
     5  N   -0.003093  -0.000011  -0.000000  -0.000000   0.000000  -0.000151
     6  O   -0.000015   0.000035   0.000000   0.000000  -0.000002   0.006638
     7  C    0.000090  -0.012415  -0.000217   0.000002  -0.000177  -0.011834
     8  C    0.000002  -0.037938   0.003253   0.000447   0.003157  -0.042773
     9  C    0.000000   0.358790  -0.036413   0.004854   0.000743   0.004777
    10  C   -0.000000  -0.037706   0.364621  -0.040813   0.004251   0.000187
    11  C    0.000000   0.004346  -0.039414   0.365517  -0.039467   0.004360
    12  C    0.000000   0.000160   0.004210  -0.040497   0.365161  -0.037003
    13  C   -0.000000   0.004953   0.000774   0.004755  -0.036564   0.364652
    14  C    0.001982   0.006203   0.000000  -0.000000   0.000001   0.000157
    15  N    0.000368  -0.000000   0.000000   0.000000  -0.000000   0.000000
    16  C    0.000128   0.000000  -0.000000   0.000000   0.000000   0.000000
    17  C   -0.000010   0.000000  -0.000000  -0.000000   0.000000   0.000000
    18  O    0.000667  -0.000017   0.000000  -0.000000   0.000000  -0.000000
    19  H    0.239536  -0.000000   0.000000  -0.000000  -0.000000  -0.000000
    20  H   -0.000000   0.536085  -0.004649  -0.000147   0.000014  -0.000124
    21  H    0.000000  -0.004649   0.541655  -0.004972  -0.000150   0.000014
    22  H   -0.000000  -0.000147  -0.004972   0.544801  -0.004989  -0.000145
    23  H   -0.000000   0.000014  -0.000150  -0.004989   0.541823  -0.004686
    24  H   -0.000000  -0.000124   0.000014  -0.000145  -0.004686   0.535014
    25  H   -0.000041   0.001878  -0.000002  -0.000000   0.000000  -0.000005
    26  H    0.000504   0.000000   0.000000   0.000000  -0.000000   0.000000
    27  H   -0.000001  -0.000000  -0.000000  -0.000000  -0.000000  -0.000000
    28  H    0.000021   0.000000   0.000000  -0.000000   0.000000   0.000000
    29  H   -0.000002  -0.000000   0.000000  -0.000000   0.000000   0.000000
    30  H    0.000002   0.000000   0.000000  -0.000000   0.000000   0.000000
    31  H   -0.000000  -0.000000  -0.000000  -0.000000  -0.000000  -0.000000
    32  H    0.000032  -0.000000  -0.000000   0.000000  -0.000000  -0.000000
    33  H    0.001357   0.000000   0.000000  -0.000000   0.000000   0.000005
              25         26         27         28         29         30
     1  O    0.000010  -0.001281   0.000189   0.005217  -0.000071   0.002230
     2  S    0.000136  -0.001705   0.001988  -0.004428  -0.003733  -0.000294
     3  N   -0.001849   0.004479  -0.000134   0.000029   0.000056  -0.000011
     4  C   -0.027720   0.000050  -0.000009  -0.000003   0.000008   0.000002
     5  N    0.004205  -0.000011  -0.000000   0.000000   0.000000   0.000000
     6  O    0.002511   0.000000   0.000000  -0.000000  -0.000000  -0.000000
     7  C   -0.021809   0.000000  -0.000000   0.000000  -0.000000   0.000000
     8  C   -0.003941   0.000000  -0.000000   0.000000  -0.000000   0.000000
     9  C    0.001200   0.000000  -0.000000  -0.000000   0.000000  -0.000000
    10  C    0.000078   0.000000   0.000000  -0.000000  -0.000000   0.000000
    11  C   -0.000001  -0.000000  -0.000000   0.000000  -0.000000   0.000000
    12  C    0.000001   0.000000  -0.000000  -0.000000   0.000000  -0.000000
    13  C   -0.000042   0.000000   0.000000   0.000000  -0.000000   0.000000
    14  C    0.358352  -0.000009   0.000000  -0.000000  -0.000009   0.000001
    15  N    0.000097  -0.027376  -0.024933  -0.032333  -0.026872  -0.032785
    16  C   -0.000001   0.376520   0.374679   0.380518   0.003441  -0.001998
    17  C   -0.000013   0.003480  -0.002527  -0.002333   0.375889   0.379048
    18  O    0.008100  -0.000006  -0.000038  -0.000010   0.007730  -0.000765
    19  H   -0.000041   0.000504  -0.000001   0.000021  -0.000002   0.000002
    20  H    0.001878   0.000000  -0.000000   0.000000  -0.000000   0.000000
    21  H   -0.000002   0.000000  -0.000000   0.000000   0.000000   0.000000
    22  H   -0.000000   0.000000  -0.000000  -0.000000  -0.000000  -0.000000
    23  H    0.000000  -0.000000  -0.000000   0.000000   0.000000   0.000000
    24  H   -0.000005   0.000000  -0.000000   0.000000   0.000000   0.000000
    25  H    0.429895   0.000000   0.000000  -0.000000   0.000049  -0.000000
    26  H    0.000000   0.458012  -0.020732  -0.022218  -0.000152   0.000006
    27  H    0.000000  -0.020732   0.450935  -0.020513  -0.000014  -0.000524
    28  H   -0.000000  -0.022218  -0.020513   0.450913  -0.000013   0.003864
    29  H    0.000049  -0.000152  -0.000014  -0.000013   0.446480  -0.021652
    30  H   -0.000000   0.000006  -0.000524   0.003864  -0.021652   0.455589
    31  H    0.000000  -0.000042   0.002894  -0.000487  -0.018710  -0.022352
    32  H    0.000013  -0.001943  -0.002364   0.002823  -0.001663   0.002853
    33  H   -0.000053   0.000003   0.000000  -0.000000  -0.000000   0.000000
              31         32         33
     1  O   -0.000066   0.000688  -0.000001
     2  S    0.001842  -0.006344  -0.000044
     3  N   -0.000069   0.000588  -0.001510
     4  C   -0.000003   0.001121  -0.022838
     5  N    0.000000   0.000019   0.307501
     6  O   -0.000000  -0.000004  -0.020097
     7  C   -0.000000   0.000031   0.002632
     8  C   -0.000000  -0.000001   0.000000
     9  C    0.000000  -0.000000   0.000001
    10  C   -0.000000   0.000000  -0.000000
    11  C    0.000000   0.000000   0.000000
    12  C    0.000000   0.000000  -0.000000
    13  C   -0.000000  -0.000000  -0.000000
    14  C    0.000002   0.000885   0.003883
    15  N   -0.026267   0.277721  -0.000000
    16  C   -0.001986  -0.019070  -0.000000
    17  C    0.377077  -0.018988  -0.000000
    18  O    0.000120  -0.000138   0.000002
    19  H   -0.000000   0.000032   0.001357
    20  H   -0.000000  -0.000000   0.000000
    21  H   -0.000000  -0.000000   0.000000
    22  H   -0.000000   0.000000  -0.000000
    23  H   -0.000000  -0.000000   0.000000
    24  H   -0.000000  -0.000000   0.000005
    25  H    0.000000   0.000013  -0.000053
    26  H   -0.000042  -0.001943   0.000003
    27  H    0.002894  -0.002364   0.000000
    28  H   -0.000487   0.002823  -0.000000
    29  H   -0.018710  -0.001663  -0.000000
    30  H   -0.022352   0.002853   0.000000
    31  H    0.449196  -0.003244  -0.000000
    32  H   -0.003244   0.253771   0.000001
    33  H   -0.000000   0.000001   0.244073
 Mulliken charges:
               1
     1  O   -0.470450
     2  S    1.410758
     3  N   -0.805489
     4  C    0.694494
     5  N   -0.269846
     6  O   -0.352855
     7  C    0.421992
     8  C    0.076985
     9  C   -0.158882
    10  C   -0.149132
    11  C   -0.117692
    12  C   -0.144533
    13  C   -0.155289
    14  C   -0.248268
    15  N   -0.607566
    16  C   -0.340917
    17  C   -0.340678
    18  O   -0.484592
    19  H    0.489516
    20  H    0.180348
    21  H    0.171289
    22  H    0.171188
    23  H    0.170884
    24  H    0.180894
    25  H    0.248953
    26  H    0.232419
    27  H    0.241103
    28  H    0.238952
    29  H    0.239235
    30  H    0.236784
    31  H    0.242095
    32  H    0.513214
    33  H    0.485085
 Sum of Mulliken charges =   2.00000
 Mulliken charges with hydrogens summed into heavy atoms:
               1
     1  O   -0.470450
     2  S    1.410758
     3  N   -0.315973
     4  C    0.694494
     5  N    0.215239
     6  O   -0.352855
     7  C    0.421992
     8  C    0.076985
     9  C    0.021466
    10  C    0.022156
    11  C    0.053496
    12  C    0.026352
    13  C    0.025604
    14  C    0.000685
    15  N   -0.094351
    16  C    0.371556
    17  C    0.377436
    18  O   -0.484592
 Electronic spatial extent (au):  <R**2>=           6797.3875
 Charge=              2.0000 electrons
 Dipole moment (field-independent basis, Debye):
    X=              9.4910    Y=             -5.1849    Z=              8.3834  Tot=             13.6837
 Quadrupole moment (field-independent basis, Debye-Ang):
   XX=            -28.6892   YY=            -67.7738   ZZ=            -97.1045
   XY=              0.2583   XZ=             27.8765   YZ=              3.2919
 Traceless Quadrupole moment (field-independent basis, Debye-Ang):
   XX=             35.8333   YY=             -3.2513   ZZ=            -32.5820
   XY=              0.2583   XZ=             27.8765   YZ=              3.2919
 Octapole moment (field-independent basis, Debye-Ang**2):
  XXX=             37.3817  YYY=            -57.0524  ZZZ=             23.5493  XYY=             45.1916
  XXY=             39.0588  XXZ=            100.0426  XZZ=             79.8231  YZZ=              6.6745
  YYZ=             11.2607  XYZ=             29.3773
 Hexadecapole moment (field-independent basis, Debye-Ang**3):
 XXXX=          -5469.4030 YYYY=           -719.2586 ZZZZ=           -446.6308 XXXY=            -34.4364
 XXXZ=            143.0991 YYYX=            -90.1920 YYYZ=             -6.1575 ZZZX=            -82.3280
 ZZZY=             19.9790 XXYY=          -1121.2433 XXZZ=          -1212.8275 YYZZ=           -240.5154
 XXYZ=              5.3451 YYXZ=             -9.1490 ZZXY=              8.0485
 N-N= 1.488676232383D+03 E-N=-5.782376759232D+03  KE= 1.206458512033D+03
 No NMR shielding tensors so no spin-rotation constants.
 Leave Link  601 at Mon Sep 28 08:12:54 2020, MaxMem=  2147483648 cpu:               0.6 elap:               0.2
 (Enter /prod/apps/gaussian/g16b1/l701.exe)
 ... and contract with generalized density number  0.
 Compute integral first derivatives.
 D1PCM: PCM CHGder 1st derivatives, ID1Alg=3 FixD1E=F DoIter=F DoCFld=F I1PDM=0.
 GePol: Maximum number of non-zero 1st derivatives   =     173
 Leave Link  701 at Mon Sep 28 08:12:57 2020, MaxMem=  2147483648 cpu:               9.7 elap:               2.4
 (Enter /prod/apps/gaussian/g16b1/l702.exe)
 L702 exits ... SP integral derivatives will be done elsewhere.
 Leave Link  702 at Mon Sep 28 08:12:57 2020, MaxMem=  2147483648 cpu:               0.1 elap:               0.0
 (Enter /prod/apps/gaussian/g16b1/l703.exe)
 Integral derivatives from FoFJK, PRISM(SPDF).
 Compute integral first derivatives, UseDBF=F ICtDFT=           0.
 Calling FoFJK, ICntrl=      2127 FMM=F ISym2X=0 I1Cent= 0 IOpClX= 0 NMat=1 NMatS=1 NMatT=0.
 FoFJK:  IHMeth= 1 ICntrl=    2127 DoSepK=F KAlg= 0 I1Cent=           0 FoldK=F
 IRaf=         0 NMat=       1 IRICut=       1 DoRegI=T DoRafI=F ISym2E= 0 IDoP0=0 IntGTp=1.
 FoFCou: FMM=F IPFlag=           0 FMFlag=      100000 FMFlg1=         800
         NFxFlg=           0 DoJE=F BraDBF=F KetDBF=F FulRan=T
         wScrn=  0.000000 ICntrl=      2127 IOpCl=  0 I1Cent=           0 NGrid=           0
         NMat0=    1 NMatS0=      1 NMatT0=    0 NMatD0=    1 NMtDS0=    0 NMtDT0=    0
 Symmetry not used in FoFCou.
 Leave Link  703 at Mon Sep 28 08:13:11 2020, MaxMem=  2147483648 cpu:              57.7 elap:              14.4
 (Enter /prod/apps/gaussian/g16b1/l716.exe)
 Dipole        = 3.73404902D+00-2.03987890D+00 3.29829136D+00
 -------------------------------------------------------------------
 Center     Atomic                   Forces (Hartrees/Bohr)
 Number     Number              X              Y              Z
 -------------------------------------------------------------------
      1        8           0.000088645   -0.000026117    0.000099802
      2       16          -0.000793640    0.000517417   -0.000551817
      3        7           0.000153171    0.000001927   -0.000017630
      4        6           0.000817858   -0.000107888    0.000098081
      5        7          -0.000629610    0.000623968   -0.000107991
      6        8          -0.000083844    0.000046056   -0.000003873
      7        6           0.000563285   -0.000087055   -0.000061966
      8        6           0.000696710   -0.000112683    0.000047793
      9        6          -0.000225467    0.000623796   -0.000199531
     10        6          -0.000049179   -0.000553153    0.000177819
     11        6           0.000159037    0.000929212   -0.000288637
     12        6          -0.000486944   -0.000518889    0.000231556
     13        6          -0.000413425   -0.000194937   -0.000042084
     14        6          -0.000762225    0.000613014   -0.000140949
     15        7           0.000270291    0.000418795   -0.000343045
     16        6           0.000195027   -0.000513871    0.000209601
     17        6          -0.000007620   -0.000411871    0.000546139
     18        8           0.000429572   -0.000468621    0.000356866
     19        1          -0.000097729    0.000020613   -0.000017091
     20        1          -0.000106892   -0.000176914    0.000070079
[...]
          Condensed to atoms (all electrons):
               1          2          3          4          5          6
     1  O    8.901644   0.033084  -0.062198   0.051878  -0.008959   0.001645
     2  S    0.033084  13.834574  -0.080088  -0.241260  -0.027651  -0.005718
     3  N   -0.062198  -0.080088   8.546305  -0.995719   0.001191  -0.090631
     4  C    0.051878  -0.241260  -0.995719  15.486889  -1.631736   0.990250
     5  N   -0.008959  -0.027651   0.001191  -1.631736   7.861993  -0.708471
     6  O    0.001645  -0.005718  -0.090631   0.990250  -0.708471  10.340204
     7  C    0.020541  -0.125829   0.207735  -1.921087   0.230112  -1.296319
     8  C    0.000028   0.003257  -0.076841   0.457198  -0.196308   0.836308
     9  C    0.000430  -0.033334   0.057023  -0.480260   0.258740  -0.303884
    10  C   -0.000098  -0.003016  -0.006496  -0.127221   0.024739   0.028105
    11  C    0.000012  -0.001263   0.005369  -0.069463   0.019219  -0.059471
    12  C    0.000017   0.000051  -0.010511   0.313691  -0.111040  -0.006860
    13  C    0.000507  -0.005321   0.027236  -0.030654  -0.085840  -0.314059
    14  C   -0.006478   0.059456   0.184332  -6.505801   0.991505  -0.060465
    15  N   -0.008986  -0.572607   0.057864  -0.067299   0.031489   0.000930
    16  C    0.013618   0.006512   0.010209   0.043152   0.003623   0.002044
    17  C   -0.017730   0.111393  -0.070762   0.032423  -0.002512   0.001476
    18  O    0.043475  -0.005703  -0.111138   0.234984   0.008825  -0.000091
    19  H   -0.006605  -0.001138   0.337718  -0.091215  -0.056183   0.004970
    20  H    0.000489  -0.008742  -0.002146   0.079259  -0.010394   0.010886
    21  H   -0.000009   0.000313  -0.000374   0.001380   0.000029   0.001171
    22  H    0.000001  -0.000047   0.000144  -0.001686   0.000588  -0.000476
    23  H    0.000000  -0.000054  -0.000403   0.003635  -0.003379   0.006581
    24  H    0.000055  -0.000934   0.003409   0.013324  -0.043448  -0.144889
    25  H    0.004087  -0.038009  -0.069419   0.632459  -0.154693   0.046897
    26  H    0.051492   0.039043  -0.033188   0.036070  -0.013371   0.000666
    27  H    0.002782  -0.018627   0.008126   0.014454  -0.000371   0.000118
    28  H   -0.060242   0.067916  -0.014160  -0.008852   0.001962   0.000017
    29  H   -0.003221   0.048192  -0.001391   0.008736  -0.000655  -0.000060
    30  H    0.035508  -0.060588   0.007435   0.017152  -0.000814   0.000026
    31  H   -0.010205   0.062304  -0.013252  -0.013975  -0.000152   0.000290
    32  H    0.010031  -0.051862  -0.006426   0.047052   0.000137  -0.001782
    33  H    0.000325   0.001578   0.004075  -0.043109   0.631321  -0.252246
               7          8          9         10         11         12
     1  O    0.020541   0.000028   0.000430  -0.000098   0.000012   0.000017
     2  S   -0.125829   0.003257  -0.033334  -0.003016  -0.001263   0.000051
     3  N    0.207735  -0.076841   0.057023  -0.006496   0.005369  -0.010511
     4  C   -1.921087   0.457198  -0.480260  -0.127221  -0.069463   0.313691
     5  N    0.230112  -0.196308   0.258740   0.024739   0.019219  -0.111040
     6  O   -1.296319   0.836308  -0.303884   0.028105  -0.059471  -0.006860
     7  C   24.207904  -6.399363   0.140558  -0.655372   0.802200  -0.649362
     8  C   -6.399363  22.567117  -8.420250   1.580759  -4.238877   1.618236
     9  C    0.140558  -8.420250  22.497424  -6.044010   3.532055  -2.944620
    10  C   -0.655372   1.580759  -6.044010  13.510849  -2.879154   3.142564
    11  C    0.802200  -4.238877   3.532055  -2.879154   9.251810  -2.826569
    12  C   -0.649362   1.618236  -2.944620   3.142564  -2.826569  11.439921
    13  C    0.354795  -6.495917   0.027431  -2.723118   2.746940  -4.106221
    14  C   -9.301872   1.984096  -2.444929   0.642806  -0.579504  -0.049415
    15  N   -0.013265  -0.004814   0.002120   0.002478  -0.000460   0.000172
    16  C   -0.001131   0.000324  -0.001566  -0.000022  -0.000110   0.000259
    17  C   -0.050128   0.006726  -0.001521   0.001688  -0.000133   0.000036
    18  O   -0.112526   0.006698  -0.005693   0.002979  -0.000301  -0.000311
    19  H   -0.068321   0.005650  -0.002229  -0.000140  -0.000199   0.000501
    20  H   -0.160702   0.926644  -1.184372   0.138222  -0.132216   0.117667
    21  H   -0.030986  -0.157263   0.941265  -0.928918   0.269642  -0.262491
    22  H   -0.024935   0.078432  -0.088023   0.247478  -0.491956   0.373077
    23  H   -0.019055  -0.099146   0.070875  -0.212210   0.247333  -0.691838
    24  H    0.290158   0.274479  -0.104806   0.059476  -0.084441   0.363754
    25  H    0.687264   0.049391  -0.047666   0.046094  -0.040620   0.012023
    26  H   -0.004446   0.000573  -0.000119   0.000289  -0.000069  -0.000066
    27  H    0.002359   0.000151  -0.000015  -0.000036   0.000006  -0.000007
    28  H   -0.000383   0.000051  -0.000238  -0.000077   0.000001   0.000023
    29  H    0.015074  -0.002017   0.001084  -0.000467   0.000157  -0.000067
    30  H   -0.002819   0.000549   0.000048   0.000068  -0.000007  -0.000003
    31  H   -0.004714   0.000575  -0.000416   0.000225  -0.000027   0.000042
    32  H    0.020728  -0.007395   0.001455  -0.001918   0.000042   0.000523
    33  H    0.047756  -0.004163   0.007137   0.000048  -0.000440  -0.002173
              13         14         15         16         17         18
     1  O    0.000507  -0.006478  -0.008986   0.013618  -0.017730   0.043475
     2  S   -0.005321   0.059456  -0.572607   0.006512   0.111393  -0.005703
     3  N    0.027236   0.184332   0.057864   0.010209  -0.070762  -0.111138
     4  C   -0.030654  -6.505801  -0.067299   0.043152   0.032423   0.234984
     5  N   -0.085840   0.991505   0.031489   0.003623  -0.002512   0.008825
     6  O   -0.314059  -0.060465   0.000930   0.002044   0.001476  -0.000091
     7  C    0.354795  -9.301872  -0.013265  -0.001131  -0.050128  -0.112526
     8  C   -6.495917   1.984096  -0.004814   0.000324   0.006726   0.006698
     9  C    0.027431  -2.444929   0.002120  -0.001566  -0.001521  -0.005693
    10  C   -2.723118   0.642806   0.002478  -0.000022   0.001688   0.002979
    11  C    2.746940  -0.579504  -0.000460  -0.000110  -0.000133  -0.000301
    12  C   -4.106221  -0.049415   0.000172   0.000259   0.000036  -0.000311
    13  C   19.527655  -2.931001  -0.006670   0.000743  -0.002946  -0.006873
    14  C   -2.931001  23.427631   0.125586  -0.041465   0.004474  -0.011104
    15  N   -0.006670   0.125586   8.625401   0.014886  -0.040457  -0.007323
    16  C    0.000743  -0.041465   0.014886   4.121345  -0.048015  -0.001517
    17  C   -0.002946   0.004474  -0.040457  -0.048015   4.152987   0.006902
    18  O   -0.006873  -0.011104  -0.007323  -0.001517   0.006902   8.982457
    19  H   -0.001995   0.009590  -0.045651   0.002114   0.012398  -0.003789
    20  H   -0.106734   0.104627   0.001099  -0.000297  -0.001566  -0.008277
    21  H    0.104889   0.050305   0.000055   0.000024   0.000088   0.000270
    22  H   -0.099818   0.006917  -0.000019  -0.000003  -0.000012  -0.000031
    23  H    0.654313   0.009168   0.000033   0.000010   0.000010   0.000001
    24  H   -0.790906  -0.089625  -0.000473  -0.000039  -0.000209  -0.000434
    25  H   -0.001393  -1.705043  -0.014049   0.004748  -0.003172  -0.003151
    26  H   -0.001099   0.006842  -0.037057   0.265702  -0.044998   0.002272
    27  H    0.000112  -0.011865  -0.088774   0.398646   0.035068  -0.000888
    28  H    0.000216  -0.005460  -0.172134   0.369735   0.039108  -0.004230
    29  H    0.001087  -0.016231   0.029010  -0.045950   0.389254  -0.030234
    30  H   -0.000101  -0.006268  -0.066225   0.033374   0.289775   0.015535
    31  H   -0.000342   0.004035  -0.200125   0.035187   0.418266   0.000284
    32  H    0.000580  -0.040109   0.270182   0.007491  -0.027724   0.043084
    33  H   -0.014682  -0.149278   0.001848  -0.000391   0.000296   0.000385
              19         20         21         22         23         24
     1  O   -0.006605   0.000489  -0.000009   0.000001   0.000000   0.000055
     2  S   -0.001138  -0.008742   0.000313  -0.000047  -0.000054  -0.000934
     3  N    0.337718  -0.002146  -0.000374   0.000144  -0.000403   0.003409
     4  C   -0.091215   0.079259   0.001380  -0.001686   0.003635   0.013324
     5  N   -0.056183  -0.010394   0.000029   0.000588  -0.003379  -0.043448
     6  O    0.004970   0.010886   0.001171  -0.000476   0.006581  -0.144889
     7  C   -0.068321  -0.160702  -0.030986  -0.024935  -0.019055   0.290158
     8  C    0.005650   0.926644  -0.157263   0.078432  -0.099146   0.274479
     9  C   -0.002229  -1.184372   0.941265  -0.088023   0.070875  -0.104806
    10  C   -0.000140   0.138222  -0.928918   0.247478  -0.212210   0.059476
    11  C   -0.000199  -0.132216   0.269642  -0.491956   0.247333  -0.084441
    12  C    0.000501   0.117667  -0.262491   0.373077  -0.691838   0.363754
    13  C   -0.001995  -0.106734   0.104889  -0.099818   0.654313  -0.790906
    14  C    0.009590   0.104627   0.050305   0.006917   0.009168  -0.089625
    15  N   -0.045651   0.001099   0.000055  -0.000019   0.000033  -0.000473
    16  C    0.002114  -0.000297   0.000024  -0.000003   0.000010  -0.000039
    17  C    0.012398  -0.001566   0.000088  -0.000012   0.000010  -0.000209
    18  O   -0.003789  -0.008277   0.000270  -0.000031   0.000001  -0.000434
    19  H    0.965488   0.000201   0.000038  -0.000012   0.000010  -0.000796
    20  H    0.000201   1.984014  -0.068474  -0.020474   0.009359  -0.016943
    21  H    0.000038  -0.068474   1.607335  -0.052574  -0.019315   0.007350
    22  H   -0.000012  -0.020474  -0.052574   1.542010  -0.059604  -0.015093
    23  H    0.000010   0.009359  -0.019315  -0.059604   1.603090  -0.087187
    24  H   -0.000796  -0.016943   0.007350  -0.015093  -0.087187   2.028770
    25  H   -0.003696  -0.088906  -0.004974   0.000966   0.001170  -0.002920
    26  H    0.010041   0.000024   0.000006  -0.000002   0.000000  -0.000040
    27  H   -0.001003   0.000057  -0.000000  -0.000000   0.000000   0.000005
    28  H   -0.000207  -0.000102  -0.000001   0.000000   0.000000   0.000005
    29  H    0.000857   0.000209  -0.000021   0.000004  -0.000004   0.000066
    30  H    0.000547  -0.000013   0.000007  -0.000000   0.000000  -0.000006
    31  H    0.000605  -0.000292   0.000005  -0.000001   0.000003  -0.000027
    32  H    0.001543   0.000214  -0.000040   0.000005  -0.000009   0.000151
    33  H   -0.020964   0.000750  -0.000064   0.000015   0.000085  -0.001316
              25         26         27         28         29         30
     1  O    0.004087   0.051492   0.002782  -0.060242  -0.003221   0.035508
     2  S   -0.038009   0.039043  -0.018627   0.067916   0.048192  -0.060588
     3  N   -0.069419  -0.033188   0.008126  -0.014160  -0.001391   0.007435
     4  C    0.632459   0.036070   0.014454  -0.008852   0.008736   0.017152
     5  N   -0.154693  -0.013371  -0.000371   0.001962  -0.000655  -0.000814
     6  O    0.046897   0.000666   0.000118   0.000017  -0.000060   0.000026
     7  C    0.687264  -0.004446   0.002359  -0.000383   0.015074  -0.002819
     8  C    0.049391   0.000573   0.000151   0.000051  -0.002017   0.000549
     9  C   -0.047666  -0.000119  -0.000015  -0.000238   0.001084   0.000048
    10  C    0.046094   0.000289  -0.000036  -0.000077  -0.000467   0.000068
    11  C   -0.040620  -0.000069   0.000006   0.000001   0.000157  -0.000007
    12  C    0.012023  -0.000066  -0.000007   0.000023  -0.000067  -0.000003
    13  C   -0.001393  -0.001099   0.000112   0.000216   0.001087  -0.000101
    14  C   -1.705043   0.006842  -0.011865  -0.005460  -0.016231  -0.006268
    15  N   -0.014049  -0.037057  -0.088774  -0.172134   0.029010  -0.066225
    16  C    0.004748   0.265702   0.398646   0.369735  -0.045950   0.033374
    17  C   -0.003172  -0.044998   0.035068   0.039108   0.389254   0.289775
    18  O   -0.003151   0.002272  -0.000888  -0.004230  -0.030234   0.015535
    19  H   -0.003696   0.010041  -0.001003  -0.000207   0.000857   0.000547
    20  H   -0.088906   0.000024   0.000057  -0.000102   0.000209  -0.000013
    21  H   -0.004974   0.000006  -0.000000  -0.000001  -0.000021   0.000007
    22  H    0.000966  -0.000002  -0.000000   0.000000   0.000004  -0.000000
    23  H    0.001170   0.000000   0.000000   0.000000  -0.000004   0.000000
    24  H   -0.002920  -0.000040   0.000005   0.000005   0.000066  -0.000006
    25  H    2.325274   0.000314  -0.001306   0.002414  -0.000558  -0.000610
    26  H    0.000314   1.431253  -0.272942  -0.227457  -0.007305   0.005727
    27  H   -0.001306  -0.272942   1.198443  -0.177777   0.005361   0.001252
    28  H    0.002414  -0.227457  -0.177777   1.168496   0.000562  -0.007936
    29  H   -0.000558  -0.007305   0.005361   0.000562   1.157345  -0.202569
    30  H   -0.000610   0.005727   0.001252  -0.007936  -0.202569   1.154578
    31  H    0.001153   0.003234   0.002175   0.009658  -0.254811  -0.189403
    32  H   -0.000113  -0.020567  -0.023144   0.024302  -0.016001   0.016471
    33  H    0.004770  -0.000886  -0.000046   0.000132  -0.000071   0.000040
              31         32         33
     1  O   -0.010205   0.010031   0.000325
     2  S    0.062304  -0.051862   0.001578
     3  N   -0.013252  -0.006426   0.004075
     4  C   -0.013975   0.047052  -0.043109
     5  N   -0.000152   0.000137   0.631321
     6  O    0.000290  -0.001782  -0.252246
     7  C   -0.004714   0.020728   0.047756
     8  C    0.000575  -0.007395  -0.004163
     9  C   -0.000416   0.001455   0.007137
    10  C    0.000225  -0.001918   0.000048
    11  C   -0.000027   0.000042  -0.000440
    12  C    0.000042   0.000523  -0.002173
    13  C   -0.000342   0.000580  -0.014682
    14  C    0.004035  -0.040109  -0.149278
    15  N   -0.200125   0.270182   0.001848
    16  C    0.035187   0.007491  -0.000391
    17  C    0.418266  -0.027724   0.000296
    18  O    0.000284   0.043084   0.000385
    19  H    0.000605   0.001543  -0.020964
    20  H   -0.000292   0.000214   0.000750
    21  H    0.000005  -0.000040  -0.000064
    22  H   -0.000001   0.000005   0.000015
    23  H    0.000003  -0.000009   0.000085
    24  H   -0.000027   0.000151  -0.001316
    25  H    0.001153  -0.000113   0.004770
    26  H    0.003234  -0.020567  -0.000886
    27  H    0.002175  -0.023144  -0.000046
    28  H    0.009658   0.024302   0.000132
    29  H   -0.254811  -0.016001  -0.000071
    30  H   -0.189403   0.016471   0.000040
    31  H    1.259545  -0.013594   0.000042
    32  H   -0.013594   0.534837  -0.000010
    33  H    0.000042  -0.000010   0.753025
 Mulliken charges:
               1
     1  O   -0.986918
     2  S    3.014119
     3  N   -0.813027
     4  C   -0.234650
     5  N   -0.009495
     6  O   -1.027165
     7  C   -0.184571
     8  C    1.705113
     9  C    0.570304
    10  C    0.153406
    11  C    0.530493
    12  C    0.278998
    13  C    0.279186
    14  C    2.344545
    15  N   -0.816766
    16  C    0.806761
    17  C    0.809518
    18  O   -1.034538
    19  H   -0.048128
    20  H   -0.563073
    21  H   -0.458667
    22  H   -0.394871
    23  H   -0.413472
    24  H   -0.656470
    25  H   -0.638728
    26  H   -0.189934
    27  H   -0.072315
    28  H   -0.005346
    29  H   -0.075368
    30  H   -0.040729
    31  H   -0.096292
    32  H    0.231866
    33  H    0.036212
 Sum of Mulliken charges =   2.00000
 Mulliken charges with hydrogens summed into heavy atoms:
               1
     1  O   -0.986918
     2  S    3.014119
     3  N   -0.861155
     4  C   -0.234650
     5  N    0.026717
     6  O   -1.027165
     7  C   -0.184571
     8  C    1.705113
     9  C    0.007231
    10  C   -0.305261
    11  C    0.135622
    12  C   -0.134475
    13  C   -0.377284
    14  C    1.705817
    15  N   -0.584901
    16  C    0.539166
    17  C    0.597130
    18  O   -1.034538
 Electronic spatial extent (au):  <R**2>=           6771.5707
 Charge=              2.0000 electrons
 Dipole moment (field-independent basis, Debye):
    X=              6.9261    Y=             -2.3136    Z=              6.4860  Tot=              9.7669
 Quadrupole moment (field-independent basis, Debye-Ang):
   XX=              9.0189   YY=            -70.5939   ZZ=           -102.2511
   XY=             -1.1950   XZ=             22.2483   YZ=              2.5300
 Traceless Quadrupole moment (field-independent basis, Debye-Ang):
   XX=             63.6276   YY=            -15.9852   ZZ=            -47.6424
   XY=             -1.1950   XZ=             22.2483   YZ=              2.5300
 Octapole moment (field-independent basis, Debye-Ang**2):
  XXX=            -52.8012  YYY=            -39.5262  ZZZ=             21.3807  XYY=             30.8925
  XXY=             76.2240  XXZ=            121.0773  XZZ=             68.3329  YZZ=              0.8707
  YYZ=              9.9060  XYZ=             27.2690
 Hexadecapole moment (field-independent basis, Debye-Ang**3):
 XXXX=          -4270.6810 YYYY=           -735.7804 ZZZZ=           -456.5757 XXXY=            -43.0263
 XXXZ=            244.3484 YYYX=             -3.5091 YYYZ=             -1.2860 ZZZX=             90.2571
 ZZZY=             15.0690 XXYY=          -1035.2946 XXZZ=          -1222.3490 YYZZ=           -247.2517
 XXYZ=             -0.3546 YYXZ=             45.6034 ZZXY=             40.3111
 N-N= 1.488682258833D+03 E-N=-5.783284436238D+03  KE= 1.208722378378D+03
 Leave Link  601 at Mon Sep 28 09:05:23 2020, MaxMem=   262144000 cpu:               0.7 elap:               0.2
 (Enter /prod/apps/gaussian/g16b1/l9999.exe)
 1\1\GINC-PIRINEUS37\SP\RMP2-FC\Aug-CC-pVDZ\C11H15N3O3S1(2+)\UBAFAR01\2
 8-Sep-2020\0\\#p mp2/aug-cc-pVDZ scf=(MaxCycle=2000,NoVarAcc,NoIncFock
 ) maxdisk=120GB geom=allcheck\\SM43_m3.b.2.pdb.xyz\\2,1\O,0,4.02579290
 1,-0.2160836262,-1.016858831\S,0,2.7396085841,0.2232395148,-0.53047820
 24\N,0,1.7711319384,-1.1128213657,-0.3859778792\C,0,0.4034263005,-1.08
 86146167,-0.2244624365\N,0,-0.2452933907,-2.1954927157,0.1212917346\O,
 0,-1.5870949109,-1.9585927089,0.1702744834\C,0,-1.7576991396,-0.643839
 3111,-0.1210638138\C,0,-3.1126199778,-0.1319782187,-0.112049054\C,0,-3
 .3373026057,1.2181723282,-0.4334303113\C,0,-4.6322732325,1.72351951,-0
 .4270510306\C,0,-5.7072012343,0.8914284871,-0.1014033738\C,0,-5.486534
 0418,-0.4511757749,0.2179670088\C,0,-4.1954215541,-0.9671666018,0.2137
 230349\C,0,-0.5374724617,-0.057530388,-0.3770779289\N,0,3.0314204488,0
 .689178218,1.2437938359\C,0,3.9693740378,-0.2726011141,1.9072204867\C,
 0,3.4992696088,2.1165286924,1.3273175282\O,0,1.975163064,1.3272560182,
 -1.0655609756\H,0,2.2666288455,-2.0070515154,-0.3041805563\H,0,-2.5043
 638356,1.8638159634,-0.6863016928\H,0,-4.8035906283,2.7645248183,-0.67
 57509072\H,0,-6.7161334889,1.2890309231,-0.0963532015\H,0,-6.320862196
 7,-1.0951943196,0.4708228933\H,0,-4.0215954041,-2.007104918,0.46224492
 98\H,0,-0.3353900618,0.961862199,-0.6510275995\H,0,3.5499345815,-1.275
 0505721,1.8626791477\H,0,4.0655018671,0.0430464705,2.9440655752\H,0,4.
 9277895716,-0.2261259684,1.396664845\H,0,2.7819050569,2.7450888913,0.8
 064088112\H,0,4.4903061153,2.1885204533,0.8840621195\H,0,3.535926568,2
 .3712872387,2.3847539971\H,0,2.1025210682,0.6290939946,1.6994209087\H,
 0,0.0441476071,-3.1681699855,0.2493164544\\Version=ES64L-G16RevB.01\St
 ate=1-A\HF=-1210.1117692\MP2=-1212.8776848\RMSD=9.663e-09\PG=C01 [X(C1
 1H15N3O3S1)]\\@


 CHARLIE BROWN -- WHICH DO YOU THINK LASTS LONGER IN LIFE, THE GOOD THINGS 
                  OR THE BAD THINGS?
 LINUS --         GOOD THINGS LAST EIGHT SECONDS ..
                  BAD THINGS LAST THREE WEEKS
 CHARLIE BROWN -- WHAT ABOUT IN BETWEEN?
 SNOOPY --        IN BETWEEN YOU SHOULD TAKE A NAP ...
 Job cpu time:       0 days  2 hours 12 minutes 48.3 seconds.
 Elapsed time:       0 days  0 hours 37 minutes 11.2 seconds.
 File lengths (MBytes):  RWF=  81185 Int=      0 D2E=      0 Chk=     25 Scr=      1
 Normal termination of Gaussian 16 at Mon Sep 28 09:05:25 2020.
