 Entering Gaussian System, Link 0=g16
 Initial command:
 /prod/apps/gaussian/g16b1/l1.exe "/tmp/ubafar01/1461178/Gau-120386.inp" -scrdir="/tmp/ubafar01/1461178/"
 Entering Link 1 = /prod/apps/gaussian/g16b1/l1.exe PID=    120387.
  
 Copyright (c) 1988-2017, Gaussian, Inc.  All Rights Reserved.
  
 This is part of the Gaussian(R) 16 program.  It is based on
 the Gaussian(R) 09 system (copyright 2009, Gaussian, Inc.),
 the Gaussian(R) 03 system (copyright 2003, Gaussian, Inc.),
 the Gaussian(R) 98 system (copyright 1998, Gaussian, Inc.),
 the Gaussian(R) 94 system (copyright 1995, Gaussian, Inc.),
 the Gaussian 92(TM) system (copyright 1992, Gaussian, Inc.),
 the Gaussian 90(TM) system (copyright 1990, Gaussian, Inc.),
 the Gaussian 88(TM) system (copyright 1988, Gaussian, Inc.),
 the Gaussian 86(TM) system (copyright 1986, Carnegie Mellon
 University), and the Gaussian 82(TM) system (copyright 1983,
 Carnegie Mellon University). Gaussian is a federally registered
 trademark of Gaussian, Inc.
  
 This software contains proprietary and confidential information,
 including trade secrets, belonging to Gaussian, Inc.
  
 This software is provided under written license and may be
 used, copied, transmitted, or stored only in accord with that
 written license.
  
 The following legend is applicable only to US Government
 contracts under FAR:
  
                    RESTRICTED RIGHTS LEGEND
  
 Use, reproduction and disclosure by the US Government is
 subject to restrictions as set forth in subparagraphs (a)
 and (c) of the Commercial Computer Software - Restricted
 Rights clause in FAR 52.227-19.
  
 Gaussian, Inc.
 340 Quinnipiac St., Bldg. 40, Wallingford CT 06492
  
  
 ---------------------------------------------------------------
 Warning -- This program may not be used in any manner that
 competes with the business of Gaussian, Inc. or will provide
 assistance to any competitor of Gaussian, Inc.  The licensee
 of this program is prohibited from giving any competitor of
 Gaussian, Inc. access to this program.  By using this program,
 the user acknowledges that Gaussian, Inc. is engaged in the
 business of creating and licensing software in the field of
 computational chemistry and represents and warrants to the
 licensee that it is not a competitor of Gaussian, Inc. and that
 it will not use this program in any manner prohibited above.
 ---------------------------------------------------------------
  

 Cite this work as:
 Gaussian 16, Revision B.01,
 M. J. Frisch, G. W. Trucks, H. B. Schlegel, G. E. Scuseria, 
 M. A. Robb, J. R. Cheeseman, G. Scalmani, V. Barone, 
 G. A. Petersson, H. Nakatsuji, X. Li, M. Caricato, A. V. Marenich, 
 J. Bloino, B. G. Janesko, R. Gomperts, B. Mennucci, H. P. Hratchian, 
 J. V. Ortiz, A. F. Izmaylov, J. L. Sonnenberg, D. Williams-Young, 
 F. Ding, F. Lipparini, F. Egidi, J. Goings, B. Peng, A. Petrone, 
 T. Henderson, D. Ranasinghe, V. G. Zakrzewski, J. Gao, N. Rega, 
 G. Zheng, W. Liang, M. Hada, M. Ehara, K. Toyota, R. Fukuda, 
 J. Hasegawa, M. Ishida, T. Nakajima, Y. Honda, O. Kitao, H. Nakai, 
 T. Vreven, K. Throssell, J. A. Montgomery, Jr., J. E. Peralta, 
 F. Ogliaro, M. J. Bearpark, J. J. Heyd, E. N. Brothers, K. N. Kudin, 
 V. N. Staroverov, T. A. Keith, R. Kobayashi, J. Normand, 
 K. Raghavachari, A. P. Rendell, J. C. Burant, S. S. Iyengar, 
 J. Tomasi, M. Cossi, J. M. Millam, M. Klene, C. Adamo, R. Cammi, 
 J. W. Ochterski, R. L. Martin, K. Morokuma, O. Farkas, 
 J. B. Foresman, and D. J. Fox, Gaussian, Inc., Wallingford CT, 2016.
 
 ******************************************
 Gaussian 16:  ES64L-G16RevB.01 20-Dec-2017
                24-Sep-2020 
 ******************************************
 %nproc=4
 Will use up to    4 processors via shared memory.
 %Chk=SM43_m1.a.9.pdb.xyz.mst.a.w.chk
 %mem=16GB
 ----------------------------------------------------------------------
 #p b3lyp/6-31G(d) opt freq NoSymm scf=(MaxCycle=2000,NoVarAcc,NoIncFoc
 k) scrf=(iefpcm,read,solvent=water)
 ----------------------------------------------------------------------
 1/18=20,19=15,26=3,38=1,40=2/1,3;
 2/9=110,12=2,15=1,17=6,18=5,40=1/2;
 3/5=1,6=6,7=1,11=2,25=1,30=1,70=2203,71=1,72=1,74=-5/1,2,3;
 4//1;
 5/5=100002,7=2000,38=1,53=1/2;
 6/7=2,8=2,9=2,10=2,28=1/1;
 7/30=1/1,2,3,16;
 1/18=20,19=15,26=3/3(2);
 2/9=110,15=1/2;
 99//99;
 2/9=110,15=1/2;
 3/5=1,6=6,7=1,11=2,25=1,30=1,70=2205,71=1,72=1,74=-5/1,2,3;
 4/5=5,16=3,69=1/1;
 5/5=100002,7=2000,38=1,53=1/2;
 7/30=1/1,2,3,16;
 1/18=20,19=15,26=3/3(-5);
 2/9=110,15=1/2;
 6/7=2,8=2,9=2,10=2,19=2,28=1/1;
 99/9=1/99;
 Leave Link    1 at Thu Sep 24 06:49:43 2020, MaxMem=  2147483648 cpu:               0.1 elap:               0.0
 (Enter /prod/apps/gaussian/g16b1/l101.exe)
 -------------------
 SM43_m1.a.9.pdb.xyz
 -------------------
 Symbolic Z-matrix:
 Charge = -1 Multiplicity = 1
 O                    -2.975     0.334    -1.879 
 S                    -3.004    -0.393    -0.586 
 N                    -1.626    -1.08     -0.144 
 C                    -0.442    -0.386    -0.207 
 N                    -0.275     0.905    -0.5 
 O                     1.129     1.128    -0.431 
 C                     1.751    -0.03     -0.098 
 C                     3.211     0.001     0.011 
 C                     3.929     1.169    -0.298 
 C                     5.32      1.189    -0.198 
 C                     6.013     0.047     0.211 
 C                     5.306    -1.119     0.522 
 C                     3.916    -1.144     0.424 
 C                     0.823    -1.015     0.06 
 N                    -3.324     0.834     0.583 
 C                    -4.453     1.702     0.217 
 C                    -3.455     0.309     1.949 
 O                    -4.05     -1.444    -0.485 
 H                     3.396     2.057    -0.619 
 H                     5.862     2.098    -0.442 
 H                     7.097     0.064     0.288 
 H                     5.837    -2.01      0.842 
 H                     3.376    -2.053     0.671 
 H                     0.977    -2.052     0.317 
 H                    -4.3       2.098    -0.787 
 H                    -4.479     2.536     0.925 
 H                    -5.421     1.18      0.258 
 H                    -2.601    -0.329     2.182 
 H                    -4.383    -0.265     2.095 
 H                    -3.456     1.157     2.64 
 
 ITRead=  0  0  0  0  0  0  0  0  0  0  0  0  0  0  0  0  0  0  0  0
 ITRead=  0  0  0  0  0  0  0  0  0  0
 MicOpt= -1 -1 -1 -1 -1 -1 -1 -1 -1 -1 -1 -1 -1 -1 -1 -1 -1 -1 -1 -1
 MicOpt= -1 -1 -1 -1 -1 -1 -1 -1 -1 -1
 NAtoms=     30 NQM=       30 NQMF=       0 NMMI=      0 NMMIF=      0
                NMic=       0 NMicF=      0.
                    Isotopes and Nuclear Properties:
 (Nuclear quadrupole moments (NQMom) in fm**2, nuclear magnetic moments (NMagM)
  in nuclear magnetons)

  Atom         1           2           3           4           5           6           7           8           9          10
 IAtWgt=          16          32          14          12          14          16          12          12          12          12
 AtmWgt=  15.9949146  31.9720718  14.0030740  12.0000000  14.0030740  15.9949146  12.0000000  12.0000000  12.0000000  12.0000000
 NucSpn=           0           0           2           0           2           0           0           0           0           0
 AtZEff=  -0.0000000  -0.0000000  -0.0000000  -0.0000000  -0.0000000  -0.0000000  -0.0000000  -0.0000000  -0.0000000  -0.0000000
 NQMom=    0.0000000   0.0000000   2.0440000   0.0000000   2.0440000   0.0000000   0.0000000   0.0000000   0.0000000   0.0000000
 NMagM=    0.0000000   0.0000000   0.4037610   0.0000000   0.4037610   0.0000000   0.0000000   0.0000000   0.0000000   0.0000000
 AtZNuc=   8.0000000  16.0000000   7.0000000   6.0000000   7.0000000   8.0000000   6.0000000   6.0000000   6.0000000   6.0000000

  Atom        11          12          13          14          15          16          17          18          19          20
 IAtWgt=          12          12          12          12          14          12          12          16           1           1
 AtmWgt=  12.0000000  12.0000000  12.0000000  12.0000000  14.0030740  12.0000000  12.0000000  15.9949146   1.0078250   1.0078250
 NucSpn=           0           0           0           0           2           0           0           0           1           1
 AtZEff=  -0.0000000  -0.0000000  -0.0000000  -0.0000000  -0.0000000  -0.0000000  -0.0000000  -0.0000000  -0.0000000  -0.0000000
 NQMom=    0.0000000   0.0000000   0.0000000   0.0000000   2.0440000   0.0000000   0.0000000   0.0000000   0.0000000   0.0000000
 NMagM=    0.0000000   0.0000000   0.0000000   0.0000000   0.4037610   0.0000000   0.0000000   0.0000000   2.7928460   2.7928460
 AtZNuc=   6.0000000   6.0000000   6.0000000   6.0000000   7.0000000   6.0000000   6.0000000   8.0000000   1.0000000   1.0000000

  Atom        21          22          23          24          25          26          27          28          29          30
 IAtWgt=           1           1           1           1           1           1           1           1           1           1
 AtmWgt=   1.0078250   1.0078250   1.0078250   1.0078250   1.0078250   1.0078250   1.0078250   1.0078250   1.0078250   1.0078250
 NucSpn=           1           1           1           1           1           1           1           1           1           1
 AtZEff=  -0.0000000  -0.0000000  -0.0000000  -0.0000000  -0.0000000  -0.0000000  -0.0000000  -0.0000000  -0.0000000  -0.0000000
 NQMom=    0.0000000   0.0000000   0.0000000   0.0000000   0.0000000   0.0000000   0.0000000   0.0000000   0.0000000   0.0000000
 NMagM=    2.7928460   2.7928460   2.7928460   2.7928460   2.7928460   2.7928460   2.7928460   2.7928460   2.7928460   2.7928460
 AtZNuc=   1.0000000   1.0000000   1.0000000   1.0000000   1.0000000   1.0000000   1.0000000   1.0000000   1.0000000   1.0000000
 Leave Link  101 at Thu Sep 24 06:49:43 2020, MaxMem=  2147483648 cpu:               1.3 elap:               0.3
 (Enter /prod/apps/gaussian/g16b1/l103.exe)

 GradGradGradGradGradGradGradGradGradGradGradGradGradGradGradGradGradGrad
 Berny optimization.
 Initialization pass.
                           ----------------------------
                           !    Initial Parameters    !
                           ! (Angstroms and Degrees)  !
 --------------------------                            --------------------------
 ! Name  Definition              Value          Derivative Info.                !
 --------------------------------------------------------------------------------
 ! R1    R(1,2)                  1.4837         estimate D2E/DX2                !
 ! R2    R(2,3)                  1.6019         estimate D2E/DX2                !
 ! R3    R(2,15)                 1.7247         estimate D2E/DX2                !
 ! R4    R(2,18)                 1.4862         estimate D2E/DX2                !
 ! R5    R(3,4)                  1.3738         estimate D2E/DX2                !
 ! R6    R(4,5)                  1.3343         estimate D2E/DX2                !
 ! R7    R(4,14)                 1.4378         estimate D2E/DX2                !
 ! R8    R(5,6)                  1.4233         estimate D2E/DX2                !
 ! R9    R(6,7)                  1.356          estimate D2E/DX2                !
 ! R10   R(7,8)                  1.4644         estimate D2E/DX2                !
 ! R11   R(7,14)                 1.3625         estimate D2E/DX2                !
 ! R12   R(8,9)                  1.4054         estimate D2E/DX2                !
 ! R13   R(8,13)                 1.4066         estimate D2E/DX2                !
 ! R14   R(9,10)                 1.3947         estimate D2E/DX2                !
 ! R15   R(9,19)                 1.0843         estimate D2E/DX2                !
 ! R16   R(10,11)                1.397          estimate D2E/DX2                !
 ! R17   R(10,20)                1.0861         estimate D2E/DX2                !
 ! R18   R(11,12)                1.3986         estimate D2E/DX2                !
 ! R19   R(11,21)                1.0869         estimate D2E/DX2                !
 ! R20   R(12,13)                1.3937         estimate D2E/DX2                !
 ! R21   R(12,22)                1.0855         estimate D2E/DX2                !
 ! R22   R(13,23)                1.0858         estimate D2E/DX2                !
 ! R23   R(14,24)                1.0794         estimate D2E/DX2                !
 ! R24   R(15,16)                1.4704         estimate D2E/DX2                !
 ! R25   R(15,17)                1.4693         estimate D2E/DX2                !
 ! R26   R(16,25)                1.0901         estimate D2E/DX2                !
 ! R27   R(16,26)                1.0943         estimate D2E/DX2                !
 ! R28   R(16,27)                1.1005         estimate D2E/DX2                !
 ! R29   R(17,28)                1.0912         estimate D2E/DX2                !
 ! R30   R(17,29)                1.1009         estimate D2E/DX2                !
 ! R31   R(17,30)                1.0939         estimate D2E/DX2                !
 ! A1    A(1,2,3)              115.7082         estimate D2E/DX2                !
 ! A2    A(1,2,15)             104.2248         estimate D2E/DX2                !
 ! A3    A(1,2,18)             114.8024         estimate D2E/DX2                !
 ! A4    A(3,2,15)             106.1224         estimate D2E/DX2                !
 ! A5    A(3,2,18)             106.4625         estimate D2E/DX2                !
 ! A6    A(15,2,18)            109.0536         estimate D2E/DX2                !
 ! A7    A(2,3,4)              120.8003         estimate D2E/DX2                !
 ! A8    A(3,4,5)              127.3498         estimate D2E/DX2                !
 ! A9    A(3,4,14)             121.9207         estimate D2E/DX2                !
 ! A10   A(5,4,14)             110.7286         estimate D2E/DX2                !
 ! A11   A(4,5,6)              105.3319         estimate D2E/DX2                !
 ! A12   A(5,6,7)              109.3048         estimate D2E/DX2                !
 ! A13   A(6,7,8)              117.2277         estimate D2E/DX2                !
 ! A14   A(6,7,14)             109.4773         estimate D2E/DX2                !
 ! A15   A(8,7,14)             133.2936         estimate D2E/DX2                !
 ! A16   A(7,8,9)              120.7019         estimate D2E/DX2                !
 ! A17   A(7,8,13)             120.286          estimate D2E/DX2                !
 ! A18   A(9,8,13)             119.0118         estimate D2E/DX2                !
 ! A19   A(8,9,10)             120.3753         estimate D2E/DX2                !
 ! A20   A(8,9,19)             119.6419         estimate D2E/DX2                !
 ! A21   A(10,9,19)            119.9824         estimate D2E/DX2                !
 ! A22   A(9,10,11)            120.2645         estimate D2E/DX2                !
 ! A23   A(9,10,20)            119.5774         estimate D2E/DX2                !
 ! A24   A(11,10,20)           120.158          estimate D2E/DX2                !
 ! A25   A(10,11,12)           119.7249         estimate D2E/DX2                !
 ! A26   A(10,11,21)           120.1788         estimate D2E/DX2                !
 ! A27   A(12,11,21)           120.0962         estimate D2E/DX2                !
 ! A28   A(11,12,13)           120.2309         estimate D2E/DX2                !
 ! A29   A(11,12,22)           120.1715         estimate D2E/DX2                !
 ! A30   A(13,12,22)           119.5976         estimate D2E/DX2                !
 ! A31   A(8,13,12)            120.3924         estimate D2E/DX2                !
 ! A32   A(8,13,23)            119.9341         estimate D2E/DX2                !
 ! A33   A(12,13,23)           119.6733         estimate D2E/DX2                !
 ! A34   A(4,14,7)             105.1563         estimate D2E/DX2                !
 ! A35   A(4,14,24)            126.1597         estimate D2E/DX2                !
 ! A36   A(7,14,24)            128.6801         estimate D2E/DX2                !
 ! A37   A(2,15,16)            113.1866         estimate D2E/DX2                !
 ! A38   A(2,15,17)            113.1102         estimate D2E/DX2                !
 ! A39   A(16,15,17)           111.9561         estimate D2E/DX2                !
 ! A40   A(15,16,25)           109.63           estimate D2E/DX2                !
 ! A41   A(15,16,26)           107.8846         estimate D2E/DX2                !
 ! A42   A(15,16,27)           112.7112         estimate D2E/DX2                !
 ! A43   A(25,16,26)           108.8065         estimate D2E/DX2                !
 ! A44   A(25,16,27)           109.2734         estimate D2E/DX2                !
 ! A45   A(26,16,27)           108.4506         estimate D2E/DX2                !
 ! A46   A(15,17,28)           109.7348         estimate D2E/DX2                !
 ! A47   A(15,17,29)           112.6289         estimate D2E/DX2                !
 ! A48   A(15,17,30)           108.0818         estimate D2E/DX2                !
 ! A49   A(28,17,29)           109.06           estimate D2E/DX2                !
 ! A50   A(28,17,30)           108.6081         estimate D2E/DX2                !
 ! A51   A(29,17,30)           108.6416         estimate D2E/DX2                !
 ! D1    D(1,2,3,4)             47.138          estimate D2E/DX2                !
 ! D2    D(15,2,3,4)           -67.8896         estimate D2E/DX2                !
 ! D3    D(18,2,3,4)           176.0219         estimate D2E/DX2                !
 ! D4    D(1,2,15,16)           48.7134         estimate D2E/DX2                !
 ! D5    D(1,2,15,17)          177.3975         estimate D2E/DX2                !
 ! D6    D(3,2,15,16)          171.3362         estimate D2E/DX2                !
 ! D7    D(3,2,15,17)          -59.9797         estimate D2E/DX2                !
 ! D8    D(18,2,15,16)         -74.3382         estimate D2E/DX2                !
 ! D9    D(18,2,15,17)          54.3458         estimate D2E/DX2                !
 ! D10   D(2,3,4,5)              6.4473         estimate D2E/DX2                !
 ! D11   D(2,3,4,14)          -173.915          estimate D2E/DX2                !
 ! D12   D(3,4,5,6)            179.966          estimate D2E/DX2                !
 ! D13   D(14,4,5,6)             0.2948         estimate D2E/DX2                !
 ! D14   D(3,4,14,7)           179.9565         estimate D2E/DX2                !
 ! D15   D(3,4,14,24)            0.6228         estimate D2E/DX2                !
 ! D16   D(5,4,14,7)            -0.3515         estimate D2E/DX2                !
 ! D17   D(5,4,14,24)         -179.6851         estimate D2E/DX2                !
 ! D18   D(4,5,6,7)             -0.1325         estimate D2E/DX2                !
 ! D19   D(5,6,7,8)            179.5271         estimate D2E/DX2                !
 ! D20   D(5,6,7,14)            -0.0885         estimate D2E/DX2                !
 ! D21   D(6,7,8,9)             -3.7014         estimate D2E/DX2                !
 ! D22   D(6,7,8,13)           176.5008         estimate D2E/DX2                !
 ! D23   D(14,7,8,9)           175.8006         estimate D2E/DX2                !
 ! D24   D(14,7,8,13)           -3.9972         estimate D2E/DX2                !
 ! D25   D(6,7,14,4)             0.2569         estimate D2E/DX2                !
 ! D26   D(6,7,14,24)          179.5678         estimate D2E/DX2                !
 ! D27   D(8,7,14,4)          -179.2734         estimate D2E/DX2                !
 ! D28   D(8,7,14,24)            0.0375         estimate D2E/DX2                !
 ! D29   D(7,8,9,10)          -179.6899         estimate D2E/DX2                !
 ! D30   D(7,8,9,19)             0.0969         estimate D2E/DX2                !
 ! D31   D(13,8,9,10)            0.1105         estimate D2E/DX2                !
 ! D32   D(13,8,9,19)          179.8973         estimate D2E/DX2                !
 ! D33   D(7,8,13,12)          179.6744         estimate D2E/DX2                !
 ! D34   D(7,8,13,23)           -0.4916         estimate D2E/DX2                !
 ! D35   D(9,8,13,12)           -0.1269         estimate D2E/DX2                !
 ! D36   D(9,8,13,23)          179.7072         estimate D2E/DX2                !
 ! D37   D(8,9,10,11)           -0.0154         estimate D2E/DX2                !
 ! D38   D(8,9,10,20)          179.8707         estimate D2E/DX2                !
 ! D39   D(19,9,10,11)        -179.8016         estimate D2E/DX2                !
 ! D40   D(19,9,10,20)           0.0846         estimate D2E/DX2                !
 ! D41   D(9,10,11,12)          -0.0647         estimate D2E/DX2                !
 ! D42   D(9,10,11,21)         179.9716         estimate D2E/DX2                !
 ! D43   D(20,10,11,12)       -179.9502         estimate D2E/DX2                !
 ! D44   D(20,10,11,21)          0.0861         estimate D2E/DX2                !
 ! D45   D(10,11,12,13)          0.0483         estimate D2E/DX2                !
 ! D46   D(10,11,12,22)       -179.9056         estimate D2E/DX2                !
 ! D47   D(21,11,12,13)       -179.988          estimate D2E/DX2                !
 ! D48   D(21,11,12,22)          0.0581         estimate D2E/DX2                !
 ! D49   D(11,12,13,8)           0.0483         estimate D2E/DX2                !
 ! D50   D(11,12,13,23)       -179.7862         estimate D2E/DX2                !
 ! D51   D(22,12,13,8)        -179.9976         estimate D2E/DX2                !
 ! D52   D(22,12,13,23)          0.1679         estimate D2E/DX2                !
 ! D53   D(2,15,16,25)         -52.7426         estimate D2E/DX2                !
 ! D54   D(2,15,16,26)        -171.0851         estimate D2E/DX2                !
 ! D55   D(2,15,16,27)          69.2076         estimate D2E/DX2                !
 ! D56   D(17,15,16,25)        177.9816         estimate D2E/DX2                !
 ! D57   D(17,15,16,26)         59.6391         estimate D2E/DX2                !
 ! D58   D(17,15,16,27)        -60.0682         estimate D2E/DX2                !
 ! D59   D(2,15,17,28)          50.6442         estimate D2E/DX2                !
 ! D60   D(2,15,17,29)         -71.0517         estimate D2E/DX2                !
 ! D61   D(2,15,17,30)         168.9218         estimate D2E/DX2                !
 ! D62   D(16,15,17,28)        179.9599         estimate D2E/DX2                !
 ! D63   D(16,15,17,29)         58.264          estimate D2E/DX2                !
 ! D64   D(16,15,17,30)        -61.7625         estimate D2E/DX2                !
 --------------------------------------------------------------------------------
 Trust Radius=3.00D-01 FncErr=1.00D-07 GrdErr=1.00D-06 EigMax=2.50D+02 EigMin=1.00D-04
 Number of steps in this run=    156 maximum allowed number of steps=    180.
 GradGradGradGradGradGradGradGradGradGradGradGradGradGradGradGradGradGrad

 Leave Link  103 at Thu Sep 24 06:49:43 2020, MaxMem=  2147483648 cpu:               0.1 elap:               0.0
 (Enter /prod/apps/gaussian/g16b1/l202.exe)
                          Input orientation:                          
 ---------------------------------------------------------------------
 Center     Atomic      Atomic             Coordinates (Angstroms)
 Number     Number       Type             X           Y           Z
 ---------------------------------------------------------------------
      1          8           0       -2.975000    0.334000   -1.879000
      2         16           0       -3.004000   -0.393000   -0.586000
      3          7           0       -1.626000   -1.080000   -0.144000
      4          6           0       -0.442000   -0.386000   -0.207000
      5          7           0       -0.275000    0.905000   -0.500000
      6          8           0        1.129000    1.128000   -0.431000
      7          6           0        1.751000   -0.030000   -0.098000
      8          6           0        3.211000    0.001000    0.011000
      9          6           0        3.929000    1.169000   -0.298000
     10          6           0        5.320000    1.189000   -0.198000
     11          6           0        6.013000    0.047000    0.211000
     12          6           0        5.306000   -1.119000    0.522000
     13          6           0        3.916000   -1.144000    0.424000
     14          6           0        0.823000   -1.015000    0.060000
     15          7           0       -3.324000    0.834000    0.583000
     16          6           0       -4.453000    1.702000    0.217000
     17          6           0       -3.455000    0.309000    1.949000
     18          8           0       -4.050000   -1.444000   -0.485000
     19          1           0        3.396000    2.057000   -0.619000
     20          1           0        5.862000    2.098000   -0.442000
     21          1           0        7.097000    0.064000    0.288000
     22          1           0        5.837000   -2.010000    0.842000
     23          1           0        3.376000   -2.053000    0.671000
     24          1           0        0.977000   -2.052000    0.317000
     25          1           0       -4.300000    2.098000   -0.787000
     26          1           0       -4.479000    2.536000    0.925000
     27          1           0       -5.421000    1.180000    0.258000
     28          1           0       -2.601000   -0.329000    2.182000
     29          1           0       -4.383000   -0.265000    2.095000
     30          1           0       -3.456000    1.157000    2.640000
 ---------------------------------------------------------------------
                    Distance matrix (angstroms):
                    1          2          3          4          5
     1  O    0.000000
     2  S    1.483651   0.000000
     3  N    2.613316   1.601942   0.000000
     4  C    3.119306   2.589891   1.373849   0.000000
     5  N    3.085074   3.023184   2.427378   1.334323   0.000000
     6  O    4.423794   4.406717   3.542267   2.193265   1.423273
     7  C    5.063549   4.793739   3.536770   2.224380   2.267268
     8  C    6.476850   6.256027   4.958745   3.679905   3.637380
     9  C    7.131760   7.112614   5.994976   4.640253   4.217122
    10  C    8.506692   8.481877   7.307407   5.973387   5.610337
    11  C    9.232259   9.062842   7.729843   6.482996   6.385971
    12  C    8.743625   8.414918   6.964029   5.840226   6.024004
    13  C    7.414457   7.033527   5.571399   4.468209   4.755697
    14  C    4.472620   3.930665   2.458341   1.437760   2.281579
    15  N    2.536384   1.724671   2.659911   3.227758   3.236407
    16  C    2.906738   2.670849   3.982684   4.541766   4.313349
    17  C    3.858058   2.668788   3.107284   3.769553   4.057735
    18  O    2.502028   1.486243   2.474783   3.770187   4.446195
    19  H    6.719075   6.852999   5.940276   4.568177   3.849351
    20  H    9.125198   9.210417   8.139941   6.779815   6.252150
    21  H   10.306016  10.149036   8.808297   7.568622   7.461542
    22  H    9.515751   9.100393   7.585082   6.569902   6.903241
    23  H    7.248136   6.711188   5.160519   4.257569   4.842603
    24  H    5.112115   4.406365   2.816543   2.250265   3.313434
    25  H    2.461663   2.815155   4.202786   4.625021   4.207879
    26  H    3.869527   3.610788   4.728406   5.110467   4.729102
    27  H    3.356397   3.004755   4.435226   5.240136   5.208791
    28  H    4.131727   2.797915   2.631521   3.220536   3.758478
    29  H    4.258397   3.017579   3.643953   4.565668   4.997858
    30  H    4.618447   3.607476   4.012945   4.423851   4.476814
                    6          7          8          9         10
     6  O    0.000000
     7  C    1.356000   0.000000
     8  C    2.408364   1.464391   0.000000
     9  C    2.803457   2.494250   1.405428   0.000000
    10  C    4.197915   3.772761   2.429590   1.394733   0.000000
    11  C    5.043231   4.273880   2.809505   2.420955   1.397030
    12  C    4.837825   3.769396   2.429927   2.793470   2.417739
    13  C    3.695995   2.490121   1.406634   2.423102   2.793025
    14  C    2.219722   1.362488   2.595612   3.813824   5.014697
    15  N    4.576444   5.192868   6.612662   7.313986   8.686468
    16  C    5.648726   6.448927   7.853199   8.414704   9.795250
    17  C    5.229552   5.604245   6.948832   7.766084   9.076598
    18  O    5.782745   5.983374   7.419984   8.398046   9.737143
    19  H    2.457168   2.707958   2.158300   1.084285   2.152311
    20  H    4.831388   4.641879   3.410340   2.149480   1.086085
    21  H    6.104595   5.360741   3.896369   3.405972   2.158599
    22  H    5.799382   4.636744   3.410360   3.878931   3.403306
    23  H    4.047490   2.706384   2.163733   3.409700   3.878771
    24  H    3.270322   2.204492   3.049459   4.412184   5.443432
    25  H    5.526452   6.451179   7.838963   8.295698   9.680785
    26  H    5.938928   6.814968   8.148480   8.605747   9.954694
    27  H    6.586344   7.282062   8.715645   9.366523  10.750679
    28  H    4.781581   4.922165   6.213009   7.143900   8.408981
    29  H    6.221195   6.518468   7.879254   8.767676  10.075722
    30  H    5.518524   6.001538   7.259261   7.947969   9.223527
                   11         12         13         14         15
    11  C    0.000000
    12  C    1.398616   0.000000
    13  C    2.421004   1.393675   0.000000
    14  C    5.299693   4.507943   3.117016   0.000000
    15  N    9.377490   8.848437   7.507021   4.570551   0.000000
    16  C   10.596047  10.163127   8.842100   5.936574   1.470381
    17  C    9.629762   8.990586   7.666060   4.860307   1.469266
    18  O   10.196640   9.415647   8.023306   4.922113   2.618584
    19  H    3.402600   3.877752   3.406560   4.064302   6.935339
    20  H    2.157733   3.404045   3.879102   5.944266   9.329036
    21  H    1.086864   2.159149   3.405367   6.370188  10.453572
    22  H    2.158793   1.085469   2.148237   5.171242   9.595798
    23  H    3.402259   2.149292   1.085767   2.822866   7.296061
    24  H    5.456953   4.433143   3.077927   1.079414   5.186362
    25  H   10.562224  10.214588   8.915141   6.054197   2.104085
    26  H   10.806803  10.453117   9.179838   6.439645   2.085136
    27  H   11.490094  10.973770   9.623310   6.621538   2.150058
    28  H    8.844615   8.117903   6.798976   4.086228   2.105255
    29  H   10.569939   9.852937   8.511068   5.639695   2.148354
    30  H    9.838399   9.297244   8.034404   5.448286   2.086385
                   16         17         18         19         20
    16  C    0.000000
    17  C    2.436448   0.000000
    18  O    3.248466   3.058004   0.000000
    19  H    7.901375   7.522389   8.229087   0.000000
    20  H   10.343613   9.783859  10.525937   2.472684   0.000000
    21  H   11.665787  10.684739  11.275070   4.300244   2.489032
    22  H   10.956901   9.640771   9.991699   4.963214   4.304061
    23  H    8.694791   7.339952   7.540072   4.307737   4.964853
    24  H    6.602077   5.280186   5.126753   4.859171   6.454596
    25  H    1.090065   3.376424   3.563631   7.697943  10.167855
    26  H    1.094302   2.656441   4.244118   8.039217  10.440154
    27  H    1.100540   2.735558   3.052387   8.903805  11.341905
    28  H    3.378770   1.091169   3.233530   7.035809   9.186842
    29  H    2.720455   1.100898   2.856104   8.559808  10.815737
    30  H    2.676184   1.093886   4.108973   7.640745   9.859479
                   21         22         23         24         25
    21  H    0.000000
    22  H    2.489175   0.000000
    23  H    4.298165   2.467308   0.000000
    24  H    6.475546   4.888455   2.424978   0.000000
    25  H   11.626882  11.058394   8.847460   6.803532   0.000000
    26  H   11.854127  11.273547   9.100795   7.154533   1.776184
    27  H   12.567684  11.715789   9.381368   7.168243   1.786446
    28  H    9.889029   8.707537   6.401549   4.387373   4.194269
    29  H   11.626001  10.443344   8.088684   5.923196   3.727812
    30  H   10.867031   9.981109   7.801108   5.945208   3.652690
                   26         27         28         29         30
    26  H    0.000000
    27  H    1.780727   0.000000
    28  H    3.648994   3.732460   0.000000
    29  H    3.037057   2.557350   1.785270   0.000000
    30  H    2.426808   3.087989   1.774538   1.782817   0.000000
 Symmetry turned off by external request.
 Stoichiometry    C11H12N3O3S(1-)
 Framework group  C1[X(C11H12N3O3S)]
 Deg. of freedom    84
 Full point group                 C1      NOp   1
 Rotational constants (GHZ):           1.2652555           0.1511725           0.1469947
 Leave Link  202 at Thu Sep 24 06:49:43 2020, MaxMem=  2147483648 cpu:               0.0 elap:               0.0
 (Enter /prod/apps/gaussian/g16b1/l301.exe)
 Standard basis: 6-31G(d) (6D, 7F)
 Ernie: Thresh=  0.10000D-02 Tol=  0.10000D-05 Strict=F.
   298 basis functions,   576 primitive gaussians,   298 cartesian basis functions
    70 alpha electrons       70 beta electrons
       nuclear repulsion energy      1421.8496446965 Hartrees.
 IExCor=  402 DFT=T Ex+Corr=B3LYP ExCW=0 ScaHFX=  0.200000
 ScaDFX=  0.800000  0.720000  1.000000  0.810000 ScalE2=  1.000000  1.000000
 IRadAn=      5 IRanWt=     -1 IRanGd=            0 ICorTp=0 IEmpDi=  4
 NAtoms=   30 NActive=   30 NUniq=   30 SFac= 1.00D+00 NAtFMM=   60 NAOKFM=F Big=F
 Integral buffers will be    131072 words long.
 Raffenetti 2 integral format.
 Two-electron integral symmetry is turned off.
 Using the following non-standard input for PCM:
 MSTModel=DFT cav MSTcharged
 --- end of non-standard input.
 MST model for solvation energy: B3LYP parametrization.
 MST cavity parameters:
 ISph   IAn     Re0     Alpha   Atom Type   QCorr
 ------------------------------------------------
   1      8     1.40     1.25      O          F
   2     16     1.75     1.25      S          F
   3      7     1.40     1.15      N          T
   4      6     1.50     1.25      C          F
   5      7     1.40     1.25      N          F
   6      8     1.40     1.25      O          F
   7      6     1.50     1.25      C          F
   8      6     1.50     1.25      C          F
   9      6     1.50     1.25      CH         F
  10      6     1.50     1.25      CH         F
  11      6     1.50     1.25      CH         F
  12      6     1.50     1.25      CH         F
  13      6     1.50     1.25      CH         F
  14      6     1.50     1.25      CH         F
  15      7     1.40     1.25      N          F
  16      6     1.50     1.25      CH3        F
  17      6     1.50     1.25      CH3        F
  18      8     1.40     1.25      O          F
  19      1     1.20     1.25      CH         F
  20      1     1.20     1.25      CH         F
  21      1     1.20     1.25      CH         F
  22      1     1.20     1.25      CH         F
  23      1     1.20     1.25      CH         F
  24      1     1.20     1.25      CH         F
  25      1     1.20     1.25      CH3        F
  26      1     1.20     1.25      CH3        F
  27      1     1.20     1.25      CH3        F
  28      1     1.20     1.25      CH3        F
  29      1     1.20     1.25      CH3        F
  30      1     1.20     1.25      CH3        F
 ------------------------------------------------------------------------------
 Polarizable Continuum Model (PCM)
 =================================
 Model                : PCM.
 Atomic radii         : MST.
 Polarization charges : Total charges.
 Charge compensation  : None.
 Solution method      : On-the-fly selection.
 Cavity type          : Scaled VdW (van der Waals Surface) (Alpha=1.250).
 Cavity algorithm     : GePol (No added spheres)
                        Default sphere list used, NSphG=   30.
                        Lebedev-Laikov grids with approx.  5.0 points / Ang**2.
                        Smoothing algorithm: York/Karplus (Gamma=1.0000).
                        Polarization charges: spherical gaussians, with
                                              point-specific exponents (IZeta= 3).
                        Self-potential: point-specific (ISelfS= 7).
                        Self-field    : sphere-specific E.n sum rule (ISelfD= 2).
 1st derivatives      : Analytical E(r).r(x)/FMM algorithm (CHGder, D1EAlg=3).
                        Cavity 1st derivative terms included.
 Solvent              : Water, Eps=  78.355300 Eps(inf)=   1.777849
 ------------------------------------------------------------------------------
 GePol: Number of generator spheres                  =      30
 GePol: Total number of spheres                      =      30
 GePol: Number of exposed spheres                    =      30 (100.00%)
 GePol: Number of points                             =    2341
 GePol: Average weight of points                     =       0.13
 GePol: Minimum weight of points                     =   0.13D-10
 GePol: Maximum weight of points                     =    0.22001
 GePol: Number of points with low weight             =     150
 GePol: Fraction of low-weight points (<1% of avg)   =       6.41%
 GePol: Cavity surface area                          =    310.573 Ang**2
 GePol: Cavity volume                                =    290.682 Ang**3
 PCM non-electrostatic energy =         0.0041756185 Hartrees.
 Nuclear repulsion after PCM non-electrostatic terms =     1421.8538203150 Hartrees.
 Leave Link  301 at Thu Sep 24 06:49:43 2020, MaxMem=  2147483648 cpu:               0.3 elap:               0.1
 (Enter /prod/apps/gaussian/g16b1/l302.exe)
 NPDir=0 NMtPBC=     1 NCelOv=     1 NCel=       1 NClECP=     1 NCelD=      1
         NCelK=      1 NCelE2=     1 NClLst=     1 CellRange=     0.0.
 One-electron integrals computed using PRISM.
 NBasis=   298 RedAO= T EigKep=  4.61D-04  NBF=   298
 NBsUse=   298 1.00D-06 EigRej= -1.00D+00 NBFU=   298
 Precomputing XC quadrature grid using
 IXCGrd= 4 IRadAn=           5 IRanWt=          -1 IRanGd=           0 AccXCQ= 0.00D+00.
 Generated NRdTot=       0 NPtTot=           0 NUsed=           0 NTot=          32
 NSgBfM=   296   296   296   296   296 MxSgAt=    30 MxSgA2=    30.
 Leave Link  302 at Thu Sep 24 06:49:44 2020, MaxMem=  2147483648 cpu:               1.2 elap:               0.3
 (Enter /prod/apps/gaussian/g16b1/l303.exe)
 DipDrv:  MaxL=1.
 Leave Link  303 at Thu Sep 24 06:49:44 2020, MaxMem=  2147483648 cpu:               0.1 elap:               0.1
 (Enter /prod/apps/gaussian/g16b1/l401.exe)
 ExpMin= 1.17D-01 ExpMax= 2.19D+04 ExpMxC= 3.30D+03 IAcc=3 IRadAn=         5 AccDes= 0.00D+00
 Harris functional with IExCor=  402 and IRadAn=       5 diagonalized for initial guess.
 HarFok:  IExCor=  402 AccDes= 0.00D+00 IRadAn=         5 IDoV= 1 UseB2=F ITyADJ=14
 ICtDFT=  3500011 ScaDFX=  1.000000  1.000000  1.000000  1.000000
 FoFCou: FMM=F IPFlag=           0 FMFlag=      100000 FMFlg1=           0
         NFxFlg=           0 DoJE=T BraDBF=F KetDBF=T FulRan=T
         wScrn=  0.000000 ICntrl=       500 IOpCl=  0 I1Cent=   200000004 NGrid=           0
         NMat0=    1 NMatS0=      1 NMatT0=    0 NMatD0=    1 NMtDS0=    0 NMtDT0=    0
 Symmetry not used in FoFCou.
 Harris En= -1214.60745548153    
 JPrj=0 DoOrth=F DoCkMO=F.
 Leave Link  401 at Thu Sep 24 06:49:45 2020, MaxMem=  2147483648 cpu:               6.7 elap:               1.7
 (Enter /prod/apps/gaussian/g16b1/l502.exe)
 Keep R1 ints in memory in canonical form, NReq=1005784643.
 FoFCou: FMM=F IPFlag=           0 FMFlag=           0 FMFlg1=           0
         NFxFlg=           0 DoJE=F BraDBF=F KetDBF=F FulRan=T
         wScrn=  0.000000 ICntrl=       600 IOpCl=  0 I1Cent=           0 NGrid=           0
         NMat0=    1 NMatS0=  44551 NMatT0=    0 NMatD0=    1 NMtDS0=    0 NMtDT0=    0
 Symmetry not used in FoFCou.
 Two-electron integral symmetry not used.
 Closed shell SCF:
 Using DIIS extrapolation, IDIIS=  1040.
 NGot=  2147483648 LenX=  1154883590 LenY=  1154794345
 Requested convergence on RMS density matrix=1.00D-08 within2000 cycles.
 Requested convergence on MAX density matrix=1.00D-06.
 Requested convergence on             energy=1.00D-06.
 No special actions if energy rises.

 Cycle   1  Pass 1  IDiag  1:
 Inv3:  Mode=1 IEnd=    16440843.
 Iteration    1 A*A^-1 deviation from unit magnitude is 3.33D-15 for   2278.
 Iteration    1 A*A^-1 deviation from orthogonality  is 2.99D-15 for   2069    636.
 Iteration    1 A^-1*A deviation from unit magnitude is 3.11D-15 for   1089.
 Iteration    1 A^-1*A deviation from orthogonality  is 2.64D-15 for   2109    627.
 E= -1213.98033695509    
 DIIS: error= 3.38D-02 at cycle   1 NSaved=   1.
 NSaved= 1 IEnMin= 1 EnMin= -1213.98033695509     IErMin= 1 ErrMin= 3.38D-02
 ErrMax= 3.38D-02  0.00D+00 EMaxC= 1.00D-01 BMatC= 6.48D-01 BMatP= 6.48D-01
 IDIUse=3 WtCom= 6.62D-01 WtEn= 3.38D-01
 Coeff-Com:  0.100D+01
 Coeff-En:   0.100D+01
 Coeff:      0.100D+01
 Gap=     0.209 Goal=   None    Shift=    0.000
 GapD=    0.209 DampG=1.000 DampE=0.500 DampFc=0.5000 IDamp=-1.
 Damping current iteration by 5.00D-01
 RMSDP=6.20D-03 MaxDP=5.55D-01              OVMax= 2.04D-01

 Cycle   2  Pass 1  IDiag  1:
 E= -1214.16578409236     Delta-E=       -0.185447137270 Rises=F Damp=T
 DIIS: error= 1.03D-02 at cycle   2 NSaved=   2.
 NSaved= 2 IEnMin= 2 EnMin= -1214.16578409236     IErMin= 2 ErrMin= 1.03D-02
 ErrMax= 1.03D-02  0.00D+00 EMaxC= 1.00D-01 BMatC= 7.10D-02 BMatP= 6.48D-01
 IDIUse=3 WtCom= 8.97D-01 WtEn= 1.03D-01
 Coeff-Com:  0.180D+00 0.820D+00
 Coeff-En:   0.290D+00 0.710D+00
 Coeff:      0.192D+00 0.808D+00
 Gap=     0.212 Goal=   None    Shift=    0.000
 RMSDP=1.69D-03 MaxDP=1.32D-01 DE=-1.85D-01 OVMax= 1.64D-01

 Cycle   3  Pass 1  IDiag  1:
 E= -1214.50752398694     Delta-E=       -0.341739894582 Rises=F Damp=F
 DIIS: error= 7.16D-03 at cycle   3 NSaved=   3.
 NSaved= 3 IEnMin= 3 EnMin= -1214.50752398694     IErMin= 3 ErrMin= 7.16D-03
 ErrMax= 7.16D-03  0.00D+00 EMaxC= 1.00D-01 BMatC= 3.70D-02 BMatP= 7.10D-02
 IDIUse=3 WtCom= 9.28D-01 WtEn= 7.16D-02
 Coeff-Com:  0.426D-01 0.418D+00 0.540D+00
 Coeff-En:   0.000D+00 0.000D+00 0.100D+01
 Coeff:      0.396D-01 0.388D+00 0.573D+00
 Gap=     0.174 Goal=   None    Shift=    0.000
 RMSDP=8.78D-04 MaxDP=3.82D-02 DE=-3.42D-01 OVMax= 3.99D-02

 Cycle   4  Pass 1  IDiag  1:
 E= -1214.53455936294     Delta-E=       -0.027035375997 Rises=F Damp=F
 DIIS: error= 3.06D-03 at cycle   4 NSaved=   4.
 NSaved= 4 IEnMin= 4 EnMin= -1214.53455936294     IErMin= 4 ErrMin= 3.06D-03
 ErrMax= 3.06D-03  0.00D+00 EMaxC= 1.00D-01 BMatC= 5.85D-03 BMatP= 3.70D-02
 IDIUse=3 WtCom= 9.69D-01 WtEn= 3.06D-02
 Coeff-Com:  0.762D-03 0.100D+00 0.307D+00 0.592D+00
 Coeff-En:   0.000D+00 0.000D+00 0.111D+00 0.889D+00
 Coeff:      0.738D-03 0.970D-01 0.301D+00 0.602D+00
 Gap=     0.171 Goal=   None    Shift=    0.000
 RMSDP=2.95D-04 MaxDP=1.37D-02 DE=-2.70D-02 OVMax= 1.73D-02

 Cycle   5  Pass 1  IDiag  1:
 E= -1214.53900719101     Delta-E=       -0.004447828068 Rises=F Damp=F
 DIIS: error= 9.33D-04 at cycle   5 NSaved=   5.
 NSaved= 5 IEnMin= 5 EnMin= -1214.53900719101     IErMin= 5 ErrMin= 9.33D-04
 ErrMax= 9.33D-04  0.00D+00 EMaxC= 1.00D-01 BMatC= 5.75D-04 BMatP= 5.85D-03
 IDIUse=3 WtCom= 9.91D-01 WtEn= 9.33D-03
 Coeff-Com: -0.306D-02 0.187D-01 0.109D+00 0.323D+00 0.552D+00
 Coeff-En:   0.000D+00 0.000D+00 0.000D+00 0.234D-01 0.977D+00
 Coeff:     -0.303D-02 0.185D-01 0.108D+00 0.321D+00 0.556D+00
 Gap=     0.172 Goal=   None    Shift=    0.000
 RMSDP=9.29D-05 MaxDP=5.07D-03 DE=-4.45D-03 OVMax= 5.41D-03

 Cycle   6  Pass 1  IDiag  1:
 E= -1214.53947528475     Delta-E=       -0.000468093741 Rises=F Damp=F
 DIIS: error= 1.90D-04 at cycle   6 NSaved=   6.
 NSaved= 6 IEnMin= 6 EnMin= -1214.53947528475     IErMin= 6 ErrMin= 1.90D-04
 ErrMax= 1.90D-04  0.00D+00 EMaxC= 1.00D-01 BMatC= 3.23D-05 BMatP= 5.75D-04
 IDIUse=3 WtCom= 9.98D-01 WtEn= 1.90D-03
 Coeff-Com: -0.168D-02 0.398D-02 0.374D-01 0.128D+00 0.286D+00 0.546D+00
 Coeff-En:   0.000D+00 0.000D+00 0.000D+00 0.000D+00 0.000D+00 0.100D+01
 Coeff:     -0.167D-02 0.398D-02 0.373D-01 0.128D+00 0.285D+00 0.547D+00
 Gap=     0.172 Goal=   None    Shift=    0.000
 RMSDP=2.27D-05 MaxDP=1.41D-03 DE=-4.68D-04 OVMax= 2.59D-03

 Cycle   7  Pass 1  IDiag  1:
 E= -1214.53949984471     Delta-E=       -0.000024559959 Rises=F Damp=F
 DIIS: error= 8.64D-05 at cycle   7 NSaved=   7.
 NSaved= 7 IEnMin= 7 EnMin= -1214.53949984471     IErMin= 7 ErrMin= 8.64D-05
 ErrMax= 8.64D-05  0.00D+00 EMaxC= 1.00D-01 BMatC= 4.62D-06 BMatP= 3.23D-05
 IDIUse=1 WtCom= 1.00D+00 WtEn= 0.00D+00
 Coeff-Com: -0.775D-03 0.555D-03 0.124D-01 0.472D-01 0.123D+00 0.334D+00
 Coeff-Com:  0.484D+00
 Coeff:     -0.775D-03 0.555D-03 0.124D-01 0.472D-01 0.123D+00 0.334D+00
 Coeff:      0.484D+00
 Gap=     0.172 Goal=   None    Shift=    0.000
 RMSDP=8.15D-06 MaxDP=5.70D-04 DE=-2.46D-05 OVMax= 9.74D-04

 Cycle   8  Pass 1  IDiag  1:
 E= -1214.53950379565     Delta-E=       -0.000003950940 Rises=F Damp=F
 DIIS: error= 1.93D-05 at cycle   8 NSaved=   8.
 NSaved= 8 IEnMin= 8 EnMin= -1214.53950379565     IErMin= 8 ErrMin= 1.93D-05
 ErrMax= 1.93D-05  0.00D+00 EMaxC= 1.00D-01 BMatC= 3.32D-07 BMatP= 4.62D-06
 IDIUse=1 WtCom= 1.00D+00 WtEn= 0.00D+00
 Coeff-Com: -0.220D-03-0.127D-03 0.224D-02 0.101D-01 0.335D-01 0.120D+00
 Coeff-Com:  0.257D+00 0.578D+00
 Coeff:     -0.220D-03-0.127D-03 0.224D-02 0.101D-01 0.335D-01 0.120D+00
 Coeff:      0.257D+00 0.578D+00
 Gap=     0.172 Goal=   None    Shift=    0.000
 RMSDP=2.37D-06 MaxDP=1.34D-04 DE=-3.95D-06 OVMax= 2.59D-04

 Cycle   9  Pass 1  IDiag  1:
 E= -1214.53950406391     Delta-E=       -0.000000268266 Rises=F Damp=F
 DIIS: error= 8.40D-06 at cycle   9 NSaved=   9.
 NSaved= 9 IEnMin= 9 EnMin= -1214.53950406391     IErMin= 9 ErrMin= 8.40D-06
 ErrMax= 8.40D-06  0.00D+00 EMaxC= 1.00D-01 BMatC= 3.47D-08 BMatP= 3.32D-07
 IDIUse=1 WtCom= 1.00D+00 WtEn= 0.00D+00
 Coeff-Com: -0.191D-04-0.120D-03-0.397D-03-0.903D-03 0.133D-02 0.175D-01
 Coeff-Com:  0.605D-01 0.293D+00 0.629D+00
 Coeff:     -0.191D-04-0.120D-03-0.397D-03-0.903D-03 0.133D-02 0.175D-01
 Coeff:      0.605D-01 0.293D+00 0.629D+00
 Gap=     0.172 Goal=   None    Shift=    0.000
 RMSDP=6.92D-07 MaxDP=2.93D-05 DE=-2.68D-07 OVMax= 3.27D-05

 Cycle  10  Pass 1  IDiag  1:
 E= -1214.53950409037     Delta-E=       -0.000000026453 Rises=F Damp=F
 DIIS: error= 3.01D-06 at cycle  10 NSaved=  10.
 NSaved=10 IEnMin=10 EnMin= -1214.53950409037     IErMin=10 ErrMin= 3.01D-06
 ErrMax= 3.01D-06  0.00D+00 EMaxC= 1.00D-01 BMatC= 3.36D-09 BMatP= 3.47D-08
 IDIUse=1 WtCom= 1.00D+00 WtEn= 0.00D+00
 Coeff-Com: -0.177D-05-0.551D-04-0.325D-03-0.987D-03-0.866D-03 0.396D-02
 Coeff-Com:  0.196D-01 0.138D+00 0.350D+00 0.490D+00
 Coeff:     -0.177D-05-0.551D-04-0.325D-03-0.987D-03-0.866D-03 0.396D-02
 Coeff:      0.196D-01 0.138D+00 0.350D+00 0.490D+00
 Gap=     0.172 Goal=   None    Shift=    0.000
 RMSDP=2.13D-07 MaxDP=8.59D-06 DE=-2.65D-08 OVMax= 1.68D-05

 Cycle  11  Pass 1  IDiag  1:
 E= -1214.53950409318     Delta-E=       -0.000000002810 Rises=F Damp=F
 DIIS: error= 5.48D-07 at cycle  11 NSaved=  11.
 NSaved=11 IEnMin=11 EnMin= -1214.53950409318     IErMin=11 ErrMin= 5.48D-07
 ErrMax= 5.48D-07  0.00D+00 EMaxC= 1.00D-01 BMatC= 2.56D-10 BMatP= 3.36D-09
 IDIUse=1 WtCom= 1.00D+00 WtEn= 0.00D+00
 Coeff-Com:  0.141D-05-0.395D-05-0.103D-03-0.369D-03-0.760D-03-0.121D-02
 Coeff-Com: -0.166D-02 0.198D-01 0.558D-01 0.227D+00 0.702D+00
 Coeff:      0.141D-05-0.395D-05-0.103D-03-0.369D-03-0.760D-03-0.121D-02
 Coeff:     -0.166D-02 0.198D-01 0.558D-01 0.227D+00 0.702D+00
 Gap=     0.172 Goal=   None    Shift=    0.000
 RMSDP=5.66D-08 MaxDP=2.53D-06 DE=-2.81D-09 OVMax= 3.71D-06

 Cycle  12  Pass 1  IDiag  1:
 E= -1214.53950409338     Delta-E=       -0.000000000206 Rises=F Damp=F
 DIIS: error= 2.23D-07 at cycle  12 NSaved=  12.
 NSaved=12 IEnMin=12 EnMin= -1214.53950409338     IErMin=12 ErrMin= 2.23D-07
 ErrMax= 2.23D-07  0.00D+00 EMaxC= 1.00D-01 BMatC= 3.03D-11 BMatP= 2.56D-10
 IDIUse=1 WtCom= 1.00D+00 WtEn= 0.00D+00
 Coeff-Com:  0.647D-06 0.138D-05-0.379D-04-0.142D-03-0.356D-03-0.795D-03
 Coeff-Com: -0.201D-02 0.361D-02 0.965D-02 0.939D-01 0.372D+00 0.524D+00
 Coeff:      0.647D-06 0.138D-05-0.379D-04-0.142D-03-0.356D-03-0.795D-03
 Coeff:     -0.201D-02 0.361D-02 0.965D-02 0.939D-01 0.372D+00 0.524D+00
 Gap=     0.172 Goal=   None    Shift=    0.000
 RMSDP=2.18D-08 MaxDP=8.93D-07 DE=-2.06D-10 OVMax= 1.77D-06

 Cycle  13  Pass 1  IDiag  1:
 E= -1214.53950409341     Delta-E=       -0.000000000025 Rises=F Damp=F
 DIIS: error= 1.04D-07 at cycle  13 NSaved=  13.
 NSaved=13 IEnMin=13 EnMin= -1214.53950409341     IErMin=13 ErrMin= 1.04D-07
 ErrMax= 1.04D-07  0.00D+00 EMaxC= 1.00D-01 BMatC= 4.58D-12 BMatP= 3.03D-11
 IDIUse=1 WtCom= 1.00D+00 WtEn= 0.00D+00
 Coeff-Com:  0.730D-07 0.146D-05-0.370D-05-0.162D-04-0.771D-04-0.257D-03
 Coeff-Com: -0.995D-03-0.159D-02-0.563D-02 0.128D-01 0.819D-01 0.300D+00
 Coeff-Com:  0.614D+00
 Coeff:      0.730D-07 0.146D-05-0.370D-05-0.162D-04-0.771D-04-0.257D-03
 Coeff:     -0.995D-03-0.159D-02-0.563D-02 0.128D-01 0.819D-01 0.300D+00
 Coeff:      0.614D+00
 Gap=     0.172 Goal=   None    Shift=    0.000
 RMSDP=8.48D-09 MaxDP=3.71D-07 DE=-2.50D-11 OVMax= 6.91D-07

 Error on total polarization charges =  0.02235
 SCF Done:  E(RB3LYP) =  -1214.53950409     A.U. after   13 cycles
            NFock= 13  Conv=0.85D-08     -V/T= 2.0075
 KE= 1.205467654932D+03 PE=-5.712470462408D+03 EE= 1.870609483067D+03
 Leave Link  502 at Thu Sep 24 06:50:44 2020, MaxMem=  2147483648 cpu:             181.3 elap:              58.8
 (Enter /prod/apps/gaussian/g16b1/l601.exe)
 Copying SCF densities to generalized density rwf, IOpCl= 0 IROHF=0.

 **********************************************************************

            Population analysis using the SCF Density.

 **********************************************************************

 Alpha  occ. eigenvalues --  -89.09981 -19.21746 -19.12047 -19.11831 -14.35511
 Alpha  occ. eigenvalues --  -14.34958 -14.30502 -10.25334 -10.24841 -10.21141
 Alpha  occ. eigenvalues --  -10.20556 -10.20543 -10.19790 -10.19626 -10.19523
 Alpha  occ. eigenvalues --  -10.19468 -10.19433 -10.18224  -8.12193  -6.08685
 Alpha  occ. eigenvalues --   -6.08643  -6.08555  -1.11642  -1.08906  -0.96932
 Alpha  occ. eigenvalues --   -0.91715  -0.90421  -0.86415  -0.82034  -0.79115
 Alpha  occ. eigenvalues --   -0.74971  -0.74138  -0.70757  -0.67732  -0.63199
 Alpha  occ. eigenvalues --   -0.62030  -0.60138  -0.58044  -0.54320  -0.53059
 Alpha  occ. eigenvalues --   -0.49757  -0.48383  -0.47373  -0.46310  -0.45786
 Alpha  occ. eigenvalues --   -0.45480  -0.44595  -0.43740  -0.43324  -0.42514
 Alpha  occ. eigenvalues --   -0.41283  -0.40357  -0.39287  -0.38565  -0.37598
 Alpha  occ. eigenvalues --   -0.37027  -0.35652  -0.34585  -0.34384  -0.32380
 Alpha  occ. eigenvalues --   -0.31911  -0.31156  -0.29514  -0.28816  -0.28460
 Alpha  occ. eigenvalues --   -0.25767  -0.25606  -0.23667  -0.22584  -0.21311
 Alpha virt. eigenvalues --   -0.04144  -0.00644   0.03747   0.08325   0.08639
 Alpha virt. eigenvalues --    0.09541   0.10171   0.11369   0.12663   0.13449
 Alpha virt. eigenvalues --    0.13797   0.15020   0.15516   0.15842   0.16659
 Alpha virt. eigenvalues --    0.17278   0.17404   0.17986   0.18378   0.19354
 Alpha virt. eigenvalues --    0.19574   0.20352   0.21580   0.24146   0.24279
 Alpha virt. eigenvalues --    0.26703   0.27955   0.30319   0.31205   0.32725
 Alpha virt. eigenvalues --    0.33646   0.34996   0.39450   0.40698   0.42045
 Alpha virt. eigenvalues --    0.44082   0.45517   0.48089   0.49118   0.50594
 Alpha virt. eigenvalues --    0.51092   0.52125   0.53530   0.54219   0.54430
 Alpha virt. eigenvalues --    0.55957   0.56355   0.56482   0.58467   0.58710
 Alpha virt. eigenvalues --    0.59201   0.60091   0.60707   0.61248   0.61882
 Alpha virt. eigenvalues --    0.62064   0.63606   0.64740   0.65336   0.66303
 Alpha virt. eigenvalues --    0.66483   0.69662   0.70080   0.72123   0.72677
 Alpha virt. eigenvalues --    0.75833   0.76788   0.77596   0.79303   0.79394
 Alpha virt. eigenvalues --    0.80388   0.81894   0.82612   0.83534   0.84078
 Alpha virt. eigenvalues --    0.85018   0.85048   0.85695   0.86048   0.87766
 Alpha virt. eigenvalues --    0.88716   0.89803   0.90824   0.91202   0.92002
 Alpha virt. eigenvalues --    0.93458   0.94117   0.94243   0.96009   0.96668
 Alpha virt. eigenvalues --    0.97756   0.98199   0.98916   0.99889   1.02626
 Alpha virt. eigenvalues --    1.03936   1.04462   1.05744   1.07201   1.09113
 Alpha virt. eigenvalues --    1.10154   1.10353   1.11381   1.13584   1.16688
 Alpha virt. eigenvalues --    1.17597   1.18350   1.20419   1.23287   1.23819
 Alpha virt. eigenvalues --    1.24671   1.26464   1.27438   1.31258   1.32316
 Alpha virt. eigenvalues --    1.34698   1.36244   1.37016   1.38649   1.41423
 Alpha virt. eigenvalues --    1.42739   1.43282   1.45968   1.47286   1.47739
 Alpha virt. eigenvalues --    1.48625   1.49084   1.50578   1.51619   1.55987
 Alpha virt. eigenvalues --    1.56184   1.58088   1.60136   1.62428   1.68408
 Alpha virt. eigenvalues --    1.73672   1.76044   1.78499   1.79484   1.79889
 Alpha virt. eigenvalues --    1.80842   1.81705   1.82413   1.85117   1.85999
 Alpha virt. eigenvalues --    1.87046   1.88255   1.88871   1.90260   1.92325
 Alpha virt. eigenvalues --    1.94647   1.95632   1.96758   1.97677   1.99485
 Alpha virt. eigenvalues --    1.99997   2.01811   2.02087   2.04016   2.05059
 Alpha virt. eigenvalues --    2.07303   2.10714   2.11316   2.11860   2.12557
 Alpha virt. eigenvalues --    2.13441   2.14074   2.14820   2.16510   2.19620
 Alpha virt. eigenvalues --    2.21905   2.22884   2.23900   2.24421   2.26201
 Alpha virt. eigenvalues --    2.28321   2.30260   2.30360   2.33205   2.33305
 Alpha virt. eigenvalues --    2.35071   2.37542   2.43870   2.49555   2.51283
 Alpha virt. eigenvalues --    2.53557   2.53865   2.54385   2.58421   2.58866
 Alpha virt. eigenvalues --    2.60547   2.62325   2.64956   2.66338   2.66904
 Alpha virt. eigenvalues --    2.72268   2.73520   2.74525   2.74994   2.78019
 Alpha virt. eigenvalues --    2.80986   2.85108   2.89093   2.91215   2.93765
 Alpha virt. eigenvalues --    3.04691   3.06731   3.15325   3.28226   3.42865
 Alpha virt. eigenvalues --    3.82558   3.87904   3.95398   4.03204   4.06706
 Alpha virt. eigenvalues --    4.08629   4.10801   4.11208   4.16074   4.23896
 Alpha virt. eigenvalues --    4.26345   4.28513   4.32038   4.35705   4.38271
 Alpha virt. eigenvalues --    4.42490   4.59068   4.74769
          Condensed to atoms (all electrons):
               1          2          3          4          5          6
     1  O    8.378408   0.413603  -0.055267  -0.002842   0.001256   0.000015
     2  S    0.413603  13.557374   0.277430  -0.011498   0.001583  -0.000175
     3  N   -0.055267   0.277430   7.465887   0.341729  -0.088396   0.005067
     4  C   -0.002842  -0.011498   0.341729   4.450209   0.379471  -0.040222
     5  N    0.001256   0.001583  -0.088396   0.379471   7.083844   0.088663
     6  O    0.000015  -0.000175   0.005067  -0.040222   0.088663   8.264360
     7  C    0.000014   0.000446  -0.000251  -0.012825  -0.075124   0.236704
     8  C    0.000000  -0.000004  -0.000181   0.002993   0.004261  -0.040532
     9  C    0.000000  -0.000000  -0.000001  -0.000331   0.000127  -0.005637
    10  C    0.000000  -0.000000  -0.000000   0.000004  -0.000000   0.000326
    11  C    0.000000   0.000000   0.000000   0.000000  -0.000000   0.000001
    12  C   -0.000000  -0.000000   0.000000  -0.000006   0.000001  -0.000060
    13  C   -0.000000   0.000000   0.000002   0.000511  -0.000088   0.003072
    14  C   -0.000153  -0.000644  -0.054581   0.439988  -0.068626  -0.080834
    15  N   -0.050872   0.107910  -0.051404  -0.001500   0.001911   0.000026
    16  C   -0.006259  -0.015345   0.002315   0.000112  -0.000167   0.000000
    17  C    0.001750  -0.010764  -0.010317  -0.000203   0.000253  -0.000002
    18  O   -0.053214   0.450689  -0.069647   0.000970  -0.000028   0.000000
    19  H    0.000000  -0.000000  -0.000000   0.000042  -0.000239   0.010544
    20  H    0.000000   0.000000   0.000000  -0.000000   0.000000  -0.000002
    21  H    0.000000  -0.000000  -0.000000  -0.000000   0.000000   0.000000
    22  H   -0.000000   0.000000  -0.000000  -0.000000  -0.000000   0.000000
    23  H   -0.000000  -0.000000  -0.000001   0.000039  -0.000003   0.000021
    24  H    0.000001  -0.000101  -0.000061  -0.030700   0.006033   0.003664
    25  H    0.013081  -0.002229   0.000129  -0.000012   0.000041  -0.000000
    26  H    0.000184   0.001446  -0.000088  -0.000015   0.000014  -0.000000
    27  H   -0.000618  -0.003432  -0.000065   0.000000   0.000001   0.000000
    28  H    0.000048  -0.002614   0.014090   0.000489  -0.000133  -0.000002
    29  H   -0.000028  -0.005343  -0.000288  -0.000015   0.000007   0.000000
    30  H   -0.000053   0.002253  -0.000028  -0.000034  -0.000017  -0.000000
               7          8          9         10         11         12
     1  O    0.000014   0.000000   0.000000   0.000000   0.000000  -0.000000
     2  S    0.000446  -0.000004  -0.000000  -0.000000   0.000000  -0.000000
     3  N   -0.000251  -0.000181  -0.000001  -0.000000   0.000000   0.000000
     4  C   -0.012825   0.002993  -0.000331   0.000004   0.000000  -0.000006
     5  N   -0.075124   0.004261   0.000127  -0.000000  -0.000000   0.000001
     6  O    0.236704  -0.040532  -0.005637   0.000326   0.000001  -0.000060
     7  C    4.754305   0.348668  -0.042356   0.004538   0.000819   0.006175
     8  C    0.348668   4.787347   0.471014  -0.010593  -0.033786  -0.011570
     9  C   -0.042356   0.471014   5.072506   0.503485  -0.038235  -0.041910
    10  C    0.004538  -0.010593   0.503485   4.897728   0.539199  -0.026892
    11  C    0.000819  -0.033786  -0.038235   0.539199   4.881146   0.539195
    12  C    0.006175  -0.011570  -0.041910  -0.026892   0.539195   4.890108
    13  C   -0.043993   0.535881  -0.082160  -0.041257  -0.040236   0.516563
    14  C    0.488919  -0.056801   0.011420  -0.000223   0.000014   0.000230
    15  N    0.000026   0.000000  -0.000000   0.000000   0.000000  -0.000000
    16  C   -0.000000   0.000000  -0.000000   0.000000   0.000000  -0.000000
    17  C   -0.000001   0.000000  -0.000000  -0.000000   0.000000  -0.000000
    18  O   -0.000000  -0.000000  -0.000000  -0.000000   0.000000  -0.000000
    19  H   -0.012937  -0.043072   0.362179  -0.042039   0.004625   0.000204
    20  H   -0.000168   0.003231  -0.037783   0.363132  -0.041262   0.004421
    21  H    0.000004   0.000491   0.004612  -0.041585   0.364097  -0.041764
    22  H   -0.000196   0.003197   0.000772   0.004412  -0.041149   0.362682
    23  H   -0.012113  -0.036196   0.005759   0.000165   0.004528  -0.042868
    24  H   -0.031737  -0.003236  -0.000120   0.000001  -0.000001   0.000093
    25  H    0.000000   0.000000  -0.000000   0.000000   0.000000  -0.000000
    26  H    0.000000  -0.000000   0.000000   0.000000  -0.000000   0.000000
    27  H    0.000000   0.000000  -0.000000   0.000000   0.000000   0.000000
    28  H    0.000008   0.000000  -0.000000   0.000000  -0.000000  -0.000000
    29  H    0.000000   0.000000   0.000000   0.000000   0.000000   0.000000
    30  H    0.000000  -0.000000   0.000000  -0.000000  -0.000000   0.000000
              13         14         15         16         17         18
     1  O   -0.000000  -0.000153  -0.050872  -0.006259   0.001750  -0.053214
     2  S    0.000000  -0.000644   0.107910  -0.015345  -0.010764   0.450689
     3  N    0.000002  -0.054581  -0.051404   0.002315  -0.010317  -0.069647
     4  C    0.000511   0.439988  -0.001500   0.000112  -0.000203   0.000970
     5  N   -0.000088  -0.068626   0.001911  -0.000167   0.000253  -0.000028
     6  O    0.003072  -0.080834   0.000026   0.000000  -0.000002   0.000000
     7  C   -0.043993   0.488919   0.000026  -0.000000  -0.000001  -0.000000
     8  C    0.535881  -0.056801   0.000000   0.000000   0.000000  -0.000000
     9  C   -0.082160   0.011420  -0.000000  -0.000000  -0.000000  -0.000000
    10  C   -0.041257  -0.000223   0.000000   0.000000  -0.000000  -0.000000
    11  C   -0.040236   0.000014   0.000000   0.000000   0.000000   0.000000
    12  C    0.516563   0.000230  -0.000000  -0.000000  -0.000000  -0.000000
    13  C    5.023732  -0.019619   0.000000  -0.000000  -0.000000  -0.000000
    14  C   -0.019619   5.303816  -0.000266   0.000002   0.000003  -0.000054
    15  N    0.000000  -0.000266   7.276570   0.283034   0.278547  -0.061784
    16  C   -0.000000   0.000002   0.283034   5.000941  -0.054947  -0.002799
    17  C   -0.000000   0.000003   0.278547  -0.054947   5.004157   0.000944
    18  O   -0.000000  -0.000054  -0.061784  -0.002799   0.000944   8.354430
    19  H    0.005420   0.000232   0.000000  -0.000000  -0.000000  -0.000000
    20  H    0.000754   0.000001   0.000000  -0.000000  -0.000000   0.000000
    21  H    0.004737  -0.000000   0.000000   0.000000   0.000000  -0.000000
    22  H   -0.037626  -0.000001  -0.000000  -0.000000  -0.000000  -0.000000
    23  H    0.356840   0.005910   0.000000  -0.000000  -0.000000  -0.000000
    24  H    0.001197   0.351749   0.000002  -0.000000  -0.000002  -0.000002
    25  H   -0.000000   0.000000  -0.034429   0.374379   0.005269  -0.000386
    26  H    0.000000  -0.000000  -0.036323   0.376371  -0.002942  -0.000099
    27  H    0.000000   0.000000  -0.049277   0.364170  -0.004399   0.005291
    28  H   -0.000000  -0.000075  -0.033675   0.005277   0.372594  -0.001749
    29  H    0.000000   0.000000  -0.048619  -0.004343   0.364136   0.007175
    30  H    0.000000  -0.000001  -0.035027  -0.003942   0.376424   0.000023
              19         20         21         22         23         24
     1  O    0.000000   0.000000   0.000000  -0.000000  -0.000000   0.000001
     2  S   -0.000000   0.000000  -0.000000   0.000000  -0.000000  -0.000101
     3  N   -0.000000   0.000000  -0.000000  -0.000000  -0.000001  -0.000061
     4  C    0.000042  -0.000000  -0.000000  -0.000000   0.000039  -0.030700
     5  N   -0.000239   0.000000   0.000000  -0.000000  -0.000003   0.006033
     6  O    0.010544  -0.000002   0.000000   0.000000   0.000021   0.003664
     7  C   -0.012937  -0.000168   0.000004  -0.000196  -0.012113  -0.031737
     8  C   -0.043072   0.003231   0.000491   0.003197  -0.036196  -0.003236
     9  C    0.362179  -0.037783   0.004612   0.000772   0.005759  -0.000120
    10  C   -0.042039   0.363132  -0.041585   0.004412   0.000165   0.000001
    11  C    0.004625  -0.041262   0.364097  -0.041149   0.004528  -0.000001
    12  C    0.000204   0.004421  -0.041764   0.362682  -0.042868   0.000093
    13  C    0.005420   0.000754   0.004737  -0.037626   0.356840   0.001197
    14  C    0.000232   0.000001  -0.000000  -0.000001   0.005910   0.351749
    15  N    0.000000   0.000000   0.000000  -0.000000   0.000000   0.000002
    16  C   -0.000000  -0.000000   0.000000  -0.000000  -0.000000  -0.000000
    17  C   -0.000000  -0.000000   0.000000  -0.000000  -0.000000  -0.000002
    18  O   -0.000000   0.000000  -0.000000  -0.000000  -0.000000  -0.000002
    19  H    0.560671  -0.005004  -0.000153   0.000015  -0.000139  -0.000009
    20  H   -0.005004   0.562120  -0.005096  -0.000164   0.000015   0.000000
    21  H   -0.000153  -0.005096   0.565105  -0.005107  -0.000156  -0.000000
    22  H    0.000015  -0.000164  -0.005107   0.561774  -0.004933  -0.000002
    23  H   -0.000139   0.000015  -0.000156  -0.004933   0.560216   0.002022
    24  H   -0.000009   0.000000  -0.000000  -0.000002   0.002022   0.536138
    25  H   -0.000000  -0.000000   0.000000   0.000000  -0.000000  -0.000000
    26  H    0.000000   0.000000   0.000000   0.000000   0.000000   0.000000
    27  H    0.000000   0.000000   0.000000  -0.000000   0.000000   0.000000
    28  H    0.000000  -0.000000   0.000000   0.000000  -0.000000   0.000005
    29  H    0.000000   0.000000  -0.000000  -0.000000   0.000000   0.000000
    30  H    0.000000   0.000000   0.000000   0.000000   0.000000   0.000000
              25         26         27         28         29         30
     1  O    0.013081   0.000184  -0.000618   0.000048  -0.000028  -0.000053
     2  S   -0.002229   0.001446  -0.003432  -0.002614  -0.005343   0.002253
     3  N    0.000129  -0.000088  -0.000065   0.014090  -0.000288  -0.000028
     4  C   -0.000012  -0.000015   0.000000   0.000489  -0.000015  -0.000034
     5  N    0.000041   0.000014   0.000001  -0.000133   0.000007  -0.000017
     6  O   -0.000000  -0.000000   0.000000  -0.000002   0.000000  -0.000000
     7  C    0.000000   0.000000   0.000000   0.000008   0.000000   0.000000
     8  C    0.000000  -0.000000   0.000000   0.000000   0.000000  -0.000000
     9  C   -0.000000   0.000000  -0.000000  -0.000000   0.000000   0.000000
    10  C    0.000000   0.000000   0.000000   0.000000   0.000000  -0.000000
    11  C    0.000000  -0.000000   0.000000  -0.000000   0.000000  -0.000000
    12  C   -0.000000   0.000000   0.000000  -0.000000   0.000000   0.000000
    13  C   -0.000000   0.000000   0.000000  -0.000000   0.000000   0.000000
    14  C    0.000000  -0.000000   0.000000  -0.000075   0.000000  -0.000001
    15  N   -0.034429  -0.036323  -0.049277  -0.033675  -0.048619  -0.035027
    16  C    0.374379   0.376371   0.364170   0.005277  -0.004343  -0.003942
    17  C    0.005269  -0.002942  -0.004399   0.372594   0.364136   0.376424
    18  O   -0.000386  -0.000099   0.005291  -0.001749   0.007175   0.000023
    19  H   -0.000000   0.000000   0.000000   0.000000   0.000000   0.000000
    20  H   -0.000000   0.000000   0.000000  -0.000000   0.000000   0.000000
    21  H    0.000000   0.000000   0.000000   0.000000  -0.000000   0.000000
    22  H    0.000000   0.000000  -0.000000   0.000000  -0.000000   0.000000
    23  H   -0.000000   0.000000   0.000000  -0.000000   0.000000   0.000000
    24  H   -0.000000   0.000000   0.000000   0.000005   0.000000   0.000000
    25  H    0.521860  -0.022878  -0.033758  -0.000222  -0.000221  -0.000028
    26  H   -0.022878   0.550582  -0.039875   0.000009  -0.001790   0.005172
    27  H   -0.033758  -0.039875   0.603051  -0.000193   0.011316  -0.001499
    28  H   -0.000222   0.000009  -0.000193   0.528301  -0.033239  -0.023960
    29  H   -0.000221  -0.001790   0.011316  -0.033239   0.599698  -0.038179
    30  H   -0.000028   0.005172  -0.001499  -0.023960  -0.038179   0.548063
 Mulliken charges:
               1
     1  O   -0.639055
     2  S    1.239415
     3  N   -0.776072
     4  C    0.483647
     5  N   -0.334647
     6  O   -0.444995
     7  C    0.391076
     8  C    0.078885
     9  C   -0.183340
    10  C   -0.150399
    11  C   -0.138955
    12  C   -0.154602
    13  C   -0.183730
    14  C   -0.320407
    15  N   -0.544852
    16  C   -0.318798
    17  C   -0.320501
    18  O   -0.629762
    19  H    0.159660
    20  H    0.155806
    21  H    0.154817
    22  H    0.156326
    23  H    0.160894
    24  H    0.165065
    25  H    0.179403
    26  H    0.170231
    27  H    0.149287
    28  H    0.175039
    29  H    0.149735
    30  H    0.170831
 Sum of Mulliken charges =  -1.00000
 Mulliken charges with hydrogens summed into heavy atoms:
               1
     1  O   -0.639055
     2  S    1.239415
     3  N   -0.776072
     4  C    0.483647
     5  N   -0.334647
     6  O   -0.444995
     7  C    0.391076
     8  C    0.078885
     9  C   -0.023681
    10  C    0.005407
    11  C    0.015862
    12  C    0.001724
    13  C   -0.022837
    14  C   -0.155342
    15  N   -0.544852
    16  C    0.180122
    17  C    0.175104
    18  O   -0.629762
 Electronic spatial extent (au):  <R**2>=           7224.7283
 Charge=             -1.0000 electrons
 Dipole moment (field-independent basis, Debye):
    X=             12.6095    Y=              1.5569    Z=              6.4449  Tot=             14.2464
 Quadrupole moment (field-independent basis, Debye-Ang):
   XX=           -128.4075   YY=           -116.9472   ZZ=           -120.3949
   XY=            -17.8056   XZ=            -16.4515   YZ=             -0.6945
 Traceless Quadrupole moment (field-independent basis, Debye-Ang):
   XX=             -6.4910   YY=              4.9693   ZZ=              1.5216
   XY=            -17.8056   XZ=            -16.4515   YZ=             -0.6945
 Octapole moment (field-independent basis, Debye-Ang**2):
  XXX=            179.8530  YYY=             -5.7666  ZZZ=             34.3380  XYY=             28.9148
  XXY=             64.9633  XXZ=             71.3549  XZZ=             -9.1725  YZZ=             -5.9490
  YYZ=             11.9087  XYZ=            -12.5987
 Hexadecapole moment (field-independent basis, Debye-Ang**3):
 XXXX=          -7909.1104 YYYY=           -754.1144 ZZZZ=           -539.1647 XXXY=           -217.1218
 XXXZ=           -204.4378 YYYX=              0.7066 YYYZ=             -1.0391 ZZZX=           -122.4229
 ZZZY=             24.3369 XXYY=          -1481.0540 XXZZ=          -1588.9265 YYZZ=           -212.7904
 XXYZ=            -54.8912 YYXZ=            -28.4983 ZZXY=             15.7030
 N-N= 1.421853820315D+03 E-N=-5.712470457264D+03  KE= 1.205467654932D+03
 No NMR shielding tensors so no spin-rotation constants.
 Leave Link  601 at Thu Sep 24 06:50:44 2020, MaxMem=  2147483648 cpu:               0.4 elap:               0.1
 (Enter /prod/apps/gaussian/g16b1/l701.exe)
 ... and contract with generalized density number  0.
 Compute integral first derivatives.
 D1PCM: PCM CHGder 1st derivatives, ID1Alg=3 FixD1E=F DoIter=F DoCFld=F I1PDM=0.
 GePol: Maximum number of non-zero 1st derivatives   =     173
 Leave Link  701 at Thu Sep 24 06:50:46 2020, MaxMem=  2147483648 cpu:               8.1 elap:               2.0
 (Enter /prod/apps/gaussian/g16b1/l702.exe)
 L702 exits ... SP integral derivatives will be done elsewhere.
 Leave Link  702 at Thu Sep 24 06:50:46 2020, MaxMem=  2147483648 cpu:               0.1 elap:               0.0
 (Enter /prod/apps/gaussian/g16b1/l703.exe)
 Integral derivatives from FoFJK, PRISM(SPDF).
 Compute integral first derivatives, UseDBF=F ICtDFT=           0.
 Calling FoFJK, ICntrl=      2127 FMM=F ISym2X=0 I1Cent= 0 IOpClX= 0 NMat=1 NMatS=1 NMatT=0.
 FoFJK:  IHMeth= 1 ICntrl=    2127 DoSepK=F KAlg= 0 I1Cent=           0 FoldK=F
 IRaf=         0 NMat=       1 IRICut=       1 DoRegI=T DoRafI=F ISym2E= 0 IDoP0=0 IntGTp=1.
 FoFCou: FMM=F IPFlag=           0 FMFlag=      100000 FMFlg1=         800
         NFxFlg=           0 DoJE=F BraDBF=F KetDBF=F FulRan=T
         wScrn=  0.000000 ICntrl=      2127 IOpCl=  0 I1Cent=           0 NGrid=           0
         NMat0=    1 NMatS0=      1 NMatT0=    0 NMatD0=    1 NMtDS0=    0 NMtDT0=    0
 Symmetry not used in FoFCou.
 Leave Link  703 at Thu Sep 24 06:50:58 2020, MaxMem=  2147483648 cpu:              47.9 elap:              12.0
 (Enter /prod/apps/gaussian/g16b1/l716.exe)
 Dipole        = 4.96094204D+00 6.12537015D-01 2.53562331D+00
 -------------------------------------------------------------------
 Center     Atomic                   Forces (Hartrees/Bohr)
 Number     Number              X              Y              Z
 -------------------------------------------------------------------
      1        8          -0.000435762    0.000266992    0.000995085
      2       16          -0.000863389    0.000001605    0.000940510
      3        7          -0.000322520   -0.000196825    0.000099880
      4        6           0.001220683    0.000487208    0.000020753
      5        7           0.000144818   -0.000839688    0.000228220
      6        8           0.000005844   -0.000318519   -0.000047910
      7        6           0.000242731   -0.000710433    0.000244519
      8        6          -0.000604084   -0.000336908    0.000157223
      9        6           0.000988885    0.000345751   -0.000088136
     10        6          -0.000555685   -0.000190199    0.000024092
     11        6           0.000785506   -0.000185387    0.000172001
     12        6          -0.000700029    0.000614161   -0.000277814
     13        6           0.000516011   -0.000319055    0.000135272
     14        6          -0.000468302    0.000634137   -0.000247688
     15        7           0.000155747   -0.000399462   -0.000010156
     16        6           0.000058306    0.000441426   -0.000057891
     17        6          -0.000631591   -0.000490108   -0.000478274
     18        8           0.001169535    0.001171897   -0.000197284
     19        1          -0.000300936   -0.000637887    0.000223491
     20        1          -0.000427014   -0.000751190    0.000240826
     21        1          -0.001399625    0.000004943   -0.000110607
     22        1          -0.000205822    0.000447106   -0.000138952
     23        1           0.000052177    0.000808972   -0.000285417
     24        1           0.000291606    0.001082466   -0.000235579
     25        1           0.000350615   -0.001056991    0.000366215
     26        1           0.000072954   -0.000843138   -0.000264729
     27        1           0.000508644    0.000210168    0.000029377
     28        1          -0.000679504    0.000545506   -0.000599134
     29        1           0.001107099    0.000687140   -0.000141589
     30        1          -0.000076898   -0.000473688   -0.000696305
 -------------------------------------------------------------------
 Cartesian Forces:  Max     0.001399625 RMS     0.000543655
 Leave Link  716 at Thu Sep 24 06:50:58 2020, MaxMem=  2147483648 cpu:               0.1 elap:               0.0
 (Enter /prod/apps/gaussian/g16b1/l103.exe)

 GradGradGradGradGradGradGradGradGradGradGradGradGradGradGradGradGradGrad
 Berny optimization.
 FormGI is forming the generalized inverse of G from B-inverse, IUseBI=4.
 GSVD:  received Info=                   1 from GESDD.
 Internal  Forces:  Max     0.002339230 RMS     0.000597327
 Search for a local minimum.
 Step number   1 out of a maximum of  156
 All quantities printed in internal units (Hartrees-Bohrs-Radians)
 RMS Force = .59733D-03 SwitMx=.10000D-02 MixMth= 2
 Mixed Optimization -- En-DIIS/RFO-DIIS
 Second derivative matrix not updated -- first step.
 ITU=  0
     Eigenvalues ---    0.00761   0.00776   0.00970   0.01237   0.01776
     Eigenvalues ---    0.01808   0.01870   0.01976   0.02026   0.02038
     Eigenvalues ---    0.02078   0.02091   0.02117   0.02122   0.02131
     Eigenvalues ---    0.02143   0.02146   0.02169   0.02344   0.02349
     Eigenvalues ---    0.02593   0.07140   0.07150   0.07646   0.07665
     Eigenvalues ---    0.11212   0.11856   0.15998   0.16000   0.16000
     Eigenvalues ---    0.16000   0.16000   0.16000   0.16000   0.16000
     Eigenvalues ---    0.16000   0.16000   0.16000   0.16000   0.16509
     Eigenvalues ---    0.17961   0.18239   0.21161   0.22000   0.22000
     Eigenvalues ---    0.23475   0.23794   0.24999   0.24999   0.25000
     Eigenvalues ---    0.25000   0.25000   0.25000   0.33078   0.33583
     Eigenvalues ---    0.33622   0.34320   0.34367   0.34678   0.34805
     Eigenvalues ---    0.35178   0.35269   0.35306   0.35342   0.35482
     Eigenvalues ---    0.35695   0.35828   0.36065   0.36420   0.37768
     Eigenvalues ---    0.40840   0.41320   0.41729   0.45054   0.45391
     Eigenvalues ---    0.46139   0.46602   0.48906   0.50244   0.50844
     Eigenvalues ---    0.51868   0.56998   0.81419   0.82356
 RFO step:  Lambda=-1.89094759D-04 EMin= 7.60771471D-03
 Linear search not attempted -- first point.
 Iteration  1 RMS(Cart)=  0.01456611 RMS(Int)=  0.00006842
 Iteration  2 RMS(Cart)=  0.00011474 RMS(Int)=  0.00000338
 Iteration  3 RMS(Cart)=  0.00000001 RMS(Int)=  0.00000338
 ITry= 1 IFail=0 DXMaxC= 7.35D-02 DCOld= 1.00D+10 DXMaxT= 3.00D-01 DXLimC= 3.00D+00 Rises=F
 Variable       Old X    -DE/DX   Delta X   Delta X   Delta X     New X
                                 (Linear)    (Quad)   (Total)
    R1        2.80369  -0.00076   0.00000  -0.00092  -0.00092   2.80277
    R2        3.02723  -0.00061   0.00000  -0.00119  -0.00119   3.02604
    R3        3.25916  -0.00234   0.00000  -0.00707  -0.00707   3.25209
    R4        2.80859  -0.00166   0.00000  -0.00204  -0.00204   2.80655
    R5        2.59620  -0.00029   0.00000  -0.00058  -0.00058   2.59562
    R6        2.52151  -0.00089   0.00000  -0.00149  -0.00149   2.52001
    R7        2.71697  -0.00137   0.00000  -0.00354  -0.00354   2.71343
    R8        2.68960  -0.00052   0.00000  -0.00111  -0.00111   2.68849
    R9        2.56247  -0.00053   0.00000  -0.00095  -0.00095   2.56152
   R10        2.76730  -0.00186   0.00000  -0.00510  -0.00510   2.76220
   R11        2.57473  -0.00165   0.00000  -0.00324  -0.00324   2.57149
   R12        2.65587  -0.00088   0.00000  -0.00197  -0.00197   2.65390
   R13        2.65815  -0.00107   0.00000  -0.00242  -0.00242   2.65574
   R14        2.63566  -0.00129   0.00000  -0.00277  -0.00277   2.63290
   R15        2.04900  -0.00044   0.00000  -0.00123  -0.00123   2.04777
   R16        2.64000  -0.00069   0.00000  -0.00149  -0.00149   2.63852
   R17        2.05240  -0.00089   0.00000  -0.00253  -0.00253   2.04987
   R18        2.64300  -0.00085   0.00000  -0.00184  -0.00184   2.64116
   R19        2.05388  -0.00140   0.00000  -0.00399  -0.00399   2.04988
   R20        2.63366  -0.00122   0.00000  -0.00262  -0.00262   2.63105
   R21        2.05124  -0.00051   0.00000  -0.00145  -0.00145   2.04979
   R22        2.05180  -0.00077   0.00000  -0.00218  -0.00218   2.04962
   R23        2.03980  -0.00105   0.00000  -0.00292  -0.00292   2.03688
   R24        2.77862  -0.00152   0.00000  -0.00426  -0.00426   2.77435
   R25        2.77651  -0.00183   0.00000  -0.00510  -0.00510   2.77141
   R26        2.05992  -0.00068   0.00000  -0.00195  -0.00195   2.05798
   R27        2.06793  -0.00081   0.00000  -0.00237  -0.00237   2.06556
   R28        2.07972  -0.00054   0.00000  -0.00162  -0.00162   2.07810
   R29        2.06201  -0.00098   0.00000  -0.00282  -0.00282   2.05919
   R30        2.08040  -0.00132   0.00000  -0.00392  -0.00392   2.07648
   R31        2.06714  -0.00080   0.00000  -0.00232  -0.00232   2.06483
    A1        2.01949   0.00062   0.00000   0.00285   0.00285   2.02233
    A2        1.81907  -0.00127   0.00000  -0.00702  -0.00702   1.81205
    A3        2.00368   0.00013   0.00000   0.00025   0.00024   2.00392
    A4        1.85219   0.00020   0.00000   0.00071   0.00071   1.85289
    A5        1.85812   0.00002   0.00000   0.00166   0.00165   1.85977
    A6        1.90334   0.00029   0.00000   0.00140   0.00140   1.90475
    A7        2.10836  -0.00145   0.00000  -0.00579  -0.00579   2.10257
    A8        2.22267  -0.00037   0.00000  -0.00140  -0.00140   2.22127
    A9        2.12792   0.00018   0.00000   0.00080   0.00080   2.12871
   A10        1.93258   0.00019   0.00000   0.00061   0.00061   1.93319
   A11        1.83839  -0.00014   0.00000  -0.00022  -0.00022   1.83817
   A12        1.90773  -0.00041   0.00000  -0.00130  -0.00130   1.90643
   A13        2.04601  -0.00012   0.00000  -0.00042  -0.00042   2.04559
   A14        1.91074   0.00028   0.00000   0.00096   0.00096   1.91169
   A15        2.32641  -0.00015   0.00000  -0.00054  -0.00054   2.32587
   A16        2.10665  -0.00041   0.00000  -0.00164  -0.00164   2.10501
   A17        2.09939   0.00003   0.00000   0.00012   0.00012   2.09951
   A18        2.07715   0.00038   0.00000   0.00152   0.00152   2.07866
   A19        2.10095  -0.00021   0.00000  -0.00090  -0.00090   2.10005
   A20        2.08814  -0.00051   0.00000  -0.00335  -0.00335   2.08479
   A21        2.09409   0.00071   0.00000   0.00426   0.00426   2.09835
   A22        2.09901   0.00003   0.00000   0.00020   0.00020   2.09921
   A23        2.08702   0.00001   0.00000   0.00003   0.00003   2.08705
   A24        2.09715  -0.00004   0.00000  -0.00023  -0.00023   2.09692
   A25        2.08959  -0.00006   0.00000  -0.00022  -0.00022   2.08938
   A26        2.09752  -0.00001   0.00000  -0.00012  -0.00012   2.09740
[...]
 Alpha virt. eigenvalues --    1.61738   1.62388   1.62760   1.62899   1.64008
 Alpha virt. eigenvalues --    1.64461   1.65248   1.65915   1.66596   1.67871
 Alpha virt. eigenvalues --    1.68586   1.69473   1.70035   1.70426   1.71195
 Alpha virt. eigenvalues --    1.71597   1.72445   1.72822   1.73811   1.74975
 Alpha virt. eigenvalues --    1.75716   1.76728   1.77520   1.79335   1.79697
 Alpha virt. eigenvalues --    1.80279   1.80794   1.81184   1.82009   1.82843
 Alpha virt. eigenvalues --    1.84165   1.84855   1.85200   1.85871   1.86594
 Alpha virt. eigenvalues --    1.88086   1.89240   1.89519   1.90356   1.91303
 Alpha virt. eigenvalues --    1.91933   1.92997   1.94225   1.94478   1.96481
 Alpha virt. eigenvalues --    1.97994   1.98910   1.99735   2.00140   2.00943
 Alpha virt. eigenvalues --    2.01768   2.02869   2.03238   2.03961   2.05581
 Alpha virt. eigenvalues --    2.05958   2.06525   2.06805   2.07249   2.08904
 Alpha virt. eigenvalues --    2.09250   2.09779   2.11168   2.11604   2.12323
 Alpha virt. eigenvalues --    2.14102   2.14662   2.16617   2.16855   2.17829
 Alpha virt. eigenvalues --    2.19436   2.19738   2.21797   2.22539   2.23663
 Alpha virt. eigenvalues --    2.24757   2.26307   2.26740   2.28283   2.29357
 Alpha virt. eigenvalues --    2.29589   2.30461   2.32553   2.32950   2.33377
 Alpha virt. eigenvalues --    2.34364   2.35519   2.36425   2.37319   2.37850
 Alpha virt. eigenvalues --    2.38404   2.39012   2.39900   2.40337   2.41645
 Alpha virt. eigenvalues --    2.41887   2.43161   2.44346   2.44731   2.45221
 Alpha virt. eigenvalues --    2.45587   2.45850   2.47786   2.48381   2.49060
 Alpha virt. eigenvalues --    2.49787   2.51483   2.52987   2.53537   2.55879
 Alpha virt. eigenvalues --    2.56304   2.59452   2.59923   2.61123   2.63816
 Alpha virt. eigenvalues --    2.66181   2.66891   2.69162   2.71101   2.71580
 Alpha virt. eigenvalues --    2.73670   2.75578   2.76812   2.82709   2.83857
 Alpha virt. eigenvalues --    2.84534   2.85899   2.86950   2.88066   2.89819
 Alpha virt. eigenvalues --    2.90804   2.91116   2.93051   2.94261   2.94794
 Alpha virt. eigenvalues --    2.95377   2.97925   2.99031   3.01304   3.01850
 Alpha virt. eigenvalues --    3.02752   3.04897   3.07342   3.09574   3.10789
 Alpha virt. eigenvalues --    3.13135   3.14242   3.15687   3.16268   3.19779
 Alpha virt. eigenvalues --    3.20240   3.23674   3.24126   3.24689   3.25147
 Alpha virt. eigenvalues --    3.30750   3.31219   3.31619   3.37258   3.39691
 Alpha virt. eigenvalues --    3.41957   3.46352   3.47972   3.49502   3.51528
 Alpha virt. eigenvalues --    3.55803   3.61076   3.66889   3.68180   3.73326
 Alpha virt. eigenvalues --    3.75607   3.86220   3.90941   3.94776   3.95249
 Alpha virt. eigenvalues --    3.97026   3.97832   4.00430   4.01504   4.02110
 Alpha virt. eigenvalues --    4.03012   4.05490   4.07746   4.09785   4.10465
 Alpha virt. eigenvalues --    4.17605   4.21056   4.27228   4.42344   4.74823
 Alpha virt. eigenvalues --    4.97277
          Condensed to atoms (all electrons):
               1          2          3          4          5          6
     1  O    9.422359  -0.497305   0.031849   0.177393  -0.032331   0.000372
     2  S   -0.497305  15.594199  -0.075528  -1.333939   0.210778  -0.061732
     3  N    0.031849  -0.075528   8.700283  -0.945112   0.077938  -0.052642
     4  C    0.177393  -1.333939  -0.945112  14.055017  -1.143113   0.558567
     5  N   -0.032331   0.210778   0.077938  -1.143113   9.582578  -1.288707
     6  O    0.000372  -0.061732  -0.052642   0.558567  -1.288707  10.378149
     7  C   -0.041942   0.093370   0.283374  -1.130368  -1.132644  -0.104825
     8  C   -0.001859  -0.026257  -0.069895   0.605697   0.435768   0.348581
     9  C   -0.003091  -0.007873   0.023640  -0.387352  -0.389715  -0.182522
    10  C   -0.000059  -0.001472  -0.013088   0.205355  -0.069936  -0.041647
    11  C   -0.000061  -0.000730   0.006192  -0.107953  -0.007815  -0.050711
    12  C    0.000137   0.004527  -0.016743   0.105334   0.069974   0.055279
    13  C   -0.001043   0.010617   0.071956  -0.726643   0.252942  -0.158004
    14  C   -0.003310   0.043437   0.159991  -4.533048   0.823755  -0.245883
    15  N    0.142639  -0.214482  -0.054461   0.217425  -0.079968   0.017210
    16  C   -0.005276   0.023765   0.000532  -0.082784   0.017840   0.006147
    17  C    0.048220  -0.314804   0.092007   0.011315   0.000955  -0.019157
    18  O    0.006520  -0.503369   0.029183   0.091294   0.003173   0.000696
    19  H   -0.000863  -0.000653   0.002796  -0.010265  -0.005600  -0.094220
    20  H    0.000007   0.000034  -0.000472   0.004225  -0.002785   0.004620
    21  H   -0.000004  -0.000032   0.000130  -0.004083   0.000129  -0.000635
    22  H    0.000006   0.000364  -0.000509   0.009116   0.002115   0.001808
    23  H   -0.000536  -0.007044  -0.008590   0.027671  -0.009686   0.001830
    24  H   -0.001410   0.049208  -0.045158   0.634065  -0.051516   0.011476
    25  H   -0.019986   0.062569   0.000090  -0.028352   0.026421   0.000155
    26  H   -0.004619   0.060447   0.004107  -0.043863  -0.001419  -0.000184
    27  H    0.014750  -0.094275  -0.000946   0.033670  -0.005401   0.000339
    28  H    0.010858  -0.096414   0.014601  -0.037165   0.011698   0.005380
    29  H   -0.002872   0.004936  -0.008838   0.036032  -0.001678  -0.000443
    30  H   -0.001807   0.006847   0.007774  -0.006751  -0.005917  -0.002852
               7          8          9         10         11         12
     1  O   -0.041942  -0.001859  -0.003091  -0.000059  -0.000061   0.000137
     2  S    0.093370  -0.026257  -0.007873  -0.001472  -0.000730   0.004527
     3  N    0.283374  -0.069895   0.023640  -0.013088   0.006192  -0.016743
     4  C   -1.130368   0.605697  -0.387352   0.205355  -0.107953   0.105334
     5  N   -1.132644   0.435768  -0.389715  -0.069936  -0.007815   0.069974
     6  O   -0.104825   0.348581  -0.182522  -0.041647  -0.050711   0.055279
     7  C   19.954861  -4.669832   0.293582  -0.496231   0.485116  -0.576337
     8  C   -4.669832  19.741673  -5.992962   1.755142  -3.788214   2.428045
     9  C    0.293582  -5.992962  18.729580  -4.335404   2.791100  -3.590447
    10  C   -0.496231   1.755142  -4.335404  11.935292  -3.140855   3.769100
    11  C    0.485116  -3.788214   2.791100  -3.140855   9.467455  -3.475018
    12  C   -0.576337   2.428045  -3.590447   3.769100  -3.475018  14.464675
    13  C   -0.782779  -7.411795   0.522324  -3.563930   3.756323  -7.110623
    14  C   -7.087091   0.511718  -1.746350   0.103383  -0.303046   0.435020
    15  N   -0.067058  -0.008278  -0.005114   0.000406  -0.000268   0.000361
    16  C    0.004341  -0.006460  -0.001700  -0.000113  -0.000069   0.000126
    17  C   -0.084002   0.008554  -0.003110   0.000176  -0.000158   0.000540
    18  O    0.005093   0.000740  -0.000072  -0.000018   0.000010  -0.000046
    19  H    0.242933   0.262704  -0.862440   0.348907  -0.083070   0.043999
    20  H   -0.005609  -0.126391   0.715036  -0.819785   0.307611  -0.229763
    21  H   -0.012554   0.028226  -0.056231   0.374517  -0.589805   0.282005
    22  H   -0.049673  -0.129659   0.096436  -0.263534   0.318320  -1.025700
    23  H   -0.104748   0.797951  -0.077784   0.065012  -0.118288   0.312177
    24  H    0.711553   0.019996  -0.036499   0.021195  -0.031957   0.062368
    25  H    0.006377  -0.000423  -0.000161  -0.000037   0.000003  -0.000002
    26  H   -0.006870  -0.000487  -0.000072   0.000034  -0.000016   0.000016
    27  H    0.001976   0.000131   0.000005  -0.000010   0.000001   0.000005
    28  H    0.016672  -0.004089  -0.000125   0.000479  -0.000143  -0.000081
    29  H   -0.000140   0.000533  -0.000194   0.000026  -0.000016  -0.000012
    30  H   -0.013323   0.001422  -0.000136  -0.000051   0.000010   0.000078
              13         14         15         16         17         18
     1  O   -0.001043  -0.003310   0.142639  -0.005276   0.048220   0.006520
     2  S    0.010617   0.043437  -0.214482   0.023765  -0.314804  -0.503369
     3  N    0.071956   0.159991  -0.054461   0.000532   0.092007   0.029183
     4  C   -0.726643  -4.533048   0.217425  -0.082784   0.011315   0.091294
     5  N    0.252942   0.823755  -0.079968   0.017840   0.000955   0.003173
     6  O   -0.158004  -0.245883   0.017210   0.006147  -0.019157   0.000696
     7  C   -0.782779  -7.087091  -0.067058   0.004341  -0.084002   0.005093
     8  C   -7.411795   0.511718  -0.008278  -0.006460   0.008554   0.000740
     9  C    0.522324  -1.746350  -0.005114  -0.001700  -0.003110  -0.000072
    10  C   -3.563930   0.103383   0.000406  -0.000113   0.000176  -0.000018
    11  C    3.756323  -0.303046  -0.000268  -0.000069  -0.000158   0.000010
    12  C   -7.110623   0.435020   0.000361   0.000126   0.000540  -0.000046
    13  C   22.047234  -1.093123  -0.001603   0.000278  -0.002064   0.000284
    14  C   -1.093123  18.615357   0.011026  -0.019469   0.071393   0.001953
    15  N   -0.001603   0.011026   8.057376   0.049399   0.197149   0.096116
    16  C    0.000278  -0.019469   0.049399   4.347657  -0.164001  -0.004657
    17  C   -0.002064   0.071393   0.197149  -0.164001   4.332555   0.052383
    18  O    0.000284   0.001953   0.096116  -0.004657   0.052383   9.426590
    19  H   -0.074261  -0.030684  -0.001446  -0.000789  -0.000158   0.000066
    20  H    0.086757   0.004464   0.000037   0.000018   0.000003  -0.000002
    21  H   -0.074811   0.002904  -0.000015  -0.000004  -0.000006   0.000000
    22  H    0.942144   0.047733   0.000012   0.000004   0.000050  -0.000010
    23  H   -1.309797   0.193944  -0.000468  -0.000312  -0.001061   0.000625
    24  H   -0.007445  -1.544196  -0.005660  -0.000002   0.005130  -0.008065
    25  H    0.000144  -0.002651  -0.034675   0.483427  -0.076150  -0.007649
    26  H   -0.000166   0.010640  -0.244058   0.397831   0.057976  -0.011667
    27  H    0.000065  -0.004787   0.180167   0.168350   0.029415   0.025096
    28  H   -0.000263   0.030845   0.021356  -0.050974   0.409826   0.049441
    29  H   -0.000663  -0.030629   0.040222   0.053081   0.234048  -0.015007
    30  H    0.000372   0.017512  -0.118148   0.013885   0.383498  -0.006837
              19         20         21         22         23         24
     1  O   -0.000863   0.000007  -0.000004   0.000006  -0.000536  -0.001410
     2  S   -0.000653   0.000034  -0.000032   0.000364  -0.007044   0.049208
     3  N    0.002796  -0.000472   0.000130  -0.000509  -0.008590  -0.045158
     4  C   -0.010265   0.004225  -0.004083   0.009116   0.027671   0.634065
     5  N   -0.005600  -0.002785   0.000129   0.002115  -0.009686  -0.051516
     6  O   -0.094220   0.004620  -0.000635   0.001808   0.001830   0.011476
     7  C    0.242933  -0.005609  -0.012554  -0.049673  -0.104748   0.711553
     8  C    0.262704  -0.126391   0.028226  -0.129659   0.797951   0.019996
     9  C   -0.862440   0.715036  -0.056231   0.096436  -0.077784  -0.036499
    10  C    0.348907  -0.819785   0.374517  -0.263534   0.065012   0.021195
    11  C   -0.083070   0.307611  -0.589805   0.318320  -0.118288  -0.031957
    12  C    0.043999  -0.229763   0.282005  -1.025700   0.312177   0.062368
    13  C   -0.074261   0.086757  -0.074811   0.942144  -1.309797  -0.007445
    14  C   -0.030684   0.004464   0.002904   0.047733   0.193944  -1.544196
    15  N   -0.001446   0.000037  -0.000015   0.000012  -0.000468  -0.005660
    16  C   -0.000789   0.000018  -0.000004   0.000004  -0.000312  -0.000002
    17  C   -0.000158   0.000003  -0.000006   0.000050  -0.001061   0.005130
    18  O    0.000066  -0.000002   0.000000  -0.000010   0.000625  -0.008065
    19  H    2.031053  -0.089494  -0.011096   0.006636  -0.014818  -0.000849
    20  H   -0.089494   1.672868  -0.054914  -0.021105   0.009839   0.000645
    21  H   -0.011096  -0.054914   1.638791  -0.050522  -0.018086   0.000379
    22  H    0.006636  -0.021105  -0.050522   1.697734  -0.083020   0.000343
    23  H   -0.014818   0.009839  -0.018086  -0.083020   2.022983  -0.097509
    24  H   -0.000849   0.000645   0.000379   0.000343  -0.097509   1.925411
    25  H    0.000044  -0.000002  -0.000000   0.000000  -0.000011  -0.000074
    26  H   -0.000171   0.000005  -0.000001   0.000001  -0.000055   0.000319
    27  H    0.000027  -0.000000   0.000000  -0.000000   0.000026  -0.000221
    28  H    0.000158   0.000012  -0.000006  -0.000017   0.001000  -0.008246
    29  H   -0.000063   0.000001  -0.000001   0.000003  -0.000153   0.000548
    30  H   -0.000003  -0.000002   0.000001   0.000005  -0.000084   0.001288
              25         26         27         28         29         30
     1  O   -0.019986  -0.004619   0.014750   0.010858  -0.002872  -0.001807
     2  S    0.062569   0.060447  -0.094275  -0.096414   0.004936   0.006847
     3  N    0.000090   0.004107  -0.000946   0.014601  -0.008838   0.007774
     4  C   -0.028352  -0.043863   0.033670  -0.037165   0.036032  -0.006751
     5  N    0.026421  -0.001419  -0.005401   0.011698  -0.001678  -0.005917
     6  O    0.000155  -0.000184   0.000339   0.005380  -0.000443  -0.002852
     7  C    0.006377  -0.006870   0.001976   0.016672  -0.000140  -0.013323
     8  C   -0.000423  -0.000487   0.000131  -0.004089   0.000533   0.001422
     9  C   -0.000161  -0.000072   0.000005  -0.000125  -0.000194  -0.000136
    10  C   -0.000037   0.000034  -0.000010   0.000479   0.000026  -0.000051
    11  C    0.000003  -0.000016   0.000001  -0.000143  -0.000016   0.000010
    12  C   -0.000002   0.000016   0.000005  -0.000081  -0.000012   0.000078
    13  C    0.000144  -0.000166   0.000065  -0.000263  -0.000663   0.000372
    14  C   -0.002651   0.010640  -0.004787   0.030845  -0.030629   0.017512
    15  N   -0.034675  -0.244058   0.180167   0.021356   0.040222  -0.118148
    16  C    0.483427   0.397831   0.168350  -0.050974   0.053081   0.013885
    17  C   -0.076150   0.057976   0.029415   0.409826   0.234048   0.383498
    18  O   -0.007649  -0.011667   0.025096   0.049441  -0.015007  -0.006837
    19  H    0.000044  -0.000171   0.000027   0.000158  -0.000063  -0.000003
    20  H   -0.000002   0.000005  -0.000000   0.000012   0.000001  -0.000002
    21  H   -0.000000  -0.000001   0.000000  -0.000006  -0.000001   0.000001
    22  H    0.000000   0.000001  -0.000000  -0.000017   0.000003   0.000005
    23  H   -0.000011  -0.000055   0.000026   0.001000  -0.000153  -0.000084
    24  H   -0.000074   0.000319  -0.000221  -0.008246   0.000548   0.001288
    25  H    1.267871  -0.313900  -0.193987  -0.007964  -0.000970   0.002808
    26  H   -0.313900   1.426971  -0.172695   0.008828  -0.006901   0.010412
    27  H   -0.193987  -0.172695   1.072148   0.000745   0.002341  -0.007970
    28  H   -0.007964   0.008828   0.000745   1.351348  -0.213614  -0.330016
    29  H   -0.000970  -0.006901   0.002341  -0.213614   1.093605  -0.141219
    30  H    0.002808   0.010412  -0.007970  -0.330016  -0.141219   1.368480
 Mulliken charges:
               1
     1  O   -1.236737
     2  S    3.070809
     3  N   -1.214460
     4  C   -0.251384
     5  N   -0.287833
     6  O   -1.086443
     7  C    0.266777
     8  C    1.289718
     9  C    0.507649
    10  C    0.167146
    11  C    0.566053
    12  C   -0.008994
    13  C    0.627570
    14  C    1.559189
    15  N   -1.195200
    16  C    0.769928
    17  C    0.729477
    18  O   -1.231865
    19  H   -0.658378
    20  H   -0.455854
    21  H   -0.454278
    22  H   -0.499078
    23  H   -0.581006
    24  H   -0.605115
    25  H   -0.162914
    26  H   -0.170444
    27  H   -0.048968
    28  H   -0.184127
    29  H   -0.041961
    30  H   -0.179275
 Sum of Mulliken charges =  -1.00000
 Mulliken charges with hydrogens summed into heavy atoms:
               1
     1  O   -1.236737
     2  S    3.070809
     3  N   -1.214460
     4  C   -0.251384
     5  N   -0.287833
     6  O   -1.086443
     7  C    0.266777
     8  C    1.289718
     9  C   -0.150729
    10  C   -0.288708
    11  C    0.111775
    12  C   -0.508072
    13  C    0.046564
    14  C    0.954073
    15  N   -1.195200
    16  C    0.387602
    17  C    0.324113
    18  O   -1.231865
 Electronic spatial extent (au):  <R**2>=           7226.2950
 Charge=             -1.0000 electrons
 Dipole moment (field-independent basis, Debye):
    X=             10.3994    Y=              1.3326    Z=              4.7867  Tot=             11.5254
 Quadrupole moment (field-independent basis, Debye-Ang):
   XX=           -153.9132   YY=           -122.9991   ZZ=           -126.8519
   XY=            -14.7892   XZ=            -13.8109   YZ=             -1.2309
 Traceless Quadrupole moment (field-independent basis, Debye-Ang):
   XX=            -19.3252   YY=             11.5889   ZZ=              7.7362
   XY=            -14.7892   XZ=            -13.8109   YZ=             -1.2309
 Octapole moment (field-independent basis, Debye-Ang**2):
  XXX=            108.5759  YYY=             13.5374  ZZZ=              6.1303  XYY=             32.8951
  XXY=             61.6547  XXZ=             47.0435  XZZ=            -14.5498  YZZ=             -1.1710
  YYZ=              2.5014  XYZ=             -6.2056
 Hexadecapole moment (field-independent basis, Debye-Ang**3):
 XXXX=          -9086.7084 YYYY=           -812.0569 ZZZZ=           -578.9577 XXXY=           -211.5664
 XXXZ=           -114.5104 YYYX=            -41.9316 YYYZ=            -16.9593 ZZZX=            -35.1821
 ZZZY=              8.6474 XXYY=          -1610.5036 XXZZ=          -1716.6805 YYZZ=           -232.2452
 XXYZ=            -58.8243 YYXZ=             -2.6049 ZZXY=              8.6200
 N-N= 1.423707152808D+03 E-N=-5.712443820433D+03  KE= 1.207557852930D+03
 Leave Link  601 at Thu Sep 24 08:28:18 2020, MaxMem=   262144000 cpu:               0.6 elap:               0.2
 (Enter /prod/apps/gaussian/g16b1/l9999.exe)
 1\1\GINC-PIRINEUS14\SP\RMP2-FC\Aug-CC-pVDZ\C11H12N3O3S1(1-)\UBAFAR01\2
 4-Sep-2020\0\\#p mp2/aug-cc-pVDZ scf=(MaxCycle=2000,NoVarAcc,NoIncFock
 ) maxdisk=120GB geom=allcheck\\SM43_m1.a.9.pdb.xyz\\-1,1\O,0,-2.979380
 7968,0.3087059791,-1.8647108872\S,0,-3.0026391093,-0.4105791088,-0.567
 8457106\N,0,-1.6248634923,-1.0991444928,-0.1273309058\C,0,-0.442733103
 1,-0.4020708463,-0.1993397878\N,0,-0.2817941098,0.8853812156,-0.507383
 1427\O,0,1.1205725715,1.1152199618,-0.4439301555\C,0,1.7468329354,-0.0
 362406462,-0.0982675603\C,0,3.2042112896,0.0004038096,0.0094100062\C,0
 ,3.9139740814,1.1774305677,-0.2813039233\C,0,5.3033828937,1.2035089057
 ,-0.1826308203\C,0,6.003119316,0.0593105651,0.2064087914\C,0,5.3035470
 596,-1.1150150086,0.4982433775\C,0,3.914943284,-1.1470659946,0.4015754
 883\C,0,0.823670913,-1.0218660849,0.0718845862\N,0,-3.3107949328,0.823
 9919391,0.5893759059\C,0,-4.4099343908,1.7182395269,0.2026025612\C,0,-
 3.473744111,0.3065617581,1.9519193066\O,0,-4.0498433242,-1.4570147481,
 -0.455166112\H,0,3.3707423966,2.064512001,-0.5850402501\H,0,5.83989655
 2,2.1182951787,-0.4111558409\H,0,7.0850665911,0.0814415239,0.281920127
 2\H,0,5.8406873843,-2.0072210097,0.8019599858\H,0,3.3777479386,-2.0610
 728801,0.630742601\H,0,0.9875999285,-2.0524803973,0.3421773991\H,0,-4.
 2357955578,2.0852697135,-0.8075104817\H,0,-4.4157950294,2.5630763464,0
 .8961484319\H,0,-5.392301317,1.225580384,0.2459717986\H,0,-2.642018178
 8,-0.3550947598,2.1933925639\H,0,-4.4179827269,-0.2386211763,2.0878972
 027\H,0,-3.4573749551,1.1545577772,2.6409854445\\Version=ES64L-G16RevB
 .01\State=1-A\HF=-1208.9858074\MP2=-1211.7823042\RMSD=5.822e-09\PG=C01
  [X(C11H12N3O3S1)]\\@


 SOME PEOPLE TRY TO PULL THE WOOL OVER YOUR EYES
 USING THE WRONG YARN.
 Job cpu time:       0 days  2 hours  3 minutes 15.4 seconds.
 Elapsed time:       0 days  0 hours 35 minutes  6.6 seconds.
 File lengths (MBytes):  RWF=  68408 Int=      0 D2E=      0 Chk=     23 Scr=      1
 Normal termination of Gaussian 16 at Thu Sep 24 08:28:20 2020.
