 Entering Gaussian System, Link 0=g16
 Initial command:
 /prod/apps/gaussian/g16b1/l1.exe "/tmp/ubafar01/1462015/Gau-119814.inp" -scrdir="/tmp/ubafar01/1462015/"
 Entering Link 1 = /prod/apps/gaussian/g16b1/l1.exe PID=    119815.
  
 Copyright (c) 1988-2017, Gaussian, Inc.  All Rights Reserved.
  
 This is part of the Gaussian(R) 16 program.  It is based on
 the Gaussian(R) 09 system (copyright 2009, Gaussian, Inc.),
 the Gaussian(R) 03 system (copyright 2003, Gaussian, Inc.),
 the Gaussian(R) 98 system (copyright 1998, Gaussian, Inc.),
 the Gaussian(R) 94 system (copyright 1995, Gaussian, Inc.),
 the Gaussian 92(TM) system (copyright 1992, Gaussian, Inc.),
 the Gaussian 90(TM) system (copyright 1990, Gaussian, Inc.),
 the Gaussian 88(TM) system (copyright 1988, Gaussian, Inc.),
 the Gaussian 86(TM) system (copyright 1986, Carnegie Mellon
 University), and the Gaussian 82(TM) system (copyright 1983,
 Carnegie Mellon University). Gaussian is a federally registered
 trademark of Gaussian, Inc.
  
 This software contains proprietary and confidential information,
 including trade secrets, belonging to Gaussian, Inc.
  
 This software is provided under written license and may be
 used, copied, transmitted, or stored only in accord with that
 written license.
  
 The following legend is applicable only to US Government
 contracts under FAR:
  
                    RESTRICTED RIGHTS LEGEND
  
 Use, reproduction and disclosure by the US Government is
 subject to restrictions as set forth in subparagraphs (a)
 and (c) of the Commercial Computer Software - Restricted
 Rights clause in FAR 52.227-19.
  
 Gaussian, Inc.
 340 Quinnipiac St., Bldg. 40, Wallingford CT 06492
  
  
 ---------------------------------------------------------------
 Warning -- This program may not be used in any manner that
 competes with the business of Gaussian, Inc. or will provide
 assistance to any competitor of Gaussian, Inc.  The licensee
 of this program is prohibited from giving any competitor of
 Gaussian, Inc. access to this program.  By using this program,
 the user acknowledges that Gaussian, Inc. is engaged in the
 business of creating and licensing software in the field of
 computational chemistry and represents and warrants to the
 licensee that it is not a competitor of Gaussian, Inc. and that
 it will not use this program in any manner prohibited above.
 ---------------------------------------------------------------
  

 Cite this work as:
 Gaussian 16, Revision B.01,
 M. J. Frisch, G. W. Trucks, H. B. Schlegel, G. E. Scuseria, 
 M. A. Robb, J. R. Cheeseman, G. Scalmani, V. Barone, 
 G. A. Petersson, H. Nakatsuji, X. Li, M. Caricato, A. V. Marenich, 
 J. Bloino, B. G. Janesko, R. Gomperts, B. Mennucci, H. P. Hratchian, 
 J. V. Ortiz, A. F. Izmaylov, J. L. Sonnenberg, D. Williams-Young, 
 F. Ding, F. Lipparini, F. Egidi, J. Goings, B. Peng, A. Petrone, 
 T. Henderson, D. Ranasinghe, V. G. Zakrzewski, J. Gao, N. Rega, 
 G. Zheng, W. Liang, M. Hada, M. Ehara, K. Toyota, R. Fukuda, 
 J. Hasegawa, M. Ishida, T. Nakajima, Y. Honda, O. Kitao, H. Nakai, 
 T. Vreven, K. Throssell, J. A. Montgomery, Jr., J. E. Peralta, 
 F. Ogliaro, M. J. Bearpark, J. J. Heyd, E. N. Brothers, K. N. Kudin, 
 V. N. Staroverov, T. A. Keith, R. Kobayashi, J. Normand, 
 K. Raghavachari, A. P. Rendell, J. C. Burant, S. S. Iyengar, 
 J. Tomasi, M. Cossi, J. M. Millam, M. Klene, C. Adamo, R. Cammi, 
 J. W. Ochterski, R. L. Martin, K. Morokuma, O. Farkas, 
 J. B. Foresman, and D. J. Fox, Gaussian, Inc., Wallingford CT, 2016.
 
 ******************************************
 Gaussian 16:  ES64L-G16RevB.01 20-Dec-2017
                28-Sep-2020 
 ******************************************
 %nproc=4
 Will use up to    4 processors via shared memory.
 %Chk=SM43_m3.b.3.pdb.xyz.mst.b.w.chk
 %mem=16GB
 ----------------------------------------------------------------------
 #p b3lyp/6-31G(d) opt freq NoSymm scf=(MaxCycle=2000,NoVarAcc,NoIncFoc
 k) scrf=(iefpcm,read,solvent=water)
 ----------------------------------------------------------------------
 1/18=20,19=15,26=3,38=1,40=2/1,3;
 2/9=110,12=2,15=1,17=6,18=5,40=1/2;
 3/5=1,6=6,7=1,11=2,25=1,30=1,70=2203,71=1,72=1,74=-5/1,2,3;
 4//1;
 5/5=100002,7=2000,38=1,53=1/2;
 6/7=2,8=2,9=2,10=2,28=1/1;
 7/30=1/1,2,3,16;
 1/18=20,19=15,26=3/3(2);
 2/9=110,15=1/2;
 99//99;
 2/9=110,15=1/2;
 3/5=1,6=6,7=1,11=2,25=1,30=1,70=2205,71=1,72=1,74=-5/1,2,3;
 4/5=5,16=3,69=1/1;
 5/5=100002,7=2000,38=1,53=1/2;
 7/30=1/1,2,3,16;
 1/18=20,19=15,26=3/3(-5);
 2/9=110,15=1/2;
 6/7=2,8=2,9=2,10=2,19=2,28=1/1;
 99/9=1/99;
 Leave Link    1 at Mon Sep 28 08:11:45 2020, MaxMem=  2147483648 cpu:               0.2 elap:               0.0
 (Enter /prod/apps/gaussian/g16b1/l101.exe)
 -------------------
 SM43_m3.b.3.pdb.xyz
 -------------------
 Symbolic Z-matrix:
 Charge =  2 Multiplicity = 1
 O                    -2.663     0.788    -1.621 
 S                    -2.95     -0.189    -0.593 
 N                    -1.527    -0.78      0.021 
 C                    -0.267    -0.249    -0.139 
 N                     0.011     0.952    -0.635 
 O                     1.361     1.152    -0.64 
 C                     1.927     0.027    -0.131 
 C                     3.373    -0.002    -0.046 
 C                     4.141     1.069    -0.539 
 C                     5.528     1.021    -0.453 
 C                     6.158    -0.087     0.12 
 C                     5.398    -1.152     0.612 
 C                     4.01     -1.114     0.532 
 C                     0.943    -0.877     0.199 
 N                    -3.58      0.825     0.826 
 C                    -4.722     1.687     0.358 
 C                    -3.926    -0.02      2.017 
 O                    -3.882    -1.285    -0.714 
 H                    -1.583    -1.73      0.401 
 H                     3.651     1.926    -0.985 
 H                     6.118     1.847    -0.835 
 H                     7.24     -0.12      0.184 
 H                     5.886    -2.011     1.058 
 H                     3.424    -1.941     0.917 
 H                     1.054    -1.863     0.618 
 H                    -4.385     2.276    -0.49 
 H                    -4.986     2.337     1.191 
 H                    -5.562     1.047     0.092 
 H                    -3.047    -0.581     2.326 
 H                    -4.749    -0.681     1.754 
 H                    -4.222     0.662     2.812 
 H                    -2.79      1.448     1.08 
 H                    -0.542     1.735    -0.988 
 
 ITRead=  0  0  0  0  0  0  0  0  0  0  0  0  0  0  0  0  0  0  0  0
 ITRead=  0  0  0  0  0  0  0  0  0  0  0  0  0
 MicOpt= -1 -1 -1 -1 -1 -1 -1 -1 -1 -1 -1 -1 -1 -1 -1 -1 -1 -1 -1 -1
 MicOpt= -1 -1 -1 -1 -1 -1 -1 -1 -1 -1 -1 -1 -1
 NAtoms=     33 NQM=       33 NQMF=       0 NMMI=      0 NMMIF=      0
                NMic=       0 NMicF=      0.
                    Isotopes and Nuclear Properties:
 (Nuclear quadrupole moments (NQMom) in fm**2, nuclear magnetic moments (NMagM)
  in nuclear magnetons)

  Atom         1           2           3           4           5           6           7           8           9          10
 IAtWgt=          16          32          14          12          14          16          12          12          12          12
 AtmWgt=  15.9949146  31.9720718  14.0030740  12.0000000  14.0030740  15.9949146  12.0000000  12.0000000  12.0000000  12.0000000
 NucSpn=           0           0           2           0           2           0           0           0           0           0
 AtZEff=  -0.0000000  -0.0000000  -0.0000000  -0.0000000  -0.0000000  -0.0000000  -0.0000000  -0.0000000  -0.0000000  -0.0000000
 NQMom=    0.0000000   0.0000000   2.0440000   0.0000000   2.0440000   0.0000000   0.0000000   0.0000000   0.0000000   0.0000000
 NMagM=    0.0000000   0.0000000   0.4037610   0.0000000   0.4037610   0.0000000   0.0000000   0.0000000   0.0000000   0.0000000
 AtZNuc=   8.0000000  16.0000000   7.0000000   6.0000000   7.0000000   8.0000000   6.0000000   6.0000000   6.0000000   6.0000000

  Atom        11          12          13          14          15          16          17          18          19          20
 IAtWgt=          12          12          12          12          14          12          12          16           1           1
 AtmWgt=  12.0000000  12.0000000  12.0000000  12.0000000  14.0030740  12.0000000  12.0000000  15.9949146   1.0078250   1.0078250
 NucSpn=           0           0           0           0           2           0           0           0           1           1
 AtZEff=  -0.0000000  -0.0000000  -0.0000000  -0.0000000  -0.0000000  -0.0000000  -0.0000000  -0.0000000  -0.0000000  -0.0000000
 NQMom=    0.0000000   0.0000000   0.0000000   0.0000000   2.0440000   0.0000000   0.0000000   0.0000000   0.0000000   0.0000000
 NMagM=    0.0000000   0.0000000   0.0000000   0.0000000   0.4037610   0.0000000   0.0000000   0.0000000   2.7928460   2.7928460
 AtZNuc=   6.0000000   6.0000000   6.0000000   6.0000000   7.0000000   6.0000000   6.0000000   8.0000000   1.0000000   1.0000000

  Atom        21          22          23          24          25          26          27          28          29          30
 IAtWgt=           1           1           1           1           1           1           1           1           1           1
 AtmWgt=   1.0078250   1.0078250   1.0078250   1.0078250   1.0078250   1.0078250   1.0078250   1.0078250   1.0078250   1.0078250
 NucSpn=           1           1           1           1           1           1           1           1           1           1
 AtZEff=  -0.0000000  -0.0000000  -0.0000000  -0.0000000  -0.0000000  -0.0000000  -0.0000000  -0.0000000  -0.0000000  -0.0000000
 NQMom=    0.0000000   0.0000000   0.0000000   0.0000000   0.0000000   0.0000000   0.0000000   0.0000000   0.0000000   0.0000000
 NMagM=    2.7928460   2.7928460   2.7928460   2.7928460   2.7928460   2.7928460   2.7928460   2.7928460   2.7928460   2.7928460
 AtZNuc=   1.0000000   1.0000000   1.0000000   1.0000000   1.0000000   1.0000000   1.0000000   1.0000000   1.0000000   1.0000000

  Atom        31          32          33
 IAtWgt=           1           1           1
 AtmWgt=   1.0078250   1.0078250   1.0078250
 NucSpn=           1           1           1
 AtZEff=  -0.0000000  -0.0000000  -0.0000000
 NQMom=    0.0000000   0.0000000   0.0000000
 NMagM=    2.7928460   2.7928460   2.7928460
 AtZNuc=   1.0000000   1.0000000   1.0000000
 Leave Link  101 at Mon Sep 28 08:11:45 2020, MaxMem=  2147483648 cpu:               1.3 elap:               0.4
 (Enter /prod/apps/gaussian/g16b1/l103.exe)

 GradGradGradGradGradGradGradGradGradGradGradGradGradGradGradGradGradGrad
 Berny optimization.
 Initialization pass.
                           ----------------------------
                           !    Initial Parameters    !
                           ! (Angstroms and Degrees)  !
 --------------------------                            --------------------------
 ! Name  Definition              Value          Derivative Info.                !
 --------------------------------------------------------------------------------
 ! R1    R(1,2)                  1.447          estimate D2E/DX2                !
 ! R2    R(2,3)                  1.6587         estimate D2E/DX2                !
 ! R3    R(2,15)                 1.8544         estimate D2E/DX2                !
 ! R4    R(2,18)                 1.4438         estimate D2E/DX2                !
 ! R5    R(3,4)                  1.3766         estimate D2E/DX2                !
 ! R6    R(3,19)                 1.0247         estimate D2E/DX2                !
 ! R7    R(4,5)                  1.3288         estimate D2E/DX2                !
 ! R8    R(4,14)                 1.4045         estimate D2E/DX2                !
 ! R9    R(5,6)                  1.3647         estimate D2E/DX2                !
 ! R10   R(5,33)                 1.0215         estimate D2E/DX2                !
 ! R11   R(6,7)                  1.3583         estimate D2E/DX2                !
 ! R12   R(7,8)                  1.4488         estimate D2E/DX2                !
 ! R13   R(7,14)                 1.3764         estimate D2E/DX2                !
 ! R14   R(8,9)                  1.4071         estimate D2E/DX2                !
 ! R15   R(8,13)                 1.4058         estimate D2E/DX2                !
 ! R16   R(9,10)                 1.3905         estimate D2E/DX2                !
 ! R17   R(9,20)                 1.0833         estimate D2E/DX2                !
 ! R18   R(10,11)                1.3975         estimate D2E/DX2                !
 ! R19   R(10,21)                1.0846         estimate D2E/DX2                !
 ! R20   R(11,12)                1.3978         estimate D2E/DX2                !
 ! R21   R(11,22)                1.0844         estimate D2E/DX2                !
 ! R22   R(12,13)                1.3908         estimate D2E/DX2                !
 ! R23   R(12,23)                1.0839         estimate D2E/DX2                !
 ! R24   R(13,24)                1.0842         estimate D2E/DX2                !
 ! R25   R(14,25)                1.0771         estimate D2E/DX2                !
 ! R26   R(15,16)                1.5054         estimate D2E/DX2                !
 ! R27   R(15,17)                1.5007         estimate D2E/DX2                !
 ! R28   R(15,32)                1.0377         estimate D2E/DX2                !
 ! R29   R(16,26)                1.0861         estimate D2E/DX2                !
 ! R30   R(16,27)                1.0891         estimate D2E/DX2                !
 ! R31   R(16,28)                1.089          estimate D2E/DX2                !
 ! R32   R(17,29)                1.0876         estimate D2E/DX2                !
 ! R33   R(17,30)                1.0879         estimate D2E/DX2                !
 ! R34   R(17,31)                1.0885         estimate D2E/DX2                !
 ! A1    A(1,2,3)              109.476          estimate D2E/DX2                !
 ! A2    A(1,2,15)             103.9944         estimate D2E/DX2                !
 ! A3    A(1,2,18)             125.5254         estimate D2E/DX2                !
 ! A4    A(3,2,15)             101.7146         estimate D2E/DX2                !
 ! A5    A(3,2,18)             108.3217         estimate D2E/DX2                !
 ! A6    A(15,2,18)            105.0654         estimate D2E/DX2                !
 ! A7    A(2,3,4)              127.2116         estimate D2E/DX2                !
 ! A8    A(2,3,19)             114.88           estimate D2E/DX2                !
 ! A9    A(4,3,19)             116.7896         estimate D2E/DX2                !
 ! A10   A(3,4,5)              125.6964         estimate D2E/DX2                !
 ! A11   A(3,4,14)             126.0197         estimate D2E/DX2                !
 ! A12   A(5,4,14)             108.2831         estimate D2E/DX2                !
 ! A13   A(4,5,6)              109.924          estimate D2E/DX2                !
 ! A14   A(4,5,33)             135.1144         estimate D2E/DX2                !
 ! A15   A(6,5,33)             114.9549         estimate D2E/DX2                !
 ! A16   A(5,6,7)              106.8244         estimate D2E/DX2                !
 ! A17   A(6,7,8)              117.0295         estimate D2E/DX2                !
 ! A18   A(6,7,14)             109.6287         estimate D2E/DX2                !
 ! A19   A(8,7,14)             133.341          estimate D2E/DX2                !
 ! A20   A(7,8,9)              120.5949         estimate D2E/DX2                !
 ! A21   A(7,8,13)             119.4847         estimate D2E/DX2                !
 ! A22   A(9,8,13)             119.9202         estimate D2E/DX2                !
 ! A23   A(8,9,10)             119.7681         estimate D2E/DX2                !
 ! A24   A(8,9,20)             119.9686         estimate D2E/DX2                !
 ! A25   A(10,9,20)            120.2633         estimate D2E/DX2                !
 ! A26   A(9,10,11)            120.1599         estimate D2E/DX2                !
 ! A27   A(9,10,21)            119.6402         estimate D2E/DX2                !
 ! A28   A(11,10,21)           120.1997         estimate D2E/DX2                !
 ! A29   A(10,11,12)           120.2184         estimate D2E/DX2                !
 ! A30   A(10,11,22)           119.8777         estimate D2E/DX2                !
 ! A31   A(12,11,22)           119.9038         estimate D2E/DX2                !
 ! A32   A(11,12,13)           120.1019         estimate D2E/DX2                !
 ! A33   A(11,12,23)           120.2539         estimate D2E/DX2                !
 ! A34   A(13,12,23)           119.6442         estimate D2E/DX2                !
 ! A35   A(8,13,12)            119.8314         estimate D2E/DX2                !
 ! A36   A(8,13,24)            120.2932         estimate D2E/DX2                !
 ! A37   A(12,13,24)           119.8754         estimate D2E/DX2                !
 ! A38   A(4,14,7)             105.3394         estimate D2E/DX2                !
 ! A39   A(4,14,25)            126.2789         estimate D2E/DX2                !
 ! A40   A(7,14,25)            128.3792         estimate D2E/DX2                !
 ! A41   A(2,15,16)            109.4476         estimate D2E/DX2                !
 ! A42   A(2,15,17)            112.1929         estimate D2E/DX2                !
 ! A43   A(2,15,32)            104.8899         estimate D2E/DX2                !
 ! A44   A(16,15,17)           113.2178         estimate D2E/DX2                !
 ! A45   A(16,15,32)           108.0506         estimate D2E/DX2                !
 ! A46   A(17,15,32)           108.6216         estimate D2E/DX2                !
 ! A47   A(15,16,26)           108.5345         estimate D2E/DX2                !
 ! A48   A(15,16,27)           106.7298         estimate D2E/DX2                !
 ! A49   A(15,16,28)           108.939          estimate D2E/DX2                !
 ! A50   A(26,16,27)           110.4103         estimate D2E/DX2                !
 ! A51   A(26,16,28)           111.5513         estimate D2E/DX2                !
 ! A52   A(27,16,28)           110.524          estimate D2E/DX2                !
 ! A53   A(15,17,29)           109.2431         estimate D2E/DX2                !
 ! A54   A(15,17,30)           108.9463         estimate D2E/DX2                !
 ! A55   A(15,17,31)           106.8306         estimate D2E/DX2                !
 ! A56   A(29,17,30)           111.5127         estimate D2E/DX2                !
 ! A57   A(29,17,31)           109.6011         estimate D2E/DX2                !
 ! A58   A(30,17,31)           110.5827         estimate D2E/DX2                !
 ! D1    D(1,2,3,4)             14.7217         estimate D2E/DX2                !
 ! D2    D(1,2,3,19)          -152.6987         estimate D2E/DX2                !
 ! D3    D(15,2,3,4)           -94.8685         estimate D2E/DX2                !
 ! D4    D(15,2,3,19)           97.7111         estimate D2E/DX2                !
 ! D5    D(18,2,3,4)           154.7488         estimate D2E/DX2                !
 ! D6    D(18,2,3,19)          -12.6716         estimate D2E/DX2                !
 ! D7    D(1,2,15,16)           54.0197         estimate D2E/DX2                !
 ! D8    D(1,2,15,17)         -179.4267         estimate D2E/DX2                !
 ! D9    D(1,2,15,32)          -61.6959         estimate D2E/DX2                !
 ! D10   D(3,2,15,16)          167.7604         estimate D2E/DX2                !
 ! D11   D(3,2,15,17)          -65.6861         estimate D2E/DX2                !
 ! D12   D(3,2,15,32)           52.0447         estimate D2E/DX2                !
 ! D13   D(18,2,15,16)         -79.3921         estimate D2E/DX2                !
 ! D14   D(18,2,15,17)          47.1615         estimate D2E/DX2                !
 ! D15   D(18,2,15,32)         164.8923         estimate D2E/DX2                !
 ! D16   D(2,3,4,5)             11.5849         estimate D2E/DX2                !
 ! D17   D(2,3,4,14)          -168.7842         estimate D2E/DX2                !
 ! D18   D(19,3,4,5)           178.7973         estimate D2E/DX2                !
 ! D19   D(19,3,4,14)           -1.5719         estimate D2E/DX2                !
 ! D20   D(3,4,5,6)            179.6054         estimate D2E/DX2                !
 ! D21   D(3,4,5,33)             0.6327         estimate D2E/DX2                !
 ! D22   D(14,4,5,6)            -0.0801         estimate D2E/DX2                !
 ! D23   D(14,4,5,33)         -179.0528         estimate D2E/DX2                !
 ! D24   D(3,4,14,7)          -179.7481         estimate D2E/DX2                !
 ! D25   D(3,4,14,25)            0.794          estimate D2E/DX2                !
 ! D26   D(5,4,14,7)            -0.0639         estimate D2E/DX2                !
 ! D27   D(5,4,14,25)         -179.5217         estimate D2E/DX2                !
 ! D28   D(4,5,6,7)              0.1943         estimate D2E/DX2                !
 ! D29   D(33,5,6,7)           179.3947         estimate D2E/DX2                !
 ! D30   D(5,6,7,8)            179.4905         estimate D2E/DX2                !
 ! D31   D(5,6,7,14)            -0.2351         estimate D2E/DX2                !
 ! D32   D(6,7,8,9)             -3.2198         estimate D2E/DX2                !
 ! D33   D(6,7,8,13)           176.9454         estimate D2E/DX2                !
 ! D34   D(14,7,8,9)           176.4248         estimate D2E/DX2                !
 ! D35   D(14,7,8,13)           -3.41           estimate D2E/DX2                !
 ! D36   D(6,7,14,4)             0.1855         estimate D2E/DX2                !
 ! D37   D(6,7,14,25)          179.6279         estimate D2E/DX2                !
 ! D38   D(8,7,14,4)          -179.4784         estimate D2E/DX2                !
 ! D39   D(8,7,14,25)           -0.036          estimate D2E/DX2                !
 ! D40   D(7,8,9,10)          -179.765          estimate D2E/DX2                !
 ! D41   D(7,8,9,20)             0.1338         estimate D2E/DX2                !
 ! D42   D(13,8,9,10)            0.0691         estimate D2E/DX2                !
 ! D43   D(13,8,9,20)          179.9679         estimate D2E/DX2                !
 ! D44   D(7,8,13,12)          179.7195         estimate D2E/DX2                !
 ! D45   D(7,8,13,24)           -0.3831         estimate D2E/DX2                !
 ! D46   D(9,8,13,12)           -0.1164         estimate D2E/DX2                !
 ! D47   D(9,8,13,24)          179.781          estimate D2E/DX2                !
 ! D48   D(8,9,10,11)            0.0458         estimate D2E/DX2                !
 ! D49   D(8,9,10,21)          179.9088         estimate D2E/DX2                !
 ! D50   D(20,9,10,11)        -179.8527         estimate D2E/DX2                !
 ! D51   D(20,9,10,21)           0.0103         estimate D2E/DX2                !
 ! D52   D(9,10,11,12)          -0.1139         estimate D2E/DX2                !
 ! D53   D(9,10,11,22)         179.9506         estimate D2E/DX2                !
 ! D54   D(21,10,11,12)       -179.9762         estimate D2E/DX2                !
 ! D55   D(21,10,11,22)          0.0883         estimate D2E/DX2                !
 ! D56   D(10,11,12,13)          0.0661         estimate D2E/DX2                !
 ! D57   D(10,11,12,23)       -179.9019         estimate D2E/DX2                !
 ! D58   D(22,11,12,13)       -179.9984         estimate D2E/DX2                !
 ! D59   D(22,11,12,23)          0.0336         estimate D2E/DX2                !
 ! D60   D(11,12,13,8)           0.0489         estimate D2E/DX2                !
 ! D61   D(11,12,13,24)       -179.849          estimate D2E/DX2                !
 ! D62   D(23,12,13,8)        -179.9828         estimate D2E/DX2                !
 ! D63   D(23,12,13,24)          0.1193         estimate D2E/DX2                !
 ! D64   D(2,15,16,26)         -55.0486         estimate D2E/DX2                !
 ! D65   D(2,15,16,27)        -174.0512         estimate D2E/DX2                !
 ! D66   D(2,15,16,28)          66.5958         estimate D2E/DX2                !
 ! D67   D(17,15,16,26)        178.9825         estimate D2E/DX2                !
 ! D68   D(17,15,16,27)         59.9799         estimate D2E/DX2                !
 ! D69   D(17,15,16,28)        -59.3731         estimate D2E/DX2                !
 ! D70   D(32,15,16,26)         58.6351         estimate D2E/DX2                !
 ! D71   D(32,15,16,27)        -60.3675         estimate D2E/DX2                !
 ! D72   D(32,15,16,28)       -179.7205         estimate D2E/DX2                !
 ! D73   D(2,15,17,29)          57.9635         estimate D2E/DX2                !
 ! D74   D(2,15,17,30)         -64.075          estimate D2E/DX2                !
 ! D75   D(2,15,17,31)         176.4414         estimate D2E/DX2                !
 ! D76   D(16,15,17,29)       -177.5461         estimate D2E/DX2                !
 ! D77   D(16,15,17,30)         60.4154         estimate D2E/DX2                !
 ! D78   D(16,15,17,31)        -59.0681         estimate D2E/DX2                !
 ! D79   D(32,15,17,29)        -57.5241         estimate D2E/DX2                !
 ! D80   D(32,15,17,30)       -179.5626         estimate D2E/DX2                !
 ! D81   D(32,15,17,31)         60.9539         estimate D2E/DX2                !
 --------------------------------------------------------------------------------
 Trust Radius=3.00D-01 FncErr=1.00D-07 GrdErr=1.00D-06 EigMax=2.50D+02 EigMin=1.00D-04
 Number of steps in this run=    183 maximum allowed number of steps=    198.
 GradGradGradGradGradGradGradGradGradGradGradGradGradGradGradGradGradGrad

 Leave Link  103 at Mon Sep 28 08:11:45 2020, MaxMem=  2147483648 cpu:               0.0 elap:               0.0
 (Enter /prod/apps/gaussian/g16b1/l202.exe)
                          Input orientation:                          
 ---------------------------------------------------------------------
 Center     Atomic      Atomic             Coordinates (Angstroms)
 Number     Number       Type             X           Y           Z
 ---------------------------------------------------------------------
      1          8           0       -2.663000    0.788000   -1.621000
      2         16           0       -2.950000   -0.189000   -0.593000
      3          7           0       -1.527000   -0.780000    0.021000
      4          6           0       -0.267000   -0.249000   -0.139000
      5          7           0        0.011000    0.952000   -0.635000
      6          8           0        1.361000    1.152000   -0.640000
      7          6           0        1.927000    0.027000   -0.131000
      8          6           0        3.373000   -0.002000   -0.046000
      9          6           0        4.141000    1.069000   -0.539000
     10          6           0        5.528000    1.021000   -0.453000
     11          6           0        6.158000   -0.087000    0.120000
     12          6           0        5.398000   -1.152000    0.612000
     13          6           0        4.010000   -1.114000    0.532000
     14          6           0        0.943000   -0.877000    0.199000
     15          7           0       -3.580000    0.825000    0.826000
     16          6           0       -4.722000    1.687000    0.358000
     17          6           0       -3.926000   -0.020000    2.017000
     18          8           0       -3.882000   -1.285000   -0.714000
     19          1           0       -1.583000   -1.730000    0.401000
     20          1           0        3.651000    1.926000   -0.985000
     21          1           0        6.118000    1.847000   -0.835000
     22          1           0        7.240000   -0.120000    0.184000
     23          1           0        5.886000   -2.011000    1.058000
     24          1           0        3.424000   -1.941000    0.917000
     25          1           0        1.054000   -1.863000    0.618000
     26          1           0       -4.385000    2.276000   -0.490000
     27          1           0       -4.986000    2.337000    1.191000
     28          1           0       -5.562000    1.047000    0.092000
     29          1           0       -3.047000   -0.581000    2.326000
     30          1           0       -4.749000   -0.681000    1.754000
     31          1           0       -4.222000    0.662000    2.812000
     32          1           0       -2.790000    1.448000    1.080000
     33          1           0       -0.542000    1.735000   -0.988000
 ---------------------------------------------------------------------
                    Distance matrix (angstroms):
                    1          2          3          4          5
     1  O    0.000000
     2  S    1.446956   0.000000
     3  N    2.538756   1.658676   0.000000
     4  C    3.002084   2.721802   1.376648   0.000000
     5  N    2.854710   3.173510   2.407406   1.328797   0.000000
     6  O    4.157816   4.514998   3.536960   2.205490   1.364744
     7  C    4.885419   4.903593   3.550277   2.211306   2.186481
     8  C    6.287927   6.349371   4.961832   3.649556   3.544020
     9  C    6.895223   7.201928   5.988207   4.618180   4.132772
    10  C    8.277137   8.565056   7.296664   5.940835   5.520432
    11  C    9.033645   9.136435   7.716818   6.432259   6.279742
    12  C    8.586595   8.489317   6.960121   5.785468   5.916214
    13  C    7.265118   7.110756   5.570552   4.414883   4.649973
    14  C    4.368966   4.031880   2.478304   1.404538   2.215721
    15  N    2.613440   1.854362   2.727427   3.613955   3.878908
    16  C    2.994015   2.750229   4.050640   4.882840   4.891581
    17  C    3.934854   2.791637   3.211980   4.253123   4.845395
    18  O    2.570202   1.443773   2.518189   3.804227   4.490641
    19  H    3.405174   2.287227   1.024713   2.053489   3.287439
    20  H    6.447180   6.942628   5.928419   4.560380   3.784280
    21  H    8.879484   9.296907   8.128954   6.756172   6.175474
    22  H   10.107022  10.219814   8.793319   7.515053   7.353801
    23  H    9.385992   9.171716   7.585730   6.511287   6.794207
    24  H    7.137258   6.780670   5.163636   4.195412   4.735686
    25  H    5.084979   4.505642   2.861968   2.218803   3.253011
    26  H    2.541375   2.854130   4.215260   4.843217   4.593345
    27  H    3.962710   3.702516   4.800966   5.543037   5.497500
    28  H    3.377225   2.969758   4.429920   5.456189   5.621022
    29  H    4.195286   2.946801   2.768217   3.730261   4.524265
    30  H    4.230837   2.997812   3.659833   4.884506   5.570602
    31  H    4.700835   3.733123   4.139090   5.018002   5.466644
    32  H    2.783367   2.346124   2.771396   3.275866   3.321572
    33  H    2.407517   3.107453   2.883319   2.175473   1.021522
                    6          7          8          9         10
     6  O    0.000000
     7  C    1.358331   0.000000
     8  C    2.394305   1.448786   0.000000
     9  C    2.783072   2.480731   1.407094   0.000000
    10  C    4.173250   3.749523   2.419959   1.390492   0.000000
    11  C    5.012378   4.239971   2.791237   2.416383   1.397459
    12  C    4.813864   3.740312   2.419936   2.799588   2.423438
    13  C    3.677709   2.465834   1.405844   2.435096   2.798709
    14  C    2.235058   1.376362   2.594330   3.815595   5.004971
    15  N    5.164259   5.646211   7.056098   7.844527   9.199452
    16  C    6.187497   6.870511   8.279188   8.929687  10.303581
    17  C    6.032048   6.234879   7.584965   8.532031   9.826632
    18  O    5.782170   5.983788   7.397793   8.363042   9.691948
    19  H    4.249322   3.961082   5.267611   6.440666   7.672264
    20  H    2.441762   2.703274   2.162450   1.083266   2.150623
    21  H    4.811455   4.623040   3.402403   2.145094   1.084574
    22  H    6.071211   5.324359   3.875631   3.397094   2.153740
    23  H    5.776106   4.608779   3.401480   3.883534   3.406510
    24  H    4.030740   2.685579   2.165569   3.419667   3.882932
    25  H    3.281317   2.212517   3.046634   4.411898   5.429657
    26  H    5.856824   6.710307   8.097715   8.611151   9.992195
    27  H    6.711274   7.407655   8.767780   9.375652  10.722816
    28  H    6.962383   7.561432   8.997426   9.723521  11.103414
    29  H    5.588462   5.580967   6.868626   7.911894   9.155319
    30  H    6.813459   6.973053   8.346731   9.346253  10.648210
    31  H    6.582271   6.846508   8.142057   9.018571  10.288421
    32  H    4.502979   5.073051   6.430626   7.127662   8.468857
    33  H    2.020495   3.122127   4.385403   4.751384   6.135220
                   11         12         13         14         15
    11  C    0.000000
    12  C    1.397816   0.000000
    13  C    2.416273   1.390823   0.000000
    14  C    5.275089   4.482546   3.094115   0.000000
    15  N    9.806061   9.195586   7.839277   4.873137   0.000000
    16  C   11.026247  10.513745   9.171897   6.220257   1.505401
    17  C   10.261099   9.496969   8.147525   5.267517   1.500740
    18  O   10.145559   9.375199   7.991584   4.927541   2.629621
    19  H    7.918427   7.008064   5.628345   2.673778   3.270575
    20  H    3.399742   3.882847   3.416397   4.073319   7.535203
    21  H    2.157309   3.406789   3.883281   5.938851   9.892149
    22  H    1.084393   2.154338   3.397358   6.342356  10.880147
    23  H    2.157685   1.083947   2.144915   5.143645   9.884426
    24  H    3.398129   2.147608   1.084228   2.793382   7.530940
    25  H    5.427061   4.401806   3.050628   1.077069   5.361209
    26  H   10.821771  10.424619   9.111126   6.229263   2.117848
    27  H   11.454761  10.969768   9.657727   6.816663   2.096713
    28  H   11.774767  11.190514   9.822765   6.784412   2.125174
    29  H    9.478528   8.636079   7.300943   4.531208   2.123894
    30  H   11.044702  10.221918   8.854426   5.903838   2.120326
    31  H   10.749524  10.033693   8.724586   5.989450   2.093545
    32  H    9.129322   8.603625   7.287259   4.485206   1.037663
    33  H    7.031170   6.795467   5.581031   3.230594   3.653511
                   16         17         18         19         20
    16  C    0.000000
    17  C    2.509929   0.000000
    18  O    3.269185   3.010070   0.000000
    19  H    4.640157   3.320422   2.593579   0.000000
    20  H    8.483390   8.379132   8.193293   6.533153   0.000000
    21  H   10.906624  10.606674  10.479698   8.580677   2.472818
    22  H   12.098966  11.315893  11.218846   8.971316   4.293437
    23  H   11.255881  10.057788   9.953938   7.503104   4.966794
    24  H    8.934886   7.676115   7.514528   5.037939   4.315417
    25  H    6.784709   5.491289   5.145134   2.649254   4.865238
    26  H    1.086091   3.430357   3.603319   4.969217   8.058835
    27  H    1.089075   2.713176   4.238717   5.361436   8.916371
    28  H    1.089016   2.742373   2.985006   4.862062   9.317292
    29  H    3.438382   1.087586   3.230239   2.677522   7.881052
    30  H    2.748994   1.087851   2.684684   3.599245   9.211871
    31  H    2.706056   1.088469   4.042163   4.301035   8.831706
    32  H    2.076302   2.079300   3.446765   3.466637   6.780796
    33  H    4.391631   4.854020   4.511217   3.875465   4.197349
                   21         22         23         24         25
    21  H    0.000000
    22  H    2.483210   0.000000
    23  H    4.303654   2.484567   0.000000
    24  H    4.967503   4.291292   2.467028   0.000000
    25  H    6.443555   6.441506   4.854248   2.390060   0.000000
    26  H   10.517418  11.888470  11.236909   8.985723   6.923995
    27  H   11.297946  12.511034  11.709961   9.439516   7.379020
    28  H   11.744008  12.855410  11.888702   9.505628   7.246808
    29  H    9.994215  10.517749   9.135164   6.760823   4.623742
    30  H   11.453619  12.104369  10.740416   8.311805   6.030127
    31  H   11.028165  11.785387  10.601562   8.296261   6.247034
    32  H    9.120246  10.191287   9.340136   7.079950   5.094360
    33  H    6.662699   8.085427   7.716075   5.733337   4.251124
                   26         27         28         29         30
    26  H    0.000000
    27  H    1.786248   0.000000
    28  H    1.798470   1.789882   0.000000
    29  H    4.228776   3.682753   3.737160   0.000000
    30  H    3.729863   3.079198   2.531639   1.798329   0.000000
    31  H    3.678963   2.452950   3.056505   1.778165   1.789062
    32  H    2.386317   2.371720   2.970005   2.394871   2.970622
    33  H    3.912714   4.985938   5.180747   4.756204   5.572654
                   31         32         33
    31  H    0.000000
    32  H    2.380807   0.000000
    33  H    5.397567   3.067979   0.000000
 Symmetry turned off by external request.
 Stoichiometry    C11H15N3O3S(2+)
 Framework group  C1[X(C11H15N3O3S)]
 Deg. of freedom    93
 Full point group                 C1      NOp   1
 Rotational constants (GHZ):           1.2745617           0.1433020           0.1392956
 Leave Link  202 at Mon Sep 28 08:11:45 2020, MaxMem=  2147483648 cpu:               0.0 elap:               0.0
 (Enter /prod/apps/gaussian/g16b1/l301.exe)
 Standard basis: 6-31G(d) (6D, 7F)
 Ernie: Thresh=  0.10000D-02 Tol=  0.10000D-05 Strict=F.
   304 basis functions,   588 primitive gaussians,   304 cartesian basis functions
    70 alpha electrons       70 beta electrons
       nuclear repulsion energy      1474.7348388701 Hartrees.
 IExCor=  402 DFT=T Ex+Corr=B3LYP ExCW=0 ScaHFX=  0.200000
 ScaDFX=  0.800000  0.720000  1.000000  0.810000 ScalE2=  1.000000  1.000000
 IRadAn=      5 IRanWt=     -1 IRanGd=            0 ICorTp=0 IEmpDi=  4
 NAtoms=   33 NActive=   33 NUniq=   33 SFac= 1.00D+00 NAtFMM=   60 NAOKFM=F Big=F
 Integral buffers will be    131072 words long.
 Raffenetti 2 integral format.
 Two-electron integral symmetry is turned off.
 Using the following non-standard input for PCM:
 MSTModel=DFT cav MSTcharged
 --- end of non-standard input.
 MST model for solvation energy: B3LYP parametrization.
 MST cavity parameters:
 ISph   IAn     Re0     Alpha   Atom Type   QCorr
 ------------------------------------------------
   1      8     1.40     1.25      O          F
   2     16     1.75     1.25      S          F
   3      7     1.50     1.25      NH         F
   4      6     1.50     1.25      C          F
   5      7     1.50     1.15      NH         T
   6      8     1.40     1.25      O          F
   7      6     1.50     1.25      C          F
   8      6     1.50     1.25      C          F
   9      6     1.50     1.25      CH         F
  10      6     1.50     1.25      CH         F
  11      6     1.50     1.25      CH         F
  12      6     1.50     1.25      CH         F
  13      6     1.50     1.25      CH         F
  14      6     1.50     1.25      CH         F
  15      7     1.50     1.15      NH         T
  16      6     1.50     1.25      CH3        F
  17      6     1.50     1.25      CH3        F
  18      8     1.40     1.25      O          F
  19      1     0.90     1.25      NH         F
  20      1     1.20     1.25      CH         F
  21      1     1.20     1.25      CH         F
  22      1     1.20     1.25      CH         F
  23      1     1.20     1.25      CH         F
  24      1     1.20     1.25      CH         F
  25      1     1.20     1.25      CH         F
  26      1     1.20     1.25      CH3        F
  27      1     1.20     1.25      CH3        F
  28      1     1.20     1.25      CH3        F
  29      1     1.20     1.25      CH3        F
  30      1     1.20     1.25      CH3        F
  31      1     1.20     1.25      CH3        F
  32      1     0.90     1.15      NH         T
  33      1     0.90     1.15      NH         T
 ------------------------------------------------------------------------------
 Polarizable Continuum Model (PCM)
 =================================
 Model                : PCM.
 Atomic radii         : MST.
 Polarization charges : Total charges.
 Charge compensation  : None.
 Solution method      : On-the-fly selection.
 Cavity type          : Scaled VdW (van der Waals Surface) (Alpha=1.250).
 Cavity algorithm     : GePol (No added spheres)
                        Default sphere list used, NSphG=   33.
                        Lebedev-Laikov grids with approx.  5.0 points / Ang**2.
                        Smoothing algorithm: York/Karplus (Gamma=1.0000).
                        Polarization charges: spherical gaussians, with
                                              point-specific exponents (IZeta= 3).
                        Self-potential: point-specific (ISelfS= 7).
                        Self-field    : sphere-specific E.n sum rule (ISelfD= 2).
 1st derivatives      : Analytical E(r).r(x)/FMM algorithm (CHGder, D1EAlg=3).
                        Cavity 1st derivative terms included.
 Solvent              : Water, Eps=  78.355300 Eps(inf)=   1.777849
 ------------------------------------------------------------------------------
 GePol: Number of generator spheres                  =      33
 GePol: Total number of spheres                      =      33
 GePol: Number of exposed spheres                    =      33 (100.00%)
 GePol: Number of points                             =    2433
 GePol: Average weight of points                     =       0.13
 GePol: Minimum weight of points                     =   0.22D-10
 GePol: Maximum weight of points                     =    0.22001
 GePol: Number of points with low weight             =     154
 GePol: Fraction of low-weight points (<1% of avg)   =       6.33%
 GePol: Cavity surface area                          =    312.505 Ang**2
 GePol: Cavity volume                                =    295.229 Ang**3
 PCM non-electrostatic energy =         0.0020398201 Hartrees.
 Nuclear repulsion after PCM non-electrostatic terms =     1474.7368786902 Hartrees.
 Leave Link  301 at Mon Sep 28 08:11:45 2020, MaxMem=  2147483648 cpu:               0.4 elap:               0.1
 (Enter /prod/apps/gaussian/g16b1/l302.exe)
 NPDir=0 NMtPBC=     1 NCelOv=     1 NCel=       1 NClECP=     1 NCelD=      1
         NCelK=      1 NCelE2=     1 NClLst=     1 CellRange=     0.0.
 One-electron integrals computed using PRISM.
 NBasis=   304 RedAO= T EigKep=  4.64D-04  NBF=   304
 NBsUse=   304 1.00D-06 EigRej= -1.00D+00 NBFU=   304
 Precomputing XC quadrature grid using
 IXCGrd= 4 IRadAn=           5 IRanWt=          -1 IRanGd=           0 AccXCQ= 0.00D+00.
 Generated NRdTot=       0 NPtTot=           0 NUsed=           0 NTot=          32
 NSgBfM=   302   302   302   302   302 MxSgAt=    33 MxSgA2=    33.
 Leave Link  302 at Mon Sep 28 08:11:46 2020, MaxMem=  2147483648 cpu:               2.0 elap:               0.5
 (Enter /prod/apps/gaussian/g16b1/l303.exe)
 DipDrv:  MaxL=1.
 Leave Link  303 at Mon Sep 28 08:11:46 2020, MaxMem=  2147483648 cpu:               0.1 elap:               0.1
 (Enter /prod/apps/gaussian/g16b1/l401.exe)
 ExpMin= 1.17D-01 ExpMax= 2.19D+04 ExpMxC= 3.30D+03 IAcc=3 IRadAn=         5 AccDes= 0.00D+00
 Harris functional with IExCor=  402 and IRadAn=       5 diagonalized for initial guess.
 HarFok:  IExCor=  402 AccDes= 0.00D+00 IRadAn=         5 IDoV= 1 UseB2=F ITyADJ=14
 ICtDFT=  3500011 ScaDFX=  1.000000  1.000000  1.000000  1.000000
 FoFCou: FMM=F IPFlag=           0 FMFlag=      100000 FMFlg1=           0
         NFxFlg=           0 DoJE=T BraDBF=F KetDBF=T FulRan=T
         wScrn=  0.000000 ICntrl=       500 IOpCl=  0 I1Cent=   200000004 NGrid=           0
         NMat0=    1 NMatS0=      1 NMatT0=    0 NMatD0=    1 NMtDS0=    0 NMtDT0=    0
 Symmetry not used in FoFCou.
 Harris En= -1215.80359714681    
 JPrj=0 DoOrth=F DoCkMO=F.
 Leave Link  401 at Mon Sep 28 08:11:48 2020, MaxMem=  2147483648 cpu:               8.0 elap:               2.0
 (Enter /prod/apps/gaussian/g16b1/l502.exe)
 Two-electron integral symmetry not used.
 Closed shell SCF:
 Using DIIS extrapolation, IDIIS=  1040.
 NGot=  2147483648 LenX=  2147294283 LenY=  2147201426
 Requested convergence on RMS density matrix=1.00D-08 within2000 cycles.
 Requested convergence on MAX density matrix=1.00D-06.
 Requested convergence on             energy=1.00D-06.
 No special actions if energy rises.

 Cycle   1  Pass 1  IDiag  1:
 FoFJK:  IHMeth= 1 ICntrl=       0 DoSepK=F KAlg= 0 I1Cent=           0 FoldK=F
 IRaf= 740000000 NMat=       1 IRICut=       1 DoRegI=T DoRafI=F ISym2E= 0 IDoP0=0 IntGTp=1.
 FoFCou: FMM=F IPFlag=           0 FMFlag=      100000 FMFlg1=           0
         NFxFlg=           0 DoJE=F BraDBF=F KetDBF=F FulRan=T
         wScrn=  0.000000 ICntrl=         0 IOpCl=  0 I1Cent=           0 NGrid=           0
         NMat0=    1 NMatS0=      1 NMatT0=    0 NMatD0=    1 NMtDS0=    0 NMtDT0=    0
 Symmetry not used in FoFCou.
 Inv3:  Mode=1 IEnd=    17758467.
 Iteration    1 A*A^-1 deviation from unit magnitude is 3.33D-15 for    224.
 Iteration    1 A*A^-1 deviation from orthogonality  is 3.21D-15 for   2038    337.
 Iteration    1 A^-1*A deviation from unit magnitude is 3.22D-15 for   1654.
 Iteration    1 A^-1*A deviation from orthogonality  is 5.49D-14 for   1760   1709.
 E= -1215.32717537400    
 DIIS: error= 3.30D-02 at cycle   1 NSaved=   1.
 NSaved= 1 IEnMin= 1 EnMin= -1215.32717537400     IErMin= 1 ErrMin= 3.30D-02
 ErrMax= 3.30D-02  0.00D+00 EMaxC= 1.00D-01 BMatC= 6.18D-01 BMatP= 6.18D-01
 IDIUse=3 WtCom= 6.70D-01 WtEn= 3.30D-01
 Coeff-Com:  0.100D+01
 Coeff-En:   0.100D+01
 Coeff:      0.100D+01
 Gap=     0.345 Goal=   None    Shift=    0.000
 GapD=    0.345 DampG=1.000 DampE=0.500 DampFc=0.5000 IDamp=-1.
 Damping current iteration by 5.00D-01
 RMSDP=6.71D-03 MaxDP=6.81D-01              OVMax= 3.61D-01

 Cycle   2  Pass 1  IDiag  1:
 E= -1215.40624503308     Delta-E=       -0.079069659079 Rises=F Damp=T
 DIIS: error= 1.96D-02 at cycle   2 NSaved=   2.
 NSaved= 2 IEnMin= 2 EnMin= -1215.40624503308     IErMin= 2 ErrMin= 1.96D-02
 ErrMax= 1.96D-02  0.00D+00 EMaxC= 1.00D-01 BMatC= 1.33D-01 BMatP= 6.18D-01
 IDIUse=3 WtCom= 8.04D-01 WtEn= 1.96D-01
 Coeff-Com:  0.274D+00 0.726D+00
 Coeff-En:   0.433D+00 0.567D+00
 Coeff:      0.305D+00 0.695D+00
 Gap=     0.179 Goal=   None    Shift=    0.000
 RMSDP=1.96D-03 MaxDP=1.49D-01 DE=-7.91D-02 OVMax= 2.73D-01

 Cycle   3  Pass 1  IDiag  1:
 E= -1215.82923222014     Delta-E=       -0.422987187056 Rises=F Damp=F
 DIIS: error= 8.63D-03 at cycle   3 NSaved=   3.
 NSaved= 3 IEnMin= 3 EnMin= -1215.82923222014     IErMin= 3 ErrMin= 8.63D-03
 ErrMax= 8.63D-03  0.00D+00 EMaxC= 1.00D-01 BMatC= 4.88D-02 BMatP= 1.33D-01
 IDIUse=3 WtCom= 9.14D-01 WtEn= 8.63D-02
 Coeff-Com:  0.957D-01 0.380D+00 0.525D+00
 Coeff-En:   0.000D+00 0.000D+00 0.100D+01
 Coeff:      0.875D-01 0.347D+00 0.566D+00
 Gap=     0.173 Goal=   None    Shift=    0.000
 RMSDP=8.93D-04 MaxDP=3.61D-02 DE=-4.23D-01 OVMax= 6.76D-02

 Cycle   4  Pass 1  IDiag  1:
 E= -1215.86494546562     Delta-E=       -0.035713245476 Rises=F Damp=F
 DIIS: error= 2.72D-03 at cycle   4 NSaved=   4.
 NSaved= 4 IEnMin= 4 EnMin= -1215.86494546562     IErMin= 4 ErrMin= 2.72D-03
 ErrMax= 2.72D-03  0.00D+00 EMaxC= 1.00D-01 BMatC= 8.42D-03 BMatP= 4.88D-02
 IDIUse=3 WtCom= 9.73D-01 WtEn= 2.72D-02
 Coeff-Com:  0.638D-02 0.893D-01 0.309D+00 0.596D+00
 Coeff-En:   0.000D+00 0.000D+00 0.135D+00 0.865D+00
 Coeff:      0.621D-02 0.869D-01 0.304D+00 0.603D+00
 Gap=     0.169 Goal=   None    Shift=    0.000
 RMSDP=3.28D-04 MaxDP=1.50D-02 DE=-3.57D-02 OVMax= 3.00D-02

 Cycle   5  Pass 1  IDiag  1:
 E= -1215.87150498140     Delta-E=       -0.006559515786 Rises=F Damp=F
 DIIS: error= 8.07D-04 at cycle   5 NSaved=   5.
 NSaved= 5 IEnMin= 5 EnMin= -1215.87150498140     IErMin= 5 ErrMin= 8.07D-04
 ErrMax= 8.07D-04  0.00D+00 EMaxC= 1.00D-01 BMatC= 9.63D-04 BMatP= 8.42D-03
 IDIUse=3 WtCom= 9.92D-01 WtEn= 8.07D-03
 Coeff-Com: -0.570D-02 0.215D-01 0.127D+00 0.347D+00 0.510D+00
 Coeff-En:   0.000D+00 0.000D+00 0.000D+00 0.311D-01 0.969D+00
 Coeff:     -0.565D-02 0.213D-01 0.126D+00 0.344D+00 0.514D+00
 Gap=     0.170 Goal=   None    Shift=    0.000
 RMSDP=1.10D-04 MaxDP=6.51D-03 DE=-6.56D-03 OVMax= 1.30D-02

 Cycle   6  Pass 1  IDiag  1:
 E= -1215.87228338168     Delta-E=       -0.000778400279 Rises=F Damp=F
 DIIS: error= 3.07D-04 at cycle   6 NSaved=   6.
 NSaved= 6 IEnMin= 6 EnMin= -1215.87228338168     IErMin= 6 ErrMin= 3.07D-04
 ErrMax= 3.07D-04  0.00D+00 EMaxC= 1.00D-01 BMatC= 7.34D-05 BMatP= 9.63D-04
 IDIUse=3 WtCom= 9.97D-01 WtEn= 3.07D-03
 Coeff-Com: -0.375D-02 0.528D-02 0.386D-01 0.124D+00 0.276D+00 0.560D+00
 Coeff-En:   0.000D+00 0.000D+00 0.000D+00 0.000D+00 0.000D+00 0.100D+01
 Coeff:     -0.373D-02 0.527D-02 0.385D-01 0.124D+00 0.275D+00 0.561D+00
 Gap=     0.170 Goal=   None    Shift=    0.000
 RMSDP=2.96D-05 MaxDP=1.82D-03 DE=-7.78D-04 OVMax= 3.05D-03

 Cycle   7  Pass 1  IDiag  1:
 E= -1215.87234239774     Delta-E=       -0.000059016060 Rises=F Damp=F
 DIIS: error= 1.00D-04 at cycle   7 NSaved=   7.
 NSaved= 7 IEnMin= 7 EnMin= -1215.87234239774     IErMin= 7 ErrMin= 1.00D-04
 ErrMax= 1.00D-04  0.00D+00 EMaxC= 1.00D-01 BMatC= 7.40D-06 BMatP= 7.34D-05
 IDIUse=3 WtCom= 9.99D-01 WtEn= 1.00D-03
 Coeff-Com: -0.187D-02 0.123D-02 0.113D-01 0.416D-01 0.113D+00 0.321D+00
 Coeff-Com:  0.514D+00
 Coeff-En:   0.000D+00 0.000D+00 0.000D+00 0.000D+00 0.000D+00 0.000D+00
 Coeff-En:   0.100D+01
 Coeff:     -0.187D-02 0.123D-02 0.113D-01 0.416D-01 0.113D+00 0.321D+00
 Coeff:      0.514D+00
 Gap=     0.170 Goal=   None    Shift=    0.000
 RMSDP=8.00D-06 MaxDP=4.06D-04 DE=-5.90D-05 OVMax= 4.15D-04

 Cycle   8  Pass 1  IDiag  1:
 E= -1215.87234810467     Delta-E=       -0.000005706934 Rises=F Damp=F
 DIIS: error= 3.01D-05 at cycle   8 NSaved=   8.
 NSaved= 8 IEnMin= 8 EnMin= -1215.87234810467     IErMin= 8 ErrMin= 3.01D-05
 ErrMax= 3.01D-05  0.00D+00 EMaxC= 1.00D-01 BMatC= 4.40D-07 BMatP= 7.40D-06
 IDIUse=1 WtCom= 1.00D+00 WtEn= 0.00D+00
 Coeff-Com: -0.508D-03 0.669D-04 0.566D-03 0.455D-02 0.205D-01 0.957D-01
 Coeff-Com:  0.238D+00 0.641D+00
 Coeff:     -0.508D-03 0.669D-04 0.566D-03 0.455D-02 0.205D-01 0.957D-01
 Coeff:      0.238D+00 0.641D+00
 Gap=     0.170 Goal=   None    Shift=    0.000
 RMSDP=2.32D-06 MaxDP=9.98D-05 DE=-5.71D-06 OVMax= 1.16D-04

 Cycle   9  Pass 1  IDiag  1:
 E= -1215.87234842585     Delta-E=       -0.000000321174 Rises=F Damp=F
 DIIS: error= 1.17D-05 at cycle   9 NSaved=   9.
 NSaved= 9 IEnMin= 9 EnMin= -1215.87234842585     IErMin= 9 ErrMin= 1.17D-05
 ErrMax= 1.17D-05  0.00D+00 EMaxC= 1.00D-01 BMatC= 7.02D-08 BMatP= 4.40D-07
 IDIUse=1 WtCom= 1.00D+00 WtEn= 0.00D+00
 Coeff-Com: -0.866D-04-0.323D-04-0.834D-03-0.184D-02-0.983D-03 0.183D-01
 Coeff-Com:  0.678D-01 0.340D+00 0.578D+00
 Coeff:     -0.866D-04-0.323D-04-0.834D-03-0.184D-02-0.983D-03 0.183D-01
 Coeff:      0.678D-01 0.340D+00 0.578D+00
 Gap=     0.170 Goal=   None    Shift=    0.000
 RMSDP=9.34D-07 MaxDP=3.91D-05 DE=-3.21D-07 OVMax= 6.55D-05

 Cycle  10  Pass 1  IDiag  1:
 E= -1215.87234847592     Delta-E=       -0.000000050073 Rises=F Damp=F
 DIIS: error= 5.51D-06 at cycle  10 NSaved=  10.
 NSaved=10 IEnMin=10 EnMin= -1215.87234847592     IErMin=10 ErrMin= 5.51D-06
 ErrMax= 5.51D-06  0.00D+00 EMaxC= 1.00D-01 BMatC= 1.20D-08 BMatP= 7.02D-08
 IDIUse=1 WtCom= 1.00D+00 WtEn= 0.00D+00
 Coeff-Com: -0.157D-04-0.196D-04-0.571D-03-0.153D-02-0.252D-02 0.303D-02
 Coeff-Com:  0.198D-01 0.153D+00 0.360D+00 0.469D+00
 Coeff:     -0.157D-04-0.196D-04-0.571D-03-0.153D-02-0.252D-02 0.303D-02
 Coeff:      0.198D-01 0.153D+00 0.360D+00 0.469D+00
 Gap=     0.170 Goal=   None    Shift=    0.000
 RMSDP=3.37D-07 MaxDP=2.12D-05 DE=-5.01D-08 OVMax= 2.58D-05

 Cycle  11  Pass 1  IDiag  1:
 E= -1215.87234848484     Delta-E=       -0.000000008921 Rises=F Damp=F
 DIIS: error= 1.10D-06 at cycle  11 NSaved=  11.
 NSaved=11 IEnMin=11 EnMin= -1215.87234848484     IErMin=11 ErrMin= 1.10D-06
 ErrMax= 1.10D-06  0.00D+00 EMaxC= 1.00D-01 BMatC= 6.86D-10 BMatP= 1.20D-08
 IDIUse=1 WtCom= 1.00D+00 WtEn= 0.00D+00
 Coeff-Com:  0.130D-05-0.194D-05-0.194D-03-0.552D-03-0.125D-02-0.796D-03
 Coeff-Com:  0.439D-03 0.320D-01 0.105D+00 0.222D+00 0.643D+00
 Coeff:      0.130D-05-0.194D-05-0.194D-03-0.552D-03-0.125D-02-0.796D-03
 Coeff:      0.439D-03 0.320D-01 0.105D+00 0.222D+00 0.643D+00
 Gap=     0.170 Goal=   None    Shift=    0.000
 RMSDP=9.73D-08 MaxDP=4.36D-06 DE=-8.92D-09 OVMax= 5.82D-06

 Cycle  12  Pass 1  IDiag  1:
 E= -1215.87234848529     Delta-E=       -0.000000000443 Rises=F Damp=F
 DIIS: error= 3.88D-07 at cycle  12 NSaved=  12.
 NSaved=12 IEnMin=12 EnMin= -1215.87234848529     IErMin=12 ErrMin= 3.88D-07
 ErrMax= 3.88D-07  0.00D+00 EMaxC= 1.00D-01 BMatC= 1.49D-10 BMatP= 6.86D-10
 IDIUse=1 WtCom= 1.00D+00 WtEn= 0.00D+00
 Coeff-Com:  0.247D-05 0.311D-05-0.391D-04-0.116D-03-0.411D-03-0.828D-03
 Coeff-Com: -0.253D-02-0.188D-02 0.125D-01 0.642D-01 0.380D+00 0.550D+00
 Coeff:      0.247D-05 0.311D-05-0.391D-04-0.116D-03-0.411D-03-0.828D-03
 Coeff:     -0.253D-02-0.188D-02 0.125D-01 0.642D-01 0.380D+00 0.550D+00
 Gap=     0.170 Goal=   None    Shift=    0.000
 RMSDP=3.94D-08 MaxDP=1.98D-06 DE=-4.43D-10 OVMax= 2.52D-06

 Cycle  13  Pass 1  IDiag  1:
 E= -1215.87234848542     Delta-E=       -0.000000000135 Rises=F Damp=F
 DIIS: error= 8.49D-08 at cycle  13 NSaved=  13.
 NSaved=13 IEnMin=13 EnMin= -1215.87234848542     IErMin=13 ErrMin= 8.49D-08
 ErrMax= 8.49D-08  0.00D+00 EMaxC= 1.00D-01 BMatC= 3.89D-12 BMatP= 1.49D-10
 IDIUse=1 WtCom= 1.00D+00 WtEn= 0.00D+00
 Coeff-Com:  0.548D-06 0.117D-05-0.270D-05-0.707D-05-0.719D-04-0.216D-03
 Coeff-Com: -0.906D-03-0.264D-02-0.223D-02 0.874D-02 0.905D-01 0.200D+00
 Coeff-Com:  0.707D+00
 Coeff:      0.548D-06 0.117D-05-0.270D-05-0.707D-05-0.719D-04-0.216D-03
 Coeff:     -0.906D-03-0.264D-02-0.223D-02 0.874D-02 0.905D-01 0.200D+00
 Coeff:      0.707D+00
 Gap=     0.170 Goal=   None    Shift=    0.000
 RMSDP=9.05D-09 MaxDP=4.30D-07 DE=-1.35D-10 OVMax= 8.79D-07

 Error on total polarization charges =  0.01859
 SCF Done:  E(RB3LYP) =  -1215.87234849     A.U. after   13 cycles
            NFock= 13  Conv=0.91D-08     -V/T= 2.0078
 KE= 1.206424261187D+03 PE=-5.754312130939D+03 EE= 1.857278642577D+03
 Leave Link  502 at Mon Sep 28 08:12:46 2020, MaxMem=  2147483648 cpu:             232.6 elap:              58.2
 (Enter /prod/apps/gaussian/g16b1/l601.exe)
 Copying SCF densities to generalized density rwf, IOpCl= 0 IROHF=0.

 **********************************************************************

            Population analysis using the SCF Density.

 **********************************************************************

 Alpha  occ. eigenvalues --  -89.20758 -19.30679 -19.22818 -19.22781 -14.49618
 Alpha  occ. eigenvalues --  -14.49453 -14.45807 -10.36037 -10.32183 -10.25943
 Alpha  occ. eigenvalues --  -10.25934 -10.24449 -10.23421 -10.21780 -10.21657
 Alpha  occ. eigenvalues --  -10.21150 -10.20777 -10.20765  -8.23067  -6.19548
 Alpha  occ. eigenvalues --   -6.19508  -6.19418  -1.23019  -1.20343  -1.09247
 Alpha  occ. eigenvalues --   -1.03394  -1.02308  -0.94808  -0.88906  -0.86282
 Alpha  occ. eigenvalues --   -0.78518  -0.77208  -0.76842  -0.76183  -0.71135
 Alpha  occ. eigenvalues --   -0.70410  -0.67966  -0.64789  -0.62551  -0.61937
 Alpha  occ. eigenvalues --   -0.60885  -0.57259  -0.56632  -0.55849  -0.54701
 Alpha  occ. eigenvalues --   -0.54370  -0.52235  -0.50810  -0.50143  -0.49069
 Alpha  occ. eigenvalues --   -0.47219  -0.47029  -0.45833  -0.44900  -0.44322
 Alpha  occ. eigenvalues --   -0.43830  -0.43694  -0.43566  -0.42952  -0.41528
 Alpha  occ. eigenvalues --   -0.39716  -0.39584  -0.38845  -0.38388  -0.37288
 Alpha  occ. eigenvalues --   -0.36263  -0.34281  -0.32007  -0.27220  -0.26416
 Alpha virt. eigenvalues --   -0.09423  -0.05591  -0.02717  -0.01782   0.01543
 Alpha virt. eigenvalues --    0.01690   0.02890   0.04181   0.04786   0.06120
 Alpha virt. eigenvalues --    0.08232   0.08968   0.09679   0.10251   0.11746
 Alpha virt. eigenvalues --    0.12291   0.12875   0.13598   0.13975   0.14556
 Alpha virt. eigenvalues --    0.14816   0.15408   0.15872   0.16544   0.17374
 Alpha virt. eigenvalues --    0.18225   0.18685   0.20314   0.23094   0.23637
 Alpha virt. eigenvalues --    0.27376   0.27751   0.29034   0.30065   0.31316
 Alpha virt. eigenvalues --    0.34166   0.34720   0.37661   0.39744   0.41008
 Alpha virt. eigenvalues --    0.42977   0.45008   0.45498   0.46207   0.48195
 Alpha virt. eigenvalues --    0.48956   0.50214   0.51243   0.51899   0.52300
 Alpha virt. eigenvalues --    0.52849   0.53138   0.54499   0.55610   0.56052
 Alpha virt. eigenvalues --    0.56731   0.56879   0.58023   0.59335   0.60142
 Alpha virt. eigenvalues --    0.60280   0.61038   0.61424   0.62714   0.63289
 Alpha virt. eigenvalues --    0.64704   0.66028   0.69014   0.70472   0.72324
 Alpha virt. eigenvalues --    0.72653   0.73522   0.74217   0.75214   0.75792
 Alpha virt. eigenvalues --    0.76213   0.77459   0.78793   0.80177   0.81117
 Alpha virt. eigenvalues --    0.82373   0.82852   0.83946   0.84011   0.84851
 Alpha virt. eigenvalues --    0.85556   0.86410   0.87282   0.88563   0.88942
 Alpha virt. eigenvalues --    0.89652   0.90133   0.91341   0.92068   0.92709
 Alpha virt. eigenvalues --    0.94041   0.94785   0.95403   0.95775   0.97391
 Alpha virt. eigenvalues --    0.99182   0.99949   1.02165   1.03010   1.03383
 Alpha virt. eigenvalues --    1.05837   1.07984   1.08953   1.10088   1.11513
 Alpha virt. eigenvalues --    1.13026   1.14438   1.16042   1.16876   1.18124
 Alpha virt. eigenvalues --    1.19601   1.21259   1.22958   1.23949   1.26595
 Alpha virt. eigenvalues --    1.29107   1.29450   1.31491   1.34608   1.35222
 Alpha virt. eigenvalues --    1.35623   1.38909   1.41194   1.43959   1.44483
 Alpha virt. eigenvalues --    1.44879   1.46850   1.47040   1.47179   1.48830
 Alpha virt. eigenvalues --    1.50647   1.52494   1.55104   1.57288   1.65937
 Alpha virt. eigenvalues --    1.67489   1.69991   1.71270   1.71670   1.73571
 Alpha virt. eigenvalues --    1.75793   1.76272   1.76605   1.78180   1.79553
 Alpha virt. eigenvalues --    1.79904   1.81891   1.86999   1.87393   1.88058
 Alpha virt. eigenvalues --    1.88605   1.89508   1.91286   1.91887   1.92339
 Alpha virt. eigenvalues --    1.93068   1.96041   1.98488   1.98712   1.99449
 Alpha virt. eigenvalues --    2.01261   2.01845   2.04323   2.04598   2.06339
 Alpha virt. eigenvalues --    2.07355   2.10830   2.11922   2.12536   2.14941
 Alpha virt. eigenvalues --    2.15686   2.16509   2.17722   2.19360   2.19773
 Alpha virt. eigenvalues --    2.21324   2.23748   2.24123   2.25442   2.28829
 Alpha virt. eigenvalues --    2.29554   2.30305   2.31201   2.32609   2.38248
 Alpha virt. eigenvalues --    2.40180   2.44373   2.48620   2.50189   2.52681
 Alpha virt. eigenvalues --    2.53179   2.57063   2.57209   2.60785   2.63260
 Alpha virt. eigenvalues --    2.64249   2.65539   2.69143   2.72271   2.72715
 Alpha virt. eigenvalues --    2.73734   2.75929   2.77468   2.85642   2.88385
 Alpha virt. eigenvalues --    2.90445   2.98198   3.02845   3.10007   3.25844
 Alpha virt. eigenvalues --    3.41386   3.77806   3.82012   3.87890   3.99271
 Alpha virt. eigenvalues --    4.00178   4.02256   4.06409   4.07928   4.09828
 Alpha virt. eigenvalues --    4.11841   4.20196   4.21261   4.29089   4.30359
 Alpha virt. eigenvalues --    4.35265   4.38613   4.55436   4.72316
          Condensed to atoms (all electrons):
               1          2          3          4          5          6
     1  O    8.169227   0.428068  -0.051832   0.003540  -0.001109   0.000099
     2  S    0.428068  13.488401   0.162853  -0.008191  -0.005016   0.000286
     3  N   -0.051832   0.162853   7.361898   0.251843  -0.068985   0.004074
     4  C    0.003540  -0.008191   0.251843   4.342010   0.307128  -0.034310
     5  N   -0.001109  -0.005016  -0.068985   0.307128   6.705611   0.158547
     6  O    0.000099   0.000286   0.004074  -0.034310   0.158547   8.106498
     7  C   -0.000032  -0.000057   0.000398   0.008972  -0.098760   0.244855
     8  C   -0.000000  -0.000004  -0.000200   0.001071   0.004724  -0.030292
     9  C    0.000000  -0.000000  -0.000000  -0.000566   0.000367  -0.008857
    10  C    0.000000  -0.000000  -0.000000   0.000006   0.000001   0.000192
    11  C   -0.000000  -0.000000   0.000000   0.000000  -0.000000   0.000003
    12  C    0.000000   0.000000  -0.000000  -0.000011   0.000002  -0.000066
    13  C    0.000000   0.000000   0.000004   0.000938  -0.000151   0.003142
    14  C    0.000323   0.000928  -0.049261   0.464452  -0.026980  -0.077377
    15  N   -0.043522   0.105283  -0.045460   0.000359  -0.000082  -0.000000
    16  C   -0.000923  -0.014442   0.001547   0.000044  -0.000019   0.000000
    17  C    0.001141  -0.011081  -0.001320   0.000422  -0.000001  -0.000000
    18  O   -0.032057   0.456002  -0.046868   0.000486   0.000014   0.000000
    19  H    0.000590  -0.007704   0.288778  -0.011473   0.001890  -0.000020
    20  H    0.000000  -0.000000  -0.000000   0.000018  -0.000152   0.006784
    21  H   -0.000000  -0.000000   0.000000  -0.000000   0.000000  -0.000002
    22  H   -0.000000  -0.000000  -0.000000  -0.000000  -0.000000   0.000000
    23  H   -0.000000   0.000000  -0.000000   0.000000  -0.000000   0.000000
    24  H    0.000000  -0.000000  -0.000001   0.000136  -0.000008   0.000033
    25  H    0.000001  -0.000026  -0.002803  -0.025668   0.004237   0.002533
    26  H    0.007585  -0.003108   0.000050   0.000006  -0.000004   0.000000
    27  H    0.000057   0.001875  -0.000064  -0.000003   0.000001  -0.000000
    28  H   -0.000621  -0.000620  -0.000014   0.000001  -0.000000   0.000000
    29  H   -0.000005  -0.003479   0.005398   0.000268  -0.000014   0.000000
    30  H   -0.000006  -0.002980  -0.000066  -0.000010  -0.000000   0.000000
    31  H   -0.000039   0.001923  -0.000091  -0.000011  -0.000000  -0.000000
    32  H    0.000163  -0.004627   0.000608   0.000343   0.000804  -0.000006
    33  H    0.007779   0.001133  -0.001071  -0.023478   0.303385  -0.018720
               7          8          9         10         11         12
     1  O   -0.000032  -0.000000   0.000000   0.000000  -0.000000   0.000000
     2  S   -0.000057  -0.000004  -0.000000  -0.000000  -0.000000   0.000000
     3  N    0.000398  -0.000200  -0.000000  -0.000000   0.000000  -0.000000
     4  C    0.008972   0.001071  -0.000566   0.000006   0.000000  -0.000011
     5  N   -0.098760   0.004724   0.000367   0.000001  -0.000000   0.000002
     6  O    0.244855  -0.030292  -0.008857   0.000192   0.000003  -0.000066
     7  C    4.684096   0.370193  -0.038248   0.004910   0.000916   0.006558
     8  C    0.370193   4.763114   0.470996  -0.009503  -0.033025  -0.011519
     9  C   -0.038248   0.470996   5.023304   0.513501  -0.037641  -0.041164
    10  C    0.004910  -0.009503   0.513501   4.873654   0.535451  -0.025360
    11  C    0.000916  -0.033025  -0.037641   0.535451   4.858867   0.537052
    12  C    0.006558  -0.011519  -0.041164  -0.025360   0.537052   4.871862
    13  C   -0.041419   0.533866  -0.075518  -0.040335  -0.039171   0.520741
    14  C    0.463061  -0.055484   0.010980  -0.000225   0.000013   0.000245
    15  N    0.000001  -0.000000   0.000000   0.000000   0.000000   0.000000
    16  C    0.000000   0.000000  -0.000000   0.000000   0.000000  -0.000000
    17  C   -0.000000   0.000000   0.000000  -0.000000   0.000000   0.000000
    18  O   -0.000000  -0.000000   0.000000  -0.000000   0.000000  -0.000000
    19  H    0.000020  -0.000001   0.000000  -0.000000  -0.000000   0.000000
    20  H   -0.011964  -0.042725   0.364487  -0.036982   0.004356   0.000190
    21  H   -0.000177   0.003162  -0.036608   0.365094  -0.039395   0.004242
    22  H    0.000002   0.000453   0.004744  -0.040543   0.365507  -0.040761
    23  H   -0.000218   0.003241   0.000771   0.004223  -0.039464   0.364658
    24  H   -0.012009  -0.037884   0.004957   0.000159   0.004359  -0.037830
    25  H   -0.022023  -0.003478  -0.000043   0.000001  -0.000001   0.000070
    26  H    0.000000   0.000000  -0.000000   0.000000   0.000000  -0.000000
    27  H    0.000000  -0.000000   0.000000   0.000000   0.000000  -0.000000
    28  H   -0.000000   0.000000  -0.000000   0.000000  -0.000000   0.000000
    29  H    0.000000   0.000000  -0.000000  -0.000000   0.000000  -0.000000
    30  H   -0.000000  -0.000000  -0.000000   0.000000   0.000000   0.000000
    31  H    0.000000  -0.000000  -0.000000  -0.000000  -0.000000   0.000000
    32  H   -0.000005   0.000000   0.000000  -0.000000  -0.000000  -0.000000
    33  H    0.002480  -0.000001   0.000002  -0.000000   0.000000  -0.000000
              13         14         15         16         17         18
     1  O    0.000000   0.000323  -0.043522  -0.000923   0.001141  -0.032057
     2  S    0.000000   0.000928   0.105283  -0.014442  -0.011081   0.456002
     3  N    0.000004  -0.049261  -0.045460   0.001547  -0.001320  -0.046868
     4  C    0.000938   0.464452   0.000359   0.000044   0.000422   0.000486
     5  N   -0.000151  -0.026980  -0.000082  -0.000019  -0.000001   0.000014
     6  O    0.003142  -0.077377  -0.000000   0.000000  -0.000000   0.000000
     7  C   -0.041419   0.463061   0.000001   0.000000  -0.000000  -0.000000
     8  C    0.533866  -0.055484  -0.000000   0.000000   0.000000  -0.000000
     9  C   -0.075518   0.010980   0.000000  -0.000000   0.000000   0.000000
    10  C   -0.040335  -0.000225   0.000000   0.000000  -0.000000  -0.000000
    11  C   -0.039171   0.000013   0.000000   0.000000   0.000000   0.000000
    12  C    0.520741   0.000245   0.000000  -0.000000   0.000000  -0.000000
    13  C    4.979093  -0.017576  -0.000000  -0.000000  -0.000000  -0.000000
    14  C   -0.017576   5.183461  -0.000032   0.000000   0.000007  -0.000042
    15  N   -0.000000  -0.000032   7.113717   0.210652   0.204029  -0.046914
    16  C   -0.000000   0.000000   0.210652   5.073892  -0.039165  -0.001097
    17  C   -0.000000   0.000007   0.204029  -0.039165   5.073344   0.002724
    18  O   -0.000000  -0.000042  -0.046914  -0.001097   0.002724   8.128768
    19  H   -0.000000  -0.003173   0.000383  -0.000009  -0.000129   0.001177
    20  H    0.004786   0.000172  -0.000000   0.000000   0.000000  -0.000000
    21  H    0.000741   0.000001   0.000000  -0.000000   0.000000   0.000000
    22  H    0.004843  -0.000000   0.000000   0.000000   0.000000  -0.000000
    23  H   -0.036467  -0.000000  -0.000000  -0.000000   0.000000   0.000000
    24  H    0.359228   0.005605  -0.000000  -0.000000   0.000000  -0.000000
    25  H    0.001064   0.363384  -0.000000   0.000000   0.000001  -0.000000
    26  H   -0.000000   0.000000  -0.027008   0.375571   0.003436  -0.000212
    27  H   -0.000000  -0.000000  -0.025951   0.377615  -0.002045  -0.000054
    28  H    0.000000   0.000000  -0.032688   0.378609  -0.002195   0.003088
    29  H   -0.000000  -0.000018  -0.026947   0.003389   0.376676  -0.000862
    30  H    0.000000   0.000001  -0.032275  -0.002070   0.379841   0.004530
    31  H    0.000000  -0.000000  -0.024562  -0.002394   0.374976   0.000103
    32  H    0.000000   0.000008   0.276520  -0.018755  -0.019374   0.000712
    33  H    0.000001   0.003674   0.000047  -0.000003   0.000001   0.000011
              19         20         21         22         23         24
     1  O    0.000590   0.000000  -0.000000  -0.000000  -0.000000   0.000000
     2  S   -0.007704  -0.000000  -0.000000  -0.000000   0.000000  -0.000000
     3  N    0.288778  -0.000000   0.000000  -0.000000  -0.000000  -0.000001
     4  C   -0.011473   0.000018  -0.000000  -0.000000   0.000000   0.000136
     5  N    0.001890  -0.000152   0.000000  -0.000000  -0.000000  -0.000008
     6  O   -0.000020   0.006784  -0.000002   0.000000   0.000000   0.000033
     7  C    0.000020  -0.011964  -0.000177   0.000002  -0.000218  -0.012009
     8  C   -0.000001  -0.042725   0.003162   0.000453   0.003241  -0.037884
     9  C    0.000000   0.364487  -0.036608   0.004744   0.000771   0.004957
    10  C   -0.000000  -0.036982   0.365094  -0.040543   0.004223   0.000159
    11  C   -0.000000   0.004356  -0.039395   0.365507  -0.039464   0.004359
    12  C    0.000000   0.000190   0.004242  -0.040761   0.364658  -0.037830
    13  C   -0.000000   0.004786   0.000741   0.004843  -0.036467   0.359228
    14  C   -0.003173   0.000172   0.000001  -0.000000  -0.000000   0.005605
    15  N    0.000383  -0.000000   0.000000   0.000000  -0.000000  -0.000000
    16  C   -0.000009   0.000000  -0.000000   0.000000  -0.000000  -0.000000
    17  C   -0.000129   0.000000   0.000000   0.000000   0.000000   0.000000
    18  O    0.001177  -0.000000   0.000000  -0.000000   0.000000  -0.000000
    19  H    0.236067   0.000000   0.000000   0.000000   0.000000   0.000000
    20  H    0.000000   0.535107  -0.004691  -0.000145   0.000014  -0.000124
    21  H    0.000000  -0.004691   0.541882  -0.004966  -0.000150   0.000014
    22  H    0.000000  -0.000145  -0.004966   0.544848  -0.004984  -0.000147
    23  H    0.000000   0.000014  -0.000150  -0.004984   0.541922  -0.004683
    24  H    0.000000  -0.000124   0.000014  -0.000147  -0.004683   0.536578
    25  H    0.001374  -0.000005   0.000000  -0.000000  -0.000002   0.001787
    26  H   -0.000002  -0.000000  -0.000000   0.000000  -0.000000  -0.000000
    27  H    0.000000  -0.000000   0.000000  -0.000000  -0.000000  -0.000000
    28  H    0.000002   0.000000  -0.000000  -0.000000  -0.000000   0.000000
    29  H    0.000161   0.000000  -0.000000   0.000000   0.000000  -0.000000
    30  H    0.000030   0.000000  -0.000000  -0.000000  -0.000000   0.000000
    31  H   -0.000001  -0.000000   0.000000   0.000000  -0.000000   0.000000
    32  H    0.000022   0.000000   0.000000  -0.000000   0.000000   0.000000
    33  H   -0.000044   0.000006   0.000000  -0.000000   0.000000   0.000000
              25         26         27         28         29         30
     1  O    0.000001   0.007585   0.000057  -0.000621  -0.000005  -0.000006
     2  S   -0.000026  -0.003108   0.001875  -0.000620  -0.003479  -0.002980
     3  N   -0.002803   0.000050  -0.000064  -0.000014   0.005398  -0.000066
     4  C   -0.025668   0.000006  -0.000003   0.000001   0.000268  -0.000010
     5  N    0.004237  -0.000004   0.000001  -0.000000  -0.000014  -0.000000
     6  O    0.002533   0.000000  -0.000000   0.000000   0.000000   0.000000
     7  C   -0.022023   0.000000   0.000000  -0.000000   0.000000  -0.000000
     8  C   -0.003478   0.000000  -0.000000   0.000000   0.000000  -0.000000
     9  C   -0.000043  -0.000000   0.000000  -0.000000  -0.000000  -0.000000
    10  C    0.000001   0.000000   0.000000   0.000000  -0.000000   0.000000
    11  C   -0.000001   0.000000   0.000000  -0.000000   0.000000   0.000000
    12  C    0.000070  -0.000000  -0.000000   0.000000  -0.000000   0.000000
    13  C    0.001064  -0.000000  -0.000000   0.000000  -0.000000   0.000000
    14  C    0.363384   0.000000  -0.000000   0.000000  -0.000018   0.000001
    15  N   -0.000000  -0.027008  -0.025951  -0.032688  -0.026947  -0.032275
    16  C    0.000000   0.375571   0.377615   0.378609   0.003389  -0.002070
    17  C    0.000001   0.003436  -0.002045  -0.002195   0.376676   0.379841
    18  O   -0.000000  -0.000212  -0.000054   0.003088  -0.000862   0.004530
    19  H    0.001374  -0.000002   0.000000   0.000002   0.000161   0.000030
    20  H   -0.000005  -0.000000  -0.000000   0.000000   0.000000   0.000000
    21  H    0.000000  -0.000000   0.000000  -0.000000  -0.000000  -0.000000
    22  H   -0.000000   0.000000  -0.000000  -0.000000   0.000000  -0.000000
    23  H   -0.000002  -0.000000  -0.000000  -0.000000   0.000000  -0.000000
    24  H    0.001787  -0.000000  -0.000000   0.000000  -0.000000   0.000000
    25  H    0.436004  -0.000000  -0.000000   0.000000   0.000001   0.000000
    26  H   -0.000000   0.447111  -0.018930  -0.021907  -0.000151  -0.000013
    27  H   -0.000000  -0.018930   0.446164  -0.021717  -0.000027  -0.000527
    28  H    0.000000  -0.021907  -0.021717   0.453928  -0.000003   0.003733
    29  H    0.000001  -0.000151  -0.000027  -0.000003   0.455467  -0.021791
    30  H    0.000000  -0.000013  -0.000527   0.003733  -0.021791   0.450652
    31  H   -0.000000  -0.000024   0.003003  -0.000488  -0.020565  -0.020708
    32  H    0.000000  -0.001855  -0.003100   0.002852  -0.001792   0.002786
    33  H   -0.000056   0.000032  -0.000001   0.000000   0.000001  -0.000000
              31         32         33
     1  O   -0.000039   0.000163   0.007779
     2  S    0.001923  -0.004627   0.001133
     3  N   -0.000091   0.000608  -0.001071
     4  C   -0.000011   0.000343  -0.023478
     5  N   -0.000000   0.000804   0.303385
     6  O   -0.000000  -0.000006  -0.018720
     7  C    0.000000  -0.000005   0.002480
     8  C   -0.000000   0.000000  -0.000001
     9  C   -0.000000   0.000000   0.000002
    10  C   -0.000000  -0.000000  -0.000000
    11  C   -0.000000  -0.000000   0.000000
    12  C    0.000000  -0.000000  -0.000000
    13  C    0.000000   0.000000   0.000001
    14  C   -0.000000   0.000008   0.003674
    15  N   -0.024562   0.276520   0.000047
    16  C   -0.002394  -0.018755  -0.000003
    17  C    0.374976  -0.019374   0.000001
    18  O    0.000103   0.000712   0.000011
    19  H   -0.000001   0.000022  -0.000044
    20  H   -0.000000   0.000000   0.000006
    21  H    0.000000   0.000000   0.000000
    22  H    0.000000  -0.000000  -0.000000
    23  H   -0.000000   0.000000   0.000000
    24  H    0.000000   0.000000   0.000000
    25  H   -0.000000   0.000000  -0.000056
    26  H   -0.000024  -0.001855   0.000032
    27  H    0.003003  -0.003100  -0.000001
    28  H   -0.000488   0.002852   0.000000
    29  H   -0.020565  -0.001792   0.000001
    30  H   -0.020708   0.002786  -0.000000
    31  H    0.448713  -0.002650  -0.000001
    32  H   -0.002650   0.253921   0.000094
    33  H   -0.000001   0.000094   0.242894
 Mulliken charges:
               1
     1  O   -0.488428
     2  S    1.414580
     3  N   -0.809412
     4  C    0.721676
     5  N   -0.285431
     6  O   -0.357398
     7  C    0.438450
     8  C    0.073295
     9  C   -0.155466
    10  C   -0.144244
    11  C   -0.117828
    12  C   -0.148909
    13  C   -0.157811
    14  C   -0.266150
    15  N   -0.605550
    16  C   -0.342441
    17  C   -0.341288
    18  O   -0.469511
    19  H    0.492058
    20  H    0.180869
    21  H    0.170853
    22  H    0.171150
    23  H    0.171138
    24  H    0.179830
    25  H    0.243648
    26  H    0.239423
    27  H    0.243707
    28  H    0.238039
    29  H    0.234293
    30  H    0.238873
    31  H    0.242815
    32  H    0.513333
    33  H    0.481835
 Sum of Mulliken charges =   2.00000
 Mulliken charges with hydrogens summed into heavy atoms:
               1
     1  O   -0.488428
     2  S    1.414580
     3  N   -0.317354
     4  C    0.721676
     5  N    0.196404
     6  O   -0.357398
     7  C    0.438450
     8  C    0.073295
     9  C    0.025402
    10  C    0.026609
    11  C    0.053322
    12  C    0.022229
    13  C    0.022020
    14  C   -0.022502
    15  N   -0.092217
    16  C    0.378728
    17  C    0.374694
    18  O   -0.469511
 Electronic spatial extent (au):  <R**2>=           7513.0824
 Charge=              2.0000 electrons
 Dipole moment (field-independent basis, Debye):
    X=            -10.9991    Y=              3.8685    Z=              6.2717  Tot=             13.2393
 Quadrupole moment (field-independent basis, Debye-Ang):
   XX=             -6.2998   YY=            -83.0218   ZZ=            -99.8536
   XY=            -20.8555   XZ=            -23.1689   YZ=             -4.5964
 Traceless Quadrupole moment (field-independent basis, Debye-Ang):
   XX=             56.7586   YY=            -19.9634   ZZ=            -36.7952
   XY=            -20.8555   XZ=            -23.1689   YZ=             -4.5964
 Octapole moment (field-independent basis, Debye-Ang**2):
  XXX=           -107.6195  YYY=            -15.6729  ZZZ=             34.4354  XYY=            -39.8473
  XXY=             74.6009  XXZ=            101.1095  XZZ=            -62.2766  YZZ=             -4.6069
  YYZ=             13.8366  XYZ=            -29.2375
 Hexadecapole moment (field-independent basis, Debye-Ang**3):
 XXXX=          -5835.6047 YYYY=           -577.4363 ZZZZ=           -488.1315 XXXY=           -256.1713
 XXXZ=           -261.0651 YYYX=             57.9036 YYYZ=             30.5994 ZZZX=            -29.9761
 ZZZY=             68.6734 XXYY=          -1300.7825 XXZZ=          -1432.4055 YYZZ=           -175.2993
 XXYZ=            -35.6972 YYXZ=            -11.1922 ZZXY=             25.0983
 N-N= 1.474736878690D+03 E-N=-5.754312131040D+03  KE= 1.206424261187D+03
 No NMR shielding tensors so no spin-rotation constants.
 Leave Link  601 at Mon Sep 28 08:12:46 2020, MaxMem=  2147483648 cpu:               0.6 elap:               0.2
 (Enter /prod/apps/gaussian/g16b1/l701.exe)
 ... and contract with generalized density number  0.
 Compute integral first derivatives.
 D1PCM: PCM CHGder 1st derivatives, ID1Alg=3 FixD1E=F DoIter=F DoCFld=F I1PDM=0.
 GePol: Maximum number of non-zero 1st derivatives   =     169
 Leave Link  701 at Mon Sep 28 08:12:48 2020, MaxMem=  2147483648 cpu:               8.7 elap:               2.2
 (Enter /prod/apps/gaussian/g16b1/l702.exe)
 L702 exits ... SP integral derivatives will be done elsewhere.
 Leave Link  702 at Mon Sep 28 08:12:48 2020, MaxMem=  2147483648 cpu:               0.1 elap:               0.0
 (Enter /prod/apps/gaussian/g16b1/l703.exe)
 Integral derivatives from FoFJK, PRISM(SPDF).
 Compute integral first derivatives, UseDBF=F ICtDFT=           0.
 Calling FoFJK, ICntrl=      2127 FMM=F ISym2X=0 I1Cent= 0 IOpClX= 0 NMat=1 NMatS=1 NMatT=0.
 FoFJK:  IHMeth= 1 ICntrl=    2127 DoSepK=F KAlg= 0 I1Cent=           0 FoldK=F
 IRaf=         0 NMat=       1 IRICut=       1 DoRegI=T DoRafI=F ISym2E= 0 IDoP0=0 IntGTp=1.
 FoFCou: FMM=F IPFlag=           0 FMFlag=      100000 FMFlg1=         800
         NFxFlg=           0 DoJE=F BraDBF=F KetDBF=F FulRan=T
         wScrn=  0.000000 ICntrl=      2127 IOpCl=  0 I1Cent=           0 NGrid=           0
         NMat0=    1 NMatS0=      1 NMatT0=    0 NMatD0=    1 NMtDS0=    0 NMtDT0=    0
 Symmetry not used in FoFCou.
 Leave Link  703 at Mon Sep 28 08:13:01 2020, MaxMem=  2147483648 cpu:              50.7 elap:              12.7
 (Enter /prod/apps/gaussian/g16b1/l716.exe)
 Dipole        =-4.32738065D+00 1.52199194D+00 2.46746753D+00
 -------------------------------------------------------------------
 Center     Atomic                   Forces (Hartrees/Bohr)
 Number     Number              X              Y              Z
 -------------------------------------------------------------------
      1        8           0.000324748    0.000029242    0.000596005
      2       16           0.000115193    0.000190319    0.000068652
      3        7          -0.000098277   -0.000069152    0.000078554
      4        6           0.000539779    0.000522810   -0.000149012
      5        7          -0.001190095    0.000081469   -0.000109396
      6        8           0.000820438   -0.000027391   -0.000138347
      7        6          -0.000476446    0.000041877    0.000190460
      8        6           0.000906115    0.000314638   -0.000101837
      9        6          -0.000429084   -0.000362453    0.000302969
     10        6          -0.000055555    0.000242010   -0.000242130
     11        6          -0.000135062   -0.000136068    0.000192744
     12        6          -0.000688881    0.000179733   -0.000090442
     13        6           0.000245433   -0.000200618   -0.000019800
     14        6          -0.000234774   -0.000551428    0.000217387
     15        7           0.000131032    0.000065796    0.000486153
     16        6          -0.000820462   -0.000744429    0.000722844
     17        6          -0.000257083   -0.000430492   -0.000623928
     18        8           0.000048708    0.000156393    0.000052898
     19        1          -0.000089860    0.000047256   -0.000000652
     20        1          -0.000032473   -0.000145580    0.000034040
[...]
      3          7           0        1.542055    0.843684   -0.422734
      4          6           0        0.299404    0.271720   -0.268366
      5          7           0        0.055217   -1.026595   -0.124551
      6          8           0       -1.288358   -1.233720    0.008895
      7          6           0       -1.881835   -0.014486   -0.060457
      8          6           0       -3.325828    0.023285    0.046598
      9          6           0       -4.066042   -1.165382    0.170054
     10          6           0       -5.451797   -1.107302    0.266533
     11          6           0       -6.105688    0.127505    0.241419
     12          6           0       -5.371437    1.310600    0.119782
     13          6           0       -3.985906    1.263695    0.022387
     14          6           0       -0.924251    0.958802   -0.231435
     15          7           0        3.651885   -0.099278    1.020917
     16          6           0        4.802095   -1.069480    1.018277
     17          6           0        4.005858    1.236876    1.602904
     18          8           0        3.876381    0.960744   -1.367767
     19          1           0        1.573889    1.860149   -0.548291
     20          1           0       -3.556116   -2.120776    0.187327
     21          1           0       -6.021997   -2.024407    0.360182
     22          1           0       -7.186661    0.167987    0.316406
     23          1           0       -5.878815    2.268155    0.100802
     24          1           0       -3.417965    2.181915   -0.070511
     25          1           0       -1.063934    2.021812   -0.326860
     26          1           0        4.463909   -2.001162    0.572202
     27          1           0        5.080025   -1.225565    2.058886
     28          1           0        5.629059   -0.636780    0.459249
     29          1           0        3.107986    1.846227    1.669827
     30          1           0        4.757554    1.704948    0.972315
     31          1           0        4.400929    1.052523    2.600125
     32          1           0        2.882484   -0.515541    1.577916
     33          1           0        0.627493   -1.871162   -0.080781
 ---------------------------------------------------------------------
 Rotational constants (GHZ):           1.2747152           0.1436222           0.1395238
 Leave Link  202 at Mon Sep 28 09:25:22 2020, MaxMem=   262144000 cpu:               0.1 elap:               0.0
 (Enter /prod/apps/gaussian/g16b1/l301.exe)
 Standard basis: Aug-CC-pVDZ (5D, 7F)
 Ernie: Thresh=  0.10000D-02 Tol=  0.10000D-05 Strict=F.
 Ernie:  44 primitive shells out of 583 were deleted.
 There are   589 symmetry adapted cartesian basis functions of A   symmetry.
 There are   553 symmetry adapted basis functions of A   symmetry.
   553 basis functions,   977 primitive gaussians,   589 cartesian basis functions
    70 alpha electrons       70 beta electrons
       nuclear repulsion energy      1475.9088835048 Hartrees.
 IExCor=    0 DFT=F Ex=HF Corr=None ExCW=0 ScaHFX=  1.000000
 ScaDFX=  1.000000  1.000000  1.000000  1.000000 ScalE2=  1.000000  1.000000
 IRadAn=      5 IRanWt=     -1 IRanGd=            0 ICorTp=0 IEmpDi=  4
 NAtoms=   33 NActive=   33 NUniq=   33 SFac= 1.00D+00 NAtFMM=   60 NAOKFM=F Big=F
 Integral buffers will be    131072 words long.
 Raffenetti 1 integral format.
 Two-electron integral symmetry is turned on.
 Leave Link  301 at Mon Sep 28 09:25:22 2020, MaxMem=   262144000 cpu:               0.2 elap:               0.1
 (Enter /prod/apps/gaussian/g16b1/l302.exe)
 NPDir=0 NMtPBC=     1 NCelOv=     1 NCel=       1 NClECP=     1 NCelD=      1
         NCelK=      1 NCelE2=     1 NClLst=     1 CellRange=     0.0.
 One-electron integrals computed using PRISM.
 One-electron integral symmetry used in STVInt
 NBasis=   553 RedAO= T EigKep=  1.61D-06  NBF=   553
 NBsUse=   553 1.00D-06 EigRej= -1.00D+00 NBFU=   553
 Leave Link  302 at Mon Sep 28 09:25:24 2020, MaxMem=   262144000 cpu:               4.3 elap:               1.3
 (Enter /prod/apps/gaussian/g16b1/l303.exe)
 DipDrv:  MaxL=1.
 Leave Link  303 at Mon Sep 28 09:25:24 2020, MaxMem=   262144000 cpu:               1.9 elap:               0.6
 (Enter /prod/apps/gaussian/g16b1/l401.exe)
 ExpMin= 2.97D-02 ExpMax= 1.11D+05 ExpMxC= 1.07D+03 IAcc=3 IRadAn=         5 AccDes= 0.00D+00
 Harris functional with IExCor=  205 and IRadAn=       5 diagonalized for initial guess.
 HarFok:  IExCor=  205 AccDes= 0.00D+00 IRadAn=         5 IDoV= 1 UseB2=F ITyADJ=14
 ICtDFT=  3500011 ScaDFX=  1.000000  1.000000  1.000000  1.000000
 FoFCou: FMM=F IPFlag=           0 FMFlag=      100000 FMFlg1=           0
         NFxFlg=           0 DoJE=T BraDBF=F KetDBF=T FulRan=T
         wScrn=  0.000000 ICntrl=       500 IOpCl=  0 I1Cent=   200000004 NGrid=           0
         NMat0=    1 NMatS0=      1 NMatT0=    0 NMatD0=    1 NMtDS0=    0 NMtDT0=    0
 Petite list used in FoFCou.
 Harris En= -1210.84738036080    
 JPrj=0 DoOrth=F DoCkMO=F.
 Leave Link  401 at Mon Sep 28 09:25:29 2020, MaxMem=   262144000 cpu:              16.4 elap:               4.5
 (Enter /prod/apps/gaussian/g16b1/l502.exe)
 Integral symmetry usage will be decided dynamically.
 Closed shell SCF:
 Using DIIS extrapolation, IDIIS=  1040.
 NGot=   262144000 LenX=   261441109 LenY=   261093599
 Requested convergence on RMS density matrix=1.00D-08 within2000 cycles.
 Requested convergence on MAX density matrix=1.00D-06.
 Requested convergence on             energy=1.00D-06.
 No special actions if energy rises.

 Cycle   1  Pass 1  IDiag  1:
 FoFJK:  IHMeth= 1 ICntrl=       0 DoSepK=F KAlg= 0 I1Cent=           0 FoldK=F
 IRaf= 890000000 NMat=       1 IRICut=       1 DoRegI=T DoRafI=F ISym2E= 0 IDoP0=0 IntGTp=1.
 FoFCou: FMM=F IPFlag=           0 FMFlag=      100000 FMFlg1=           0
         NFxFlg=           0 DoJE=F BraDBF=F KetDBF=F FulRan=T
         wScrn=  0.000000 ICntrl=         0 IOpCl=  0 I1Cent=           0 NGrid=           0
         NMat0=    1 NMatS0=      1 NMatT0=    0 NMatD0=    1 NMtDS0=    0 NMtDT0=    0
 Symmetry not used in FoFCou.
 E= -1209.31319337207    
 DIIS: error= 1.60D-02 at cycle   1 NSaved=   1.
 NSaved= 1 IEnMin= 1 EnMin= -1209.31319337207     IErMin= 1 ErrMin= 1.60D-02
 ErrMax= 1.60D-02  0.00D+00 EMaxC= 1.00D-01 BMatC= 1.08D+00 BMatP= 1.08D+00
 IDIUse=3 WtCom= 8.40D-01 WtEn= 1.60D-01
 Coeff-Com:  0.100D+01
 Coeff-En:   0.100D+01
 Coeff:      0.100D+01
 Gap=     0.712 Goal=   None    Shift=    0.000
 GapD=    0.712 DampG=2.000 DampE=0.500 DampFc=1.0000 IDamp=-1.
 RMSDP=6.09D-02 MaxDP=4.86D+00              OVMax= 2.84D-01

 Cycle   2  Pass 1  IDiag  1:
 E= -1209.81669854832     Delta-E=       -0.503505176245 Rises=F Damp=F
 DIIS: error= 1.31D-02 at cycle   2 NSaved=   2.
 NSaved= 2 IEnMin= 2 EnMin= -1209.81669854832     IErMin= 2 ErrMin= 1.31D-02
 ErrMax= 1.31D-02  0.00D+00 EMaxC= 1.00D-01 BMatC= 3.49D-01 BMatP= 1.08D+00
 IDIUse=3 WtCom= 8.69D-01 WtEn= 1.31D-01
 Coeff-Com:  0.329D+00 0.671D+00
 Coeff-En:   0.841D-01 0.916D+00
 Coeff:      0.297D+00 0.703D+00
 Gap=     0.429 Goal=   None    Shift=    0.000
 RMSDP=5.74D-03 MaxDP=3.14D-01 DE=-5.04D-01 OVMax= 1.41D-01

 Cycle   3  Pass 1  IDiag  1:
 E= -1210.08563065682     Delta-E=       -0.268932108496 Rises=F Damp=F
 DIIS: error= 4.92D-03 at cycle   3 NSaved=   3.
 NSaved= 3 IEnMin= 3 EnMin= -1210.08563065682     IErMin= 3 ErrMin= 4.92D-03
 ErrMax= 4.92D-03  0.00D+00 EMaxC= 1.00D-01 BMatC= 3.39D-02 BMatP= 3.49D-01
 IDIUse=3 WtCom= 9.51D-01 WtEn= 4.92D-02
 Coeff-Com: -0.136D-01 0.212D+00 0.801D+00
 Coeff-En:   0.000D+00 0.000D+00 0.100D+01
 Coeff:     -0.129D-01 0.202D+00 0.811D+00
 Gap=     0.338 Goal=   None    Shift=    0.000
 RMSDP=1.82D-03 MaxDP=1.05D-01 DE=-2.69D-01 OVMax= 2.92D-02

 Cycle   4  Pass 1  IDiag  1:
 E= -1210.11273075925     Delta-E=       -0.027100102433 Rises=F Damp=F
 DIIS: error= 6.56D-04 at cycle   4 NSaved=   4.
 NSaved= 4 IEnMin= 4 EnMin= -1210.11273075925     IErMin= 4 ErrMin= 6.56D-04
 ErrMax= 6.56D-04  0.00D+00 EMaxC= 1.00D-01 BMatC= 1.42D-03 BMatP= 3.39D-02
 IDIUse=3 WtCom= 9.93D-01 WtEn= 6.56D-03
 Coeff-Com: -0.173D-01 0.205D-01 0.203D+00 0.794D+00
 Coeff-En:   0.000D+00 0.000D+00 0.000D+00 0.100D+01
 Coeff:     -0.171D-01 0.203D-01 0.202D+00 0.795D+00
 Gap=     0.338 Goal=   None    Shift=    0.000
 RMSDP=5.63D-04 MaxDP=3.60D-02 DE=-2.71D-02 OVMax= 1.14D-02

 Cycle   5  Pass 1  IDiag  1:
 E= -1210.11453693681     Delta-E=       -0.001806177557 Rises=F Damp=F
 DIIS: error= 3.95D-04 at cycle   5 NSaved=   5.
 NSaved= 5 IEnMin= 5 EnMin= -1210.11453693681     IErMin= 5 ErrMin= 3.95D-04
 ErrMax= 3.95D-04  0.00D+00 EMaxC= 1.00D-01 BMatC= 1.80D-04 BMatP= 1.42D-03
 IDIUse=3 WtCom= 9.96D-01 WtEn= 3.95D-03
 Coeff-Com: -0.319D-03-0.181D-01-0.650D-01 0.854D-01 0.998D+00
 Coeff-En:   0.000D+00 0.000D+00 0.000D+00 0.000D+00 0.100D+01
 Coeff:     -0.318D-03-0.180D-01-0.647D-01 0.851D-01 0.998D+00
 Gap=     0.341 Goal=   None    Shift=    0.000
 RMSDP=2.38D-04 MaxDP=1.69D-02 DE=-1.81D-03 OVMax= 6.32D-03

 Cycle   6  Pass 1  IDiag  1:
 E= -1210.11495181737     Delta-E=       -0.000414880560 Rises=F Damp=F
 DIIS: error= 1.95D-04 at cycle   6 NSaved=   6.
 NSaved= 6 IEnMin= 6 EnMin= -1210.11495181737     IErMin= 6 ErrMin= 1.95D-04
 ErrMax= 1.95D-04  0.00D+00 EMaxC= 1.00D-01 BMatC= 3.04D-05 BMatP= 1.80D-04
 IDIUse=3 WtCom= 9.98D-01 WtEn= 1.95D-03
 Coeff-Com:  0.264D-02-0.604D-02-0.400D-01-0.105D+00 0.105D+00 0.104D+01
 Coeff-En:   0.000D+00 0.000D+00 0.000D+00 0.000D+00 0.000D+00 0.100D+01
 Coeff:      0.264D-02-0.603D-02-0.399D-01-0.104D+00 0.105D+00 0.104D+01
 Gap=     0.341 Goal=   None    Shift=    0.000
 RMSDP=1.44D-04 MaxDP=9.46D-03 DE=-4.15D-04 OVMax= 5.33D-03

 Cycle   7  Pass 1  IDiag  1:
 E= -1210.11506275676     Delta-E=       -0.000110939395 Rises=F Damp=F
 DIIS: error= 9.30D-05 at cycle   7 NSaved=   7.
 NSaved= 7 IEnMin= 7 EnMin= -1210.11506275676     IErMin= 7 ErrMin= 9.30D-05
 ErrMax= 9.30D-05  0.00D+00 EMaxC= 1.00D-01 BMatC= 7.25D-06 BMatP= 3.04D-05
 IDIUse=1 WtCom= 1.00D+00 WtEn= 0.00D+00
 Coeff-Com:  0.250D-03 0.247D-02 0.972D-02-0.214D-01-0.195D+00 0.111D+00
 Coeff-Com:  0.109D+01
 Coeff:      0.250D-03 0.247D-02 0.972D-02-0.214D-01-0.195D+00 0.111D+00
 Coeff:      0.109D+01
 Gap=     0.342 Goal=   None    Shift=    0.000
 RMSDP=7.69D-05 MaxDP=3.70D-03 DE=-1.11D-04 OVMax= 2.79D-03

 Cycle   8  Pass 1  IDiag  1:
 E= -1210.11509007379     Delta-E=       -0.000027317032 Rises=F Damp=F
 DIIS: error= 5.16D-05 at cycle   8 NSaved=   8.
 NSaved= 8 IEnMin= 8 EnMin= -1210.11509007379     IErMin= 8 ErrMin= 5.16D-05
 ErrMax= 5.16D-05  0.00D+00 EMaxC= 1.00D-01 BMatC= 1.25D-06 BMatP= 7.25D-06
 IDIUse=1 WtCom= 1.00D+00 WtEn= 0.00D+00
 Coeff-Com: -0.513D-03 0.166D-02 0.107D-01 0.201D-01-0.487D-01-0.184D+00
 Coeff-Com:  0.107D+00 0.109D+01
 Coeff:     -0.513D-03 0.166D-02 0.107D-01 0.201D-01-0.487D-01-0.184D+00
 Coeff:      0.107D+00 0.109D+01
 Gap=     0.342 Goal=   None    Shift=    0.000
 RMSDP=4.23D-05 MaxDP=2.15D-03 DE=-2.73D-05 OVMax= 1.62D-03

 Cycle   9  Pass 1  IDiag  1:
 E= -1210.11509558879     Delta-E=       -0.000005514994 Rises=F Damp=F
 DIIS: error= 2.47D-05 at cycle   9 NSaved=   9.
 NSaved= 9 IEnMin= 9 EnMin= -1210.11509558879     IErMin= 9 ErrMin= 2.47D-05
 ErrMax= 2.47D-05  0.00D+00 EMaxC= 1.00D-01 BMatC= 2.28D-07 BMatP= 1.25D-06
 IDIUse=1 WtCom= 1.00D+00 WtEn= 0.00D+00
 Coeff-Com: -0.128D-03-0.106D-03 0.590D-03 0.709D-02 0.186D-01-0.447D-01
 Coeff-Com: -0.149D+00 0.171D+00 0.997D+00
 Coeff:     -0.128D-03-0.106D-03 0.590D-03 0.709D-02 0.186D-01-0.447D-01
 Coeff:     -0.149D+00 0.171D+00 0.997D+00
 Gap=     0.342 Goal=   None    Shift=    0.000
 RMSDP=1.73D-05 MaxDP=8.01D-04 DE=-5.51D-06 OVMax= 7.28D-04

 Cycle  10  Pass 1  IDiag  1:
 E= -1210.11509664626     Delta-E=       -0.000001057469 Rises=F Damp=F
 DIIS: error= 1.34D-05 at cycle  10 NSaved=  10.
 NSaved=10 IEnMin=10 EnMin= -1210.11509664626     IErMin=10 ErrMin= 1.34D-05
 ErrMax= 1.34D-05  0.00D+00 EMaxC= 1.00D-01 BMatC= 5.46D-08 BMatP= 2.28D-07
 IDIUse=1 WtCom= 1.00D+00 WtEn= 0.00D+00
 Coeff-Com:  0.129D-03-0.385D-03-0.238D-02-0.546D-02 0.559D-02 0.511D-01
 Coeff-Com:  0.437D-03-0.308D+00-0.103D+00 0.136D+01
 Coeff:      0.129D-03-0.385D-03-0.238D-02-0.546D-02 0.559D-02 0.511D-01
 Coeff:      0.437D-03-0.308D+00-0.103D+00 0.136D+01
 Gap=     0.342 Goal=   None    Shift=    0.000
 RMSDP=1.25D-05 MaxDP=5.73D-04 DE=-1.06D-06 OVMax= 5.21D-04

 Cycle  11  Pass 1  IDiag  1:
 E= -1210.11509697011     Delta-E=       -0.000000323854 Rises=F Damp=F
 DIIS: error= 3.54D-06 at cycle  11 NSaved=  11.
 NSaved=11 IEnMin=11 EnMin= -1210.11509697011     IErMin=11 ErrMin= 3.54D-06
 ErrMax= 3.54D-06  0.00D+00 EMaxC= 1.00D-01 BMatC= 7.50D-09 BMatP= 5.46D-08
 IDIUse=1 WtCom= 1.00D+00 WtEn= 0.00D+00
 Coeff-Com:  0.360D-04-0.405D-04-0.337D-03-0.154D-02-0.228D-02 0.127D-01
 Coeff-Com:  0.267D-01-0.634D-01-0.164D+00 0.130D+00 0.106D+01
 Coeff:      0.360D-04-0.405D-04-0.337D-03-0.154D-02-0.228D-02 0.127D-01
 Coeff:      0.267D-01-0.634D-01-0.164D+00 0.130D+00 0.106D+01
 Gap=     0.342 Goal=   None    Shift=    0.000
 RMSDP=3.79D-06 MaxDP=1.67D-04 DE=-3.24D-07 OVMax= 1.39D-04

 Cycle  12  Pass 1  IDiag  1:
 E= -1210.11509700401     Delta-E=       -0.000000033903 Rises=F Damp=F
 DIIS: error= 2.00D-06 at cycle  12 NSaved=  12.
 NSaved=12 IEnMin=12 EnMin= -1210.11509700401     IErMin=12 ErrMin= 2.00D-06
 ErrMax= 2.00D-06  0.00D+00 EMaxC= 1.00D-01 BMatC= 1.11D-09 BMatP= 7.50D-09
 IDIUse=1 WtCom= 1.00D+00 WtEn= 0.00D+00
 Coeff-Com: -0.153D-04 0.529D-04 0.337D-03 0.733D-03-0.137D-02-0.775D-02
 Coeff-Com:  0.357D-02 0.431D-01 0.142D-02-0.210D+00 0.105D+00 0.106D+01
 Coeff:     -0.153D-04 0.529D-04 0.337D-03 0.733D-03-0.137D-02-0.775D-02
 Coeff:      0.357D-02 0.431D-01 0.142D-02-0.210D+00 0.105D+00 0.106D+01
 Gap=     0.342 Goal=   None    Shift=    0.000
 RMSDP=1.62D-06 MaxDP=9.50D-05 DE=-3.39D-08 OVMax= 5.81D-05

 Cycle  13  Pass 1  IDiag  1:
 E= -1210.11509700855     Delta-E=       -0.000000004533 Rises=F Damp=F
 DIIS: error= 4.27D-07 at cycle  13 NSaved=  13.
 NSaved=13 IEnMin=13 EnMin= -1210.11509700855     IErMin=13 ErrMin= 4.27D-07
 ErrMax= 4.27D-07  0.00D+00 EMaxC= 1.00D-01 BMatC= 2.01D-10 BMatP= 1.11D-09
 IDIUse=1 WtCom= 1.00D+00 WtEn= 0.00D+00
 Coeff-Com: -0.782D-05 0.157D-04 0.110D-03 0.389D-03 0.160D-03-0.338D-02
 Coeff-Com: -0.280D-02 0.163D-01 0.234D-01-0.540D-01-0.150D+00 0.213D+00
 Coeff-Com:  0.957D+00
 Coeff:     -0.782D-05 0.157D-04 0.110D-03 0.389D-03 0.160D-03-0.338D-02
 Coeff:     -0.280D-02 0.163D-01 0.234D-01-0.540D-01-0.150D+00 0.213D+00
 Coeff:      0.957D+00
 Gap=     0.342 Goal=   None    Shift=    0.000
 RMSDP=4.47D-07 MaxDP=1.92D-05 DE=-4.53D-09 OVMax= 1.14D-05

 Cycle  14  Pass 1  IDiag  1:
 E= -1210.11509700909     Delta-E=       -0.000000000547 Rises=F Damp=F
 DIIS: error= 1.46D-07 at cycle  14 NSaved=  14.
 NSaved=14 IEnMin=14 EnMin= -1210.11509700909     IErMin=14 ErrMin= 1.46D-07
 ErrMax= 1.46D-07  0.00D+00 EMaxC= 1.00D-01 BMatC= 2.05D-11 BMatP= 2.01D-10
 IDIUse=1 WtCom= 1.00D+00 WtEn= 0.00D+00
 Coeff-Com:  0.220D-05-0.800D-05-0.514D-04-0.114D-03 0.233D-03 0.112D-02
 Coeff-Com: -0.337D-03-0.714D-02 0.397D-03 0.353D-01-0.321D-01-0.155D+00
 Coeff-Com:  0.501D-01 0.111D+01
 Coeff:      0.220D-05-0.800D-05-0.514D-04-0.114D-03 0.233D-03 0.112D-02
 Coeff:     -0.337D-03-0.714D-02 0.397D-03 0.353D-01-0.321D-01-0.155D+00
 Coeff:      0.501D-01 0.111D+01
 Gap=     0.342 Goal=   None    Shift=    0.000
 RMSDP=1.42D-07 MaxDP=6.41D-06 DE=-5.47D-10 OVMax= 4.27D-06

 Cycle  15  Pass 1  IDiag  1:
 E= -1210.11509700917     Delta-E=       -0.000000000080 Rises=F Damp=F
 DIIS: error= 2.96D-08 at cycle  15 NSaved=  15.
 NSaved=15 IEnMin=15 EnMin= -1210.11509700917     IErMin=15 ErrMin= 2.96D-08
 ErrMax= 2.96D-08  0.00D+00 EMaxC= 1.00D-01 BMatC= 1.95D-12 BMatP= 2.05D-11
 IDIUse=1 WtCom= 1.00D+00 WtEn= 0.00D+00
 Coeff-Com:  0.111D-05-0.295D-05-0.197D-04-0.590D-04 0.301D-04 0.489D-03
 Coeff-Com:  0.231D-03-0.292D-02-0.202D-02 0.122D-01 0.728D-02-0.469D-01
 Coeff-Com: -0.772D-01 0.191D+00 0.918D+00
 Coeff:      0.111D-05-0.295D-05-0.197D-04-0.590D-04 0.301D-04 0.489D-03
 Coeff:      0.231D-03-0.292D-02-0.202D-02 0.122D-01 0.728D-02-0.469D-01
 Coeff:     -0.772D-01 0.191D+00 0.918D+00
 Gap=     0.342 Goal=   None    Shift=    0.000
 RMSDP=2.53D-08 MaxDP=1.23D-06 DE=-7.96D-11 OVMax= 7.18D-07

 Cycle  16  Pass 1  IDiag  1:
 E= -1210.11509700917     Delta-E=        0.000000000001 Rises=F Damp=F
 DIIS: error= 1.01D-08 at cycle  16 NSaved=  16.
 NSaved=16 IEnMin=15 EnMin= -1210.11509700917     IErMin=16 ErrMin= 1.01D-08
 ErrMax= 1.01D-08  0.00D+00 EMaxC= 1.00D-01 BMatC= 2.34D-13 BMatP= 1.95D-12
 IDIUse=1 WtCom= 1.00D+00 WtEn= 0.00D+00
 Coeff-Com: -0.126D-06 0.638D-06 0.361D-05 0.565D-05-0.218D-04-0.812D-04
 Coeff-Com:  0.101D-03 0.451D-03-0.386D-03-0.265D-02 0.476D-02 0.121D-01
 Coeff-Com: -0.151D-01-0.107D+00 0.149D+00 0.959D+00
 Coeff:     -0.126D-06 0.638D-06 0.361D-05 0.565D-05-0.218D-04-0.812D-04
 Coeff:      0.101D-03 0.451D-03-0.386D-03-0.265D-02 0.476D-02 0.121D-01
 Coeff:     -0.151D-01-0.107D+00 0.149D+00 0.959D+00
 Gap=     0.342 Goal=   None    Shift=    0.000
 RMSDP=1.03D-08 MaxDP=6.78D-07 DE= 1.36D-12 OVMax= 2.98D-07

 Cycle  17  Pass 1  IDiag  1:
 E= -1210.11509700915     Delta-E=        0.000000000023 Rises=F Damp=F
 DIIS: error= 6.45D-09 at cycle  17 NSaved=  17.
 NSaved=17 IEnMin=15 EnMin= -1210.11509700917     IErMin=17 ErrMin= 6.45D-09
 ErrMax= 6.45D-09  0.00D+00 EMaxC= 1.00D-01 BMatC= 2.70D-14 BMatP= 2.34D-13
 IDIUse=1 WtCom= 1.00D+00 WtEn= 0.00D+00
 Coeff-Com: -0.761D-07 0.223D-06 0.125D-05 0.449D-05 0.137D-05-0.389D-04
 Coeff-Com: -0.207D-04 0.216D-03 0.195D-03-0.797D-03-0.967D-03 0.272D-02
 Coeff-Com:  0.877D-02-0.102D-01-0.101D+00-0.962D-01 0.120D+01
 Coeff:     -0.761D-07 0.223D-06 0.125D-05 0.449D-05 0.137D-05-0.389D-04
 Coeff:     -0.207D-04 0.216D-03 0.195D-03-0.797D-03-0.967D-03 0.272D-02
 Coeff:      0.877D-02-0.102D-01-0.101D+00-0.962D-01 0.120D+01
 Gap=     0.342 Goal=   None    Shift=    0.000
 RMSDP=4.03D-09 MaxDP=2.58D-07 DE= 2.27D-11 OVMax= 1.92D-07

 SCF Done:  E(RHF) =  -1210.11509701     A.U. after   17 cycles
            NFock= 17  Conv=0.40D-08     -V/T= 2.0012
 KE= 1.208715446604D+03 PE=-5.757750103426D+03 EE= 1.863010676309D+03
 Leave Link  502 at Mon Sep 28 09:36:56 2020, MaxMem=   262144000 cpu:            2740.4 elap:             686.9
 (Enter /prod/apps/gaussian/g16b1/l801.exe)
 ExpMin= 2.97D-02 ExpMax= 1.11D+05 ExpMxC= 1.07D+03 IAcc=3 IRadAn=         5 AccDes= 0.00D+00
 HarFok:  IExCor=  205 AccDes= 0.00D+00 IRadAn=         5 IDoV=-2 UseB2=F ITyADJ=14
 ICtDFT= 12500011 ScaDFX=  1.000000  1.000000  1.000000  1.000000
 GSVD:  LWork=        -660 too small for GESVD, short by        2750 words or        2750 for optimal perf.
 Largest valence mixing into a core orbital is  3.49D-04
 Largest core mixing into a valence orbital is  8.89D-05
 Range of M.O.s used for correlation:    23   553
 NBasis=   553 NAE=    70 NBE=    70 NFC=    22 NFV=     0
 NROrb=    531 NOA=    48 NOB=    48 NVA=   483 NVB=   483

 **** Warning!!: The largest alpha MO coefficient is  0.11232958D+03

 Leave Link  801 at Mon Sep 28 09:36:56 2020, MaxMem=   262144000 cpu:               0.9 elap:               0.2
 (Enter /prod/apps/gaussian/g16b1/l906.exe)
 FulOut=F Deriv=F AODrv=F NAtomX=    33
   MMem=           4  MDisk=          48 MDiskD=          48
  W3Min=    13655376 MinDsk=    14196995 NBas6D=         589
 NBas2D=      174550    NTT=      173755    LW2=     2000000
    MDV=   260084661 MDiskM=        6085 NBas2p=      148477
 Disk-based method using OVN memory for 48 occupieds at a time.
 Estimated scratch disk usage= 10586255440 words.
 IMap=   1   2   3   4   5   6   7   8   9  10  11  12  13  14  15  16  17  18  19  20
 IMap=  21  22  23  24  25  26  27  28  29  30  31  32  33  34  35  36  37  38  39  40
 IMap=  41  42  43  44  45  46  47  48
 Actual    scratch disk usage= 10353877584 words.
 JobTyp=1 Pass  1:  I=   1 to  48 NPSUse=  4 ParTrn=T ParDer=T DoDerP=F.
