 Entering Gaussian System, Link 0=g16
 Initial command:
 /prod/apps/gaussian/g16b1/l1.exe "/tmp/ubafar01/1460600/Gau-151392.inp" -scrdir="/tmp/ubafar01/1460600/"
 Entering Link 1 = /prod/apps/gaussian/g16b1/l1.exe PID=    151393.
  
 Copyright (c) 1988-2017, Gaussian, Inc.  All Rights Reserved.
  
 This is part of the Gaussian(R) 16 program.  It is based on
 the Gaussian(R) 09 system (copyright 2009, Gaussian, Inc.),
 the Gaussian(R) 03 system (copyright 2003, Gaussian, Inc.),
 the Gaussian(R) 98 system (copyright 1998, Gaussian, Inc.),
 the Gaussian(R) 94 system (copyright 1995, Gaussian, Inc.),
 the Gaussian 92(TM) system (copyright 1992, Gaussian, Inc.),
 the Gaussian 90(TM) system (copyright 1990, Gaussian, Inc.),
 the Gaussian 88(TM) system (copyright 1988, Gaussian, Inc.),
 the Gaussian 86(TM) system (copyright 1986, Carnegie Mellon
 University), and the Gaussian 82(TM) system (copyright 1983,
 Carnegie Mellon University). Gaussian is a federally registered
 trademark of Gaussian, Inc.
  
 This software contains proprietary and confidential information,
 including trade secrets, belonging to Gaussian, Inc.
  
 This software is provided under written license and may be
 used, copied, transmitted, or stored only in accord with that
 written license.
  
 The following legend is applicable only to US Government
 contracts under FAR:
  
                    RESTRICTED RIGHTS LEGEND
  
 Use, reproduction and disclosure by the US Government is
 subject to restrictions as set forth in subparagraphs (a)
 and (c) of the Commercial Computer Software - Restricted
 Rights clause in FAR 52.227-19.
  
 Gaussian, Inc.
 340 Quinnipiac St., Bldg. 40, Wallingford CT 06492
  
  
 ---------------------------------------------------------------
 Warning -- This program may not be used in any manner that
 competes with the business of Gaussian, Inc. or will provide
 assistance to any competitor of Gaussian, Inc.  The licensee
 of this program is prohibited from giving any competitor of
 Gaussian, Inc. access to this program.  By using this program,
 the user acknowledges that Gaussian, Inc. is engaged in the
 business of creating and licensing software in the field of
 computational chemistry and represents and warrants to the
 licensee that it is not a competitor of Gaussian, Inc. and that
 it will not use this program in any manner prohibited above.
 ---------------------------------------------------------------
  

 Cite this work as:
 Gaussian 16, Revision B.01,
 M. J. Frisch, G. W. Trucks, H. B. Schlegel, G. E. Scuseria, 
 M. A. Robb, J. R. Cheeseman, G. Scalmani, V. Barone, 
 G. A. Petersson, H. Nakatsuji, X. Li, M. Caricato, A. V. Marenich, 
 J. Bloino, B. G. Janesko, R. Gomperts, B. Mennucci, H. P. Hratchian, 
 J. V. Ortiz, A. F. Izmaylov, J. L. Sonnenberg, D. Williams-Young, 
 F. Ding, F. Lipparini, F. Egidi, J. Goings, B. Peng, A. Petrone, 
 T. Henderson, D. Ranasinghe, V. G. Zakrzewski, J. Gao, N. Rega, 
 G. Zheng, W. Liang, M. Hada, M. Ehara, K. Toyota, R. Fukuda, 
 J. Hasegawa, M. Ishida, T. Nakajima, Y. Honda, O. Kitao, H. Nakai, 
 T. Vreven, K. Throssell, J. A. Montgomery, Jr., J. E. Peralta, 
 F. Ogliaro, M. J. Bearpark, J. J. Heyd, E. N. Brothers, K. N. Kudin, 
 V. N. Staroverov, T. A. Keith, R. Kobayashi, J. Normand, 
 K. Raghavachari, A. P. Rendell, J. C. Burant, S. S. Iyengar, 
 J. Tomasi, M. Cossi, J. M. Millam, M. Klene, C. Adamo, R. Cammi, 
 J. W. Ochterski, R. L. Martin, K. Morokuma, O. Farkas, 
 J. B. Foresman, and D. J. Fox, Gaussian, Inc., Wallingford CT, 2016.
 
 ******************************************
 Gaussian 16:  ES64L-G16RevB.01 20-Dec-2017
                23-Sep-2020 
 ******************************************
 %nproc=4
 Will use up to    4 processors via shared memory.
 %Chk=SM43_m0.n.9.pdb.xyz.mst.n.w.chk
 %mem=16GB
 ----------------------------------------------------------------------
 #p b3lyp/6-31G(d) opt freq NoSymm scf=(MaxCycle=2000,NoVarAcc,NoIncFoc
 k) scrf=(iefpcm,read,solvent=water)
 ----------------------------------------------------------------------
 1/18=20,19=15,26=3,38=1,40=2/1,3;
 2/9=110,12=2,15=1,17=6,18=5,40=1/2;
 3/5=1,6=6,7=1,11=2,25=1,30=1,70=2203,71=1,72=1,74=-5/1,2,3;
 4//1;
 5/5=100002,7=2000,38=1,53=1/2;
 6/7=2,8=2,9=2,10=2,28=1/1;
 7/30=1/1,2,3,16;
 1/18=20,19=15,26=3/3(2);
 2/9=110,15=1/2;
 99//99;
 2/9=110,15=1/2;
 3/5=1,6=6,7=1,11=2,25=1,30=1,70=2205,71=1,72=1,74=-5/1,2,3;
 4/5=5,16=3,69=1/1;
 5/5=100002,7=2000,38=1,53=1/2;
 7/30=1/1,2,3,16;
 1/18=20,19=15,26=3/3(-5);
 2/9=110,15=1/2;
 6/7=2,8=2,9=2,10=2,19=2,28=1/1;
 99/9=1/99;
 Leave Link    1 at Wed Sep 23 01:25:20 2020, MaxMem=  2147483648 cpu:               0.1 elap:               0.0
 (Enter /prod/apps/gaussian/g16b1/l101.exe)
 -------------------
 SM43_m0.n.9.pdb.xyz
 -------------------
 Symbolic Z-matrix:
 Charge =  0 Multiplicity = 1
 O                    -2.867     0.103    -1.803 
 S                    -3.065    -0.504    -0.485 
 N                    -1.627    -1.073     0.18 
 C                    -0.395    -0.433     0.052 
 N                    -0.288     0.865    -0.165 
 O                     1.097     1.102    -0.191 
 C                     1.765    -0.057     0.019 
 C                     3.224     0.        0.031 
 C                     3.893     1.215    -0.188 
 C                     5.285     1.259    -0.173 
 C                     6.023     0.095     0.057 
 C                     5.361    -1.116     0.274 
 C                     3.971    -1.166     0.262 
 C                     0.867    -1.075     0.179 
 N                    -3.405     0.736     0.576 
 C                    -4.276     1.8       0.048 
 C                    -3.728     0.308     1.946 
 O                    -3.967    -1.656    -0.363 
 H                    -1.594    -2.091     0.177 
 H                     3.319     2.116    -0.366 
 H                     5.793     2.202    -0.343 
 H                     7.106     0.132     0.067 
 H                     5.929    -2.023     0.454 
 H                     3.462    -2.109     0.433 
 H                     1.055    -2.121     0.356 
 H                    -3.924     2.101    -0.937 
 H                    -4.194     2.646     0.731 
 H                    -5.326     1.491    -0.011 
 H                    -2.992    -0.424     2.277 
 H                    -4.736    -0.117     2.021 
 H                    -3.661     1.19      2.585 
 
 ITRead=  0  0  0  0  0  0  0  0  0  0  0  0  0  0  0  0  0  0  0  0
 ITRead=  0  0  0  0  0  0  0  0  0  0  0
 MicOpt= -1 -1 -1 -1 -1 -1 -1 -1 -1 -1 -1 -1 -1 -1 -1 -1 -1 -1 -1 -1
 MicOpt= -1 -1 -1 -1 -1 -1 -1 -1 -1 -1 -1
 NAtoms=     31 NQM=       31 NQMF=       0 NMMI=      0 NMMIF=      0
                NMic=       0 NMicF=      0.
                    Isotopes and Nuclear Properties:
 (Nuclear quadrupole moments (NQMom) in fm**2, nuclear magnetic moments (NMagM)
  in nuclear magnetons)

  Atom         1           2           3           4           5           6           7           8           9          10
 IAtWgt=          16          32          14          12          14          16          12          12          12          12
 AtmWgt=  15.9949146  31.9720718  14.0030740  12.0000000  14.0030740  15.9949146  12.0000000  12.0000000  12.0000000  12.0000000
 NucSpn=           0           0           2           0           2           0           0           0           0           0
 AtZEff=  -0.0000000  -0.0000000  -0.0000000  -0.0000000  -0.0000000  -0.0000000  -0.0000000  -0.0000000  -0.0000000  -0.0000000
 NQMom=    0.0000000   0.0000000   2.0440000   0.0000000   2.0440000   0.0000000   0.0000000   0.0000000   0.0000000   0.0000000
 NMagM=    0.0000000   0.0000000   0.4037610   0.0000000   0.4037610   0.0000000   0.0000000   0.0000000   0.0000000   0.0000000
 AtZNuc=   8.0000000  16.0000000   7.0000000   6.0000000   7.0000000   8.0000000   6.0000000   6.0000000   6.0000000   6.0000000

  Atom        11          12          13          14          15          16          17          18          19          20
 IAtWgt=          12          12          12          12          14          12          12          16           1           1
 AtmWgt=  12.0000000  12.0000000  12.0000000  12.0000000  14.0030740  12.0000000  12.0000000  15.9949146   1.0078250   1.0078250
 NucSpn=           0           0           0           0           2           0           0           0           1           1
 AtZEff=  -0.0000000  -0.0000000  -0.0000000  -0.0000000  -0.0000000  -0.0000000  -0.0000000  -0.0000000  -0.0000000  -0.0000000
 NQMom=    0.0000000   0.0000000   0.0000000   0.0000000   2.0440000   0.0000000   0.0000000   0.0000000   0.0000000   0.0000000
 NMagM=    0.0000000   0.0000000   0.0000000   0.0000000   0.4037610   0.0000000   0.0000000   0.0000000   2.7928460   2.7928460
 AtZNuc=   6.0000000   6.0000000   6.0000000   6.0000000   7.0000000   6.0000000   6.0000000   8.0000000   1.0000000   1.0000000

  Atom        21          22          23          24          25          26          27          28          29          30
 IAtWgt=           1           1           1           1           1           1           1           1           1           1
 AtmWgt=   1.0078250   1.0078250   1.0078250   1.0078250   1.0078250   1.0078250   1.0078250   1.0078250   1.0078250   1.0078250
 NucSpn=           1           1           1           1           1           1           1           1           1           1
 AtZEff=  -0.0000000  -0.0000000  -0.0000000  -0.0000000  -0.0000000  -0.0000000  -0.0000000  -0.0000000  -0.0000000  -0.0000000
 NQMom=    0.0000000   0.0000000   0.0000000   0.0000000   0.0000000   0.0000000   0.0000000   0.0000000   0.0000000   0.0000000
 NMagM=    2.7928460   2.7928460   2.7928460   2.7928460   2.7928460   2.7928460   2.7928460   2.7928460   2.7928460   2.7928460
 AtZNuc=   1.0000000   1.0000000   1.0000000   1.0000000   1.0000000   1.0000000   1.0000000   1.0000000   1.0000000   1.0000000

  Atom        31
 IAtWgt=           1
 AtmWgt=   1.0078250
 NucSpn=           1
 AtZEff=  -0.0000000
 NQMom=    0.0000000
 NMagM=    2.7928460
 AtZNuc=   1.0000000
 Leave Link  101 at Wed Sep 23 01:25:21 2020, MaxMem=  2147483648 cpu:               1.4 elap:               0.4
 (Enter /prod/apps/gaussian/g16b1/l103.exe)

 GradGradGradGradGradGradGradGradGradGradGradGradGradGradGradGradGradGrad
 Berny optimization.
 Initialization pass.
                           ----------------------------
                           !    Initial Parameters    !
                           ! (Angstroms and Degrees)  !
 --------------------------                            --------------------------
 ! Name  Definition              Value          Derivative Info.                !
 --------------------------------------------------------------------------------
 ! R1    R(1,2)                  1.4645         estimate D2E/DX2                !
 ! R2    R(2,3)                  1.6834         estimate D2E/DX2                !
 ! R3    R(2,15)                 1.667          estimate D2E/DX2                !
 ! R4    R(2,18)                 1.4682         estimate D2E/DX2                !
 ! R5    R(3,4)                  1.3942         estimate D2E/DX2                !
 ! R6    R(3,19)                 1.0185         estimate D2E/DX2                !
 ! R7    R(4,5)                  1.3204         estimate D2E/DX2                !
 ! R8    R(4,14)                 1.4216         estimate D2E/DX2                !
 ! R9    R(5,6)                  1.4054         estimate D2E/DX2                !
 ! R10   R(6,7)                  1.3541         estimate D2E/DX2                !
 ! R11   R(7,8)                  1.4602         estimate D2E/DX2                !
 ! R12   R(7,14)                 1.3669         estimate D2E/DX2                !
 ! R13   R(8,9)                  1.4042         estimate D2E/DX2                !
 ! R14   R(8,13)                 1.4039         estimate D2E/DX2                !
 ! R15   R(9,10)                 1.3928         estimate D2E/DX2                !
 ! R16   R(9,20)                 1.083          estimate D2E/DX2                !
 ! R17   R(10,11)                1.3973         estimate D2E/DX2                !
 ! R18   R(10,21)                1.0845         estimate D2E/DX2                !
 ! R19   R(11,12)                1.3971         estimate D2E/DX2                !
 ! R20   R(11,22)                1.0837         estimate D2E/DX2                !
 ! R21   R(12,13)                1.391          estimate D2E/DX2                !
 ! R22   R(12,23)                1.0852         estimate D2E/DX2                !
 ! R23   R(13,24)                1.0852         estimate D2E/DX2                !
 ! R24   R(14,25)                1.0774         estimate D2E/DX2                !
 ! R25   R(15,16)                1.4729         estimate D2E/DX2                !
 ! R26   R(15,17)                1.4712         estimate D2E/DX2                !
 ! R27   R(16,26)                1.0885         estimate D2E/DX2                !
 ! R28   R(16,27)                1.0904         estimate D2E/DX2                !
 ! R29   R(16,28)                1.0961         estimate D2E/DX2                !
 ! R30   R(17,29)                1.0895         estimate D2E/DX2                !
 ! R31   R(17,30)                1.0965         estimate D2E/DX2                !
 ! R32   R(17,31)                1.0912         estimate D2E/DX2                !
 ! A1    A(1,2,3)              112.3412         estimate D2E/DX2                !
 ! A2    A(1,2,15)             106.9818         estimate D2E/DX2                !
 ! A3    A(1,2,18)             118.8852         estimate D2E/DX2                !
 ! A4    A(3,2,15)             100.0335         estimate D2E/DX2                !
 ! A5    A(3,2,18)             103.1066         estimate D2E/DX2                !
 ! A6    A(15,2,18)            113.9199         estimate D2E/DX2                !
 ! A7    A(2,3,4)              124.2923         estimate D2E/DX2                !
 ! A8    A(2,3,19)             111.367          estimate D2E/DX2                !
 ! A9    A(4,3,19)             115.4612         estimate D2E/DX2                !
 ! A10   A(3,4,5)              122.5455         estimate D2E/DX2                !
 ! A11   A(3,4,14)             124.6767         estimate D2E/DX2                !
 ! A12   A(5,4,14)             112.7493         estimate D2E/DX2                !
 ! A13   A(4,5,6)              104.3999         estimate D2E/DX2                !
 ! A14   A(5,6,7)              109.8131         estimate D2E/DX2                !
 ! A15   A(6,7,8)              117.4377         estimate D2E/DX2                !
 ! A16   A(6,7,14)             109.3608         estimate D2E/DX2                !
 ! A17   A(8,7,14)             133.2014         estimate D2E/DX2                !
 ! A18   A(7,8,9)              120.5672         estimate D2E/DX2                !
 ! A19   A(7,8,13)             120.0395         estimate D2E/DX2                !
 ! A20   A(9,8,13)             119.3933         estimate D2E/DX2                !
 ! A21   A(8,9,10)             120.1206         estimate D2E/DX2                !
 ! A22   A(8,9,20)             119.5356         estimate D2E/DX2                !
 ! A23   A(10,9,20)            120.3437         estimate D2E/DX2                !
 ! A24   A(9,10,11)            120.2202         estimate D2E/DX2                !
 ! A25   A(9,10,21)            119.5988         estimate D2E/DX2                !
 ! A26   A(11,10,21)           120.1809         estimate D2E/DX2                !
 ! A27   A(10,11,12)           119.8268         estimate D2E/DX2                !
 ! A28   A(10,11,22)           120.0601         estimate D2E/DX2                !
 ! A29   A(12,11,22)           120.1131         estimate D2E/DX2                !
 ! A30   A(11,12,13)           120.2211         estimate D2E/DX2                !
 ! A31   A(11,12,23)           120.1466         estimate D2E/DX2                !
 ! A32   A(13,12,23)           119.6323         estimate D2E/DX2                !
 ! A33   A(8,13,12)            120.218          estimate D2E/DX2                !
 ! A34   A(8,13,24)            119.8737         estimate D2E/DX2                !
 ! A35   A(12,13,24)           119.9083         estimate D2E/DX2                !
 ! A36   A(4,14,7)             103.6755         estimate D2E/DX2                !
 ! A37   A(4,14,25)            127.4468         estimate D2E/DX2                !
 ! A38   A(7,14,25)            128.8773         estimate D2E/DX2                !
 ! A39   A(2,15,16)            115.454          estimate D2E/DX2                !
 ! A40   A(2,15,17)            114.9021         estimate D2E/DX2                !
 ! A41   A(16,15,17)           114.4649         estimate D2E/DX2                !
 ! A42   A(15,16,26)           109.4465         estimate D2E/DX2                !
 ! A43   A(15,16,27)           106.9453         estimate D2E/DX2                !
 ! A44   A(15,16,28)           112.4649         estimate D2E/DX2                !
 ! A45   A(26,16,27)           109.1457         estimate D2E/DX2                !
 ! A46   A(26,16,28)           109.8182         estimate D2E/DX2                !
 ! A47   A(27,16,28)           108.934          estimate D2E/DX2                !
 ! A48   A(15,17,29)           109.2717         estimate D2E/DX2                !
 ! A49   A(15,17,30)           112.2274         estimate D2E/DX2                !
 ! A50   A(15,17,31)           107.2587         estimate D2E/DX2                !
 ! A51   A(29,17,30)           109.8654         estimate D2E/DX2                !
 ! A52   A(29,17,31)           108.8845         estimate D2E/DX2                !
 ! A53   A(30,17,31)           109.2491         estimate D2E/DX2                !
 ! D1    D(1,2,3,4)             37.4664         estimate D2E/DX2                !
 ! D2    D(1,2,3,19)          -108.1788         estimate D2E/DX2                !
 ! D3    D(15,2,3,4)           -75.6991         estimate D2E/DX2                !
 ! D4    D(15,2,3,19)          138.6558         estimate D2E/DX2                !
 ! D5    D(18,2,3,4)           166.6577         estimate D2E/DX2                !
 ! D6    D(18,2,3,19)           21.0126         estimate D2E/DX2                !
 ! D7    D(1,2,15,16)           39.3698         estimate D2E/DX2                !
 ! D8    D(1,2,15,17)          175.9752         estimate D2E/DX2                !
 ! D9    D(3,2,15,16)          156.6057         estimate D2E/DX2                !
 ! D10   D(3,2,15,17)          -66.7889         estimate D2E/DX2                !
 ! D11   D(18,2,15,16)         -94.1012         estimate D2E/DX2                !
 ! D12   D(18,2,15,17)          42.5042         estimate D2E/DX2                !
 ! D13   D(2,3,4,5)             25.02           estimate D2E/DX2                !
 ! D14   D(2,3,4,14)          -157.0636         estimate D2E/DX2                !
 ! D15   D(19,3,4,5)           169.4244         estimate D2E/DX2                !
 ! D16   D(19,3,4,14)          -12.6592         estimate D2E/DX2                !
 ! D17   D(3,4,5,6)            178.4244         estimate D2E/DX2                !
 ! D18   D(14,4,5,6)             0.2824         estimate D2E/DX2                !
 ! D19   D(3,4,14,7)          -178.1801         estimate D2E/DX2                !
 ! D20   D(3,4,14,25)            2.0348         estimate D2E/DX2                !
 ! D21   D(5,4,14,7)            -0.0846         estimate D2E/DX2                !
 ! D22   D(5,4,14,25)         -179.8697         estimate D2E/DX2                !
 ! D23   D(4,5,6,7)             -0.3824         estimate D2E/DX2                !
 ! D24   D(5,6,7,8)           -179.751          estimate D2E/DX2                !
 ! D25   D(5,6,7,14)             0.3466         estimate D2E/DX2                !
 ! D26   D(6,7,8,9)             -0.9034         estimate D2E/DX2                !
 ! D27   D(6,7,8,13)           179.1355         estimate D2E/DX2                !
 ! D28   D(14,7,8,9)           178.9702         estimate D2E/DX2                !
 ! D29   D(14,7,8,13)           -0.9909         estimate D2E/DX2                !
 ! D30   D(6,7,14,4)            -0.1641         estimate D2E/DX2                !
 ! D31   D(6,7,14,25)          179.6168         estimate D2E/DX2                !
 ! D32   D(8,7,14,4)           179.9548         estimate D2E/DX2                !
 ! D33   D(8,7,14,25)           -0.2643         estimate D2E/DX2                !
 ! D34   D(7,8,9,10)           179.9257         estimate D2E/DX2                !
 ! D35   D(7,8,9,20)             0.0656         estimate D2E/DX2                !
 ! D36   D(13,8,9,10)           -0.113          estimate D2E/DX2                !
 ! D37   D(13,8,9,20)         -179.973          estimate D2E/DX2                !
 ! D38   D(7,8,13,12)          179.9887         estimate D2E/DX2                !
 ! D39   D(7,8,13,24)           -0.0907         estimate D2E/DX2                !
 ! D40   D(9,8,13,12)            0.0271         estimate D2E/DX2                !
 ! D41   D(9,8,13,24)          179.9477         estimate D2E/DX2                !
 ! D42   D(8,9,10,11)            0.1364         estimate D2E/DX2                !
 ! D43   D(8,9,10,21)         -179.9904         estimate D2E/DX2                !
 ! D44   D(20,9,10,11)         179.9953         estimate D2E/DX2                !
 ! D45   D(20,9,10,21)          -0.1315         estimate D2E/DX2                !
 ! D46   D(9,10,11,12)          -0.0731         estimate D2E/DX2                !
 ! D47   D(9,10,11,22)         179.9308         estimate D2E/DX2                !
 ! D48   D(21,10,11,12)       -179.9456         estimate D2E/DX2                !
 ! D49   D(21,10,11,22)          0.0583         estimate D2E/DX2                !
 ! D50   D(10,11,12,13)         -0.0132         estimate D2E/DX2                !
 ! D51   D(10,11,12,23)       -179.9465         estimate D2E/DX2                !
 ! D52   D(22,11,12,13)        179.983          estimate D2E/DX2                !
 ! D53   D(22,11,12,23)          0.0497         estimate D2E/DX2                !
 ! D54   D(11,12,13,8)           0.0357         estimate D2E/DX2                !
 ! D55   D(11,12,13,24)       -179.8849         estimate D2E/DX2                !
 ! D56   D(23,12,13,8)         179.9694         estimate D2E/DX2                !
 ! D57   D(23,12,13,24)          0.0488         estimate D2E/DX2                !
 ! D58   D(2,15,16,26)         -47.124          estimate D2E/DX2                !
 ! D59   D(2,15,16,27)        -165.2346         estimate D2E/DX2                !
 ! D60   D(2,15,16,28)          75.2243         estimate D2E/DX2                !
 ! D61   D(17,15,16,26)        176.0812         estimate D2E/DX2                !
 ! D62   D(17,15,16,27)         57.9707         estimate D2E/DX2                !
 ! D63   D(17,15,16,28)        -61.5704         estimate D2E/DX2                !
 ! D64   D(2,15,17,29)          47.0718         estimate D2E/DX2                !
 ! D65   D(2,15,17,30)         -75.0527         estimate D2E/DX2                !
 ! D66   D(2,15,17,31)         164.9546         estimate D2E/DX2                !
 ! D67   D(16,15,17,29)       -175.8908         estimate D2E/DX2                !
 ! D68   D(16,15,17,30)         61.9847         estimate D2E/DX2                !
 ! D69   D(16,15,17,31)        -58.008          estimate D2E/DX2                !
 --------------------------------------------------------------------------------
 Trust Radius=3.00D-01 FncErr=1.00D-07 GrdErr=1.00D-06 EigMax=2.50D+02 EigMin=1.00D-04
 Number of steps in this run=    164 maximum allowed number of steps=    186.
 GradGradGradGradGradGradGradGradGradGradGradGradGradGradGradGradGradGrad

 Leave Link  103 at Wed Sep 23 01:25:21 2020, MaxMem=  2147483648 cpu:               0.1 elap:               0.0
 (Enter /prod/apps/gaussian/g16b1/l202.exe)
                          Input orientation:                          
 ---------------------------------------------------------------------
 Center     Atomic      Atomic             Coordinates (Angstroms)
 Number     Number       Type             X           Y           Z
 ---------------------------------------------------------------------
      1          8           0       -2.867000    0.103000   -1.803000
      2         16           0       -3.065000   -0.504000   -0.485000
      3          7           0       -1.627000   -1.073000    0.180000
      4          6           0       -0.395000   -0.433000    0.052000
      5          7           0       -0.288000    0.865000   -0.165000
      6          8           0        1.097000    1.102000   -0.191000
      7          6           0        1.765000   -0.057000    0.019000
      8          6           0        3.224000    0.000000    0.031000
      9          6           0        3.893000    1.215000   -0.188000
     10          6           0        5.285000    1.259000   -0.173000
     11          6           0        6.023000    0.095000    0.057000
     12          6           0        5.361000   -1.116000    0.274000
     13          6           0        3.971000   -1.166000    0.262000
     14          6           0        0.867000   -1.075000    0.179000
     15          7           0       -3.405000    0.736000    0.576000
     16          6           0       -4.276000    1.800000    0.048000
     17          6           0       -3.728000    0.308000    1.946000
     18          8           0       -3.967000   -1.656000   -0.363000
     19          1           0       -1.594000   -2.091000    0.177000
     20          1           0        3.319000    2.116000   -0.366000
     21          1           0        5.793000    2.202000   -0.343000
     22          1           0        7.106000    0.132000    0.067000
     23          1           0        5.929000   -2.023000    0.454000
     24          1           0        3.462000   -2.109000    0.433000
     25          1           0        1.055000   -2.121000    0.356000
     26          1           0       -3.924000    2.101000   -0.937000
     27          1           0       -4.194000    2.646000    0.731000
     28          1           0       -5.326000    1.491000   -0.011000
     29          1           0       -2.992000   -0.424000    2.277000
     30          1           0       -4.736000   -0.117000    2.021000
     31          1           0       -3.661000    1.190000    2.585000
 ---------------------------------------------------------------------
                    Distance matrix (angstroms):
                    1          2          3          4          5
     1  O    0.000000
     2  S    1.464506   0.000000
     3  N    2.617798   1.683398   0.000000
     4  C    3.136735   2.724392   1.394205   0.000000
     5  N    3.148798   3.112602   2.380712   1.320357   0.000000
     6  O    4.394296   4.470785   3.505487   2.154376   1.405372
     7  C    4.980031   4.876754   3.544551   2.192730   2.258041
     8  C    6.361953   6.330229   4.970486   3.644872   3.622262
     9  C    7.038634   7.173349   5.986716   4.600049   4.195687
    10  C    8.393351   8.539790   7.303326   5.930926   5.586916
    11  C    9.082498   9.123832   7.739629   6.439684   6.361675
    12  C    8.573207   8.482223   6.988764   5.800630   6.002356
    13  C    7.254849   7.106444   5.599373   4.432081   4.737760
    14  C    4.388481   4.028345   2.494001   1.421597   2.283848
    15  N    2.519876   1.667010   2.567213   3.271275   3.206464
    16  C    2.879460   2.656883   3.910084   4.477551   4.101675
    17  C    3.852058   2.647390   3.072478   3.904511   4.074331
    18  O    2.525407   1.468193   2.471910   3.798307   4.464268
    19  H    3.217851   2.262886   1.018539   2.049924   3.249698
    20  H    6.662112   6.901740   5.910224   4.523928   3.823068
    21  H    9.029563   9.263194   8.127457   6.737254   6.228789
    22  H   10.146845  10.205804   8.816467   7.522264   7.433865
    23  H    9.326497   9.169576   7.620414   6.533198   6.882935
    24  H    7.067452   6.783839   5.199541   4.222628   4.823358
    25  H    4.998954   4.505149   2.884858   2.245943   3.315311
    26  H    2.420580   2.779966   4.074086   4.455684   3.917164
    27  H    3.827393   3.560309   4.552368   4.936971   4.385386
    28  H    3.344322   3.052347   4.504795   5.293440   5.079078
    29  H    4.115793   2.764122   2.584925   3.419812   3.864777
    30  H    4.261987   3.036782   3.737526   4.777143   5.052487
    31  H    4.589831   3.556649   3.878447   4.440380   4.364087
                    6          7          8          9         10
     6  O    0.000000
     7  C    1.354107   0.000000
     8  C    2.405788   1.460162   0.000000
     9  C    2.798284   2.487814   1.404189   0.000000
    10  C    4.190980   3.762861   2.423720   1.392776   0.000000
    11  C    5.033987   4.260882   2.800732   2.418951   1.397297
    12  C    4.828814   3.757356   2.423071   2.793211   2.417894
    13  C    3.689025   2.481001   1.403897   2.424406   2.792212
    14  C    2.220164   1.366868   2.594798   3.812540   5.009010
    15  N    4.581512   5.260038   6.691962   7.353499   8.737885
    16  C    5.423417   6.320045   7.712995   8.193319   9.578844
    17  C    5.336462   5.832633   7.217506   7.965943   9.307456
    18  O    5.768903   5.963099   7.389726   8.369759   9.702207
    19  H    4.191915   3.930013   5.254210   6.416388   7.659350
    20  H    2.448695   2.699087   2.155015   1.083033   2.153336
    21  H    4.825507   4.632376   3.404180   2.146670   1.084534
    22  H    6.092253   5.344559   3.884410   3.400189   2.154941
    23  H    5.790499   4.625287   3.404186   3.878415   3.402850
    24  H    4.036474   2.694793   2.160122   3.408868   3.877369
    25  H    3.269358   2.208566   3.051037   4.413511   5.440325
    26  H    5.173486   6.159190   7.512997   7.902625   9.278919
    27  H    5.588265   6.582008   7.906835   8.263891   9.622496
    28  H    6.437286   7.258063   8.679133   9.224829  10.614772
    29  H    5.013943   5.278475   6.622911   7.494383   8.794528
    30  H    6.356319   6.802544   8.205814   9.006306  10.350239
    31  H    5.509309   6.130321   7.439237   8.046929   9.361743
                   11         12         13         14         15
    11  C    0.000000
    12  C    1.397088   0.000000
    13  C    2.417199   1.390951   0.000000
    14  C    5.288489   4.495191   3.106443   0.000000
    15  N    9.464007   8.964589   7.623751   4.656964   0.000000
    16  C   10.439181  10.071043   8.766753   5.893491   1.472929
    17  C    9.934570   9.350577   8.017676   5.113610   1.471194
    18  O   10.150985   9.365306   7.977629   4.898865   2.630443
    19  H    7.925382   7.023678   5.641992   2.662476   3.380954
    20  H    3.402203   3.876234   3.404558   4.061011   6.928488
    21  H    2.156930   3.402416   3.876743   5.939418   9.359323
    22  H    1.083678   2.155314   3.398684   6.355668  10.540637
    23  H    2.156935   1.085206   2.145944   5.157342   9.733988
    24  H    3.399664   2.148844   1.085159   2.804942   7.434391
    25  H    5.448035   4.422486   3.069840   1.077399   5.301174
    26  H   10.195827   9.900850   8.627973   5.855434   2.102797
    27  H   10.552202  10.279082   9.023222   6.305891   2.072353
    28  H   11.434738  11.004074   9.673075   6.706244   2.145888
    29  H    9.298816   8.617626   7.286574   4.440415   2.099898
    30  H   10.938845  10.295602   8.944626   5.975311   2.141774
    31  H   10.068250   9.594521   8.318322   5.605519   2.075508
                   16         17         18         19         20
    16  C    0.000000
    17  C    2.475636   0.000000
    18  O    3.494043   3.040707   0.000000
    19  H    4.727541   3.665858   2.472237   0.000000
    20  H    7.612836   7.633768   8.204498   6.490860   0.000000
    21  H   10.084604   9.973776  10.494864   8.559674   2.475601
    22  H   11.503587  10.997144  11.224668   8.980191   4.297105
    23  H   10.905145  10.045759   9.936448   7.528405   4.961433
    24  H    8.677854   7.734802   7.485243   5.062509   4.302264
    25  H    6.624852   5.595108   5.094474   2.655210   4.857896
    26  H    1.088453   3.400728   3.800839   4.923694   7.265488
    27  H    1.090380   2.675748   4.444724   5.431950   7.611142
    28  H    1.096112   2.789792   3.445924   5.176282   8.674830
    29  H    3.400481   1.089532   3.072141   3.023788   7.298340
    30  H    2.789125   1.096501   2.939955   4.143570   8.692933
    31  H    2.680801   1.091208   4.109021   4.564637   7.634545
                   21         22         23         24         25
    21  H    0.000000
    22  H    2.485351   0.000000
    23  H    4.301666   2.485784   0.000000
    24  H    4.961901   4.293573   2.468588   0.000000
    25  H    6.451788   6.463291   4.875970   2.408261   0.000000
    26  H    9.735663  11.249261  10.771438   8.611271   6.654891
    27  H   10.054391  11.595305  11.151297   9.017381   7.100487
    28  H   11.146654  12.506302  11.799977   9.507159   7.341553
    29  H    9.536063  10.351949   9.244694   6.920526   4.790434
    30  H   11.037486  12.004711  10.946714   8.584696   6.350112
    31  H    9.948640  11.108014  10.335987   8.139511   6.178335
                   26         27         28         29         30
    26  H    0.000000
    27  H    1.775429   0.000000
    28  H    1.787507   1.779329   0.000000
    29  H    4.192141   3.641404   3.788103   0.000000
    30  H    3.785318   3.097101   2.657591   1.789224   0.000000
    31  H    3.647406   2.416887   3.098716   1.774097   1.783808
                   31
    31  H    0.000000
 Symmetry turned off by external request.
 Stoichiometry    C11H13N3O3S
 Framework group  C1[X(C11H13N3O3S)]
 Deg. of freedom    87
 Full point group                 C1      NOp   1
 Rotational constants (GHZ):           1.2442704           0.1514262           0.1454093
 Leave Link  202 at Wed Sep 23 01:25:21 2020, MaxMem=  2147483648 cpu:               0.0 elap:               0.0
 (Enter /prod/apps/gaussian/g16b1/l301.exe)
 Standard basis: 6-31G(d) (6D, 7F)
 Ernie: Thresh=  0.10000D-02 Tol=  0.10000D-05 Strict=F.
   300 basis functions,   580 primitive gaussians,   300 cartesian basis functions
    70 alpha electrons       70 beta electrons
       nuclear repulsion energy      1444.0084512298 Hartrees.
 IExCor=  402 DFT=T Ex+Corr=B3LYP ExCW=0 ScaHFX=  0.200000
 ScaDFX=  0.800000  0.720000  1.000000  0.810000 ScalE2=  1.000000  1.000000
 IRadAn=      5 IRanWt=     -1 IRanGd=            0 ICorTp=0 IEmpDi=  4
 NAtoms=   31 NActive=   31 NUniq=   31 SFac= 1.00D+00 NAtFMM=   60 NAOKFM=F Big=F
 Integral buffers will be    131072 words long.
 Raffenetti 2 integral format.
 Two-electron integral symmetry is turned off.
 Using the following non-standard input for PCM:
 MSTModel=DFT cav
 --- end of non-standard input.
 MST model for solvation energy: B3LYP parametrization.
 MST cavity parameters:
 ISph   IAn     Re0     Alpha   Atom Type   QCorr
 ------------------------------------------------
   1      8     1.40     1.25      O          F
   2     16     1.75     1.25      S          F
   3      7     1.50     1.25      NH         F
   4      6     1.50     1.25      C          F
   5      7     1.40     1.25      N          F
   6      8     1.40     1.25      O          F
   7      6     1.50     1.25      C          F
   8      6     1.50     1.25      C          F
   9      6     1.50     1.25      CH         F
  10      6     1.50     1.25      CH         F
  11      6     1.50     1.25      CH         F
  12      6     1.50     1.25      CH         F
  13      6     1.50     1.25      CH         F
  14      6     1.50     1.25      CH         F
  15      7     1.40     1.25      N          F
  16      6     1.50     1.25      CH3        F
  17      6     1.50     1.25      CH3        F
  18      8     1.40     1.25      O          F
  19      1     0.90     1.25      NH         F
  20      1     1.20     1.25      CH         F
  21      1     1.20     1.25      CH         F
  22      1     1.20     1.25      CH         F
  23      1     1.20     1.25      CH         F
  24      1     1.20     1.25      CH         F
  25      1     1.20     1.25      CH         F
  26      1     1.20     1.25      CH3        F
  27      1     1.20     1.25      CH3        F
  28      1     1.20     1.25      CH3        F
  29      1     1.20     1.25      CH3        F
  30      1     1.20     1.25      CH3        F
  31      1     1.20     1.25      CH3        F
 ------------------------------------------------------------------------------
 Polarizable Continuum Model (PCM)
 =================================
 Model                : PCM.
 Atomic radii         : MST.
 Polarization charges : Total charges.
 Charge compensation  : None.
 Solution method      : On-the-fly selection.
 Cavity type          : Scaled VdW (van der Waals Surface) (Alpha=1.250).
 Cavity algorithm     : GePol (No added spheres)
                        Default sphere list used, NSphG=   31.
                        Lebedev-Laikov grids with approx.  5.0 points / Ang**2.
                        Smoothing algorithm: York/Karplus (Gamma=1.0000).
                        Polarization charges: spherical gaussians, with
                                              point-specific exponents (IZeta= 3).
                        Self-potential: point-specific (ISelfS= 7).
                        Self-field    : sphere-specific E.n sum rule (ISelfD= 2).
 1st derivatives      : Analytical E(r).r(x)/FMM algorithm (CHGder, D1EAlg=3).
                        Cavity 1st derivative terms included.
 Solvent              : Water, Eps=  78.355300 Eps(inf)=   1.777849
 ------------------------------------------------------------------------------
 GePol: Number of generator spheres                  =      31
 GePol: Total number of spheres                      =      31
 GePol: Number of exposed spheres                    =      31 (100.00%)
 GePol: Number of points                             =    2390
 GePol: Average weight of points                     =       0.13
 GePol: Minimum weight of points                     =   0.25D-09
 GePol: Maximum weight of points                     =    0.22001
 GePol: Number of points with low weight             =     146
 GePol: Fraction of low-weight points (<1% of avg)   =       6.11%
 GePol: Cavity surface area                          =    311.758 Ang**2
 GePol: Cavity volume                                =    293.519 Ang**3
 PCM non-electrostatic energy =         0.0033267372 Hartrees.
 Nuclear repulsion after PCM non-electrostatic terms =     1444.0117779669 Hartrees.
 Leave Link  301 at Wed Sep 23 01:25:21 2020, MaxMem=  2147483648 cpu:               0.3 elap:               0.1
 (Enter /prod/apps/gaussian/g16b1/l302.exe)
 NPDir=0 NMtPBC=     1 NCelOv=     1 NCel=       1 NClECP=     1 NCelD=      1
         NCelK=      1 NCelE2=     1 NClLst=     1 CellRange=     0.0.
 One-electron integrals computed using PRISM.
 NBasis=   300 RedAO= T EigKep=  4.58D-04  NBF=   300
 NBsUse=   300 1.00D-06 EigRej= -1.00D+00 NBFU=   300
 Precomputing XC quadrature grid using
 IXCGrd= 4 IRadAn=           5 IRanWt=          -1 IRanGd=           0 AccXCQ= 0.00D+00.
 Generated NRdTot=       0 NPtTot=           0 NUsed=           0 NTot=          32
 NSgBfM=   297   296   296   296   297 MxSgAt=    31 MxSgA2=    31.
 Leave Link  302 at Wed Sep 23 01:25:21 2020, MaxMem=  2147483648 cpu:               1.4 elap:               0.4
 (Enter /prod/apps/gaussian/g16b1/l303.exe)
 DipDrv:  MaxL=1.
 Leave Link  303 at Wed Sep 23 01:25:21 2020, MaxMem=  2147483648 cpu:               0.1 elap:               0.1
 (Enter /prod/apps/gaussian/g16b1/l401.exe)
 ExpMin= 1.17D-01 ExpMax= 2.19D+04 ExpMxC= 3.30D+03 IAcc=3 IRadAn=         5 AccDes= 0.00D+00
 Harris functional with IExCor=  402 and IRadAn=       5 diagonalized for initial guess.
 HarFok:  IExCor=  402 AccDes= 0.00D+00 IRadAn=         5 IDoV= 1 UseB2=F ITyADJ=14
 ICtDFT=  3500011 ScaDFX=  1.000000  1.000000  1.000000  1.000000
 FoFCou: FMM=F IPFlag=           0 FMFlag=      100000 FMFlg1=           0
         NFxFlg=           0 DoJE=T BraDBF=F KetDBF=T FulRan=T
         wScrn=  0.000000 ICntrl=       500 IOpCl=  0 I1Cent=   200000004 NGrid=           0
         NMat0=    1 NMatS0=      1 NMatT0=    0 NMatD0=    1 NMtDS0=    0 NMtDT0=    0
 Symmetry not used in FoFCou.
 Harris En= -1215.01355914140    
 JPrj=0 DoOrth=F DoCkMO=F.
 Leave Link  401 at Wed Sep 23 01:25:23 2020, MaxMem=  2147483648 cpu:               7.7 elap:               1.9
 (Enter /prod/apps/gaussian/g16b1/l502.exe)
 Keep R1 ints in memory in canonical form, NReq=1032920423.
 FoFCou: FMM=F IPFlag=           0 FMFlag=           0 FMFlg1=           0
         NFxFlg=           0 DoJE=F BraDBF=F KetDBF=F FulRan=T
         wScrn=  0.000000 ICntrl=       600 IOpCl=  0 I1Cent=           0 NGrid=           0
         NMat0=    1 NMatS0=  45150 NMatT0=    0 NMatD0=    1 NMtDS0=    0 NMtDT0=    0
 Symmetry not used in FoFCou.
 Two-electron integral symmetry not used.
 Closed shell SCF:
 Using DIIS extrapolation, IDIIS=  1040.
 NGot=  2147483648 LenX=  1128015396 LenY=  1127924955
 Requested convergence on RMS density matrix=1.00D-08 within2000 cycles.
 Requested convergence on MAX density matrix=1.00D-06.
 Requested convergence on             energy=1.00D-06.
 No special actions if energy rises.

 Cycle   1  Pass 1  IDiag  1:
 Inv3:  Mode=1 IEnd=    17136300.
 Iteration    1 A*A^-1 deviation from unit magnitude is 3.11D-15 for   1983.
 Iteration    1 A*A^-1 deviation from orthogonality  is 2.29D-15 for   1814    376.
 Iteration    1 A^-1*A deviation from unit magnitude is 3.66D-15 for    567.
 Iteration    1 A^-1*A deviation from orthogonality  is 5.03D-13 for   2085   2066.
 E= -1214.47329180960    
 DIIS: error= 3.72D-02 at cycle   1 NSaved=   1.
 NSaved= 1 IEnMin= 1 EnMin= -1214.47329180960     IErMin= 1 ErrMin= 3.72D-02
 ErrMax= 3.72D-02  0.00D+00 EMaxC= 1.00D-01 BMatC= 6.17D-01 BMatP= 6.17D-01
 IDIUse=3 WtCom= 6.28D-01 WtEn= 3.72D-01
 Coeff-Com:  0.100D+01
 Coeff-En:   0.100D+01
 Coeff:      0.100D+01
 Gap=     0.268 Goal=   None    Shift=    0.000
 GapD=    0.268 DampG=1.000 DampE=0.500 DampFc=0.5000 IDamp=-1.
 Damping current iteration by 5.00D-01
 RMSDP=6.19D-03 MaxDP=5.89D-01              OVMax= 1.92D-01

 Cycle   2  Pass 1  IDiag  1:
 E= -1214.62715869196     Delta-E=       -0.153866882363 Rises=F Damp=T
 DIIS: error= 1.19D-02 at cycle   2 NSaved=   2.
 NSaved= 2 IEnMin= 2 EnMin= -1214.62715869196     IErMin= 2 ErrMin= 1.19D-02
 ErrMax= 1.19D-02  0.00D+00 EMaxC= 1.00D-01 BMatC= 8.37D-02 BMatP= 6.17D-01
 IDIUse=3 WtCom= 8.81D-01 WtEn= 1.19D-01
 Coeff-Com:  0.207D+00 0.793D+00
 Coeff-En:   0.332D+00 0.668D+00
 Coeff:      0.222D+00 0.778D+00
 Gap=     0.197 Goal=   None    Shift=    0.000
 RMSDP=1.77D-03 MaxDP=1.34D-01 DE=-1.54D-01 OVMax= 1.63D-01

 Cycle   3  Pass 1  IDiag  1:
 E= -1214.96910476933     Delta-E=       -0.341946077368 Rises=F Damp=F
 DIIS: error= 7.93D-03 at cycle   3 NSaved=   3.
 NSaved= 3 IEnMin= 3 EnMin= -1214.96910476933     IErMin= 3 ErrMin= 7.93D-03
 ErrMax= 7.93D-03  0.00D+00 EMaxC= 1.00D-01 BMatC= 4.55D-02 BMatP= 8.37D-02
 IDIUse=3 WtCom= 9.21D-01 WtEn= 7.93D-02
 Coeff-Com:  0.558D-01 0.424D+00 0.520D+00
 Coeff-En:   0.000D+00 0.000D+00 0.100D+01
 Coeff:      0.514D-01 0.390D+00 0.558D+00
 Gap=     0.184 Goal=   None    Shift=    0.000
 RMSDP=9.15D-04 MaxDP=3.37D-02 DE=-3.42D-01 OVMax= 4.62D-02

 Cycle   4  Pass 1  IDiag  1:
 E= -1215.00188323028     Delta-E=       -0.032778460944 Rises=F Damp=F
 DIIS: error= 2.85D-03 at cycle   4 NSaved=   4.
 NSaved= 4 IEnMin= 4 EnMin= -1215.00188323028     IErMin= 4 ErrMin= 2.85D-03
 ErrMax= 2.85D-03  0.00D+00 EMaxC= 1.00D-01 BMatC= 6.91D-03 BMatP= 4.55D-02
 IDIUse=3 WtCom= 9.71D-01 WtEn= 2.85D-02
 Coeff-Com:  0.123D-02 0.104D+00 0.303D+00 0.593D+00
 Coeff-En:   0.000D+00 0.000D+00 0.114D+00 0.886D+00
 Coeff:      0.119D-02 0.101D+00 0.297D+00 0.601D+00
 Gap=     0.184 Goal=   None    Shift=    0.000
 RMSDP=3.14D-04 MaxDP=1.42D-02 DE=-3.28D-02 OVMax= 2.07D-02

 Cycle   5  Pass 1  IDiag  1:
 E= -1215.00712586130     Delta-E=       -0.005242631026 Rises=F Damp=F
 DIIS: error= 8.93D-04 at cycle   5 NSaved=   5.
 NSaved= 5 IEnMin= 5 EnMin= -1215.00712586130     IErMin= 5 ErrMin= 8.93D-04
 ErrMax= 8.93D-04  0.00D+00 EMaxC= 1.00D-01 BMatC= 6.94D-04 BMatP= 6.91D-03
 IDIUse=3 WtCom= 9.91D-01 WtEn= 8.93D-03
 Coeff-Com: -0.443D-02 0.224D-01 0.114D+00 0.330D+00 0.537D+00
 Coeff-En:   0.000D+00 0.000D+00 0.000D+00 0.279D-01 0.972D+00
 Coeff:     -0.439D-02 0.222D-01 0.113D+00 0.328D+00 0.541D+00
 Gap=     0.184 Goal=   None    Shift=    0.000
 RMSDP=1.04D-04 MaxDP=4.48D-03 DE=-5.24D-03 OVMax= 7.20D-03

 Cycle   6  Pass 1  IDiag  1:
 E= -1215.00767558231     Delta-E=       -0.000549721009 Rises=F Damp=F
 DIIS: error= 4.11D-04 at cycle   6 NSaved=   6.
 NSaved= 6 IEnMin= 6 EnMin= -1215.00767558231     IErMin= 6 ErrMin= 4.11D-04
 ErrMax= 4.11D-04  0.00D+00 EMaxC= 1.00D-01 BMatC= 6.47D-05 BMatP= 6.94D-04
 IDIUse=3 WtCom= 9.96D-01 WtEn= 4.11D-03
 Coeff-Com: -0.263D-02 0.590D-02 0.412D-01 0.138D+00 0.310D+00 0.508D+00
 Coeff-En:   0.000D+00 0.000D+00 0.000D+00 0.000D+00 0.710D-02 0.993D+00
 Coeff:     -0.262D-02 0.587D-02 0.410D-01 0.138D+00 0.308D+00 0.510D+00
 Gap=     0.184 Goal=   None    Shift=    0.000
 RMSDP=2.93D-05 MaxDP=1.76D-03 DE=-5.50D-04 OVMax= 2.38D-03

 Cycle   7  Pass 1  IDiag  1:
 E= -1215.00772769082     Delta-E=       -0.000052108514 Rises=F Damp=F
 DIIS: error= 1.32D-04 at cycle   7 NSaved=   7.
 NSaved= 7 IEnMin= 7 EnMin= -1215.00772769082     IErMin= 7 ErrMin= 1.32D-04
 ErrMax= 1.32D-04  0.00D+00 EMaxC= 1.00D-01 BMatC= 6.59D-06 BMatP= 6.47D-05
 IDIUse=3 WtCom= 9.99D-01 WtEn= 1.32D-03
 Coeff-Com: -0.121D-02 0.100D-02 0.122D-01 0.470D-01 0.126D+00 0.303D+00
 Coeff-Com:  0.512D+00
 Coeff-En:   0.000D+00 0.000D+00 0.000D+00 0.000D+00 0.000D+00 0.320D-01
 Coeff-En:   0.968D+00
 Coeff:     -0.121D-02 0.100D-02 0.122D-01 0.469D-01 0.126D+00 0.303D+00
 Coeff:      0.512D+00
 Gap=     0.184 Goal=   None    Shift=    0.000
 RMSDP=8.24D-06 MaxDP=4.91D-04 DE=-5.21D-05 OVMax= 5.33D-04

 Cycle   8  Pass 1  IDiag  1:
 E= -1215.00773295007     Delta-E=       -0.000005259250 Rises=F Damp=F
 DIIS: error= 2.39D-05 at cycle   8 NSaved=   8.
 NSaved= 8 IEnMin= 8 EnMin= -1215.00773295007     IErMin= 8 ErrMin= 2.39D-05
 ErrMax= 2.39D-05  0.00D+00 EMaxC= 1.00D-01 BMatC= 3.40D-07 BMatP= 6.59D-06
 IDIUse=1 WtCom= 1.00D+00 WtEn= 0.00D+00
 Coeff-Com: -0.340D-03-0.285D-04 0.174D-02 0.867D-02 0.310D-01 0.103D+00
 Coeff-Com:  0.243D+00 0.613D+00
 Coeff:     -0.340D-03-0.285D-04 0.174D-02 0.867D-02 0.310D-01 0.103D+00
 Coeff:      0.243D+00 0.613D+00
 Gap=     0.184 Goal=   None    Shift=    0.000
 RMSDP=2.14D-06 MaxDP=1.11D-04 DE=-5.26D-06 OVMax= 1.10D-04

 Cycle   9  Pass 1  IDiag  1:
 E= -1215.00773320535     Delta-E=       -0.000000255277 Rises=F Damp=F
 DIIS: error= 7.22D-06 at cycle   9 NSaved=   9.
 NSaved= 9 IEnMin= 9 EnMin= -1215.00773320535     IErMin= 9 ErrMin= 7.22D-06
 ErrMax= 7.22D-06  0.00D+00 EMaxC= 1.00D-01 BMatC= 3.80D-08 BMatP= 3.40D-07
 IDIUse=1 WtCom= 1.00D+00 WtEn= 0.00D+00
 Coeff-Com: -0.361D-04-0.958D-04-0.484D-03-0.106D-02 0.831D-03 0.160D-01
 Coeff-Com:  0.526D-01 0.297D+00 0.636D+00
 Coeff:     -0.361D-04-0.958D-04-0.484D-03-0.106D-02 0.831D-03 0.160D-01
 Coeff:      0.526D-01 0.297D+00 0.636D+00
 Gap=     0.184 Goal=   None    Shift=    0.000
 RMSDP=6.87D-07 MaxDP=2.12D-05 DE=-2.55D-07 OVMax= 4.17D-05

 Cycle  10  Pass 1  IDiag  1:
 E= -1215.00773323408     Delta-E=       -0.000000028731 Rises=F Damp=F
 DIIS: error= 3.74D-06 at cycle  10 NSaved=  10.
 NSaved=10 IEnMin=10 EnMin= -1215.00773323408     IErMin=10 ErrMin= 3.74D-06
 ErrMax= 3.74D-06  0.00D+00 EMaxC= 1.00D-01 BMatC= 3.59D-09 BMatP= 3.80D-08
 IDIUse=1 WtCom= 1.00D+00 WtEn= 0.00D+00
 Coeff-Com: -0.455D-05-0.473D-04-0.360D-03-0.105D-02-0.126D-02 0.325D-02
 Coeff-Com:  0.142D-01 0.130D+00 0.343D+00 0.512D+00
 Coeff:     -0.455D-05-0.473D-04-0.360D-03-0.105D-02-0.126D-02 0.325D-02
 Coeff:      0.142D-01 0.130D+00 0.343D+00 0.512D+00
 Gap=     0.184 Goal=   None    Shift=    0.000
 RMSDP=2.24D-07 MaxDP=1.01D-05 DE=-2.87D-08 OVMax= 1.61D-05

 Cycle  11  Pass 1  IDiag  1:
 E= -1215.00773323723     Delta-E=       -0.000000003144 Rises=F Damp=F
 DIIS: error= 6.51D-07 at cycle  11 NSaved=  11.
 NSaved=11 IEnMin=11 EnMin= -1215.00773323723     IErMin=11 ErrMin= 6.51D-07
 ErrMax= 6.51D-07  0.00D+00 EMaxC= 1.00D-01 BMatC= 1.99D-10 BMatP= 3.59D-09
 IDIUse=1 WtCom= 1.00D+00 WtEn= 0.00D+00
 Coeff-Com:  0.181D-05-0.330D-05-0.960D-04-0.319D-03-0.719D-03-0.736D-03
 Coeff-Com: -0.160D-02 0.170D-01 0.571D-01 0.205D+00 0.724D+00
 Coeff:      0.181D-05-0.330D-05-0.960D-04-0.319D-03-0.719D-03-0.736D-03
 Coeff:     -0.160D-02 0.170D-01 0.571D-01 0.205D+00 0.724D+00
 Gap=     0.184 Goal=   None    Shift=    0.000
 RMSDP=5.44D-08 MaxDP=2.35D-06 DE=-3.14D-09 OVMax= 5.36D-06

 Cycle  12  Pass 1  IDiag  1:
 E= -1215.00773323738     Delta-E=       -0.000000000150 Rises=F Damp=F
 DIIS: error= 2.56D-07 at cycle  12 NSaved=  12.
 NSaved=12 IEnMin=12 EnMin= -1215.00773323738     IErMin=12 ErrMin= 2.56D-07
 ErrMax= 2.56D-07  0.00D+00 EMaxC= 1.00D-01 BMatC= 3.16D-11 BMatP= 1.99D-10
 IDIUse=1 WtCom= 1.00D+00 WtEn= 0.00D+00
 Coeff-Com:  0.116D-05 0.124D-05-0.329D-04-0.113D-03-0.331D-03-0.593D-03
 Coeff-Com: -0.183D-02 0.155D-02 0.987D-02 0.786D-01 0.391D+00 0.522D+00
 Coeff:      0.116D-05 0.124D-05-0.329D-04-0.113D-03-0.331D-03-0.593D-03
 Coeff:     -0.183D-02 0.155D-02 0.987D-02 0.786D-01 0.391D+00 0.522D+00
 Gap=     0.184 Goal=   None    Shift=    0.000
 RMSDP=2.13D-08 MaxDP=1.10D-06 DE=-1.50D-10 OVMax= 1.38D-06

 Cycle  13  Pass 1  IDiag  1:
 E= -1215.00773323742     Delta-E=       -0.000000000043 Rises=F Damp=F
 DIIS: error= 7.25D-08 at cycle  13 NSaved=  13.
 NSaved=13 IEnMin=13 EnMin= -1215.00773323742     IErMin=13 ErrMin= 7.25D-08
 ErrMax= 7.25D-08  0.00D+00 EMaxC= 1.00D-01 BMatC= 4.04D-12 BMatP= 3.16D-11
 IDIUse=1 WtCom= 1.00D+00 WtEn= 0.00D+00
 Coeff-Com:  0.256D-06 0.115D-05-0.270D-05-0.938D-05-0.666D-04-0.194D-03
 Coeff-Com: -0.763D-03-0.191D-02-0.438D-02 0.806D-02 0.900D-01 0.291D+00
 Coeff-Com:  0.618D+00
 Coeff:      0.256D-06 0.115D-05-0.270D-05-0.938D-05-0.666D-04-0.194D-03
 Coeff:     -0.763D-03-0.191D-02-0.438D-02 0.806D-02 0.900D-01 0.291D+00
 Coeff:      0.618D+00
 Gap=     0.184 Goal=   None    Shift=    0.000
 RMSDP=7.70D-09 MaxDP=3.29D-07 DE=-4.32D-11 OVMax= 6.11D-07

 Error on total polarization charges =  0.02020
 SCF Done:  E(RB3LYP) =  -1215.00773324     A.U. after   13 cycles
            NFock= 13  Conv=0.77D-08     -V/T= 2.0076
 KE= 1.205899171384D+03 PE=-5.735692756187D+03 EE= 1.870774073599D+03
 Leave Link  502 at Wed Sep 23 01:26:24 2020, MaxMem=  2147483648 cpu:             192.5 elap:              61.4
 (Enter /prod/apps/gaussian/g16b1/l601.exe)
 Copying SCF densities to generalized density rwf, IOpCl= 0 IROHF=0.

 **********************************************************************

            Population analysis using the SCF Density.

 **********************************************************************

 Alpha  occ. eigenvalues --  -89.14855 -19.24069 -19.16317 -19.16127 -14.39340
 Alpha  occ. eigenvalues --  -14.38302 -14.38196 -10.27969 -10.27090 -10.22088
 Alpha  occ. eigenvalues --  -10.22061 -10.21673 -10.20303 -10.20244 -10.20090
 Alpha  occ. eigenvalues --  -10.19873 -10.19774 -10.19750  -8.17028  -6.13543
 Alpha  occ. eigenvalues --   -6.13444  -6.13410  -1.14654  -1.13833  -1.02012
 Alpha  occ. eigenvalues --   -0.96817  -0.94512  -0.87574  -0.85386  -0.81107
 Alpha  occ. eigenvalues --   -0.75491  -0.75379  -0.72926  -0.72144  -0.64945
 Alpha  occ. eigenvalues --   -0.64760  -0.61687  -0.60174  -0.57076  -0.55259
 Alpha  occ. eigenvalues --   -0.53916  -0.52464  -0.50514  -0.48927  -0.48439
 Alpha  occ. eigenvalues --   -0.48036  -0.46835  -0.46070  -0.45103  -0.44821
 Alpha  occ. eigenvalues --   -0.43332  -0.42655  -0.41949  -0.40838  -0.39712
 Alpha  occ. eigenvalues --   -0.39437  -0.38627  -0.37620  -0.36433  -0.36026
 Alpha  occ. eigenvalues --   -0.35092  -0.35037  -0.33329  -0.32444  -0.31568
 Alpha  occ. eigenvalues --   -0.29975  -0.26773  -0.26179  -0.25792  -0.23620
 Alpha virt. eigenvalues --   -0.05243  -0.00983   0.02002   0.05262   0.06420
 Alpha virt. eigenvalues --    0.07050   0.07461   0.08634   0.09733   0.11101
 Alpha virt. eigenvalues --    0.11418   0.12446   0.13487   0.14103   0.15316
 Alpha virt. eigenvalues --    0.16043   0.16854   0.17006   0.17032   0.17711
 Alpha virt. eigenvalues --    0.18492   0.18944   0.19339   0.19906   0.22239
 Alpha virt. eigenvalues --    0.23377   0.25770   0.26094   0.29806   0.30009
 Alpha virt. eigenvalues --    0.32345   0.33118   0.33374   0.37171   0.37905
 Alpha virt. eigenvalues --    0.40354   0.42659   0.44163   0.45334   0.47692
 Alpha virt. eigenvalues --    0.48350   0.49678   0.50061   0.52104   0.52894
 Alpha virt. eigenvalues --    0.53371   0.54398   0.54889   0.55761   0.57433
 Alpha virt. eigenvalues --    0.57928   0.58497   0.58601   0.59082   0.60120
 Alpha virt. eigenvalues --    0.60976   0.61428   0.62208   0.62753   0.64554
 Alpha virt. eigenvalues --    0.65019   0.65657   0.66150   0.68670   0.70249
 Alpha virt. eigenvalues --    0.71520   0.72992   0.74857   0.76375   0.77246
 Alpha virt. eigenvalues --    0.78348   0.78602   0.79362   0.79736   0.81354
 Alpha virt. eigenvalues --    0.82167   0.83681   0.84088   0.84908   0.85752
 Alpha virt. eigenvalues --    0.86879   0.88005   0.88555   0.89158   0.89470
 Alpha virt. eigenvalues --    0.90008   0.90972   0.92070   0.92891   0.94070
 Alpha virt. eigenvalues --    0.94423   0.94817   0.96466   0.96760   0.97491
 Alpha virt. eigenvalues --    0.99662   1.00745   1.01436   1.03540   1.05100
 Alpha virt. eigenvalues --    1.05260   1.07521   1.08938   1.09462   1.10782
 Alpha virt. eigenvalues --    1.13861   1.15898   1.16488   1.17677   1.19067
 Alpha virt. eigenvalues --    1.21306   1.23148   1.24207   1.26320   1.28793
 Alpha virt. eigenvalues --    1.30930   1.32089   1.33782   1.34937   1.36499
 Alpha virt. eigenvalues --    1.37930   1.41421   1.41771   1.42383   1.44718
 Alpha virt. eigenvalues --    1.45220   1.47056   1.47240   1.48251   1.50110
 Alpha virt. eigenvalues --    1.50601   1.52892   1.53835   1.56402   1.57709
 Alpha virt. eigenvalues --    1.59325   1.67171   1.70127   1.72109   1.76292
 Alpha virt. eigenvalues --    1.77995   1.78404   1.78985   1.79431   1.80988
 Alpha virt. eigenvalues --    1.81460   1.83521   1.86416   1.87697   1.88833
 Alpha virt. eigenvalues --    1.91248   1.92071   1.93783   1.96376   1.96627
 Alpha virt. eigenvalues --    1.96753   1.97365   1.98508   2.00318   2.02968
 Alpha virt. eigenvalues --    2.03134   2.04996   2.07438   2.08727   2.10386
 Alpha virt. eigenvalues --    2.10932   2.11645   2.13299   2.13547   2.14613
 Alpha virt. eigenvalues --    2.17180   2.19571   2.20491   2.21578   2.23205
 Alpha virt. eigenvalues --    2.24548   2.25945   2.26939   2.28359   2.30058
 Alpha virt. eigenvalues --    2.31988   2.32986   2.35550   2.36511   2.42143
 Alpha virt. eigenvalues --    2.43814   2.47593   2.50790   2.52771   2.53433
 Alpha virt. eigenvalues --    2.56793   2.58141   2.59298   2.60712   2.62606
 Alpha virt. eigenvalues --    2.66083   2.66294   2.69812   2.71402   2.73924
 Alpha virt. eigenvalues --    2.74419   2.76081   2.77655   2.81562   2.86693
 Alpha virt. eigenvalues --    2.89328   2.90857   3.02510   3.05288   3.13305
 Alpha virt. eigenvalues --    3.26857   3.42858   3.77012   3.82931   3.95342
 Alpha virt. eigenvalues --    4.01510   4.03622   4.07648   4.09158   4.10871
 Alpha virt. eigenvalues --    4.13177   4.18889   4.23344   4.25998   4.31483
 Alpha virt. eigenvalues --    4.32811   4.36992   4.40872   4.57110   4.74119
          Condensed to atoms (all electrons):
               1          2          3          4          5          6
     1  O    8.256060   0.446740  -0.054426   0.004909  -0.001984   0.000005
     2  S    0.446740  13.545638   0.125814   0.002047   0.002713  -0.000313
     3  N   -0.054426   0.125814   7.440960   0.224784  -0.073416   0.005373
     4  C    0.004909   0.002047   0.224784   4.450602   0.419277  -0.042077
     5  N   -0.001984   0.002713  -0.073416   0.419277   6.941970   0.115713
     6  O    0.000005  -0.000313   0.005373  -0.042077   0.115713   8.212626
     7  C    0.000000   0.000258  -0.000549  -0.015345  -0.084181   0.246582
     8  C   -0.000000  -0.000007  -0.000208   0.002656   0.004287  -0.037935
     9  C   -0.000000  -0.000000  -0.000001  -0.000355   0.000137  -0.006601
    10  C    0.000000  -0.000000  -0.000000   0.000005   0.000000   0.000282
    11  C    0.000000  -0.000000   0.000000   0.000000  -0.000000   0.000002
    12  C    0.000000  -0.000000   0.000000  -0.000007   0.000001  -0.000061
    13  C    0.000000   0.000000   0.000003   0.000619  -0.000103   0.003109
    14  C    0.000070   0.001440  -0.050143   0.457833  -0.046228  -0.088760
    15  N   -0.052401   0.146941  -0.044077  -0.006795   0.003356   0.000063
    16  C   -0.003715  -0.027917   0.002146   0.000109  -0.000050  -0.000001
    17  C    0.001538  -0.010510  -0.008534   0.000516   0.000137  -0.000002
    18  O   -0.044783   0.450775  -0.056945   0.001102  -0.000001   0.000000
    19  H   -0.000123  -0.016376   0.303112  -0.015303   0.002588  -0.000045
    20  H    0.000000  -0.000000  -0.000000   0.000051  -0.000251   0.009756
    21  H    0.000000   0.000000   0.000000  -0.000000   0.000000  -0.000003
    22  H   -0.000000  -0.000000  -0.000000  -0.000000   0.000000   0.000000
    23  H   -0.000000   0.000000  -0.000000  -0.000000  -0.000000   0.000000
    24  H    0.000000  -0.000000  -0.000001   0.000076  -0.000005   0.000024
    25  H    0.000001  -0.000128  -0.002164  -0.027768   0.004966   0.003313
    26  H    0.010666  -0.003862   0.000118  -0.000010   0.000118  -0.000001
    27  H    0.000241   0.001945  -0.000080  -0.000012  -0.000005  -0.000000
    28  H   -0.000407  -0.002948  -0.000086  -0.000005   0.000007   0.000000
    29  H    0.000015  -0.002646   0.010595   0.000369  -0.000102  -0.000000
    30  H   -0.000034  -0.007203  -0.000194  -0.000043   0.000007   0.000000
    31  H   -0.000049   0.003002  -0.000046   0.000008  -0.000023  -0.000000
               7          8          9         10         11         12
     1  O    0.000000  -0.000000  -0.000000   0.000000   0.000000   0.000000
     2  S    0.000258  -0.000007  -0.000000  -0.000000  -0.000000  -0.000000
     3  N   -0.000549  -0.000208  -0.000001  -0.000000   0.000000   0.000000
     4  C   -0.015345   0.002656  -0.000355   0.000005   0.000000  -0.000007
     5  N   -0.084181   0.004287   0.000137   0.000000  -0.000000   0.000001
     6  O    0.246582  -0.037935  -0.006601   0.000282   0.000002  -0.000061
     7  C    4.721216   0.348138  -0.041821   0.004721   0.000861   0.006322
     8  C    0.348138   4.784273   0.472472  -0.009759  -0.033884  -0.011222
     9  C   -0.041821   0.472472   5.059786   0.505788  -0.038007  -0.042097
    10  C    0.004721  -0.009759   0.505788   4.892147   0.538317  -0.026048
    11  C    0.000861  -0.033884  -0.038007   0.538317   4.874449   0.539690
    12  C    0.006322  -0.011222  -0.042097  -0.026048   0.539690   4.883335
    13  C   -0.042442   0.536360  -0.082084  -0.041427  -0.040123   0.518239
    14  C    0.506950  -0.056856   0.011759  -0.000226   0.000015   0.000221
    15  N    0.000001   0.000000   0.000000   0.000000  -0.000000   0.000000
    16  C    0.000000   0.000000  -0.000000   0.000000   0.000000  -0.000000
    17  C    0.000000   0.000000   0.000000  -0.000000   0.000000  -0.000000
    18  O    0.000000  -0.000000   0.000000  -0.000000   0.000000  -0.000000
    19  H    0.000003   0.000000   0.000000  -0.000000  -0.000000  -0.000000
    20  H   -0.012850  -0.043042   0.363042  -0.040898   0.004550   0.000198
    21  H   -0.000172   0.003225  -0.037574   0.363687  -0.040857   0.004396
    22  H    0.000003   0.000483   0.004686  -0.041605   0.364896  -0.041648
    23  H   -0.000203   0.003233   0.000786   0.004381  -0.040805   0.363161
    24  H   -0.012450  -0.036892   0.005617   0.000165   0.004498  -0.041530
    25  H   -0.027115  -0.003154  -0.000101   0.000001  -0.000001   0.000086
    26  H    0.000000   0.000000  -0.000000   0.000000   0.000000  -0.000000
    27  H   -0.000000  -0.000000   0.000000  -0.000000  -0.000000   0.000000
    28  H   -0.000000  -0.000000   0.000000   0.000000  -0.000000   0.000000
    29  H    0.000004   0.000000  -0.000000  -0.000000   0.000000  -0.000000
    30  H   -0.000000  -0.000000   0.000000   0.000000  -0.000000   0.000000
    31  H    0.000000  -0.000000  -0.000000  -0.000000  -0.000000   0.000000
              13         14         15         16         17         18
     1  O    0.000000   0.000070  -0.052401  -0.003715   0.001538  -0.044783
     2  S    0.000000   0.001440   0.146941  -0.027917  -0.010510   0.450775
     3  N    0.000003  -0.050143  -0.044077   0.002146  -0.008534  -0.056945
     4  C    0.000619   0.457833  -0.006795   0.000109   0.000516   0.001102
     5  N   -0.000103  -0.046228   0.003356  -0.000050   0.000137  -0.000001
     6  O    0.003109  -0.088760   0.000063  -0.000001  -0.000002   0.000000
     7  C   -0.042442   0.506950   0.000001   0.000000   0.000000   0.000000
     8  C    0.536360  -0.056856   0.000000   0.000000   0.000000  -0.000000
     9  C   -0.082084   0.011759   0.000000  -0.000000   0.000000   0.000000
    10  C   -0.041427  -0.000226   0.000000   0.000000  -0.000000  -0.000000
    11  C   -0.040123   0.000015  -0.000000   0.000000   0.000000   0.000000
    12  C    0.518239   0.000221   0.000000  -0.000000  -0.000000  -0.000000
    13  C    5.013587  -0.019885   0.000000  -0.000000  -0.000000  -0.000000
    14  C   -0.019885   5.225098  -0.000154   0.000000  -0.000016  -0.000066
    15  N    0.000000  -0.000154   7.217847   0.285012   0.265840  -0.056077
    16  C   -0.000000   0.000000   0.285012   4.983130  -0.047273  -0.001684
    17  C   -0.000000  -0.000016   0.265840  -0.047273   4.988920   0.002670
    18  O   -0.000000  -0.000066  -0.056077  -0.001684   0.002670   8.260101
    19  H   -0.000000  -0.004589   0.002244  -0.000034  -0.000218   0.004653
    20  H    0.005307   0.000259   0.000000  -0.000000   0.000000  -0.000000
    21  H    0.000769   0.000001   0.000000  -0.000000   0.000000   0.000000
    22  H    0.004821  -0.000000  -0.000000   0.000000   0.000000   0.000000
    23  H   -0.037483  -0.000001  -0.000000   0.000000   0.000000   0.000000
    24  H    0.357350   0.005924  -0.000000  -0.000000  -0.000000  -0.000000
    25  H    0.001113   0.354330   0.000000  -0.000000   0.000000  -0.000001
    26  H   -0.000000  -0.000000  -0.031758   0.376758   0.004317  -0.000102
    27  H   -0.000000  -0.000000  -0.037305   0.380454  -0.002855  -0.000096
    28  H    0.000000   0.000000  -0.046837   0.376272  -0.001478   0.001693
    29  H   -0.000000  -0.000049  -0.032983   0.004371   0.376417  -0.001807
    30  H    0.000000   0.000000  -0.045674  -0.001252   0.377304   0.004536
    31  H    0.000000  -0.000000  -0.033504  -0.003855   0.377754   0.000047
              19         20         21         22         23         24
     1  O   -0.000123   0.000000   0.000000  -0.000000  -0.000000   0.000000
     2  S   -0.016376  -0.000000   0.000000  -0.000000   0.000000  -0.000000
     3  N    0.303112  -0.000000   0.000000  -0.000000  -0.000000  -0.000001
     4  C   -0.015303   0.000051  -0.000000  -0.000000  -0.000000   0.000076
     5  N    0.002588  -0.000251   0.000000   0.000000  -0.000000  -0.000005
     6  O   -0.000045   0.009756  -0.000003   0.000000   0.000000   0.000024
     7  C    0.000003  -0.012850  -0.000172   0.000003  -0.000203  -0.012450
     8  C    0.000000  -0.043042   0.003225   0.000483   0.003233  -0.036892
     9  C    0.000000   0.363042  -0.037574   0.004686   0.000786   0.005617
    10  C   -0.000000  -0.040898   0.363687  -0.041605   0.004381   0.000165
    11  C   -0.000000   0.004550  -0.040857   0.364896  -0.040805   0.004498
    12  C   -0.000000   0.000198   0.004396  -0.041648   0.363161  -0.041530
    13  C   -0.000000   0.005307   0.000769   0.004821  -0.037483   0.357350
    14  C   -0.004589   0.000259   0.000001  -0.000000  -0.000001   0.005924
    15  N    0.002244   0.000000   0.000000  -0.000000  -0.000000  -0.000000
    16  C   -0.000034  -0.000000  -0.000000   0.000000   0.000000  -0.000000
    17  C   -0.000218   0.000000   0.000000   0.000000   0.000000  -0.000000
    18  O    0.004653  -0.000000   0.000000   0.000000   0.000000  -0.000000
    19  H    0.288752   0.000000   0.000000   0.000000   0.000000   0.000000
    20  H    0.000000   0.554015  -0.004910  -0.000151   0.000015  -0.000138
    21  H    0.000000  -0.004910   0.557364  -0.005098  -0.000162   0.000015
    22  H    0.000000  -0.000151  -0.005098   0.560261  -0.005130  -0.000155
    23  H    0.000000   0.000015  -0.000162  -0.005130   0.557449  -0.004894
    24  H    0.000000  -0.000138   0.000015  -0.000155  -0.004894   0.555508
    25  H    0.001719  -0.000008   0.000000  -0.000000  -0.000002   0.001873
    26  H   -0.000004  -0.000000  -0.000000   0.000000   0.000000  -0.000000
    27  H    0.000001  -0.000000   0.000000  -0.000000   0.000000  -0.000000
    28  H    0.000005   0.000000   0.000000  -0.000000  -0.000000   0.000000
    29  H   -0.000419   0.000000  -0.000000   0.000000   0.000000  -0.000000
    30  H    0.000070   0.000000  -0.000000  -0.000000  -0.000000   0.000000
    31  H   -0.000003  -0.000000   0.000000   0.000000   0.000000   0.000000
              25         26         27         28         29         30
     1  O    0.000001   0.010666   0.000241  -0.000407   0.000015  -0.000034
     2  S   -0.000128  -0.003862   0.001945  -0.002948  -0.002646  -0.007203
     3  N   -0.002164   0.000118  -0.000080  -0.000086   0.010595  -0.000194
     4  C   -0.027768  -0.000010  -0.000012  -0.000005   0.000369  -0.000043
     5  N    0.004966   0.000118  -0.000005   0.000007  -0.000102   0.000007
     6  O    0.003313  -0.000001  -0.000000   0.000000  -0.000000   0.000000
     7  C   -0.027115   0.000000  -0.000000  -0.000000   0.000004  -0.000000
     8  C   -0.003154   0.000000  -0.000000  -0.000000   0.000000  -0.000000
     9  C   -0.000101  -0.000000   0.000000   0.000000  -0.000000   0.000000
    10  C    0.000001   0.000000  -0.000000   0.000000  -0.000000   0.000000
    11  C   -0.000001   0.000000  -0.000000  -0.000000   0.000000  -0.000000
    12  C    0.000086  -0.000000   0.000000   0.000000  -0.000000   0.000000
    13  C    0.001113  -0.000000  -0.000000   0.000000  -0.000000   0.000000
    14  C    0.354330  -0.000000  -0.000000   0.000000  -0.000049   0.000000
    15  N    0.000000  -0.031758  -0.037305  -0.046837  -0.032983  -0.045674
    16  C   -0.000000   0.376758   0.380454   0.376272   0.004371  -0.001252
    17  C    0.000000   0.004317  -0.002855  -0.001478   0.376417   0.377304
    18  O   -0.000001  -0.000102  -0.000096   0.001693  -0.001807   0.004536
    19  H    0.001719  -0.000004   0.000001   0.000005  -0.000419   0.000070
    20  H   -0.000008  -0.000000  -0.000000   0.000000   0.000000   0.000000
    21  H    0.000000  -0.000000   0.000000   0.000000  -0.000000  -0.000000
    22  H   -0.000000   0.000000  -0.000000  -0.000000   0.000000  -0.000000
    23  H   -0.000002   0.000000   0.000000  -0.000000   0.000000  -0.000000
    24  H    0.001873  -0.000000  -0.000000   0.000000  -0.000000   0.000000
    25  H    0.498136  -0.000000  -0.000000  -0.000000  -0.000001   0.000000
    26  H   -0.000000   0.497008  -0.020194  -0.030237  -0.000188  -0.000167
    27  H   -0.000000  -0.020194   0.523261  -0.038228   0.000071  -0.001654
    28  H   -0.000000  -0.030237  -0.038228   0.562234  -0.000180   0.007185
    29  H   -0.000001  -0.000188   0.000071  -0.000180   0.504382  -0.030453
    30  H    0.000000  -0.000167  -0.001654   0.007185  -0.030453   0.556233
    31  H    0.000000   0.000024   0.004978  -0.001272  -0.021844  -0.034244
              31
     1  O   -0.000049
     2  S    0.003002
     3  N   -0.000046
     4  C    0.000008
     5  N   -0.000023
     6  O   -0.000000
     7  C    0.000000
     8  C   -0.000000
     9  C   -0.000000
    10  C   -0.000000
    11  C   -0.000000
    12  C    0.000000
    13  C    0.000000
    14  C   -0.000000
    15  N   -0.033504
    16  C   -0.003855
    17  C    0.377754
    18  O    0.000047
    19  H   -0.000003
    20  H   -0.000000
    21  H    0.000000
    22  H    0.000000
    23  H    0.000000
    24  H    0.000000
    25  H    0.000000
    26  H    0.000024
    27  H    0.004978
    28  H   -0.001272
    29  H   -0.021844
    30  H   -0.034244
    31  H    0.518787
 Mulliken charges:
               1
     1  O   -0.562322
     2  S    1.344596
     3  N   -0.822034
     4  C    0.542756
     5  N   -0.288928
     6  O   -0.421048
     7  C    0.402068
     8  C    0.077832
     9  C   -0.175431
    10  C   -0.149531
    11  C   -0.133599
    12  C   -0.153038
    13  C   -0.177730
    14  C   -0.296929
    15  N   -0.533739
    16  C   -0.322472
    17  C   -0.324528
    18  O   -0.564016
    19  H    0.433966
    20  H    0.165057
    21  H    0.159318
    22  H    0.158636
    23  H    0.159654
    24  H    0.165015
    25  H    0.194904
    26  H    0.197512
    27  H    0.189478
    28  H    0.174283
    29  H    0.194448
    30  H    0.175582
    31  H    0.190239
 Sum of Mulliken charges =  -0.00000
 Mulliken charges with hydrogens summed into heavy atoms:
               1
     1  O   -0.562322
     2  S    1.344596
     3  N   -0.388067
     4  C    0.542756
     5  N   -0.288928
     6  O   -0.421048
     7  C    0.402068
     8  C    0.077832
     9  C   -0.010374
    10  C    0.009787
    11  C    0.025036
    12  C    0.006616
    13  C   -0.012715
    14  C   -0.102025
    15  N   -0.533739
    16  C    0.238802
    17  C    0.235741
    18  O   -0.564016
 Electronic spatial extent (au):  <R**2>=           7227.7001
 Charge=             -0.0000 electrons
 Dipole moment (field-independent basis, Debye):
    X=              3.8633    Y=             -2.2133    Z=              4.8217  Tot=              6.5630
 Quadrupole moment (field-independent basis, Debye-Ang):
   XX=            -90.8322   YY=           -100.8625   ZZ=           -115.6476
   XY=            -13.0294   XZ=            -13.8815   YZ=             -1.4307
 Traceless Quadrupole moment (field-independent basis, Debye-Ang):
   XX=             11.6152   YY=              1.5849   ZZ=            -13.2002
   XY=            -13.0294   XZ=            -13.8815   YZ=             -1.4307
 Octapole moment (field-independent basis, Debye-Ang**2):
  XXX=             88.0299  YYY=             -9.7935  ZZZ=             12.8356  XYY=              7.7731
  XXY=             64.0944  XXZ=             49.7716  XZZ=            -26.3875  YZZ=              1.8529
  YYZ=              3.8177  XYZ=             -8.0661
 Hexadecapole moment (field-independent basis, Debye-Ang**3):
 XXXX=          -7254.4305 YYYY=           -738.5092 ZZZZ=           -455.8743 XXXY=           -273.1282
 XXXZ=           -144.0094 YYYX=            -28.3650 YYYZ=            -10.9726 ZZZX=            -50.9971
 ZZZY=              8.9425 XXYY=          -1410.1763 XXZZ=          -1532.2872 YYZZ=           -208.7203
 XXYZ=            -39.6389 YYXZ=             -7.0257 ZZXY=             -3.6613
 N-N= 1.444011777967D+03 E-N=-5.735692756590D+03  KE= 1.205899171384D+03
 No NMR shielding tensors so no spin-rotation constants.
 Leave Link  601 at Wed Sep 23 01:26:25 2020, MaxMem=  2147483648 cpu:               0.4 elap:               0.1
 (Enter /prod/apps/gaussian/g16b1/l701.exe)
 ... and contract with generalized density number  0.
 Compute integral first derivatives.
 D1PCM: PCM CHGder 1st derivatives, ID1Alg=3 FixD1E=F DoIter=F DoCFld=F I1PDM=0.
 GePol: Maximum number of non-zero 1st derivatives   =     175
 Leave Link  701 at Wed Sep 23 01:26:27 2020, MaxMem=  2147483648 cpu:               8.6 elap:               2.2
 (Enter /prod/apps/gaussian/g16b1/l702.exe)
 L702 exits ... SP integral derivatives will be done elsewhere.
 Leave Link  702 at Wed Sep 23 01:26:27 2020, MaxMem=  2147483648 cpu:               0.1 elap:               0.0
 (Enter /prod/apps/gaussian/g16b1/l703.exe)
 Integral derivatives from FoFJK, PRISM(SPDF).
 Compute integral first derivatives, UseDBF=F ICtDFT=           0.
 Calling FoFJK, ICntrl=      2127 FMM=F ISym2X=0 I1Cent= 0 IOpClX= 0 NMat=1 NMatS=1 NMatT=0.
 FoFJK:  IHMeth= 1 ICntrl=    2127 DoSepK=F KAlg= 0 I1Cent=           0 FoldK=F
 IRaf=         0 NMat=       1 IRICut=       1 DoRegI=T DoRafI=F ISym2E= 0 IDoP0=0 IntGTp=1.
 FoFCou: FMM=F IPFlag=           0 FMFlag=      100000 FMFlg1=         800
         NFxFlg=           0 DoJE=F BraDBF=F KetDBF=F FulRan=T
         wScrn=  0.000000 ICntrl=      2127 IOpCl=  0 I1Cent=           0 NGrid=           0
         NMat0=    1 NMatS0=      1 NMatT0=    0 NMatD0=    1 NMtDS0=    0 NMtDT0=    0
 Symmetry not used in FoFCou.
 Leave Link  703 at Wed Sep 23 01:26:40 2020, MaxMem=  2147483648 cpu:              51.2 elap:              12.8
 (Enter /prod/apps/gaussian/g16b1/l716.exe)
 Dipole        = 1.51992074D+00-8.70785646D-01 1.89701297D+00
 -------------------------------------------------------------------
 Center     Atomic                   Forces (Hartrees/Bohr)
 Number     Number              X              Y              Z
 -------------------------------------------------------------------
      1        8          -0.000332513   -0.000277288    0.000832959
      2       16           0.000142102    0.001488163    0.000501775
      3        7           0.000911297   -0.000956655   -0.000294215
      4        6           0.000379237    0.000598328   -0.000463825
      5        7           0.000011879   -0.001195030    0.000072192
      6        8           0.000342350    0.000655372    0.000037856
      7        6           0.000681559   -0.000649928    0.000124421
      8        6          -0.001225665    0.000383673   -0.000233617
      9        6           0.000336467    0.000073549    0.000240554
     10        6           0.000048344   -0.000523985   -0.000100461
     11        6          -0.000715300    0.000863699   -0.000172321
     12        6           0.001072005   -0.000572427    0.000181587
     13        6          -0.000885814   -0.001307956    0.000259843
     14        6          -0.000510804    0.000995398   -0.000107891
     15        7          -0.000060393    0.000209983    0.000058540
     16        6           0.000078585   -0.000238891   -0.000818297
     17        6          -0.000468687   -0.000091461   -0.001040684
     18        8          -0.000437243   -0.000405536   -0.000328725
     19        1          -0.000183873   -0.000075501    0.000152784
     20        1          -0.000187878    0.000176680   -0.000101710
     21        1           0.000125873    0.000056478    0.000030120
     22        1           0.000648878   -0.000050071    0.000038887
     23        1          -0.000167179    0.000356644   -0.000093044
     24        1           0.000124758    0.000361212   -0.000076009
     25        1           0.000219307    0.000116643    0.000001781
     26        1           0.000008740   -0.000275702    0.000169906
     27        1           0.000041623    0.000411602    0.000369596
     28        1          -0.000264980    0.000008033    0.000024076
     29        1          -0.000359579   -0.000034463    0.000569875
     30        1           0.000630100    0.000101930    0.000144517
     31        1          -0.000003198   -0.000202493    0.000019528
 -------------------------------------------------------------------
 Cartesian Forces:  Max     0.001488163 RMS     0.000492103
 Leave Link  716 at Wed Sep 23 01:26:40 2020, MaxMem=  2147483648 cpu:               0.1 elap:               0.0
 (Enter /prod/apps/gaussian/g16b1/l103.exe)

 GradGradGradGradGradGradGradGradGradGradGradGradGradGradGradGradGradGrad
 Berny optimization.
 FormGI is forming the generalized inverse of G from B-inverse, IUseBI=4.
 Internal  Forces:  Max     0.002160727 RMS     0.000351054
 Search for a local minimum.
 Step number   1 out of a maximum of  164
 All quantities printed in internal units (Hartrees-Bohrs-Radians)
 RMS Force = .35105D-03 SwitMx=.10000D-02 MixMth= 2
 Mixed Optimization -- En-DIIS/RFO-DIIS
 Second derivative matrix not updated -- first step.
 ITU=  0
     Eigenvalues ---    0.00727   0.00750   0.01293   0.01516   0.01733
     Eigenvalues ---    0.01768   0.01812   0.01871   0.01943   0.02046
     Eigenvalues ---    0.02051   0.02063   0.02103   0.02120   0.02126
     Eigenvalues ---    0.02143   0.02151   0.02160   0.02174   0.02205
     Eigenvalues ---    0.02266   0.02331   0.07170   0.07214   0.07766
     Eigenvalues ---    0.07767   0.10791   0.11165   0.12592   0.14566
     Eigenvalues ---    0.16000   0.16000   0.16000   0.16000   0.16000
     Eigenvalues ---    0.16000   0.16000   0.16000   0.16000   0.16000
     Eigenvalues ---    0.16000   0.16000   0.18339   0.19541   0.19821
     Eigenvalues ---    0.22000   0.22000   0.22505   0.23477   0.23806
     Eigenvalues ---    0.24987   0.24999   0.25000   0.25000   0.25000
     Eigenvalues ---    0.34072   0.34116   0.34673   0.34769   0.34867
     Eigenvalues ---    0.34992   0.35373   0.35378   0.35392   0.35452
     Eigenvalues ---    0.35554   0.35598   0.35630   0.36310   0.36944
     Eigenvalues ---    0.37965   0.39720   0.40173   0.41501   0.42010
     Eigenvalues ---    0.43285   0.44572   0.45347   0.45587   0.46320
     Eigenvalues ---    0.46595   0.47013   0.48754   0.52011   0.59785
     Eigenvalues ---    0.88254   0.89743
 RFO step:  Lambda=-1.07826140D-04 EMin= 7.27064319D-03
 Linear search not attempted -- first point.
 Iteration  1 RMS(Cart)=  0.01706124 RMS(Int)=  0.00008581
 Iteration  2 RMS(Cart)=  0.00016836 RMS(Int)=  0.00000413
 Iteration  3 RMS(Cart)=  0.00000001 RMS(Int)=  0.00000413
 ITry= 1 IFail=0 DXMaxC= 9.92D-02 DCOld= 1.00D+10 DXMaxT= 3.00D-01 DXLimC= 3.00D+00 Rises=F
 Variable       Old X    -DE/DX   Delta X   Delta X   Delta X     New X
                                 (Linear)    (Quad)   (Total)
    R1        2.76751  -0.00091   0.00000  -0.00101  -0.00101   2.76650
    R2        3.18116   0.00091   0.00000   0.00239   0.00239   3.18355
    R3        3.15019  -0.00033   0.00000  -0.00083  -0.00083   3.14936
    R4        2.77448   0.00056   0.00000   0.00063   0.00063   2.77512
    R5        2.63467   0.00046   0.00000   0.00099   0.00099   2.63566
    R6        1.92476   0.00007   0.00000   0.00016   0.00016   1.92492
    R7        2.49511  -0.00072   0.00000  -0.00121  -0.00121   2.49390
    R8        2.68643  -0.00059   0.00000  -0.00157  -0.00157   2.68486
    R9        2.65577   0.00039   0.00000   0.00099   0.00099   2.65676
   R10        2.55889   0.00016   0.00000   0.00041   0.00041   2.55930
   R11        2.75931  -0.00083   0.00000  -0.00225  -0.00225   2.75706
   R12        2.58301  -0.00054   0.00000  -0.00108  -0.00108   2.58192
   R13        2.65353   0.00024   0.00000   0.00053   0.00053   2.65406
   R14        2.65298   0.00076   0.00000   0.00181   0.00181   2.65479
   R15        2.63197   0.00002   0.00000  -0.00007  -0.00007   2.63189
   R16        2.04664   0.00026   0.00000   0.00074   0.00074   2.04738
   R17        2.64051  -0.00041   0.00000  -0.00102  -0.00102   2.63949
   R18        2.04947   0.00010   0.00000   0.00030   0.00030   2.04977
   R19        2.64011   0.00042   0.00000   0.00091   0.00091   2.64103
   R20        2.04785   0.00065   0.00000   0.00182   0.00182   2.04967
[...]
 Alpha virt. eigenvalues --    2.12104   2.12624   2.12879   2.13362   2.15099
 Alpha virt. eigenvalues --    2.15788   2.16647   2.18007   2.18699   2.19165
 Alpha virt. eigenvalues --    2.20266   2.20766   2.22184   2.23444   2.24374
 Alpha virt. eigenvalues --    2.25148   2.26034   2.27142   2.28043   2.28720
 Alpha virt. eigenvalues --    2.29007   2.29327   2.30719   2.31369   2.32289
 Alpha virt. eigenvalues --    2.33164   2.33720   2.34429   2.34770   2.36139
 Alpha virt. eigenvalues --    2.36806   2.38164   2.39157   2.40125   2.40887
 Alpha virt. eigenvalues --    2.41749   2.43276   2.45845   2.45947   2.46514
 Alpha virt. eigenvalues --    2.47797   2.50002   2.51182   2.52597   2.55318
 Alpha virt. eigenvalues --    2.56142   2.58574   2.59858   2.61792   2.62374
 Alpha virt. eigenvalues --    2.65301   2.67029   2.68600   2.71091   2.72282
 Alpha virt. eigenvalues --    2.73546   2.76334   2.76915   2.77369   2.79074
 Alpha virt. eigenvalues --    2.80135   2.80975   2.82013   2.83129   2.84040
 Alpha virt. eigenvalues --    2.86330   2.87889   2.89045   2.90599   2.91706
 Alpha virt. eigenvalues --    2.93281   2.95192   2.95760   2.97159   2.99602
 Alpha virt. eigenvalues --    3.01933   3.03025   3.04672   3.06519   3.08338
 Alpha virt. eigenvalues --    3.11010   3.13277   3.14660   3.15961   3.17972
 Alpha virt. eigenvalues --    3.18771   3.21076   3.22545   3.30986   3.32337
 Alpha virt. eigenvalues --    3.35707   3.38586   3.39303   3.41371   3.48830
 Alpha virt. eigenvalues --    3.52468   3.54248   3.55840   3.62247   3.65759
 Alpha virt. eigenvalues --    3.76019   3.76816   3.77257   3.78443   3.79409
 Alpha virt. eigenvalues --    3.82304   3.82979   3.84607   3.86102   3.88053
 Alpha virt. eigenvalues --    3.90587   3.93566   3.96587   3.97533   4.03436
 Alpha virt. eigenvalues --    4.07377   4.15305   4.31276   4.65749   4.89102
          Condensed to atoms (all electrons):
               1          2          3          4          5          6
     1  O    9.142186  -0.278044   0.072649   0.063912   0.017775  -0.002425
     2  S   -0.278044  14.296441   0.134490  -0.730105   0.165744  -0.064071
     3  N    0.072649   0.134490   8.742410  -1.182591  -0.007198  -0.123542
     4  C    0.063912  -0.730105  -1.182591  13.946281  -0.841432   0.547664
     5  N    0.017775   0.165744  -0.007198  -0.841432   9.766024  -1.312437
     6  O   -0.002425  -0.064071  -0.123542   0.547664  -1.312437  10.351388
     7  C   -0.033303   0.066599   0.323400  -1.360350  -1.270081   0.027022
     8  C   -0.001322   0.001390  -0.051650   0.689657   0.486805   0.253974
     9  C   -0.002486   0.010733   0.058391  -0.473837  -0.321070  -0.213681
    10  C    0.000013   0.003421  -0.003826   0.233764  -0.016382  -0.041493
    11  C   -0.000042  -0.000514   0.005081  -0.098824   0.005266  -0.045501
    12  C    0.000057  -0.000553  -0.024359   0.019059   0.032693   0.043397
    13  C   -0.000837  -0.007976   0.057566  -0.655975   0.279106  -0.120036
    14  C    0.027269  -0.172955  -0.191171  -4.838311   0.407485  -0.135127
    15  N    0.078829  -0.248772  -0.171346   0.429748  -0.083485   0.012136
    16  C    0.031240  -0.025667  -0.075239  -0.051006   0.050174   0.004005
    17  C    0.027190  -0.142746   0.110851  -0.032244  -0.050296  -0.019571
    18  O    0.003790  -0.159163  -0.053502  -0.002783   0.010548   0.001372
    19  H   -0.006901  -0.040366   0.377781   0.006837  -0.001733   0.002802
    20  H   -0.000724   0.000871   0.006944  -0.008377   0.005373  -0.114463
    21  H    0.000002   0.000011  -0.000533   0.003398  -0.003540   0.004891
    22  H   -0.000004  -0.000006   0.000201  -0.003627   0.000672  -0.000567
    23  H    0.000006   0.000090  -0.000725   0.007217   0.000697   0.001307
    24  H   -0.000681   0.001350   0.011518   0.045386   0.005909   0.004035
    25  H    0.002865  -0.002781  -0.095610   0.638562  -0.099793   0.016465
    26  H   -0.031207   0.111436   0.001501  -0.048685   0.039670   0.001135
    27  H    0.005032   0.036362  -0.007287  -0.039775   0.004371   0.000208
    28  H    0.015820  -0.123720   0.005098   0.032521  -0.007330  -0.000188
    29  H    0.008088  -0.117766   0.048577  -0.042676   0.008160   0.001397
    30  H   -0.003008   0.071969  -0.034478   0.008841   0.004676  -0.000164
    31  H   -0.001368  -0.010875   0.004421   0.009722  -0.006114  -0.001251
               7          8          9         10         11         12
     1  O   -0.033303  -0.001322  -0.002486   0.000013  -0.000042   0.000057
     2  S    0.066599   0.001390   0.010733   0.003421  -0.000514  -0.000553
     3  N    0.323400  -0.051650   0.058391  -0.003826   0.005081  -0.024359
     4  C   -1.360350   0.689657  -0.473837   0.233764  -0.098824   0.019059
     5  N   -1.270081   0.486805  -0.321070  -0.016382   0.005266   0.032693
     6  O    0.027022   0.253974  -0.213681  -0.041493  -0.045501   0.043397
     7  C   19.895866  -4.591994   0.157929  -0.639860   0.477497  -0.656776
     8  C   -4.591994  20.314919  -6.106177   1.507580  -3.728063   2.226517
     9  C    0.157929  -6.106177  19.380048  -4.127566   2.593509  -3.299576
    10  C   -0.639860   1.507580  -4.127566  11.765420  -2.892555   3.498502
    11  C    0.477497  -3.728063   2.593509  -2.892555   9.256501  -3.206345
    12  C   -0.656776   2.226517  -3.299576   3.498502  -3.206345  13.961822
    13  C   -0.638083  -7.381332   0.017019  -3.215049   3.574885  -6.663949
    14  C   -6.674038   0.086791  -1.855850  -0.031872  -0.322282   0.639833
    15  N   -0.073269   0.006049  -0.007881   0.000080  -0.000239   0.000399
    16  C   -0.016091  -0.003520  -0.002877  -0.000072  -0.000104   0.000239
    17  C   -0.039352   0.008025   0.000956   0.000512  -0.000047  -0.000257
    18  O    0.005817  -0.000400  -0.000490  -0.000070   0.000013   0.000016
    19  H    0.004796   0.003505   0.003161   0.002128  -0.000094  -0.005996
    20  H    0.191002   0.304409  -0.841720   0.340041  -0.080621   0.044601
    21  H   -0.000594  -0.132566   0.685397  -0.767335   0.299085  -0.220797
    22  H   -0.012855   0.027194  -0.060086   0.359310  -0.531969   0.261441
    23  H   -0.045351  -0.137236   0.106115  -0.264577   0.304723  -0.993379
    24  H   -0.114779   0.844740  -0.098706   0.078631  -0.116587   0.218395
    25  H    0.784734  -0.023067  -0.024299   0.009293  -0.031486   0.089558
    26  H    0.009432  -0.000583  -0.000697  -0.000139  -0.000011   0.000032
    27  H   -0.006901  -0.001322  -0.000382  -0.000064  -0.000029   0.000075
    28  H    0.000621   0.000428   0.000105   0.000027   0.000001  -0.000009
    29  H   -0.004097  -0.002084  -0.000601   0.000107  -0.000061   0.000139
    30  H    0.000207  -0.000169  -0.000080   0.000020  -0.000010   0.000000
    31  H   -0.002069   0.001149   0.000162   0.000019   0.000025  -0.000090
              13         14         15         16         17         18
     1  O   -0.000837   0.027269   0.078829   0.031240   0.027190   0.003790
     2  S   -0.007976  -0.172955  -0.248772  -0.025667  -0.142746  -0.159163
     3  N    0.057566  -0.191171  -0.171346  -0.075239   0.110851  -0.053502
     4  C   -0.655975  -4.838311   0.429748  -0.051006  -0.032244  -0.002783
     5  N    0.279106   0.407485  -0.083485   0.050174  -0.050296   0.010548
     6  O   -0.120036  -0.135127   0.012136   0.004005  -0.019571   0.001372
     7  C   -0.638083  -6.674038  -0.073269  -0.016091  -0.039352   0.005817
     8  C   -7.381332   0.086791   0.006049  -0.003520   0.008025  -0.000400
     9  C    0.017019  -1.855850  -0.007881  -0.002877   0.000956  -0.000490
    10  C   -3.215049  -0.031872   0.000080  -0.000072   0.000512  -0.000070
    11  C    3.574885  -0.322282  -0.000239  -0.000104  -0.000047   0.000013
    12  C   -6.663949   0.639833   0.000399   0.000239  -0.000257   0.000016
    13  C   21.872177  -1.321417  -0.004281  -0.000111  -0.003090   0.001050
    14  C   -1.321417  20.227328  -0.080017   0.014216  -0.042178   0.010636
    15  N   -0.004281  -0.080017   8.317174   0.042081   0.086039   0.139698
    16  C   -0.000111   0.014216   0.042081   4.329527  -0.172144  -0.014291
    17  C   -0.003090  -0.042178   0.086039  -0.172144   4.463691   0.031887
    18  O    0.001050   0.010636   0.139698  -0.014291   0.031887   9.144283
    19  H   -0.005755  -0.090346   0.011940  -0.001152   0.011642  -0.006552
    20  H   -0.059147  -0.052747  -0.000682  -0.000991   0.000135   0.000066
    21  H    0.077797   0.004094   0.000001   0.000025  -0.000007  -0.000003
    22  H   -0.074184   0.000558  -0.000013  -0.000005  -0.000000   0.000000
    23  H    0.930631   0.050532   0.000033   0.000013   0.000005  -0.000005
    24  H   -1.232367   0.123866  -0.002126  -0.000697   0.000415   0.000221
    25  H   -0.042495  -1.498402   0.009059   0.004611  -0.005306  -0.002365
    26  H    0.000255  -0.000549  -0.101190   0.472517  -0.086774  -0.006741
    27  H    0.000010   0.014143  -0.273796   0.419187   0.057482  -0.007368
    28  H   -0.000059  -0.003486   0.119673   0.190114   0.066971   0.020185
    29  H    0.000128   0.053674  -0.007627  -0.080920   0.411241   0.053090
    30  H   -0.000211  -0.016907   0.033565   0.082550   0.187598  -0.035102
    31  H    0.000078  -0.000857  -0.156593   0.026993   0.408905   0.000465
              19         20         21         22         23         24
     1  O   -0.006901  -0.000724   0.000002  -0.000004   0.000006  -0.000681
     2  S   -0.040366   0.000871   0.000011  -0.000006   0.000090   0.001350
     3  N    0.377781   0.006944  -0.000533   0.000201  -0.000725   0.011518
     4  C    0.006837  -0.008377   0.003398  -0.003627   0.007217   0.045386
     5  N   -0.001733   0.005373  -0.003540   0.000672   0.000697   0.005909
     6  O    0.002802  -0.114463   0.004891  -0.000567   0.001307   0.004035
     7  C    0.004796   0.191002  -0.000594  -0.012855  -0.045351  -0.114779
     8  C    0.003505   0.304409  -0.132566   0.027194  -0.137236   0.844740
     9  C    0.003161  -0.841720   0.685397  -0.060086   0.106115  -0.098706
    10  C    0.002128   0.340041  -0.767335   0.359310  -0.264577   0.078631
    11  C   -0.000094  -0.080621   0.299085  -0.531969   0.304723  -0.116587
    12  C   -0.005996   0.044601  -0.220797   0.261441  -0.993379   0.218395
    13  C   -0.005755  -0.059147   0.077797  -0.074184   0.930631  -1.232367
    14  C   -0.090346  -0.052747   0.004094   0.000558   0.050532   0.123866
    15  N    0.011940  -0.000682   0.000001  -0.000013   0.000033  -0.002126
    16  C   -0.001152  -0.000991   0.000025  -0.000005   0.000013  -0.000697
    17  C    0.011642   0.000135  -0.000007  -0.000000   0.000005   0.000415
    18  O   -0.006552   0.000066  -0.000003   0.000000  -0.000005   0.000221
    19  H    0.796780  -0.000084  -0.000007   0.000027  -0.000147   0.000225
    20  H   -0.000084   2.032548  -0.088819  -0.010461   0.006236  -0.011405
    21  H   -0.000007  -0.088819   1.647700  -0.057407  -0.020282   0.008781
    22  H    0.000027  -0.010461  -0.057407   1.605794  -0.052148  -0.016978
    23  H   -0.000147   0.006236  -0.020282  -0.052148   1.665599  -0.076409
    24  H    0.000225  -0.011405   0.008781  -0.016978  -0.076409   2.009922
    25  H    0.010293  -0.003545   0.000859   0.000031  -0.000867  -0.092889
    26  H    0.000247   0.000019  -0.000003  -0.000001   0.000001  -0.000038
    27  H   -0.001318  -0.000257   0.000007  -0.000001   0.000004  -0.000128
    28  H   -0.001482   0.000039   0.000000   0.000000  -0.000000   0.000030
    29  H   -0.013109   0.000115   0.000000  -0.000004   0.000013   0.000060
    30  H   -0.000107  -0.000054   0.000001  -0.000000   0.000001  -0.000071
    31  H    0.000318   0.000045  -0.000003   0.000001  -0.000004   0.000056
              25         26         27         28         29         30
     1  O    0.002865  -0.031207   0.005032   0.015820   0.008088  -0.003008
     2  S   -0.002781   0.111436   0.036362  -0.123720  -0.117766   0.071969
     3  N   -0.095610   0.001501  -0.007287   0.005098   0.048577  -0.034478
     4  C    0.638562  -0.048685  -0.039775   0.032521  -0.042676   0.008841
     5  N   -0.099793   0.039670   0.004371  -0.007330   0.008160   0.004676
     6  O    0.016465   0.001135   0.000208  -0.000188   0.001397  -0.000164
     7  C    0.784734   0.009432  -0.006901   0.000621  -0.004097   0.000207
     8  C   -0.023067  -0.000583  -0.001322   0.000428  -0.002084  -0.000169
     9  C   -0.024299  -0.000697  -0.000382   0.000105  -0.000601  -0.000080
    10  C    0.009293  -0.000139  -0.000064   0.000027   0.000107   0.000020
    11  C   -0.031486  -0.000011  -0.000029   0.000001  -0.000061  -0.000010
    12  C    0.089558   0.000032   0.000075  -0.000009   0.000139   0.000000
    13  C   -0.042495   0.000255   0.000010  -0.000059   0.000128  -0.000211
    14  C   -1.498402  -0.000549   0.014143  -0.003486   0.053674  -0.016907
    15  N    0.009059  -0.101190  -0.273796   0.119673  -0.007627   0.033565
    16  C    0.004611   0.472517   0.419187   0.190114  -0.080920   0.082550
    17  C   -0.005306  -0.086774   0.057482   0.066971   0.411241   0.187598
    18  O   -0.002365  -0.006741  -0.007368   0.020185   0.053090  -0.035102
    19  H    0.010293   0.000247  -0.001318  -0.001482  -0.013109  -0.000107
    20  H   -0.003545   0.000019  -0.000257   0.000039   0.000115  -0.000054
    21  H    0.000859  -0.000003   0.000007   0.000000   0.000000   0.000001
    22  H    0.000031  -0.000001  -0.000001   0.000000  -0.000004  -0.000000
    23  H   -0.000867   0.000001   0.000004  -0.000000   0.000013   0.000001
    24  H   -0.092889  -0.000038  -0.000128   0.000030   0.000060  -0.000071
    25  H    1.926769   0.000169   0.000970  -0.000177  -0.002976   0.000822
    26  H    0.000169   1.249522  -0.242967  -0.210281  -0.008436   0.002863
    27  H    0.000970  -0.242967   1.318798  -0.157026   0.005369   0.006494
    28  H   -0.000177  -0.210281  -0.157026   1.124812   0.003332  -0.002608
    29  H   -0.002976  -0.008436   0.005369   0.003332   1.316606  -0.221033
    30  H    0.000822   0.002863   0.006494  -0.002608  -0.221033   1.091486
    31  H    0.000206   0.003251   0.012663  -0.000845  -0.269796  -0.128338
              31
     1  O   -0.001368
     2  S   -0.010875
     3  N    0.004421
     4  C    0.009722
     5  N   -0.006114
     6  O   -0.001251
     7  C   -0.002069
     8  C    0.001149
     9  C    0.000162
    10  C    0.000019
    11  C    0.000025
    12  C   -0.000090
    13  C    0.000078
    14  C   -0.000857
    15  N   -0.156593
    16  C    0.026993
    17  C    0.408905
    18  O    0.000465
    19  H    0.000318
    20  H    0.000045
    21  H   -0.000003
    22  H    0.000001
    23  H   -0.000004
    24  H    0.000056
    25  H    0.000206
    26  H    0.003251
    27  H    0.012663
    28  H   -0.000845
    29  H   -0.269796
    30  H   -0.128338
    31  H    1.259544
 Mulliken charges:
               1
     1  O   -1.134370
     2  S    3.225173
     3  N   -0.937823
     4  C   -0.271970
     5  N   -0.270257
     6  O   -1.078683
     7  C    0.234922
     8  C    1.398350
     9  C    0.424537
    10  C    0.201994
    11  C    0.538796
    12  C    0.035311
    13  C    0.615651
    14  C    1.668086
    15  N   -1.075187
    16  C    0.777395
    17  C    0.720465
    18  O   -1.134305
    19  H   -0.057332
    20  H   -0.658347
    21  H   -0.440155
    22  H   -0.434913
    23  H   -0.482090
    24  H   -0.589679
    25  H   -0.569208
    26  H   -0.153751
    27  H   -0.142555
    28  H   -0.072567
    29  H   -0.138912
    30  H   -0.048755
    31  H   -0.149821
 Sum of Mulliken charges =  -0.00000
 Mulliken charges with hydrogens summed into heavy atoms:
               1
     1  O   -1.134370
     2  S    3.225173
     3  N   -0.995155
     4  C   -0.271970
     5  N   -0.270257
     6  O   -1.078683
     7  C    0.234922
     8  C    1.398350
     9  C   -0.233811
    10  C   -0.238161
    11  C    0.103884
    12  C   -0.446779
    13  C    0.025972
    14  C    1.098878
    15  N   -1.075187
    16  C    0.408521
    17  C    0.382977
    18  O   -1.134305
 Electronic spatial extent (au):  <R**2>=           7248.2303
 Charge=              0.0000 electrons
 Dipole moment (field-independent basis, Debye):
    X=              3.7154    Y=             -1.1322    Z=              4.0818  Tot=              5.6344
 Quadrupole moment (field-independent basis, Debye-Ang):
   XX=            -96.7959   YY=           -105.6373   ZZ=           -120.4052
   XY=            -11.5693   XZ=            -12.9051   YZ=             -1.6056
 Traceless Quadrupole moment (field-independent basis, Debye-Ang):
   XX=             10.8169   YY=              1.9755   ZZ=            -12.7924
   XY=            -11.5693   XZ=            -12.9051   YZ=             -1.6056
 Octapole moment (field-independent basis, Debye-Ang**2):
  XXX=             80.8311  YYY=             -3.2682  ZZZ=              9.8183  XYY=              8.0625
  XXY=             65.9348  XXZ=             45.5486  XZZ=            -32.6127  YZZ=              1.7479
  YYZ=              1.9061  XYZ=             -8.5383
 Hexadecapole moment (field-independent basis, Debye-Ang**3):
 XXXX=          -7630.5961 YYYY=           -769.5951 ZZZZ=           -493.1584 XXXY=           -233.9106
 XXXZ=           -127.0598 YYYX=            -25.2422 YYYZ=            -13.3831 ZZZX=            -46.1564
 ZZZY=              9.5531 XXYY=          -1479.0679 XXZZ=          -1617.4841 YYZZ=           -221.0551
 XXYZ=            -53.6228 YYXZ=             -5.4175 ZZXY=              0.7595
 N-N= 1.443640326527D+03 E-N=-5.732869318049D+03  KE= 1.208032483862D+03
 Leave Link  601 at Wed Sep 23 02:18:41 2020, MaxMem=   262144000 cpu:               0.5 elap:               0.2
 (Enter /prod/apps/gaussian/g16b1/l9999.exe)
 1\1\GINC-PIRINEUS12\SP\RMP2-FC\Aug-CC-pVDZ\C11H13N3O3S1\UBAFAR01\23-Se
 p-2020\0\\#p mp2/aug-cc-pVDZ scf=(MaxCycle=2000,NoVarAcc,NoIncFock) ma
 xdisk=120GB geom=allcheck\\SM43_m0.n.9.pdb.xyz\\0,1\O,0,-2.8830338985,
 0.1511429238,-1.7961625334\S,0,-3.0688213037,-0.4856352066,-0.49146605
 47\N,0,-1.6225351663,-1.0739879457,0.1392702963\C,0,-0.3913164778,-0.4
 328271959,0.0143937778\N,0,-0.2843081922,0.8618997141,-0.2166155382\O,
 0,1.1010224174,1.1033368916,-0.2299313923\C,0,1.768454857,-0.053269356
 9,-0.0012593302\C,0,3.2259122595,0.0032353859,0.0232409267\C,0,3.89906
 35765,1.2059553633,-0.2461878751\C,0,5.2908840058,1.2488722417,-0.2212
 962535\C,0,6.0247934036,0.0971110052,0.0709898133\C,0,5.3597677245,-1.
 1022985514,0.3402494014\C,0,3.9688174266,-1.1522871805,0.3176821778\C,
 0,0.8702875183,-1.0697356736,0.1615166308\N,0,-3.4022153841,0.73000630
 05,0.5997041825\C,0,-4.2548073307,1.818767943,0.0904366246\C,0,-3.7540
 970095,0.2641630057,1.9492768448\O,0,-3.9716220305,-1.6392439715,-0.38
 76229357\H,0,-1.5966301659,-2.0920297366,0.1345745875\H,0,3.3275124322
 ,2.0976290872,-0.4742876175\H,0,5.8024806232,2.1819993298,-0.431302079
 6\H,0,7.1086686686,0.1330593578,0.0895712691\H,0,5.9253697711,-1.99898
 52537,0.5691691248\H,0,3.4562624979,-2.0839607884,0.5308253653\H,0,1.0
 613094511,-2.1128475097,0.3513817945\H,0,-3.8952870022,2.1308103652,-0
 .8877442906\H,0,-4.1600590731,2.650726653,0.7902088315\H,0,-5.30991647
 07,1.5279424311,0.0240622938\H,0,-3.0333439739,-0.4846445305,2.2769161
 229\H,0,-4.7658470186,-0.1538303619,1.9936590594\H,0,-3.6917661354,1.1
 249252638,2.6167467759\\Version=ES64L-G16RevB.01\State=1-A\HF=-1209.52
 8143\MP2=-1212.3110009\RMSD=5.312e-09\PG=C01 [X(C11H13N3O3S1)]\\@


 BREAD HAS TO MOLD IN ORDER TO GET PENICILLIN.
          -- JERRY BOATZ
 Job cpu time:       0 days  1 hours 50 minutes 25.7 seconds.
 Elapsed time:       0 days  0 hours 30 minutes 20.2 seconds.
 File lengths (MBytes):  RWF=  72047 Int=      0 D2E=      0 Chk=     23 Scr=      1
 Normal termination of Gaussian 16 at Wed Sep 23 02:18:43 2020.
