 Entering Gaussian System, Link 0=g16
 Initial command:
 /prod/apps/gaussian/g16b1/l1.exe "/tmp/ubafar01/1461174/Gau-220915.inp" -scrdir="/tmp/ubafar01/1461174/"
 Entering Link 1 = /prod/apps/gaussian/g16b1/l1.exe PID=    220916.
  
 Copyright (c) 1988-2017, Gaussian, Inc.  All Rights Reserved.
  
 This is part of the Gaussian(R) 16 program.  It is based on
 the Gaussian(R) 09 system (copyright 2009, Gaussian, Inc.),
 the Gaussian(R) 03 system (copyright 2003, Gaussian, Inc.),
 the Gaussian(R) 98 system (copyright 1998, Gaussian, Inc.),
 the Gaussian(R) 94 system (copyright 1995, Gaussian, Inc.),
 the Gaussian 92(TM) system (copyright 1992, Gaussian, Inc.),
 the Gaussian 90(TM) system (copyright 1990, Gaussian, Inc.),
 the Gaussian 88(TM) system (copyright 1988, Gaussian, Inc.),
 the Gaussian 86(TM) system (copyright 1986, Carnegie Mellon
 University), and the Gaussian 82(TM) system (copyright 1983,
 Carnegie Mellon University). Gaussian is a federally registered
 trademark of Gaussian, Inc.
  
 This software contains proprietary and confidential information,
 including trade secrets, belonging to Gaussian, Inc.
  
 This software is provided under written license and may be
 used, copied, transmitted, or stored only in accord with that
 written license.
  
 The following legend is applicable only to US Government
 contracts under FAR:
  
                    RESTRICTED RIGHTS LEGEND
  
 Use, reproduction and disclosure by the US Government is
 subject to restrictions as set forth in subparagraphs (a)
 and (c) of the Commercial Computer Software - Restricted
 Rights clause in FAR 52.227-19.
  
 Gaussian, Inc.
 340 Quinnipiac St., Bldg. 40, Wallingford CT 06492
  
  
 ---------------------------------------------------------------
 Warning -- This program may not be used in any manner that
 competes with the business of Gaussian, Inc. or will provide
 assistance to any competitor of Gaussian, Inc.  The licensee
 of this program is prohibited from giving any competitor of
 Gaussian, Inc. access to this program.  By using this program,
 the user acknowledges that Gaussian, Inc. is engaged in the
 business of creating and licensing software in the field of
 computational chemistry and represents and warrants to the
 licensee that it is not a competitor of Gaussian, Inc. and that
 it will not use this program in any manner prohibited above.
 ---------------------------------------------------------------
  

 Cite this work as:
 Gaussian 16, Revision B.01,
 M. J. Frisch, G. W. Trucks, H. B. Schlegel, G. E. Scuseria, 
 M. A. Robb, J. R. Cheeseman, G. Scalmani, V. Barone, 
 G. A. Petersson, H. Nakatsuji, X. Li, M. Caricato, A. V. Marenich, 
 J. Bloino, B. G. Janesko, R. Gomperts, B. Mennucci, H. P. Hratchian, 
 J. V. Ortiz, A. F. Izmaylov, J. L. Sonnenberg, D. Williams-Young, 
 F. Ding, F. Lipparini, F. Egidi, J. Goings, B. Peng, A. Petrone, 
 T. Henderson, D. Ranasinghe, V. G. Zakrzewski, J. Gao, N. Rega, 
 G. Zheng, W. Liang, M. Hada, M. Ehara, K. Toyota, R. Fukuda, 
 J. Hasegawa, M. Ishida, T. Nakajima, Y. Honda, O. Kitao, H. Nakai, 
 T. Vreven, K. Throssell, J. A. Montgomery, Jr., J. E. Peralta, 
 F. Ogliaro, M. J. Bearpark, J. J. Heyd, E. N. Brothers, K. N. Kudin, 
 V. N. Staroverov, T. A. Keith, R. Kobayashi, J. Normand, 
 K. Raghavachari, A. P. Rendell, J. C. Burant, S. S. Iyengar, 
 J. Tomasi, M. Cossi, J. M. Millam, M. Klene, C. Adamo, R. Cammi, 
 J. W. Ochterski, R. L. Martin, K. Morokuma, O. Farkas, 
 J. B. Foresman, and D. J. Fox, Gaussian, Inc., Wallingford CT, 2016.
 
 ******************************************
 Gaussian 16:  ES64L-G16RevB.01 20-Dec-2017
                24-Sep-2020 
 ******************************************
 %nproc=4
 Will use up to    4 processors via shared memory.
 %Chk=SM43_m1.a.3.pdb.xyz.mst.a.w.chk
 %mem=16GB
 ----------------------------------------------------------------------
 #p b3lyp/6-31G(d) opt freq NoSymm scf=(MaxCycle=2000,NoVarAcc,NoIncFoc
 k) scrf=(iefpcm,read,solvent=water)
 ----------------------------------------------------------------------
 1/18=20,19=15,26=3,38=1,40=2/1,3;
 2/9=110,12=2,15=1,17=6,18=5,40=1/2;
 3/5=1,6=6,7=1,11=2,25=1,30=1,70=2203,71=1,72=1,74=-5/1,2,3;
 4//1;
 5/5=100002,7=2000,38=1,53=1/2;
 6/7=2,8=2,9=2,10=2,28=1/1;
 7/30=1/1,2,3,16;
 1/18=20,19=15,26=3/3(2);
 2/9=110,15=1/2;
 99//99;
 2/9=110,15=1/2;
 3/5=1,6=6,7=1,11=2,25=1,30=1,70=2205,71=1,72=1,74=-5/1,2,3;
 4/5=5,16=3,69=1/1;
 5/5=100002,7=2000,38=1,53=1/2;
 7/30=1/1,2,3,16;
 1/18=20,19=15,26=3/3(-5);
 2/9=110,15=1/2;
 6/7=2,8=2,9=2,10=2,19=2,28=1/1;
 99/9=1/99;
 Leave Link    1 at Thu Sep 24 06:49:44 2020, MaxMem=  2147483648 cpu:               0.1 elap:               0.0
 (Enter /prod/apps/gaussian/g16b1/l101.exe)
 -------------------
 SM43_m1.a.3.pdb.xyz
 -------------------
 Symbolic Z-matrix:
 Charge = -1 Multiplicity = 1
 O                    -2.972     0.348    -1.858 
 S                    -2.998    -0.384    -0.568 
 N                    -1.62     -1.074    -0.132 
 C                    -0.435    -0.381    -0.196 
 N                    -0.267     0.911    -0.484 
 O                     1.137     1.131    -0.419 
 C                     1.759    -0.029    -0.091 
 C                     3.219     0.001     0.014 
 C                     3.938     1.169    -0.293 
 C                     5.329     1.186    -0.197 
 C                     6.022     0.042     0.207 
 C                     5.313    -1.123     0.516 
 C                     3.924    -1.146     0.421 
 C                     0.83     -1.013     0.065 
 N                    -3.314     0.838     0.607 
 C                    -4.445     1.707     0.248 
 C                    -3.44      0.308     1.972 
 O                    -4.045    -1.434    -0.469 
 H                     3.405     2.059    -0.61 
 H                     5.872     2.095    -0.439 
 H                     7.105     0.057     0.281 
 H                     5.844    -2.017     0.832 
 H                     3.383    -2.055     0.667 
 H                     0.983    -2.051     0.317 
 H                    -4.297     2.106    -0.756 
 H                    -4.468     2.539     0.959 
 H                    -5.413     1.184     0.293 
 H                    -2.584    -0.33      2.199 
 H                    -4.367    -0.267     2.118 
 H                    -3.439     1.154     2.666 
 
 ITRead=  0  0  0  0  0  0  0  0  0  0  0  0  0  0  0  0  0  0  0  0
 ITRead=  0  0  0  0  0  0  0  0  0  0
 MicOpt= -1 -1 -1 -1 -1 -1 -1 -1 -1 -1 -1 -1 -1 -1 -1 -1 -1 -1 -1 -1
 MicOpt= -1 -1 -1 -1 -1 -1 -1 -1 -1 -1
 NAtoms=     30 NQM=       30 NQMF=       0 NMMI=      0 NMMIF=      0
                NMic=       0 NMicF=      0.
                    Isotopes and Nuclear Properties:
 (Nuclear quadrupole moments (NQMom) in fm**2, nuclear magnetic moments (NMagM)
  in nuclear magnetons)

  Atom         1           2           3           4           5           6           7           8           9          10
 IAtWgt=          16          32          14          12          14          16          12          12          12          12
 AtmWgt=  15.9949146  31.9720718  14.0030740  12.0000000  14.0030740  15.9949146  12.0000000  12.0000000  12.0000000  12.0000000
 NucSpn=           0           0           2           0           2           0           0           0           0           0
 AtZEff=  -0.0000000  -0.0000000  -0.0000000  -0.0000000  -0.0000000  -0.0000000  -0.0000000  -0.0000000  -0.0000000  -0.0000000
 NQMom=    0.0000000   0.0000000   2.0440000   0.0000000   2.0440000   0.0000000   0.0000000   0.0000000   0.0000000   0.0000000
 NMagM=    0.0000000   0.0000000   0.4037610   0.0000000   0.4037610   0.0000000   0.0000000   0.0000000   0.0000000   0.0000000
 AtZNuc=   8.0000000  16.0000000   7.0000000   6.0000000   7.0000000   8.0000000   6.0000000   6.0000000   6.0000000   6.0000000

  Atom        11          12          13          14          15          16          17          18          19          20
 IAtWgt=          12          12          12          12          14          12          12          16           1           1
 AtmWgt=  12.0000000  12.0000000  12.0000000  12.0000000  14.0030740  12.0000000  12.0000000  15.9949146   1.0078250   1.0078250
 NucSpn=           0           0           0           0           2           0           0           0           1           1
 AtZEff=  -0.0000000  -0.0000000  -0.0000000  -0.0000000  -0.0000000  -0.0000000  -0.0000000  -0.0000000  -0.0000000  -0.0000000
 NQMom=    0.0000000   0.0000000   0.0000000   0.0000000   2.0440000   0.0000000   0.0000000   0.0000000   0.0000000   0.0000000
 NMagM=    0.0000000   0.0000000   0.0000000   0.0000000   0.4037610   0.0000000   0.0000000   0.0000000   2.7928460   2.7928460
 AtZNuc=   6.0000000   6.0000000   6.0000000   6.0000000   7.0000000   6.0000000   6.0000000   8.0000000   1.0000000   1.0000000

  Atom        21          22          23          24          25          26          27          28          29          30
 IAtWgt=           1           1           1           1           1           1           1           1           1           1
 AtmWgt=   1.0078250   1.0078250   1.0078250   1.0078250   1.0078250   1.0078250   1.0078250   1.0078250   1.0078250   1.0078250
 NucSpn=           1           1           1           1           1           1           1           1           1           1
 AtZEff=  -0.0000000  -0.0000000  -0.0000000  -0.0000000  -0.0000000  -0.0000000  -0.0000000  -0.0000000  -0.0000000  -0.0000000
 NQMom=    0.0000000   0.0000000   0.0000000   0.0000000   0.0000000   0.0000000   0.0000000   0.0000000   0.0000000   0.0000000
 NMagM=    2.7928460   2.7928460   2.7928460   2.7928460   2.7928460   2.7928460   2.7928460   2.7928460   2.7928460   2.7928460
 AtZNuc=   1.0000000   1.0000000   1.0000000   1.0000000   1.0000000   1.0000000   1.0000000   1.0000000   1.0000000   1.0000000
 Leave Link  101 at Thu Sep 24 06:49:44 2020, MaxMem=  2147483648 cpu:               1.4 elap:               0.4
 (Enter /prod/apps/gaussian/g16b1/l103.exe)

 GradGradGradGradGradGradGradGradGradGradGradGradGradGradGradGradGradGrad
 Berny optimization.
 Initialization pass.
                           ----------------------------
                           !    Initial Parameters    !
                           ! (Angstroms and Degrees)  !
 --------------------------                            --------------------------
 ! Name  Definition              Value          Derivative Info.                !
 --------------------------------------------------------------------------------
 ! R1    R(1,2)                  1.4834         estimate D2E/DX2                !
 ! R2    R(2,3)                  1.6016         estimate D2E/DX2                !
 ! R3    R(2,15)                 1.7245         estimate D2E/DX2                !
 ! R4    R(2,18)                 1.4861         estimate D2E/DX2                !
 ! R5    R(3,4)                  1.3743         estimate D2E/DX2                !
 ! R6    R(4,5)                  1.3343         estimate D2E/DX2                !
 ! R7    R(4,14)                 1.438          estimate D2E/DX2                !
 ! R8    R(5,6)                  1.4226         estimate D2E/DX2                !
 ! R9    R(6,7)                  1.3565         estimate D2E/DX2                !
 ! R10   R(7,8)                  1.4641         estimate D2E/DX2                !
 ! R11   R(7,14)                 1.3622         estimate D2E/DX2                !
 ! R12   R(8,9)                  1.4055         estimate D2E/DX2                !
 ! R13   R(8,13)                 1.4065         estimate D2E/DX2                !
 ! R14   R(9,10)                 1.3944         estimate D2E/DX2                !
 ! R15   R(9,19)                 1.0847         estimate D2E/DX2                !
 ! R16   R(10,11)                1.3972         estimate D2E/DX2                !
 ! R17   R(10,20)                1.0861         estimate D2E/DX2                !
 ! R18   R(11,12)                1.3984         estimate D2E/DX2                !
 ! R19   R(11,21)                1.0856         estimate D2E/DX2                !
 ! R20   R(12,13)                1.3924         estimate D2E/DX2                !
 ! R21   R(12,22)                1.0868         estimate D2E/DX2                !
 ! R22   R(13,23)                1.086          estimate D2E/DX2                !
 ! R23   R(14,24)                1.0791         estimate D2E/DX2                !
 ! R24   R(15,16)                1.4708         estimate D2E/DX2                !
 ! R25   R(15,17)                1.4697         estimate D2E/DX2                !
 ! R26   R(16,25)                1.0905         estimate D2E/DX2                !
 ! R27   R(16,26)                1.0947         estimate D2E/DX2                !
 ! R28   R(16,27)                1.1012         estimate D2E/DX2                !
 ! R29   R(17,28)                1.0915         estimate D2E/DX2                !
 ! R30   R(17,29)                1.1006         estimate D2E/DX2                !
 ! R31   R(17,30)                1.0942         estimate D2E/DX2                !
 ! A1    A(1,2,3)              115.7369         estimate D2E/DX2                !
 ! A2    A(1,2,15)             104.2446         estimate D2E/DX2                !
 ! A3    A(1,2,18)             114.7665         estimate D2E/DX2                !
 ! A4    A(3,2,15)             106.1091         estimate D2E/DX2                !
 ! A5    A(3,2,18)             106.4776         estimate D2E/DX2                !
 ! A6    A(15,2,18)            109.0374         estimate D2E/DX2                !
 ! A7    A(2,3,4)              120.7957         estimate D2E/DX2                !
 ! A8    A(3,4,5)              127.3654         estimate D2E/DX2                !
 ! A9    A(3,4,14)             121.9026         estimate D2E/DX2                !
 ! A10   A(5,4,14)             110.7309         estimate D2E/DX2                !
 ! A11   A(4,5,6)              105.3156         estimate D2E/DX2                !
 ! A12   A(5,6,7)              109.3501         estimate D2E/DX2                !
 ! A13   A(6,7,8)              117.1987         estimate D2E/DX2                !
 ! A14   A(6,7,14)             109.4326         estimate D2E/DX2                !
 ! A15   A(8,7,14)             133.3667         estimate D2E/DX2                !
 ! A16   A(7,8,9)              120.7638         estimate D2E/DX2                !
 ! A17   A(7,8,13)             120.2574         estimate D2E/DX2                !
 ! A18   A(9,8,13)             118.9785         estimate D2E/DX2                !
 ! A19   A(8,9,10)             120.3581         estimate D2E/DX2                !
 ! A20   A(8,9,19)             119.6234         estimate D2E/DX2                !
 ! A21   A(10,9,19)            120.018          estimate D2E/DX2                !
 ! A22   A(9,10,11)            120.3113         estimate D2E/DX2                !
 ! A23   A(9,10,20)            119.576          estimate D2E/DX2                !
 ! A24   A(11,10,20)           120.1127         estimate D2E/DX2                !
 ! A25   A(10,11,12)           119.6404         estimate D2E/DX2                !
 ! A26   A(10,11,21)           120.2108         estimate D2E/DX2                !
 ! A27   A(12,11,21)           120.1487         estimate D2E/DX2                !
 ! A28   A(11,12,13)           120.2955         estimate D2E/DX2                !
 ! A29   A(11,12,22)           120.1236         estimate D2E/DX2                !
 ! A30   A(13,12,22)           119.5809         estimate D2E/DX2                !
 ! A31   A(8,13,12)            120.416          estimate D2E/DX2                !
 ! A32   A(8,13,23)            119.8951         estimate D2E/DX2                !
 ! A33   A(12,13,23)           119.6884         estimate D2E/DX2                !
 ! A34   A(4,14,7)             105.1696         estimate D2E/DX2                !
 ! A35   A(4,14,24)            126.1505         estimate D2E/DX2                !
 ! A36   A(7,14,24)            128.676          estimate D2E/DX2                !
 ! A37   A(2,15,16)            113.159          estimate D2E/DX2                !
 ! A38   A(2,15,17)            113.1413         estimate D2E/DX2                !
 ! A39   A(16,15,17)           111.9528         estimate D2E/DX2                !
 ! A40   A(15,16,25)           109.667          estimate D2E/DX2                !
 ! A41   A(15,16,26)           107.8599         estimate D2E/DX2                !
 ! A42   A(15,16,27)           112.6677         estimate D2E/DX2                !
 ! A43   A(25,16,26)           108.8302         estimate D2E/DX2                !
 ! A44   A(25,16,27)           109.3122         estimate D2E/DX2                !
 ! A45   A(26,16,27)           108.4196         estimate D2E/DX2                !
 ! A46   A(15,17,28)           109.677          estimate D2E/DX2                !
 ! A47   A(15,17,29)           112.5708         estimate D2E/DX2                !
 ! A48   A(15,17,30)           108.0691         estimate D2E/DX2                !
 ! A49   A(28,17,29)           109.1227         estimate D2E/DX2                !
 ! A50   A(28,17,30)           108.6209         estimate D2E/DX2                !
 ! A51   A(29,17,30)           108.6971         estimate D2E/DX2                !
 ! D1    D(1,2,3,4)             47.0966         estimate D2E/DX2                !
 ! D2    D(15,2,3,4)           -67.9622         estimate D2E/DX2                !
 ! D3    D(18,2,3,4)           175.967          estimate D2E/DX2                !
 ! D4    D(1,2,15,16)           48.7904         estimate D2E/DX2                !
 ! D5    D(1,2,15,17)          177.4729         estimate D2E/DX2                !
 ! D6    D(3,2,15,16)          171.4497         estimate D2E/DX2                !
 ! D7    D(3,2,15,17)          -59.8677         estimate D2E/DX2                !
 ! D8    D(18,2,15,16)         -74.2216         estimate D2E/DX2                !
 ! D9    D(18,2,15,17)          54.4609         estimate D2E/DX2                !
 ! D10   D(2,3,4,5)              6.5185         estimate D2E/DX2                !
 ! D11   D(2,3,4,14)          -173.8822         estimate D2E/DX2                !
 ! D12   D(3,4,5,6)            179.9844         estimate D2E/DX2                !
 ! D13   D(14,4,5,6)             0.3482         estimate D2E/DX2                !
 ! D14   D(3,4,14,7)           179.9989         estimate D2E/DX2                !
 ! D15   D(3,4,14,24)            0.6631         estimate D2E/DX2                !
 ! D16   D(5,4,14,7)            -0.3416         estimate D2E/DX2                !
 ! D17   D(5,4,14,24)         -179.6774         estimate D2E/DX2                !
 ! D18   D(4,5,6,7)             -0.2322         estimate D2E/DX2                !
 ! D19   D(5,6,7,8)            179.5781         estimate D2E/DX2                !
 ! D20   D(5,6,7,14)             0.0211         estimate D2E/DX2                !
 ! D21   D(6,7,8,9)             -3.6891         estimate D2E/DX2                !
 ! D22   D(6,7,8,13)           176.5346         estimate D2E/DX2                !
 ! D23   D(14,7,8,9)           175.7362         estimate D2E/DX2                !
 ! D24   D(14,7,8,13)           -4.0402         estimate D2E/DX2                !
 ! D25   D(6,7,14,4)             0.1834         estimate D2E/DX2                !
 ! D26   D(6,7,14,24)          179.4964         estimate D2E/DX2                !
 ! D27   D(8,7,14,4)          -179.2746         estimate D2E/DX2                !
 ! D28   D(8,7,14,24)            0.0384         estimate D2E/DX2                !
 ! D29   D(7,8,9,10)          -179.6536         estimate D2E/DX2                !
 ! D30   D(7,8,9,19)             0.0909         estimate D2E/DX2                !
 ! D31   D(13,8,9,10)            0.1256         estimate D2E/DX2                !
 ! D32   D(13,8,9,19)          179.8701         estimate D2E/DX2                !
 ! D33   D(7,8,13,12)          179.7001         estimate D2E/DX2                !
 ! D34   D(7,8,13,23)           -0.5496         estimate D2E/DX2                !
 ! D35   D(9,8,13,12)           -0.0803         estimate D2E/DX2                !
 ! D36   D(9,8,13,23)          179.6701         estimate D2E/DX2                !
 ! D37   D(8,9,10,11)           -0.0736         estimate D2E/DX2                !
 ! D38   D(8,9,10,20)          179.8918         estimate D2E/DX2                !
 ! D39   D(19,9,10,11)        -179.8171         estimate D2E/DX2                !
 ! D40   D(19,9,10,20)           0.1483         estimate D2E/DX2                !
 ! D41   D(9,10,11,12)          -0.0254         estimate D2E/DX2                !
 ! D42   D(9,10,11,21)         179.9885         estimate D2E/DX2                !
 ! D43   D(20,10,11,12)       -179.9906         estimate D2E/DX2                !
 ! D44   D(20,10,11,21)          0.0232         estimate D2E/DX2                !
 ! D45   D(10,11,12,13)          0.0708         estimate D2E/DX2                !
 ! D46   D(10,11,12,22)       -179.9389         estimate D2E/DX2                !
 ! D47   D(21,11,12,13)       -179.943          estimate D2E/DX2                !
 ! D48   D(21,11,12,22)          0.0472         estimate D2E/DX2                !
 ! D49   D(11,12,13,8)          -0.0175         estimate D2E/DX2                !
 ! D50   D(11,12,13,23)       -179.7684         estimate D2E/DX2                !
 ! D51   D(22,12,13,8)         179.9923         estimate D2E/DX2                !
 ! D52   D(22,12,13,23)          0.2414         estimate D2E/DX2                !
 ! D53   D(2,15,16,25)         -52.6471         estimate D2E/DX2                !
 ! D54   D(2,15,16,26)        -171.0244         estimate D2E/DX2                !
 ! D55   D(2,15,16,27)          69.3497         estimate D2E/DX2                !
 ! D56   D(17,15,16,25)        178.0608         estimate D2E/DX2                !
 ! D57   D(17,15,16,26)         59.6835         estimate D2E/DX2                !
 ! D58   D(17,15,16,27)        -59.9425         estimate D2E/DX2                !
 ! D59   D(2,15,17,28)          50.6879         estimate D2E/DX2                !
 ! D60   D(2,15,17,29)         -71.0078         estimate D2E/DX2                !
 ! D61   D(2,15,17,30)         168.941          estimate D2E/DX2                !
 ! D62   D(16,15,17,28)        179.9893         estimate D2E/DX2                !
 ! D63   D(16,15,17,29)         58.2936         estimate D2E/DX2                !
 ! D64   D(16,15,17,30)        -61.7577         estimate D2E/DX2                !
 --------------------------------------------------------------------------------
 Trust Radius=3.00D-01 FncErr=1.00D-07 GrdErr=1.00D-06 EigMax=2.50D+02 EigMin=1.00D-04
 Number of steps in this run=    156 maximum allowed number of steps=    180.
 GradGradGradGradGradGradGradGradGradGradGradGradGradGradGradGradGradGrad

 Leave Link  103 at Thu Sep 24 06:49:44 2020, MaxMem=  2147483648 cpu:               0.1 elap:               0.0
 (Enter /prod/apps/gaussian/g16b1/l202.exe)
                          Input orientation:                          
 ---------------------------------------------------------------------
 Center     Atomic      Atomic             Coordinates (Angstroms)
 Number     Number       Type             X           Y           Z
 ---------------------------------------------------------------------
      1          8           0       -2.972000    0.348000   -1.858000
      2         16           0       -2.998000   -0.384000   -0.568000
      3          7           0       -1.620000   -1.074000   -0.132000
      4          6           0       -0.435000   -0.381000   -0.196000
      5          7           0       -0.267000    0.911000   -0.484000
      6          8           0        1.137000    1.131000   -0.419000
      7          6           0        1.759000   -0.029000   -0.091000
      8          6           0        3.219000    0.001000    0.014000
      9          6           0        3.938000    1.169000   -0.293000
     10          6           0        5.329000    1.186000   -0.197000
     11          6           0        6.022000    0.042000    0.207000
     12          6           0        5.313000   -1.123000    0.516000
     13          6           0        3.924000   -1.146000    0.421000
     14          6           0        0.830000   -1.013000    0.065000
     15          7           0       -3.314000    0.838000    0.607000
     16          6           0       -4.445000    1.707000    0.248000
     17          6           0       -3.440000    0.308000    1.972000
     18          8           0       -4.045000   -1.434000   -0.469000
     19          1           0        3.405000    2.059000   -0.610000
     20          1           0        5.872000    2.095000   -0.439000
     21          1           0        7.105000    0.057000    0.281000
     22          1           0        5.844000   -2.017000    0.832000
     23          1           0        3.383000   -2.055000    0.667000
     24          1           0        0.983000   -2.051000    0.317000
     25          1           0       -4.297000    2.106000   -0.756000
     26          1           0       -4.468000    2.539000    0.959000
     27          1           0       -5.413000    1.184000    0.293000
     28          1           0       -2.584000   -0.330000    2.199000
     29          1           0       -4.367000   -0.267000    2.118000
     30          1           0       -3.439000    1.154000    2.666000
 ---------------------------------------------------------------------
                    Distance matrix (angstroms):
                    1          2          3          4          5
     1  O    0.000000
     2  S    1.483442   0.000000
     3  N    2.613248   1.601587   0.000000
     4  C    3.119303   2.589858   1.374253   0.000000
     5  N    3.085753   3.023647   2.427908   1.334328   0.000000
     6  O    4.423538   4.406319   3.541955   2.192500   1.422618
     7  C    5.064265   4.794017   3.537138   2.224537   2.267758
     8  C    6.477135   6.256040   4.959119   3.679910   3.637073
     9  C    7.132417   7.113053   5.995693   4.640586   4.217235
    10  C    8.506925   8.481832   7.307560   5.973206   5.610099
    11  C    9.233087   9.063250   7.730494   6.483378   6.386248
    12  C    8.743051   8.413911   6.963390   5.839265   6.022753
    13  C    7.414897   7.033694   5.571977   4.468422   4.755497
    14  C    4.472746   3.930638   2.458664   1.437974   2.281794
    15  N    2.536393   1.724461   2.659229   3.227911   3.237255
    16  C    2.907206   2.670570   3.982334   4.542794   4.315683
    17  C    3.858695   2.669425   3.106306   3.768948   4.057521
    18  O    2.501234   1.486106   2.474630   3.770337   4.446632
    19  H    6.719461   6.853351   5.940943   4.568435   3.849333
    20  H    9.125892   9.210808   8.140447   6.779961   6.252296
    21  H   10.305626  10.148196   8.807687   7.567759   7.460625
    22  H    9.515838   9.099871   7.584843   6.569560   6.902852
    23  H    7.248176   6.710784   5.160501   4.257249   4.841948
    24  H    5.111541   4.405732   2.816334   2.250065   3.313238
    25  H    2.461827   2.814755   4.203345   4.627506   4.212233
    26  H    3.869623   3.610617   4.728124   5.111312   4.730860
    27  H    3.359193   3.005357   4.434641   5.241071   5.211485
    28  H    4.131522   2.798321   2.629904   3.218202   3.755937
    29  H    4.258266   3.017026   3.641395   4.563794   4.996808
    30  H    4.618907   3.608141   4.012674   4.423945   4.476956
                    6          7          8          9         10
     6  O    0.000000
     7  C    1.356491   0.000000
     8  C    2.408135   1.464078   0.000000
     9  C    2.804090   2.494804   1.405501   0.000000
    10  C    4.198235   3.772580   2.429166   1.394412   0.000000
    11  C    5.043909   4.273993   2.809936   2.421401   1.397212
    12  C    4.836705   3.767785   2.429036   2.792556   2.416631
    13  C    3.695632   2.489389   1.406514   2.422647   2.791805
    14  C    2.219288   1.362216   2.595789   3.814309   5.014504
    15  N    4.577109   5.193671   6.613041   7.315126   8.687288
    16  C    5.651141   6.451219   7.855068   8.417649   9.797987
    17  C    5.229067   5.603493   6.947683   7.765721   9.075836
    18  O    5.782288   5.983588   7.420122   8.398504   9.737056
    19  H    2.457944   2.708952   2.158550   1.084748   2.152783
    20  H    4.832176   4.642117   3.410052   2.149220   1.086137
    21  H    6.104138   5.359617   3.895564   3.405277   2.158078
    22  H    5.799203   4.635871   3.410583   3.879311   3.403421
    23  H    4.046543   2.704924   2.163433   3.409370   3.877821
    24  H    3.269639   2.203888   3.049952   4.412768   5.443352
    25  H    5.531053   6.455663   7.843098   8.301058   9.686008
    26  H    5.941159   6.817085   8.150119   8.608440   9.957317
    27  H    6.588798   7.283983   8.717153   9.369355  10.753170
    28  H    4.778523   4.918979   6.209557   7.140977   8.405632
    29  H    6.219710   6.516456   7.876931   8.766302  10.073870
    30  H    5.518834   6.001645   7.258890   7.948335   9.223644
                   11         12         13         14         15
    11  C    0.000000
    12  C    1.398352   0.000000
    13  C    2.420484   1.392435   0.000000
    14  C    5.300005   4.506971   3.117252   0.000000
    15  N    9.378407   8.847538   7.507296   4.570853   0.000000
    16  C   10.598679  10.163626   8.843625   5.937804   1.470783
    17  C    9.628885   8.987920   7.664738   4.859485   1.469694
    18  O   10.197060   9.414835   8.023715   4.922197   2.618038
    19  H    3.403596   3.877301   3.406515   4.064903   6.936634
    20  H    2.157458   3.402944   3.877936   5.944362   9.330421
    21  H    1.085629   2.158446   3.403758   6.369237  10.453315
    22  H    2.159118   1.086763   2.148014   5.170735   9.595343
    23  H    3.401960   2.148563   1.086038   2.822406   7.295400
    24  H    5.457497   4.432797   3.078851   1.079054   5.186003
    25  H   10.567366  10.217462   8.918838   6.057089   2.105204
    26  H   10.809284  10.453442   9.181195   6.440865   2.085431
    27  H   11.492205  10.973562   9.624181   6.622223   2.150375
    28  H    8.841362   8.113196   6.795675   4.083606   2.105134
    29  H   10.567815   9.848936   8.508415   5.637387   2.147779
    30  H    9.838381   9.295415   8.033915   5.448436   2.086855
                   16         17         18         19         20
    16  C    0.000000
    17  C    2.437089   0.000000
    18  O    3.246532   3.059260   0.000000
    19  H    7.904592   7.522417   8.229425   0.000000
    20  H   10.347125   9.783641  10.526235   2.473181   0.000000
    21  H   11.667309  10.682673  11.274222   4.300219   2.488400
    22  H   10.957771   9.638355   9.991237   4.964057   4.304041
    23  H    8.695159   7.337583   7.539981   4.307692   4.963956
    24  H    6.602311   5.278905   5.126331   4.859785   6.454702
    25  H    1.090468   3.377756   3.560544   7.703527  10.173946
    26  H    1.094657   2.657125   4.242976   8.042157  10.443521
    27  H    1.101171   2.734803   3.050572   8.907197  11.345350
    28  H    3.379215   1.091471   3.235979   7.033201   9.183877
    29  H    2.720232   1.100577   2.856246   8.558986  10.814546
    30  H    2.676671   1.094236   4.110134   7.641436   9.860083
                   21         22         23         24         25
    21  H    0.000000
    22  H    2.489015   0.000000
    23  H    4.296839   2.466818   0.000000
    24  H    6.474862   4.888323   2.425390   0.000000
    25  H   11.630966  11.061680   8.849929   6.805173   0.000000
    26  H   11.855561  11.274334   9.101005   7.154975   1.777064
    27  H   12.568635  11.715672   9.380864   7.167609   1.787719
    28  H    9.884595   8.703209   6.397479   4.384889   4.195294
    29  H   11.622664  10.439388   8.084853   5.920199   3.727721
    30  H   10.865890   9.979624   7.799575   5.945074   3.654114
                   26         27         28         29         30
    26  H    0.000000
    27  H    1.781181   0.000000
    28  H    3.649413   3.732060   0.000000
    29  H    3.037617   2.555414   1.785950   0.000000
    30  H    2.427121   3.086860   1.775210   1.783460   0.000000
 Symmetry turned off by external request.
 Stoichiometry    C11H12N3O3S(1-)
 Framework group  C1[X(C11H12N3O3S)]
 Deg. of freedom    84
 Full point group                 C1      NOp   1
 Rotational constants (GHZ):           1.2657050           0.1511537           0.1469927
 Leave Link  202 at Thu Sep 24 06:49:44 2020, MaxMem=  2147483648 cpu:               0.0 elap:               0.0
 (Enter /prod/apps/gaussian/g16b1/l301.exe)
 Standard basis: 6-31G(d) (6D, 7F)
 Ernie: Thresh=  0.10000D-02 Tol=  0.10000D-05 Strict=F.
   298 basis functions,   576 primitive gaussians,   298 cartesian basis functions
    70 alpha electrons       70 beta electrons
       nuclear repulsion energy      1421.8833318300 Hartrees.
 IExCor=  402 DFT=T Ex+Corr=B3LYP ExCW=0 ScaHFX=  0.200000
 ScaDFX=  0.800000  0.720000  1.000000  0.810000 ScalE2=  1.000000  1.000000
 IRadAn=      5 IRanWt=     -1 IRanGd=            0 ICorTp=0 IEmpDi=  4
 NAtoms=   30 NActive=   30 NUniq=   30 SFac= 1.00D+00 NAtFMM=   60 NAOKFM=F Big=F
 Integral buffers will be    131072 words long.
 Raffenetti 2 integral format.
 Two-electron integral symmetry is turned off.
 Using the following non-standard input for PCM:
 MSTModel=DFT cav MSTcharged
 --- end of non-standard input.
 MST model for solvation energy: B3LYP parametrization.
 MST cavity parameters:
 ISph   IAn     Re0     Alpha   Atom Type   QCorr
 ------------------------------------------------
   1      8     1.40     1.25      O          F
   2     16     1.75     1.25      S          F
   3      7     1.40     1.15      N          T
   4      6     1.50     1.25      C          F
   5      7     1.40     1.25      N          F
   6      8     1.40     1.25      O          F
   7      6     1.50     1.25      C          F
   8      6     1.50     1.25      C          F
   9      6     1.50     1.25      CH         F
  10      6     1.50     1.25      CH         F
  11      6     1.50     1.25      CH         F
  12      6     1.50     1.25      CH         F
  13      6     1.50     1.25      CH         F
  14      6     1.50     1.25      CH         F
  15      7     1.40     1.25      N          F
  16      6     1.50     1.25      CH3        F
  17      6     1.50     1.25      CH3        F
  18      8     1.40     1.25      O          F
  19      1     1.20     1.25      CH         F
  20      1     1.20     1.25      CH         F
  21      1     1.20     1.25      CH         F
  22      1     1.20     1.25      CH         F
  23      1     1.20     1.25      CH         F
  24      1     1.20     1.25      CH         F
  25      1     1.20     1.25      CH3        F
  26      1     1.20     1.25      CH3        F
  27      1     1.20     1.25      CH3        F
  28      1     1.20     1.25      CH3        F
  29      1     1.20     1.25      CH3        F
  30      1     1.20     1.25      CH3        F
 ------------------------------------------------------------------------------
 Polarizable Continuum Model (PCM)
 =================================
 Model                : PCM.
 Atomic radii         : MST.
 Polarization charges : Total charges.
 Charge compensation  : None.
 Solution method      : On-the-fly selection.
 Cavity type          : Scaled VdW (van der Waals Surface) (Alpha=1.250).
 Cavity algorithm     : GePol (No added spheres)
                        Default sphere list used, NSphG=   30.
                        Lebedev-Laikov grids with approx.  5.0 points / Ang**2.
                        Smoothing algorithm: York/Karplus (Gamma=1.0000).
                        Polarization charges: spherical gaussians, with
                                              point-specific exponents (IZeta= 3).
                        Self-potential: point-specific (ISelfS= 7).
                        Self-field    : sphere-specific E.n sum rule (ISelfD= 2).
 1st derivatives      : Analytical E(r).r(x)/FMM algorithm (CHGder, D1EAlg=3).
                        Cavity 1st derivative terms included.
 Solvent              : Water, Eps=  78.355300 Eps(inf)=   1.777849
 ------------------------------------------------------------------------------
 GePol: Number of generator spheres                  =      30
 GePol: Total number of spheres                      =      30
 GePol: Number of exposed spheres                    =      30 (100.00%)
 GePol: Number of points                             =    2339
 GePol: Average weight of points                     =       0.13
 GePol: Minimum weight of points                     =   0.20D-09
 GePol: Maximum weight of points                     =    0.22001
 GePol: Number of points with low weight             =     144
 GePol: Fraction of low-weight points (<1% of avg)   =       6.16%
 GePol: Cavity surface area                          =    310.542 Ang**2
 GePol: Cavity volume                                =    290.661 Ang**3
 PCM non-electrostatic energy =         0.0041758799 Hartrees.
 Nuclear repulsion after PCM non-electrostatic terms =     1421.8875077099 Hartrees.
 Leave Link  301 at Thu Sep 24 06:49:45 2020, MaxMem=  2147483648 cpu:               0.3 elap:               0.1
 (Enter /prod/apps/gaussian/g16b1/l302.exe)
 NPDir=0 NMtPBC=     1 NCelOv=     1 NCel=       1 NClECP=     1 NCelD=      1
         NCelK=      1 NCelE2=     1 NClLst=     1 CellRange=     0.0.
 One-electron integrals computed using PRISM.
 NBasis=   298 RedAO= T EigKep=  4.60D-04  NBF=   298
 NBsUse=   298 1.00D-06 EigRej= -1.00D+00 NBFU=   298
 Precomputing XC quadrature grid using
 IXCGrd= 4 IRadAn=           5 IRanWt=          -1 IRanGd=           0 AccXCQ= 0.00D+00.
 Generated NRdTot=       0 NPtTot=           0 NUsed=           0 NTot=          32
 NSgBfM=   296   296   296   296   296 MxSgAt=    30 MxSgA2=    30.
 Leave Link  302 at Thu Sep 24 06:49:45 2020, MaxMem=  2147483648 cpu:               1.3 elap:               0.4
 (Enter /prod/apps/gaussian/g16b1/l303.exe)
 DipDrv:  MaxL=1.
 Leave Link  303 at Thu Sep 24 06:49:45 2020, MaxMem=  2147483648 cpu:               0.2 elap:               0.1
 (Enter /prod/apps/gaussian/g16b1/l401.exe)
 ExpMin= 1.17D-01 ExpMax= 2.19D+04 ExpMxC= 3.30D+03 IAcc=3 IRadAn=         5 AccDes= 0.00D+00
 Harris functional with IExCor=  402 and IRadAn=       5 diagonalized for initial guess.
 HarFok:  IExCor=  402 AccDes= 0.00D+00 IRadAn=         5 IDoV= 1 UseB2=F ITyADJ=14
 ICtDFT=  3500011 ScaDFX=  1.000000  1.000000  1.000000  1.000000
 FoFCou: FMM=F IPFlag=           0 FMFlag=      100000 FMFlg1=           0
         NFxFlg=           0 DoJE=T BraDBF=F KetDBF=T FulRan=T
         wScrn=  0.000000 ICntrl=       500 IOpCl=  0 I1Cent=   200000004 NGrid=           0
         NMat0=    1 NMatS0=      1 NMatT0=    0 NMatD0=    1 NMtDS0=    0 NMtDT0=    0
 Symmetry not used in FoFCou.
 Harris En= -1214.60739073901    
 JPrj=0 DoOrth=F DoCkMO=F.
 Leave Link  401 at Thu Sep 24 06:49:47 2020, MaxMem=  2147483648 cpu:               7.4 elap:               1.9
 (Enter /prod/apps/gaussian/g16b1/l502.exe)
 Keep R1 ints in memory in canonical form, NReq=1005784643.
 FoFCou: FMM=F IPFlag=           0 FMFlag=           0 FMFlg1=           0
         NFxFlg=           0 DoJE=F BraDBF=F KetDBF=F FulRan=T
         wScrn=  0.000000 ICntrl=       600 IOpCl=  0 I1Cent=           0 NGrid=           0
         NMat0=    1 NMatS0=  44551 NMatT0=    0 NMatD0=    1 NMtDS0=    0 NMtDT0=    0
 Symmetry not used in FoFCou.
 Two-electron integral symmetry not used.
 Closed shell SCF:
 Using DIIS extrapolation, IDIIS=  1040.
 NGot=  2147483648 LenX=  1154883590 LenY=  1154794345
 Requested convergence on RMS density matrix=1.00D-08 within2000 cycles.
 Requested convergence on MAX density matrix=1.00D-06.
 Requested convergence on             energy=1.00D-06.
 No special actions if energy rises.

 Cycle   1  Pass 1  IDiag  1:
 Inv3:  Mode=1 IEnd=    16412763.
 Iteration    1 A*A^-1 deviation from unit magnitude is 3.66D-15 for    366.
 Iteration    1 A*A^-1 deviation from orthogonality  is 2.11D-15 for   2011    258.
 Iteration    1 A^-1*A deviation from unit magnitude is 3.22D-15 for    366.
 Iteration    1 A^-1*A deviation from orthogonality  is 2.15D-15 for   1769   1754.
 E= -1213.98039253822    
 DIIS: error= 3.35D-02 at cycle   1 NSaved=   1.
 NSaved= 1 IEnMin= 1 EnMin= -1213.98039253822     IErMin= 1 ErrMin= 3.35D-02
 ErrMax= 3.35D-02  0.00D+00 EMaxC= 1.00D-01 BMatC= 6.48D-01 BMatP= 6.48D-01
 IDIUse=3 WtCom= 6.65D-01 WtEn= 3.35D-01
 Coeff-Com:  0.100D+01
 Coeff-En:   0.100D+01
 Coeff:      0.100D+01
 Gap=     0.210 Goal=   None    Shift=    0.000
 GapD=    0.210 DampG=1.000 DampE=0.500 DampFc=0.5000 IDamp=-1.
 Damping current iteration by 5.00D-01
 RMSDP=6.20D-03 MaxDP=5.55D-01              OVMax= 2.04D-01

 Cycle   2  Pass 1  IDiag  1:
 E= -1214.16592467492     Delta-E=       -0.185532136705 Rises=F Damp=T
 DIIS: error= 9.46D-03 at cycle   2 NSaved=   2.
 NSaved= 2 IEnMin= 2 EnMin= -1214.16592467492     IErMin= 2 ErrMin= 9.46D-03
 ErrMax= 9.46D-03  0.00D+00 EMaxC= 1.00D-01 BMatC= 7.10D-02 BMatP= 6.48D-01
 IDIUse=3 WtCom= 9.05D-01 WtEn= 9.46D-02
 Coeff-Com:  0.180D+00 0.820D+00
 Coeff-En:   0.290D+00 0.710D+00
 Coeff:      0.191D+00 0.809D+00
 Gap=     0.212 Goal=   None    Shift=    0.000
 RMSDP=1.69D-03 MaxDP=1.33D-01 DE=-1.86D-01 OVMax= 1.64D-01

 Cycle   3  Pass 1  IDiag  1:
 E= -1214.50734457845     Delta-E=       -0.341419903523 Rises=F Damp=F
 DIIS: error= 7.19D-03 at cycle   3 NSaved=   3.
 NSaved= 3 IEnMin= 3 EnMin= -1214.50734457845     IErMin= 3 ErrMin= 7.19D-03
 ErrMax= 7.19D-03  0.00D+00 EMaxC= 1.00D-01 BMatC= 3.73D-02 BMatP= 7.10D-02
 IDIUse=3 WtCom= 9.28D-01 WtEn= 7.19D-02
 Coeff-Com:  0.419D-01 0.419D+00 0.539D+00
 Coeff-En:   0.000D+00 0.000D+00 0.100D+01
 Coeff:      0.389D-01 0.389D+00 0.572D+00
 Gap=     0.174 Goal=   None    Shift=    0.000
 RMSDP=8.80D-04 MaxDP=3.86D-02 DE=-3.41D-01 OVMax= 3.99D-02

 Cycle   4  Pass 1  IDiag  1:
 E= -1214.53454420219     Delta-E=       -0.027199623741 Rises=F Damp=F
 DIIS: error= 3.07D-03 at cycle   4 NSaved=   4.
 NSaved= 4 IEnMin= 4 EnMin= -1214.53454420219     IErMin= 4 ErrMin= 3.07D-03
 ErrMax= 3.07D-03  0.00D+00 EMaxC= 1.00D-01 BMatC= 5.87D-03 BMatP= 3.73D-02
 IDIUse=3 WtCom= 9.69D-01 WtEn= 3.07D-02
 Coeff-Com:  0.465D-03 0.101D+00 0.307D+00 0.592D+00
 Coeff-En:   0.000D+00 0.000D+00 0.110D+00 0.890D+00
 Coeff:      0.451D-03 0.974D-01 0.301D+00 0.601D+00
 Gap=     0.171 Goal=   None    Shift=    0.000
 RMSDP=2.95D-04 MaxDP=1.37D-02 DE=-2.72D-02 OVMax= 1.72D-02

 Cycle   5  Pass 1  IDiag  1:
 E= -1214.53900474206     Delta-E=       -0.004460539872 Rises=F Damp=F
 DIIS: error= 9.31D-04 at cycle   5 NSaved=   5.
 NSaved= 5 IEnMin= 5 EnMin= -1214.53900474206     IErMin= 5 ErrMin= 9.31D-04
 ErrMax= 9.31D-04  0.00D+00 EMaxC= 1.00D-01 BMatC= 5.74D-04 BMatP= 5.87D-03
 IDIUse=3 WtCom= 9.91D-01 WtEn= 9.31D-03
 Coeff-Com: -0.315D-02 0.188D-01 0.109D+00 0.323D+00 0.552D+00
 Coeff-En:   0.000D+00 0.000D+00 0.000D+00 0.230D-01 0.977D+00
 Coeff:     -0.312D-02 0.186D-01 0.108D+00 0.320D+00 0.556D+00
 Gap=     0.172 Goal=   None    Shift=    0.000
 RMSDP=9.28D-05 MaxDP=5.07D-03 DE=-4.46D-03 OVMax= 5.37D-03

 Cycle   6  Pass 1  IDiag  1:
 E= -1214.53947221244     Delta-E=       -0.000467470379 Rises=F Damp=F
 DIIS: error= 1.88D-04 at cycle   6 NSaved=   6.
 NSaved= 6 IEnMin= 6 EnMin= -1214.53947221244     IErMin= 6 ErrMin= 1.88D-04
 ErrMax= 1.88D-04  0.00D+00 EMaxC= 1.00D-01 BMatC= 3.21D-05 BMatP= 5.74D-04
 IDIUse=3 WtCom= 9.98D-01 WtEn= 1.88D-03
 Coeff-Com: -0.170D-02 0.401D-02 0.373D-01 0.128D+00 0.286D+00 0.547D+00
 Coeff-En:   0.000D+00 0.000D+00 0.000D+00 0.000D+00 0.000D+00 0.100D+01
 Coeff:     -0.170D-02 0.400D-02 0.373D-01 0.127D+00 0.285D+00 0.548D+00
 Gap=     0.172 Goal=   None    Shift=    0.000
 RMSDP=2.26D-05 MaxDP=1.40D-03 DE=-4.67D-04 OVMax= 2.57D-03

 Cycle   7  Pass 1  IDiag  1:
 E= -1214.53949662403     Delta-E=       -0.000024411593 Rises=F Damp=F
 DIIS: error= 8.62D-05 at cycle   7 NSaved=   7.
 NSaved= 7 IEnMin= 7 EnMin= -1214.53949662403     IErMin= 7 ErrMin= 8.62D-05
 ErrMax= 8.62D-05  0.00D+00 EMaxC= 1.00D-01 BMatC= 4.59D-06 BMatP= 3.21D-05
 IDIUse=1 WtCom= 1.00D+00 WtEn= 0.00D+00
 Coeff-Com: -0.784D-03 0.564D-03 0.124D-01 0.470D-01 0.123D+00 0.334D+00
 Coeff-Com:  0.485D+00
 Coeff:     -0.784D-03 0.564D-03 0.124D-01 0.470D-01 0.123D+00 0.334D+00
 Coeff:      0.485D+00
 Gap=     0.172 Goal=   None    Shift=    0.000
 RMSDP=8.13D-06 MaxDP=5.70D-04 DE=-2.44D-05 OVMax= 9.72D-04

 Cycle   8  Pass 1  IDiag  1:
 E= -1214.53950054301     Delta-E=       -0.000003918979 Rises=F Damp=F
 DIIS: error= 1.97D-05 at cycle   8 NSaved=   8.
 NSaved= 8 IEnMin= 8 EnMin= -1214.53950054301     IErMin= 8 ErrMin= 1.97D-05
 ErrMax= 1.97D-05  0.00D+00 EMaxC= 1.00D-01 BMatC= 3.34D-07 BMatP= 4.59D-06
 IDIUse=1 WtCom= 1.00D+00 WtEn= 0.00D+00
 Coeff-Com: -0.221D-03-0.125D-03 0.223D-02 0.101D-01 0.335D-01 0.120D+00
 Coeff-Com:  0.258D+00 0.577D+00
 Coeff:     -0.221D-03-0.125D-03 0.223D-02 0.101D-01 0.335D-01 0.120D+00
 Coeff:      0.258D+00 0.577D+00
 Gap=     0.172 Goal=   None    Shift=    0.000
 RMSDP=2.37D-06 MaxDP=1.35D-04 DE=-3.92D-06 OVMax= 2.61D-04

 Cycle   9  Pass 1  IDiag  1:
 E= -1214.53950081263     Delta-E=       -0.000000269624 Rises=F Damp=F
 DIIS: error= 8.37D-06 at cycle   9 NSaved=   9.
 NSaved= 9 IEnMin= 9 EnMin= -1214.53950081263     IErMin= 9 ErrMin= 8.37D-06
 ErrMax= 8.37D-06  0.00D+00 EMaxC= 1.00D-01 BMatC= 3.49D-08 BMatP= 3.34D-07
 IDIUse=1 WtCom= 1.00D+00 WtEn= 0.00D+00
 Coeff-Com: -0.188D-04-0.121D-03-0.400D-03-0.913D-03 0.132D-02 0.175D-01
 Coeff-Com:  0.609D-01 0.293D+00 0.628D+00
 Coeff:     -0.188D-04-0.121D-03-0.400D-03-0.913D-03 0.132D-02 0.175D-01
 Coeff:      0.609D-01 0.293D+00 0.628D+00
 Gap=     0.172 Goal=   None    Shift=    0.000
 RMSDP=6.94D-07 MaxDP=2.94D-05 DE=-2.70D-07 OVMax= 3.28D-05

 Cycle  10  Pass 1  IDiag  1:
 E= -1214.53950083923     Delta-E=       -0.000000026600 Rises=F Damp=F
 DIIS: error= 2.99D-06 at cycle  10 NSaved=  10.
 NSaved=10 IEnMin=10 EnMin= -1214.53950083923     IErMin=10 ErrMin= 2.99D-06
 ErrMax= 2.99D-06  0.00D+00 EMaxC= 1.00D-01 BMatC= 3.35D-09 BMatP= 3.49D-08
 IDIUse=1 WtCom= 1.00D+00 WtEn= 0.00D+00
 Coeff-Com: -0.151D-05-0.555D-04-0.326D-03-0.989D-03-0.868D-03 0.397D-02
 Coeff-Com:  0.198D-01 0.139D+00 0.350D+00 0.490D+00
 Coeff:     -0.151D-05-0.555D-04-0.326D-03-0.989D-03-0.868D-03 0.397D-02
 Coeff:      0.198D-01 0.139D+00 0.350D+00 0.490D+00
 Gap=     0.172 Goal=   None    Shift=    0.000
 RMSDP=2.14D-07 MaxDP=8.63D-06 DE=-2.66D-08 OVMax= 1.68D-05

 Cycle  11  Pass 1  IDiag  1:
 E= -1214.53950084206     Delta-E=       -0.000000002827 Rises=F Damp=F
 DIIS: error= 5.53D-07 at cycle  11 NSaved=  11.
 NSaved=11 IEnMin=11 EnMin= -1214.53950084206     IErMin=11 ErrMin= 5.53D-07
 ErrMax= 5.53D-07  0.00D+00 EMaxC= 1.00D-01 BMatC= 2.57D-10 BMatP= 3.35D-09
 IDIUse=1 WtCom= 1.00D+00 WtEn= 0.00D+00
 Coeff-Com:  0.150D-05-0.404D-05-0.103D-03-0.369D-03-0.760D-03-0.121D-02
 Coeff-Com: -0.164D-02 0.198D-01 0.555D-01 0.227D+00 0.702D+00
 Coeff:      0.150D-05-0.404D-05-0.103D-03-0.369D-03-0.760D-03-0.121D-02
 Coeff:     -0.164D-02 0.198D-01 0.555D-01 0.227D+00 0.702D+00
 Gap=     0.172 Goal=   None    Shift=    0.000
 RMSDP=5.66D-08 MaxDP=2.54D-06 DE=-2.83D-09 OVMax= 3.73D-06

 Cycle  12  Pass 1  IDiag  1:
 E= -1214.53950084227     Delta-E=       -0.000000000206 Rises=F Damp=F
 DIIS: error= 2.23D-07 at cycle  12 NSaved=  12.
 NSaved=12 IEnMin=12 EnMin= -1214.53950084227     IErMin=12 ErrMin= 2.23D-07
 ErrMax= 2.23D-07  0.00D+00 EMaxC= 1.00D-01 BMatC= 3.02D-11 BMatP= 2.57D-10
 IDIUse=1 WtCom= 1.00D+00 WtEn= 0.00D+00
 Coeff-Com:  0.679D-06 0.135D-05-0.376D-04-0.141D-03-0.355D-03-0.796D-03
 Coeff-Com: -0.201D-02 0.359D-02 0.948D-02 0.938D-01 0.371D+00 0.525D+00
 Coeff:      0.679D-06 0.135D-05-0.376D-04-0.141D-03-0.355D-03-0.796D-03
 Coeff:     -0.201D-02 0.359D-02 0.948D-02 0.938D-01 0.371D+00 0.525D+00
 Gap=     0.172 Goal=   None    Shift=    0.000
 RMSDP=2.18D-08 MaxDP=8.95D-07 DE=-2.06D-10 OVMax= 1.77D-06

 Cycle  13  Pass 1  IDiag  1:
 E= -1214.53950084229     Delta-E=       -0.000000000021 Rises=F Damp=F
 DIIS: error= 1.09D-07 at cycle  13 NSaved=  13.
 NSaved=13 IEnMin=13 EnMin= -1214.53950084229     IErMin=13 ErrMin= 1.09D-07
 ErrMax= 1.09D-07  0.00D+00 EMaxC= 1.00D-01 BMatC= 4.60D-12 BMatP= 3.02D-11
 IDIUse=1 WtCom= 1.00D+00 WtEn= 0.00D+00
 Coeff-Com:  0.783D-07 0.145D-05-0.361D-05-0.160D-04-0.768D-04-0.258D-03
 Coeff-Com: -0.999D-03-0.161D-02-0.568D-02 0.128D-01 0.817D-01 0.301D+00
 Coeff-Com:  0.613D+00
 Coeff:      0.783D-07 0.145D-05-0.361D-05-0.160D-04-0.768D-04-0.258D-03
 Coeff:     -0.999D-03-0.161D-02-0.568D-02 0.128D-01 0.817D-01 0.301D+00
 Coeff:      0.613D+00
 Gap=     0.172 Goal=   None    Shift=    0.000
 RMSDP=8.49D-09 MaxDP=3.73D-07 DE=-2.14D-11 OVMax= 6.89D-07

 Error on total polarization charges =  0.02235
 SCF Done:  E(RB3LYP) =  -1214.53950084     A.U. after   13 cycles
            NFock= 13  Conv=0.85D-08     -V/T= 2.0075
 KE= 1.205469203777D+03 PE=-5.712539129619D+03 EE= 1.870642917290D+03
 Leave Link  502 at Thu Sep 24 06:50:49 2020, MaxMem=  2147483648 cpu:             194.8 elap:              62.4
 (Enter /prod/apps/gaussian/g16b1/l601.exe)
 Copying SCF densities to generalized density rwf, IOpCl= 0 IROHF=0.

 **********************************************************************

            Population analysis using the SCF Density.

 **********************************************************************

 Alpha  occ. eigenvalues --  -89.09975 -19.21742 -19.12042 -19.11819 -14.35519
 Alpha  occ. eigenvalues --  -14.34953 -14.30499 -10.25332 -10.24845 -10.21140
 Alpha  occ. eigenvalues --  -10.20563 -10.20557 -10.19777 -10.19629 -10.19514
 Alpha  occ. eigenvalues --  -10.19463 -10.19428 -10.18226  -8.12188  -6.08680
 Alpha  occ. eigenvalues --   -6.08638  -6.08549  -1.11649  -1.08912  -0.96930
 Alpha  occ. eigenvalues --   -0.91705  -0.90406  -0.86429  -0.82037  -0.79124
 Alpha  occ. eigenvalues --   -0.74979  -0.74147  -0.70743  -0.67726  -0.63213
 Alpha  occ. eigenvalues --   -0.62024  -0.60129  -0.58052  -0.54316  -0.53051
 Alpha  occ. eigenvalues --   -0.49760  -0.48389  -0.47373  -0.46304  -0.45788
 Alpha  occ. eigenvalues --   -0.45472  -0.44594  -0.43734  -0.43319  -0.42508
 Alpha  occ. eigenvalues --   -0.41292  -0.40352  -0.39283  -0.38558  -0.37607
 Alpha  occ. eigenvalues --   -0.37028  -0.35676  -0.34568  -0.34377  -0.32376
 Alpha  occ. eigenvalues --   -0.31906  -0.31157  -0.29513  -0.28825  -0.28460
 Alpha  occ. eigenvalues --   -0.25777  -0.25604  -0.23662  -0.22589  -0.21309
 Alpha virt. eigenvalues --   -0.04151  -0.00626   0.03746   0.08330   0.08651
 Alpha virt. eigenvalues --    0.09545   0.10169   0.11390   0.12666   0.13453
 Alpha virt. eigenvalues --    0.13800   0.15015   0.15506   0.15847   0.16657
 Alpha virt. eigenvalues --    0.17288   0.17413   0.17979   0.18374   0.19338
 Alpha virt. eigenvalues --    0.19574   0.20354   0.21577   0.24133   0.24272
 Alpha virt. eigenvalues --    0.26717   0.27957   0.30314   0.31205   0.32720
 Alpha virt. eigenvalues --    0.33673   0.35011   0.39450   0.40707   0.42038
 Alpha virt. eigenvalues --    0.44083   0.45512   0.48089   0.49110   0.50591
 Alpha virt. eigenvalues --    0.51094   0.52121   0.53527   0.54222   0.54434
 Alpha virt. eigenvalues --    0.55967   0.56361   0.56482   0.58462   0.58720
 Alpha virt. eigenvalues --    0.59220   0.60097   0.60706   0.61256   0.61881
 Alpha virt. eigenvalues --    0.62070   0.63614   0.64747   0.65326   0.66303
 Alpha virt. eigenvalues --    0.66482   0.69673   0.70078   0.72111   0.72684
 Alpha virt. eigenvalues --    0.75836   0.76783   0.77584   0.79300   0.79397
 Alpha virt. eigenvalues --    0.80388   0.81890   0.82600   0.83534   0.84102
 Alpha virt. eigenvalues --    0.84985   0.85030   0.85687   0.86051   0.87760
 Alpha virt. eigenvalues --    0.88712   0.89796   0.90818   0.91215   0.91995
 Alpha virt. eigenvalues --    0.93463   0.94098   0.94232   0.96002   0.96669
 Alpha virt. eigenvalues --    0.97759   0.98218   0.98917   0.99884   1.02625
 Alpha virt. eigenvalues --    1.03944   1.04456   1.05740   1.07203   1.09115
 Alpha virt. eigenvalues --    1.10163   1.10366   1.11387   1.13586   1.16694
 Alpha virt. eigenvalues --    1.17617   1.18365   1.20423   1.23294   1.23817
 Alpha virt. eigenvalues --    1.24673   1.26466   1.27450   1.31278   1.32342
 Alpha virt. eigenvalues --    1.34704   1.36235   1.36990   1.38636   1.41421
 Alpha virt. eigenvalues --    1.42761   1.43284   1.45996   1.47275   1.47766
 Alpha virt. eigenvalues --    1.48593   1.49093   1.50591   1.51620   1.55981
 Alpha virt. eigenvalues --    1.56201   1.58099   1.60120   1.62435   1.68402
 Alpha virt. eigenvalues --    1.73665   1.76089   1.78510   1.79475   1.79883
 Alpha virt. eigenvalues --    1.80847   1.81711   1.82426   1.85125   1.86008
 Alpha virt. eigenvalues --    1.87043   1.88277   1.88887   1.90277   1.92347
 Alpha virt. eigenvalues --    1.94650   1.95624   1.96728   1.97676   1.99462
 Alpha virt. eigenvalues --    1.99985   2.01809   2.02105   2.04014   2.05082
 Alpha virt. eigenvalues --    2.07318   2.10718   2.11333   2.11880   2.12542
 Alpha virt. eigenvalues --    2.13471   2.14103   2.14859   2.16564   2.19621
 Alpha virt. eigenvalues --    2.21880   2.22924   2.23871   2.24374   2.26173
 Alpha virt. eigenvalues --    2.28353   2.30317   2.30412   2.33168   2.33290
 Alpha virt. eigenvalues --    2.35078   2.37538   2.43786   2.49526   2.51254
 Alpha virt. eigenvalues --    2.53547   2.53884   2.54395   2.58408   2.58877
 Alpha virt. eigenvalues --    2.60534   2.62320   2.64955   2.66368   2.66932
 Alpha virt. eigenvalues --    2.72282   2.73522   2.74597   2.75013   2.78018
 Alpha virt. eigenvalues --    2.80986   2.85124   2.89115   2.91237   2.93777
 Alpha virt. eigenvalues --    3.04693   3.06729   3.15349   3.28241   3.42937
 Alpha virt. eigenvalues --    3.82563   3.87933   3.95425   4.03194   4.06717
 Alpha virt. eigenvalues --    4.08649   4.10800   4.11218   4.16066   4.23910
 Alpha virt. eigenvalues --    4.26345   4.28480   4.32033   4.35690   4.38247
 Alpha virt. eigenvalues --    4.42492   4.59025   4.74787
          Condensed to atoms (all electrons):
               1          2          3          4          5          6
     1  O    8.378117   0.413900  -0.055273  -0.002832   0.001252   0.000015
     2  S    0.413900  13.556872   0.277524  -0.011453   0.001586  -0.000176
     3  N   -0.055273   0.277524   7.465769   0.341526  -0.088316   0.005067
     4  C   -0.002832  -0.011453   0.341526   4.450909   0.379440  -0.040468
     5  N    0.001252   0.001586  -0.088316   0.379440   7.083204   0.088715
     6  O    0.000015  -0.000176   0.005067  -0.040468   0.088715   8.264712
     7  C    0.000014   0.000448  -0.000249  -0.012836  -0.075068   0.236460
     8  C    0.000000  -0.000004  -0.000180   0.002994   0.004261  -0.040504
     9  C    0.000000  -0.000000  -0.000001  -0.000330   0.000126  -0.005606
    10  C    0.000000  -0.000000  -0.000000   0.000004  -0.000000   0.000325
    11  C    0.000000   0.000000   0.000000   0.000000  -0.000000   0.000001
    12  C   -0.000000  -0.000000   0.000000  -0.000006   0.000001  -0.000060
    13  C   -0.000000   0.000000   0.000002   0.000510  -0.000088   0.003070
    14  C   -0.000153  -0.000655  -0.054524   0.440025  -0.068557  -0.080798
    15  N   -0.050867   0.108028  -0.051466  -0.001519   0.001919   0.000026
    16  C   -0.006304  -0.015339   0.002319   0.000112  -0.000166   0.000000
    17  C    0.001749  -0.010744  -0.010321  -0.000203   0.000253  -0.000002
    18  O   -0.053344   0.450945  -0.069663   0.000971  -0.000028   0.000000
    19  H    0.000000  -0.000000  -0.000000   0.000042  -0.000239   0.010529
    20  H    0.000000   0.000000   0.000000  -0.000000   0.000000  -0.000002
    21  H    0.000000  -0.000000  -0.000000  -0.000000   0.000000   0.000000
    22  H   -0.000000   0.000000  -0.000000  -0.000000  -0.000000   0.000000
    23  H   -0.000000  -0.000000  -0.000001   0.000039  -0.000003   0.000022
    24  H    0.000001  -0.000101  -0.000063  -0.030716   0.006032   0.003673
    25  H    0.013083  -0.002225   0.000129  -0.000012   0.000040  -0.000000
    26  H    0.000182   0.001447  -0.000088  -0.000015   0.000014  -0.000000
    27  H   -0.000611  -0.003445  -0.000065   0.000000   0.000001   0.000000
    28  H    0.000048  -0.002659   0.014106   0.000493  -0.000132  -0.000002
    29  H   -0.000029  -0.005314  -0.000295  -0.000015   0.000007   0.000000
    30  H   -0.000052   0.002244  -0.000025  -0.000034  -0.000017  -0.000000
               7          8          9         10         11         12
     1  O    0.000014   0.000000   0.000000   0.000000   0.000000  -0.000000
     2  S    0.000448  -0.000004  -0.000000  -0.000000   0.000000  -0.000000
     3  N   -0.000249  -0.000180  -0.000001  -0.000000   0.000000   0.000000
     4  C   -0.012836   0.002994  -0.000330   0.000004   0.000000  -0.000006
     5  N   -0.075068   0.004261   0.000126  -0.000000  -0.000000   0.000001
     6  O    0.236460  -0.040504  -0.005606   0.000325   0.000001  -0.000060
     7  C    4.754554   0.348453  -0.042353   0.004552   0.000820   0.006206
     8  C    0.348453   4.787672   0.471056  -0.010527  -0.033795  -0.011501
     9  C   -0.042353   0.471056   5.072393   0.503551  -0.038238  -0.042021
    10  C    0.004552  -0.010527   0.503551   4.897951   0.539196  -0.026803
    11  C    0.000820  -0.033795  -0.038238   0.539196   4.880763   0.539255
    12  C    0.006206  -0.011501  -0.042021  -0.026803   0.539255   4.889977
    13  C   -0.044029   0.536009  -0.082231  -0.041380  -0.040327   0.516951
    14  C    0.488963  -0.056935   0.011416  -0.000223   0.000014   0.000233
    15  N    0.000026   0.000000  -0.000000   0.000000   0.000000  -0.000000
    16  C   -0.000000   0.000000  -0.000000   0.000000   0.000000  -0.000000
    17  C   -0.000001   0.000000  -0.000000  -0.000000   0.000000  -0.000000
    18  O   -0.000000  -0.000000  -0.000000  -0.000000   0.000000  -0.000000
    19  H   -0.012919  -0.043021   0.362125  -0.042007   0.004611   0.000203
    20  H   -0.000168   0.003230  -0.037797   0.363082  -0.041297   0.004432
    21  H    0.000004   0.000490   0.004617  -0.041622   0.364279  -0.041774
    22  H   -0.000197   0.003199   0.000775   0.004415  -0.041165   0.362487
    23  H   -0.012135  -0.036263   0.005767   0.000164   0.004535  -0.042879
    24  H   -0.031744  -0.003237  -0.000120   0.000001  -0.000001   0.000094
    25  H    0.000000   0.000000  -0.000000   0.000000   0.000000  -0.000000
    26  H    0.000000  -0.000000   0.000000   0.000000  -0.000000   0.000000
    27  H    0.000000   0.000000  -0.000000   0.000000   0.000000   0.000000
    28  H    0.000008   0.000000  -0.000000   0.000000  -0.000000  -0.000000
    29  H    0.000000   0.000000   0.000000   0.000000   0.000000   0.000000
    30  H    0.000000  -0.000000   0.000000  -0.000000  -0.000000   0.000000
              13         14         15         16         17         18
     1  O   -0.000000  -0.000153  -0.050867  -0.006304   0.001749  -0.053344
     2  S    0.000000  -0.000655   0.108028  -0.015339  -0.010744   0.450945
     3  N    0.000002  -0.054524  -0.051466   0.002319  -0.010321  -0.069663
     4  C    0.000510   0.440025  -0.001519   0.000112  -0.000203   0.000971
     5  N   -0.000088  -0.068557   0.001919  -0.000166   0.000253  -0.000028
     6  O    0.003070  -0.080798   0.000026   0.000000  -0.000002   0.000000
     7  C   -0.044029   0.488963   0.000026  -0.000000  -0.000001  -0.000000
     8  C    0.536009  -0.056935   0.000000   0.000000   0.000000  -0.000000
     9  C   -0.082231   0.011416  -0.000000  -0.000000  -0.000000  -0.000000
    10  C   -0.041380  -0.000223   0.000000   0.000000  -0.000000  -0.000000
    11  C   -0.040327   0.000014   0.000000   0.000000   0.000000   0.000000
    12  C    0.516951   0.000233  -0.000000  -0.000000  -0.000000  -0.000000
    13  C    5.023074  -0.019643   0.000000  -0.000000  -0.000000  -0.000000
    14  C   -0.019643   5.303807  -0.000265   0.000002   0.000003  -0.000054
    15  N    0.000000  -0.000265   7.277078   0.282847   0.278409  -0.061877
    16  C   -0.000000   0.000002   0.282847   5.001271  -0.054870  -0.002783
    17  C   -0.000000   0.000003   0.278409  -0.054870   5.004230   0.000891
    18  O   -0.000000  -0.000054  -0.061877  -0.002783   0.000891   8.354547
    19  H    0.005422   0.000228   0.000000  -0.000000  -0.000000  -0.000000
    20  H    0.000761   0.000001   0.000000  -0.000000  -0.000000   0.000000
    21  H    0.004749  -0.000000   0.000000   0.000000   0.000000  -0.000000
    22  H   -0.037609  -0.000001  -0.000000  -0.000000  -0.000000  -0.000000
    23  H    0.356840   0.005912   0.000000  -0.000000  -0.000000  -0.000000
    24  H    0.001199   0.351787   0.000002  -0.000000  -0.000002  -0.000002
    25  H   -0.000000   0.000000  -0.034346   0.374306   0.005254  -0.000392
    26  H    0.000000  -0.000000  -0.036342   0.376310  -0.002936  -0.000098
    27  H    0.000000   0.000000  -0.049308   0.364098  -0.004412   0.005304
    28  H   -0.000000  -0.000074  -0.033691   0.005272   0.372584  -0.001738
    29  H    0.000000   0.000000  -0.048663  -0.004357   0.364133   0.007192
    30  H    0.000000  -0.000001  -0.035008  -0.003926   0.376397   0.000022
              19         20         21         22         23         24
     1  O    0.000000   0.000000   0.000000  -0.000000  -0.000000   0.000001
     2  S   -0.000000   0.000000  -0.000000   0.000000  -0.000000  -0.000101
     3  N   -0.000000   0.000000  -0.000000  -0.000000  -0.000001  -0.000063
     4  C    0.000042  -0.000000  -0.000000  -0.000000   0.000039  -0.030716
     5  N   -0.000239   0.000000   0.000000  -0.000000  -0.000003   0.006032
     6  O    0.010529  -0.000002   0.000000   0.000000   0.000022   0.003673
     7  C   -0.012919  -0.000168   0.000004  -0.000197  -0.012135  -0.031744
     8  C   -0.043021   0.003230   0.000490   0.003199  -0.036263  -0.003237
     9  C    0.362125  -0.037797   0.004617   0.000775   0.005767  -0.000120
    10  C   -0.042007   0.363082  -0.041622   0.004415   0.000164   0.000001
    11  C    0.004611  -0.041297   0.364279  -0.041165   0.004535  -0.000001
    12  C    0.000203   0.004432  -0.041774   0.362487  -0.042879   0.000094
    13  C    0.005422   0.000761   0.004749  -0.037609   0.356840   0.001199
    14  C    0.000228   0.000001  -0.000000  -0.000001   0.005912   0.351787
    15  N    0.000000   0.000000   0.000000  -0.000000   0.000000   0.000002
    16  C   -0.000000  -0.000000   0.000000  -0.000000  -0.000000  -0.000000
    17  C   -0.000000  -0.000000   0.000000  -0.000000  -0.000000  -0.000002
    18  O   -0.000000   0.000000  -0.000000  -0.000000  -0.000000  -0.000002
    19  H    0.560644  -0.005007  -0.000152   0.000015  -0.000139  -0.000009
    20  H   -0.005007   0.562320  -0.005101  -0.000165   0.000015   0.000000
    21  H   -0.000152  -0.005101   0.564821  -0.005111  -0.000156  -0.000000
    22  H    0.000015  -0.000165  -0.005111   0.562168  -0.004963  -0.000002
    23  H   -0.000139   0.000015  -0.000156  -0.004963   0.560384   0.002020
    24  H   -0.000009   0.000000  -0.000000  -0.000002   0.002020   0.536119
    25  H   -0.000000  -0.000000   0.000000   0.000000  -0.000000  -0.000000
    26  H    0.000000   0.000000   0.000000   0.000000   0.000000   0.000000
    27  H    0.000000   0.000000   0.000000  -0.000000   0.000000   0.000000
    28  H    0.000000  -0.000000   0.000000   0.000000  -0.000000   0.000005
    29  H    0.000000   0.000000  -0.000000  -0.000000   0.000000   0.000000
    30  H    0.000000   0.000000   0.000000   0.000000   0.000000   0.000000
              25         26         27         28         29         30
     1  O    0.013083   0.000182  -0.000611   0.000048  -0.000029  -0.000052
     2  S   -0.002225   0.001447  -0.003445  -0.002659  -0.005314   0.002244
     3  N    0.000129  -0.000088  -0.000065   0.014106  -0.000295  -0.000025
     4  C   -0.000012  -0.000015   0.000000   0.000493  -0.000015  -0.000034
     5  N    0.000040   0.000014   0.000001  -0.000132   0.000007  -0.000017
     6  O   -0.000000  -0.000000   0.000000  -0.000002   0.000000  -0.000000
     7  C    0.000000   0.000000   0.000000   0.000008   0.000000   0.000000
     8  C    0.000000  -0.000000   0.000000   0.000000   0.000000  -0.000000
     9  C   -0.000000   0.000000  -0.000000  -0.000000   0.000000   0.000000
    10  C    0.000000   0.000000   0.000000   0.000000   0.000000  -0.000000
    11  C    0.000000  -0.000000   0.000000  -0.000000   0.000000  -0.000000
    12  C   -0.000000   0.000000   0.000000  -0.000000   0.000000   0.000000
    13  C   -0.000000   0.000000   0.000000  -0.000000   0.000000   0.000000
    14  C    0.000000  -0.000000   0.000000  -0.000074   0.000000  -0.000001
    15  N   -0.034346  -0.036342  -0.049308  -0.033691  -0.048663  -0.035008
    16  C    0.374306   0.376310   0.364098   0.005272  -0.004357  -0.003926
    17  C    0.005254  -0.002936  -0.004412   0.372584   0.364133   0.376397
    18  O   -0.000392  -0.000098   0.005304  -0.001738   0.007192   0.000022
    19  H   -0.000000   0.000000   0.000000   0.000000   0.000000   0.000000
    20  H   -0.000000   0.000000   0.000000  -0.000000   0.000000   0.000000
    21  H    0.000000   0.000000   0.000000   0.000000  -0.000000   0.000000
    22  H    0.000000   0.000000  -0.000000   0.000000  -0.000000   0.000000
    23  H   -0.000000   0.000000   0.000000  -0.000000   0.000000   0.000000
    24  H   -0.000000   0.000000   0.000000   0.000005   0.000000   0.000000
    25  H    0.521732  -0.022868  -0.033673  -0.000221  -0.000221  -0.000028
    26  H   -0.022868   0.550723  -0.039879   0.000009  -0.001787   0.005170
    27  H   -0.033673  -0.039879   0.603201  -0.000192   0.011346  -0.001502
    28  H   -0.000221   0.000009  -0.000192   0.528245  -0.033168  -0.023940
    29  H   -0.000221  -0.001787   0.011346  -0.033168   0.599391  -0.038113
    30  H   -0.000028   0.005170  -0.001502  -0.023940  -0.038113   0.547996
 Mulliken charges:
               1
     1  O   -0.638897
     2  S    1.239121
     3  N   -0.775912
     4  C    0.483371
     5  N   -0.334238
     6  O   -0.444996
     7  C    0.391192
     8  C    0.078602
     9  C   -0.183130
    10  C   -0.150682
    11  C   -0.138652
    12  C   -0.154795
    13  C   -0.183280
    14  C   -0.320509
    15  N   -0.544982
    16  C   -0.318791
    17  C   -0.320411
    18  O   -0.629893
    19  H    0.159674
    20  H    0.155695
    21  H    0.154957
    22  H    0.156153
    23  H    0.160840
    24  H    0.165064
    25  H    0.179442
    26  H    0.170157
    27  H    0.149139
    28  H    0.175050
    29  H    0.149895
    30  H    0.170817
 Sum of Mulliken charges =  -1.00000
 Mulliken charges with hydrogens summed into heavy atoms:
               1
     1  O   -0.638897
     2  S    1.239121
     3  N   -0.775912
     4  C    0.483371
     5  N   -0.334238
     6  O   -0.444996
     7  C    0.391192
     8  C    0.078602
     9  C   -0.023456
    10  C    0.005013
    11  C    0.016305
    12  C    0.001358
    13  C   -0.022441
    14  C   -0.155446
    15  N   -0.544982
    16  C    0.179948
    17  C    0.175351
    18  O   -0.629893
 Electronic spatial extent (au):  <R**2>=           7224.4510
 Charge=             -1.0000 electrons
 Dipole moment (field-independent basis, Debye):
    X=             12.5998    Y=              1.4999    Z=              6.3646  Tot=             14.1955
 Quadrupole moment (field-independent basis, Debye-Ang):
   XX=           -128.3445   YY=           -116.9143   ZZ=           -120.1555
   XY=            -17.6692   XZ=            -16.3124   YZ=             -0.5774
 Traceless Quadrupole moment (field-independent basis, Debye-Ang):
   XX=             -6.5397   YY=              4.8904   ZZ=              1.6493
   XY=            -17.6692   XZ=            -16.3124   YZ=             -0.5774
 Octapole moment (field-independent basis, Debye-Ang**2):
  XXX=            177.9146  YYY=             -7.1078  ZZZ=             30.1466  XYY=             27.8292
  XXY=             63.8091  XXZ=             69.3522  XZZ=            -10.8683  YZZ=             -6.2853
  YYZ=             10.5156  XYZ=            -12.9516
 Hexadecapole moment (field-independent basis, Debye-Ang**3):
 XXXX=          -7906.0881 YYYY=           -753.6839 ZZZZ=           -536.3721 XXXY=           -210.6597
 XXXZ=           -193.4970 YYYX=              5.4070 YYYZ=             -1.3238 ZZZX=           -110.8809
 ZZZY=             23.9014 XXYY=          -1479.9606 XXZZ=          -1587.4664 YYZZ=           -212.5915
 XXYZ=            -52.9127 YYXZ=            -24.7640 ZZXY=             17.3890
 N-N= 1.421887507710D+03 E-N=-5.712539124481D+03  KE= 1.205469203777D+03
 No NMR shielding tensors so no spin-rotation constants.
 Leave Link  601 at Thu Sep 24 06:50:49 2020, MaxMem=  2147483648 cpu:               0.4 elap:               0.1
 (Enter /prod/apps/gaussian/g16b1/l701.exe)
 ... and contract with generalized density number  0.
 Compute integral first derivatives.
 D1PCM: PCM CHGder 1st derivatives, ID1Alg=3 FixD1E=F DoIter=F DoCFld=F I1PDM=0.
 GePol: Maximum number of non-zero 1st derivatives   =     173
 Leave Link  701 at Thu Sep 24 06:50:51 2020, MaxMem=  2147483648 cpu:               8.3 elap:               2.1
 (Enter /prod/apps/gaussian/g16b1/l702.exe)
 L702 exits ... SP integral derivatives will be done elsewhere.
 Leave Link  702 at Thu Sep 24 06:50:51 2020, MaxMem=  2147483648 cpu:               0.1 elap:               0.0
 (Enter /prod/apps/gaussian/g16b1/l703.exe)
 Integral derivatives from FoFJK, PRISM(SPDF).
 Compute integral first derivatives, UseDBF=F ICtDFT=           0.
 Calling FoFJK, ICntrl=      2127 FMM=F ISym2X=0 I1Cent= 0 IOpClX= 0 NMat=1 NMatS=1 NMatT=0.
 FoFJK:  IHMeth= 1 ICntrl=    2127 DoSepK=F KAlg= 0 I1Cent=           0 FoldK=F
 IRaf=         0 NMat=       1 IRICut=       1 DoRegI=T DoRafI=F ISym2E= 0 IDoP0=0 IntGTp=1.
 FoFCou: FMM=F IPFlag=           0 FMFlag=      100000 FMFlg1=         800
         NFxFlg=           0 DoJE=F BraDBF=F KetDBF=F FulRan=T
         wScrn=  0.000000 ICntrl=      2127 IOpCl=  0 I1Cent=           0 NGrid=           0
         NMat0=    1 NMatS0=      1 NMatT0=    0 NMatD0=    1 NMtDS0=    0 NMtDT0=    0
 Symmetry not used in FoFCou.
 Leave Link  703 at Thu Sep 24 06:51:04 2020, MaxMem=  2147483648 cpu:              50.4 elap:              12.6
 (Enter /prod/apps/gaussian/g16b1/l716.exe)
 Dipole        = 4.95713223D+00 5.90101496D-01 2.50401599D+00
 -------------------------------------------------------------------
 Center     Atomic                   Forces (Hartrees/Bohr)
 Number     Number              X              Y              Z
 -------------------------------------------------------------------
      1        8          -0.000335722    0.000420241    0.000838669
      2       16          -0.001007851   -0.000011706    0.001106819
      3        7           0.000092842   -0.000109802    0.000059838
      4        6           0.001033833    0.000268901    0.000099263
      5        7           0.000064875   -0.001136115    0.000159532
      6        8           0.000416001   -0.000165596    0.000153587
      7        6          -0.000038006   -0.000155206   -0.000107648
      8        6          -0.000444100   -0.000344623    0.000116207
      9        6           0.000451453    0.000464202   -0.000240032
     10        6          -0.000041347   -0.000002599    0.000139694
     11        6          -0.000316937    0.000127238   -0.000048258
     12        6           0.000805069   -0.000523273    0.000088733
     13        6          -0.000562446   -0.000559591    0.000271799
     14        6          -0.000724455    0.000694917   -0.000223674
     15        7           0.000026570   -0.000127728   -0.000033281
     16        6          -0.000125308    0.000357946    0.000166888
     17        6          -0.000266666   -0.000253715   -0.000738944
     18        8           0.001072960    0.000984651   -0.000144715
     19        1          -0.000092226   -0.000865548    0.000324467
     20        1          -0.000470953   -0.000751335    0.000196003
     21        1          -0.000597810    0.000020222   -0.000036214
     22        1          -0.000636554    0.001136425   -0.000359130
     23        1           0.000176858    0.000923903   -0.000346436
     24        1           0.000309562    0.000834377   -0.000143034
     25        1           0.000328513   -0.001198120    0.000633165
     26        1           0.000074137   -0.000974667   -0.000463133
     27        1           0.000835298    0.000424295   -0.000082706
     28        1          -0.000909833    0.000625680   -0.000558615
     29        1           0.000999703    0.000579452    0.000002740
     30        1          -0.000117461   -0.000682824   -0.000831584
 -------------------------------------------------------------------
 Cartesian Forces:  Max     0.001198120 RMS     0.000541272
 Leave Link  716 at Thu Sep 24 06:51:04 2020, MaxMem=  2147483648 cpu:               0.1 elap:               0.0
 (Enter /prod/apps/gaussian/g16b1/l103.exe)

 GradGradGradGradGradGradGradGradGradGradGradGradGradGradGradGradGradGrad
 Berny optimization.
 FormGI is forming the generalized inverse of G from B-inverse, IUseBI=4.
 GSVD:  received Info=                   1 from GESDD.
 Internal  Forces:  Max     0.002279484 RMS     0.000598036
 Search for a local minimum.
 Step number   1 out of a maximum of  156
 All quantities printed in internal units (Hartrees-Bohrs-Radians)
 RMS Force = .59804D-03 SwitMx=.10000D-02 MixMth= 2
 Mixed Optimization -- En-DIIS/RFO-DIIS
 Second derivative matrix not updated -- first step.
 ITU=  0
     Eigenvalues ---    0.00755   0.00770   0.00973   0.01241   0.01777
     Eigenvalues ---    0.01809   0.01870   0.01976   0.02027   0.02032
     Eigenvalues ---    0.02082   0.02096   0.02118   0.02127   0.02136
     Eigenvalues ---    0.02146   0.02156   0.02168   0.02344   0.02347
     Eigenvalues ---    0.02598   0.07140   0.07157   0.07650   0.07663
     Eigenvalues ---    0.11213   0.11859   0.15998   0.16000   0.16000
     Eigenvalues ---    0.16000   0.16000   0.16000   0.16000   0.16000
     Eigenvalues ---    0.16000   0.16000   0.16000   0.16000   0.16508
     Eigenvalues ---    0.17959   0.18239   0.21161   0.22000   0.22000
     Eigenvalues ---    0.23474   0.23794   0.24999   0.24999   0.25000
     Eigenvalues ---    0.25000   0.25000   0.25000   0.33100   0.33553
     Eigenvalues ---    0.33618   0.34280   0.34328   0.34643   0.34759
     Eigenvalues ---    0.35189   0.35263   0.35275   0.35323   0.35427
     Eigenvalues ---    0.35647   0.35777   0.36109   0.36458   0.37759
     Eigenvalues ---    0.40908   0.41326   0.41778   0.45079   0.45402
     Eigenvalues ---    0.46167   0.46749   0.48911   0.50168   0.50912
     Eigenvalues ---    0.51830   0.56990   0.81468   0.82432
 RFO step:  Lambda=-1.94851064D-04 EMin= 7.55455348D-03
 Linear search not attempted -- first point.
 Iteration  1 RMS(Cart)=  0.01520875 RMS(Int)=  0.00007243
 Iteration  2 RMS(Cart)=  0.00012219 RMS(Int)=  0.00000375
 Iteration  3 RMS(Cart)=  0.00000001 RMS(Int)=  0.00000375
 ITry= 1 IFail=0 DXMaxC= 7.55D-02 DCOld= 1.00D+10 DXMaxT= 3.00D-01 DXLimC= 3.00D+00 Rises=F
 Variable       Old X    -DE/DX   Delta X   Delta X   Delta X     New X
                                 (Linear)    (Quad)   (Total)
    R1        2.80330  -0.00054   0.00000  -0.00065  -0.00065   2.80264
    R2        3.02656  -0.00044   0.00000  -0.00085  -0.00085   3.02571
    R3        3.25876  -0.00228   0.00000  -0.00688  -0.00688   3.25188
    R4        2.80833  -0.00146   0.00000  -0.00179  -0.00179   2.80655
    R5        2.59696  -0.00060   0.00000  -0.00120  -0.00120   2.59576
    R6        2.52152  -0.00094   0.00000  -0.00159  -0.00159   2.51992
    R7        2.71738  -0.00157   0.00000  -0.00406  -0.00406   2.71331
    R8        2.68836  -0.00030   0.00000  -0.00059  -0.00059   2.68776
    R9        2.56340  -0.00073   0.00000  -0.00132  -0.00132   2.56207
   R10        2.76671  -0.00174   0.00000  -0.00476  -0.00476   2.76195
   R11        2.57422  -0.00137   0.00000  -0.00268  -0.00268   2.57153
   R12        2.65601  -0.00089   0.00000  -0.00202  -0.00202   2.65399
   R13        2.65793  -0.00087   0.00000  -0.00193  -0.00193   2.65600
   R14        2.63506  -0.00101   0.00000  -0.00224  -0.00224   2.63281
   R15        2.04988  -0.00076   0.00000  -0.00213  -0.00213   2.04774
   R16        2.64035  -0.00075   0.00000  -0.00167  -0.00167   2.63868
   R17        2.05250  -0.00091   0.00000  -0.00257  -0.00257   2.04993
   R18        2.64250  -0.00056   0.00000  -0.00117  -0.00117   2.64133
   R19        2.05154  -0.00060   0.00000  -0.00170  -0.00170   2.04984
   R20        2.63132  -0.00025   0.00000  -0.00046  -0.00046   2.63086
   R21        2.05368  -0.00135   0.00000  -0.00384  -0.00384   2.04984
   R22        2.05231  -0.00094   0.00000  -0.00267  -0.00267   2.04964
   R23        2.03912  -0.00079   0.00000  -0.00219  -0.00219   2.03693
   R24        2.77938  -0.00175   0.00000  -0.00489  -0.00489   2.77448
   R25        2.77732  -0.00203   0.00000  -0.00566  -0.00566   2.77166
   R26        2.06069  -0.00098   0.00000  -0.00282  -0.00282   2.05786
   R27        2.06860  -0.00104   0.00000  -0.00303  -0.00303   2.06557
   R28        2.08091  -0.00094   0.00000  -0.00279  -0.00279   2.07812
   R29        2.06258  -0.00119   0.00000  -0.00345  -0.00345   2.05914
   R30        2.07979  -0.00115   0.00000  -0.00342  -0.00342   2.07637
   R31        2.06781  -0.00104   0.00000  -0.00304  -0.00304   2.06477
    A1        2.01999   0.00054   0.00000   0.00227   0.00226   2.02225
    A2        1.81941  -0.00134   0.00000  -0.00738  -0.00738   1.81203
    A3        2.00305   0.00022   0.00000   0.00089   0.00089   2.00394
    A4        1.85195   0.00029   0.00000   0.00093   0.00093   1.85288
    A5        1.85839  -0.00004   0.00000   0.00142   0.00142   1.85981
    A6        1.90306   0.00033   0.00000   0.00175   0.00175   1.90481
    A7        2.10828  -0.00145   0.00000  -0.00578  -0.00578   2.10250
    A8        2.22295  -0.00037   0.00000  -0.00139  -0.00139   2.22156
    A9        2.12760   0.00024   0.00000   0.00105   0.00105   2.12865
   A10        1.93262   0.00013   0.00000   0.00035   0.00035   1.93297
   A11        1.83810   0.00007   0.00000   0.00058   0.00058   1.83868
   A12        1.90852  -0.00068   0.00000  -0.00236  -0.00236   1.90616
   A13        2.04550  -0.00010   0.00000  -0.00034  -0.00034   2.04516
   A14        1.90996   0.00045   0.00000   0.00169   0.00169   1.91165
   A15        2.32769  -0.00035   0.00000  -0.00134  -0.00134   2.32635
   A16        2.10773  -0.00060   0.00000  -0.00242  -0.00242   2.10531
   A17        2.09889   0.00013   0.00000   0.00050   0.00050   2.09939
   A18        2.07657   0.00047   0.00000   0.00191   0.00191   2.07848
   A19        2.10065  -0.00009   0.00000  -0.00056  -0.00056   2.10008
   A20        2.08782  -0.00050   0.00000  -0.00313  -0.00313   2.08469
   A21        2.09471   0.00059   0.00000   0.00370   0.00370   2.09841
   A22        2.09983  -0.00005   0.00000  -0.00037  -0.00037   2.09946
   A23        2.08699  -0.00000   0.00000   0.00002   0.00002   2.08702
   A24        2.09636   0.00005   0.00000   0.00035   0.00035   2.09671
   A25        2.08812   0.00018   0.00000   0.00087   0.00087   2.08899
   A26        2.09807  -0.00012   0.00000  -0.00064  -0.00064   2.09743
[...]
 Alpha virt. eigenvalues --    1.64469   1.65246   1.65914   1.66598   1.67863
 Alpha virt. eigenvalues --    1.68585   1.69474   1.70032   1.70425   1.71202
 Alpha virt. eigenvalues --    1.71598   1.72446   1.72827   1.73813   1.74975
 Alpha virt. eigenvalues --    1.75715   1.76732   1.77515   1.79333   1.79701
 Alpha virt. eigenvalues --    1.80279   1.80793   1.81181   1.82012   1.82843
 Alpha virt. eigenvalues --    1.84165   1.84850   1.85201   1.85873   1.86594
 Alpha virt. eigenvalues --    1.88083   1.89238   1.89517   1.90352   1.91304
 Alpha virt. eigenvalues --    1.91930   1.92990   1.94226   1.94481   1.96481
 Alpha virt. eigenvalues --    1.97998   1.98910   1.99734   2.00140   2.00945
 Alpha virt. eigenvalues --    2.01768   2.02874   2.03238   2.03960   2.05579
 Alpha virt. eigenvalues --    2.05958   2.06519   2.06804   2.07251   2.08906
 Alpha virt. eigenvalues --    2.09248   2.09780   2.11167   2.11604   2.12325
 Alpha virt. eigenvalues --    2.14104   2.14662   2.16612   2.16857   2.17830
 Alpha virt. eigenvalues --    2.19436   2.19730   2.21802   2.22539   2.23666
 Alpha virt. eigenvalues --    2.24760   2.26308   2.26746   2.28285   2.29361
 Alpha virt. eigenvalues --    2.29594   2.30457   2.32562   2.32954   2.33378
 Alpha virt. eigenvalues --    2.34365   2.35520   2.36426   2.37325   2.37851
 Alpha virt. eigenvalues --    2.38411   2.39017   2.39901   2.40343   2.41645
 Alpha virt. eigenvalues --    2.41885   2.43169   2.44345   2.44729   2.45220
 Alpha virt. eigenvalues --    2.45584   2.45849   2.47785   2.48384   2.49060
 Alpha virt. eigenvalues --    2.49788   2.51483   2.52982   2.53538   2.55882
 Alpha virt. eigenvalues --    2.56308   2.59462   2.59922   2.61116   2.63822
 Alpha virt. eigenvalues --    2.66188   2.66874   2.69170   2.71099   2.71581
 Alpha virt. eigenvalues --    2.73677   2.75569   2.76811   2.82705   2.83852
 Alpha virt. eigenvalues --    2.84539   2.85905   2.86949   2.88065   2.89817
 Alpha virt. eigenvalues --    2.90804   2.91115   2.93050   2.94261   2.94798
 Alpha virt. eigenvalues --    2.95375   2.97927   2.99029   3.01303   3.01853
 Alpha virt. eigenvalues --    3.02749   3.04894   3.07340   3.09571   3.10789
 Alpha virt. eigenvalues --    3.13133   3.14240   3.15685   3.16273   3.19782
 Alpha virt. eigenvalues --    3.20240   3.23674   3.24126   3.24688   3.25146
 Alpha virt. eigenvalues --    3.30745   3.31219   3.31615   3.37258   3.39692
 Alpha virt. eigenvalues --    3.41962   3.46349   3.47972   3.49498   3.51528
 Alpha virt. eigenvalues --    3.55798   3.61077   3.66885   3.68167   3.73325
 Alpha virt. eigenvalues --    3.75613   3.86215   3.90942   3.94772   3.95257
 Alpha virt. eigenvalues --    3.97022   3.97833   4.00430   4.01508   4.02116
 Alpha virt. eigenvalues --    4.03011   4.05487   4.07746   4.09782   4.10465
 Alpha virt. eigenvalues --    4.17608   4.21054   4.27229   4.42342   4.74824
 Alpha virt. eigenvalues --    4.97276
          Condensed to atoms (all electrons):
               1          2          3          4          5          6
     1  O    9.422321  -0.497247   0.031853   0.177381  -0.032379   0.000347
     2  S   -0.497247  15.594202  -0.075807  -1.333484   0.210660  -0.061644
     3  N    0.031853  -0.075807   8.700588  -0.945153   0.077866  -0.052550
     4  C    0.177381  -1.333484  -0.945153  14.054912  -1.142499   0.558321
     5  N   -0.032379   0.210660   0.077866  -1.142499   9.582763  -1.289048
     6  O    0.000347  -0.061644  -0.052550   0.558321  -1.289048  10.378423
     7  C   -0.041915   0.093524   0.283233  -1.130134  -1.133052  -0.104615
     8  C   -0.001860  -0.026282  -0.069948   0.605168   0.436014   0.348380
     9  C   -0.003085  -0.007899   0.023598  -0.387016  -0.389628  -0.182530
    10  C   -0.000059  -0.001479  -0.013094   0.205416  -0.069907  -0.041628
    11  C   -0.000061  -0.000729   0.006191  -0.107905  -0.007813  -0.050692
    12  C    0.000137   0.004529  -0.016731   0.105168   0.069954   0.055254
    13  C   -0.001044   0.010652   0.071947  -0.726297   0.252862  -0.157883
    14  C   -0.003356   0.043130   0.160337  -4.534103   0.823644  -0.245903
    15  N    0.142787  -0.214637  -0.054008   0.216732  -0.079992   0.017243
    16  C   -0.005320   0.023801   0.000520  -0.082743   0.017698   0.006194
    17  C    0.048216  -0.315075   0.092016   0.011301   0.001167  -0.019230
    18  O    0.006447  -0.503241   0.029103   0.091441   0.003143   0.000697
    19  H   -0.000862  -0.000654   0.002793  -0.010266  -0.005600  -0.094207
    20  H    0.000007   0.000034  -0.000472   0.004223  -0.002786   0.004618
    21  H   -0.000004  -0.000032   0.000130  -0.004080   0.000129  -0.000634
    22  H    0.000006   0.000363  -0.000510   0.009114   0.002113   0.001807
    23  H   -0.000536  -0.007037  -0.008589   0.027633  -0.009666   0.001829
    24  H   -0.001404   0.049156  -0.045163   0.634014  -0.051472   0.011458
    25  H   -0.019825   0.062273   0.000061  -0.028238   0.026378   0.000157
    26  H   -0.004623   0.060537   0.004094  -0.043830  -0.001449  -0.000183
    27  H    0.014699  -0.094098  -0.000910   0.033586  -0.005381   0.000341
    28  H    0.010811  -0.095988   0.014272  -0.037076   0.011736   0.005398
    29  H   -0.002843   0.004673  -0.008882   0.036251  -0.001709  -0.000446
    30  H   -0.001818   0.006903   0.007823  -0.006853  -0.005890  -0.002862
               7          8          9         10         11         12
     1  O   -0.041915  -0.001860  -0.003085  -0.000059  -0.000061   0.000137
     2  S    0.093524  -0.026282  -0.007899  -0.001479  -0.000729   0.004529
     3  N    0.283233  -0.069948   0.023598  -0.013094   0.006191  -0.016731
     4  C   -1.130134   0.605168  -0.387016   0.205416  -0.107905   0.105168
     5  N   -1.133052   0.436014  -0.389628  -0.069907  -0.007813   0.069954
     6  O   -0.104615   0.348380  -0.182530  -0.041628  -0.050692   0.055254
     7  C   19.953441  -4.669570   0.293106  -0.495952   0.485035  -0.576076
     8  C   -4.669570  19.738837  -5.992091   1.755180  -3.787612   2.426993
     9  C    0.293106  -5.992091  18.728465  -4.335521   2.791094  -3.589995
    10  C   -0.495952   1.755180  -4.335521  11.935102  -3.140857   3.768995
    11  C    0.485035  -3.787612   2.791094  -3.140857   9.467208  -3.474591
    12  C   -0.576076   2.426993  -3.589995   3.768995  -3.474591  14.463369
    13  C   -0.782880  -7.409448   0.521720  -3.563889   3.755502  -7.108963
    14  C   -7.086103   0.512172  -1.745792   0.103393  -0.302984   0.434730
    15  N   -0.066916  -0.008360  -0.005106   0.000406  -0.000268   0.000360
    16  C    0.004439  -0.006481  -0.001697  -0.000113  -0.000069   0.000126
    17  C   -0.084064   0.008586  -0.003109   0.000177  -0.000158   0.000540
    18  O    0.005102   0.000739  -0.000071  -0.000018   0.000010  -0.000046
    19  H    0.242942   0.262717  -0.862475   0.348983  -0.083103   0.044044
    20  H   -0.005608  -0.126436   0.715030  -0.819789   0.307646  -0.229777
    21  H   -0.012554   0.028245  -0.056253   0.374482  -0.589807   0.282039
    22  H   -0.049653  -0.129646   0.096446  -0.263527   0.318343  -1.025631
    23  H   -0.104812   0.798016  -0.077785   0.065041  -0.118332   0.312153
    24  H    0.711638   0.019876  -0.036452   0.021173  -0.031937   0.062347
    25  H    0.006383  -0.000424  -0.000159  -0.000037   0.000003  -0.000002
    26  H   -0.006867  -0.000485  -0.000071   0.000034  -0.000016   0.000016
    27  H    0.001971   0.000130   0.000005  -0.000010   0.000001   0.000005
    28  H    0.016683  -0.004090  -0.000131   0.000481  -0.000144  -0.000080
    29  H   -0.000129   0.000537  -0.000194   0.000027  -0.000016  -0.000012
    30  H   -0.013343   0.001421  -0.000135  -0.000052   0.000010   0.000078
              13         14         15         16         17         18
     1  O   -0.001044  -0.003356   0.142787  -0.005320   0.048216   0.006447
     2  S    0.010652   0.043130  -0.214637   0.023801  -0.315075  -0.503241
     3  N    0.071947   0.160337  -0.054008   0.000520   0.092016   0.029103
     4  C   -0.726297  -4.534103   0.216732  -0.082743   0.011301   0.091441
     5  N    0.252862   0.823644  -0.079992   0.017698   0.001167   0.003143
     6  O   -0.157883  -0.245903   0.017243   0.006194  -0.019230   0.000697
     7  C   -0.782880  -7.086103  -0.066916   0.004439  -0.084064   0.005102
     8  C   -7.409448   0.512172  -0.008360  -0.006481   0.008586   0.000739
     9  C    0.521720  -1.745792  -0.005106  -0.001697  -0.003109  -0.000071
    10  C   -3.563889   0.103393   0.000406  -0.000113   0.000177  -0.000018
    11  C    3.755502  -0.302984  -0.000268  -0.000069  -0.000158   0.000010
    12  C   -7.108963   0.434730   0.000360   0.000126   0.000540  -0.000046
    13  C   22.044386  -1.093102  -0.001594   0.000279  -0.002069   0.000283
    14  C   -1.093102  18.614869   0.011038  -0.019617   0.071499   0.001924
    15  N   -0.001594   0.011038   8.057247   0.049435   0.197366   0.096174
    16  C    0.000279  -0.019617   0.049435   4.348088  -0.164083  -0.004677
    17  C   -0.002069   0.071499   0.197366  -0.164083   4.332559   0.052367
    18  O    0.000283   0.001924   0.096174  -0.004677   0.052367   9.426584
    19  H   -0.074384  -0.030610  -0.001448  -0.000790  -0.000156   0.000066
    20  H    0.086794   0.004458   0.000037   0.000018   0.000003  -0.000002
    21  H   -0.074805   0.002904  -0.000015  -0.000004  -0.000006   0.000000
    22  H    0.942024   0.047722   0.000012   0.000004   0.000051  -0.000010
    23  H   -1.309719   0.193955  -0.000468  -0.000312  -0.001062   0.000624
    24  H   -0.007382  -1.544184  -0.005673  -0.000006   0.005152  -0.008061
    25  H    0.000144  -0.002670  -0.034377   0.483294  -0.076101  -0.007597
    26  H   -0.000167   0.010627  -0.244392   0.397967   0.057953  -0.011689
    27  H    0.000066  -0.004766   0.180389   0.168278   0.029295   0.024986
    28  H   -0.000268   0.030860   0.021276  -0.051006   0.409672   0.049305
    29  H   -0.000665  -0.030719   0.040332   0.053068   0.234038  -0.014832
    30  H    0.000374   0.017563  -0.118009   0.013815   0.383595  -0.006877
              19         20         21         22         23         24
     1  O   -0.000862   0.000007  -0.000004   0.000006  -0.000536  -0.001404
     2  S   -0.000654   0.000034  -0.000032   0.000363  -0.007037   0.049156
     3  N    0.002793  -0.000472   0.000130  -0.000510  -0.008589  -0.045163
     4  C   -0.010266   0.004223  -0.004080   0.009114   0.027633   0.634014
     5  N   -0.005600  -0.002786   0.000129   0.002113  -0.009666  -0.051472
     6  O   -0.094207   0.004618  -0.000634   0.001807   0.001829   0.011458
     7  C    0.242942  -0.005608  -0.012554  -0.049653  -0.104812   0.711638
     8  C    0.262717  -0.126436   0.028245  -0.129646   0.798016   0.019876
     9  C   -0.862475   0.715030  -0.056253   0.096446  -0.077785  -0.036452
    10  C    0.348983  -0.819789   0.374482  -0.263527   0.065041   0.021173
    11  C   -0.083103   0.307646  -0.589807   0.318343  -0.118332  -0.031937
    12  C    0.044044  -0.229777   0.282039  -1.025631   0.312153   0.062347
    13  C   -0.074384   0.086794  -0.074805   0.942024  -1.309719  -0.007382
    14  C   -0.030610   0.004458   0.002904   0.047722   0.193955  -1.544184
    15  N   -0.001448   0.000037  -0.000015   0.000012  -0.000468  -0.005673
    16  C   -0.000790   0.000018  -0.000004   0.000004  -0.000312  -0.000006
    17  C   -0.000156   0.000003  -0.000006   0.000051  -0.001062   0.005152
    18  O    0.000066  -0.000002   0.000000  -0.000010   0.000624  -0.008061
    19  H    2.031022  -0.089483  -0.011097   0.006637  -0.014824  -0.000844
    20  H   -0.089483   1.672856  -0.054916  -0.021106   0.009842   0.000644
    21  H   -0.011097  -0.054916   1.638789  -0.050523  -0.018085   0.000379
    22  H    0.006637  -0.021106  -0.050523   1.697741  -0.083033   0.000343
    23  H   -0.014824   0.009842  -0.018085  -0.083033   2.022916  -0.097460
    24  H   -0.000844   0.000644   0.000379   0.000343  -0.097460   1.925394
    25  H    0.000044  -0.000002  -0.000000   0.000000  -0.000011  -0.000075
    26  H   -0.000171   0.000005  -0.000001   0.000001  -0.000055   0.000319
    27  H    0.000027  -0.000000   0.000000  -0.000000   0.000026  -0.000221
    28  H    0.000158   0.000012  -0.000006  -0.000018   0.001000  -0.008242
    29  H   -0.000063   0.000001  -0.000001   0.000003  -0.000153   0.000543
    30  H   -0.000003  -0.000002   0.000001   0.000005  -0.000085   0.001291
              25         26         27         28         29         30
     1  O   -0.019825  -0.004623   0.014699   0.010811  -0.002843  -0.001818
     2  S    0.062273   0.060537  -0.094098  -0.095988   0.004673   0.006903
     3  N    0.000061   0.004094  -0.000910   0.014272  -0.008882   0.007823
     4  C   -0.028238  -0.043830   0.033586  -0.037076   0.036251  -0.006853
     5  N    0.026378  -0.001449  -0.005381   0.011736  -0.001709  -0.005890
     6  O    0.000157  -0.000183   0.000341   0.005398  -0.000446  -0.002862
     7  C    0.006383  -0.006867   0.001971   0.016683  -0.000129  -0.013343
     8  C   -0.000424  -0.000485   0.000130  -0.004090   0.000537   0.001421
     9  C   -0.000159  -0.000071   0.000005  -0.000131  -0.000194  -0.000135
    10  C   -0.000037   0.000034  -0.000010   0.000481   0.000027  -0.000052
    11  C    0.000003  -0.000016   0.000001  -0.000144  -0.000016   0.000010
    12  C   -0.000002   0.000016   0.000005  -0.000080  -0.000012   0.000078
    13  C    0.000144  -0.000167   0.000066  -0.000268  -0.000665   0.000374
    14  C   -0.002670   0.010627  -0.004766   0.030860  -0.030719   0.017563
    15  N   -0.034377  -0.244392   0.180389   0.021276   0.040332  -0.118009
    16  C    0.483294   0.397967   0.168278  -0.051006   0.053068   0.013815
    17  C   -0.076101   0.057953   0.029295   0.409672   0.234038   0.383595
    18  O   -0.007597  -0.011689   0.024986   0.049305  -0.014832  -0.006877
    19  H    0.000044  -0.000171   0.000027   0.000158  -0.000063  -0.000003
    20  H   -0.000002   0.000005  -0.000000   0.000012   0.000001  -0.000002
    21  H   -0.000000  -0.000001   0.000000  -0.000006  -0.000001   0.000001
    22  H    0.000000   0.000001  -0.000000  -0.000018   0.000003   0.000005
    23  H   -0.000011  -0.000055   0.000026   0.001000  -0.000153  -0.000085
    24  H   -0.000075   0.000319  -0.000221  -0.008242   0.000543   0.001291
    25  H    1.267470  -0.313937  -0.193844  -0.007957  -0.000998   0.002811
    26  H   -0.313937   1.427230  -0.172670   0.008814  -0.006874   0.010442
    27  H   -0.193844  -0.172670   1.071703   0.000754   0.002356  -0.008035
    28  H   -0.007957   0.008814   0.000754   1.351679  -0.213434  -0.330221
    29  H   -0.000998  -0.006874   0.002356  -0.213434   1.093424  -0.141301
    30  H    0.002811   0.010442  -0.008035  -0.330221  -0.141301   1.368609
 Mulliken charges:
               1
     1  O   -1.236769
     2  S    3.070900
     3  N   -1.214606
     4  C   -0.250981
     5  N   -0.287859
     6  O   -1.086415
     7  C    0.266744
     8  C    1.289726
     9  C    0.507732
    10  C    0.167039
    11  C    0.566053
    12  C   -0.008929
    13  C    0.627525
    14  C    1.559083
    15  N   -1.195573
    16  C    0.769894
    17  C    0.729559
    18  O   -1.231874
    19  H   -0.658392
    20  H   -0.455848
    21  H   -0.454275
    22  H   -0.499079
    23  H   -0.581011
    24  H   -0.605152
    25  H   -0.162762
    26  H   -0.170558
    27  H   -0.048683
    28  H   -0.184251
    29  H   -0.041981
    30  H   -0.179256
 Sum of Mulliken charges =  -1.00000
 Mulliken charges with hydrogens summed into heavy atoms:
               1
     1  O   -1.236769
     2  S    3.070900
     3  N   -1.214606
     4  C   -0.250981
     5  N   -0.287859
     6  O   -1.086415
     7  C    0.266744
     8  C    1.289726
     9  C   -0.150660
    10  C   -0.288808
    11  C    0.111778
    12  C   -0.508008
    13  C    0.046514
    14  C    0.953931
    15  N   -1.195573
    16  C    0.387891
    17  C    0.324070
    18  O   -1.231874
 Electronic spatial extent (au):  <R**2>=           7226.0101
 Charge=             -1.0000 electrons
 Dipole moment (field-independent basis, Debye):
    X=             10.4009    Y=              1.3295    Z=              4.7895  Tot=             11.5276
 Quadrupole moment (field-independent basis, Debye-Ang):
   XX=           -153.9204   YY=           -123.0012   ZZ=           -126.8497
   XY=            -14.7797   XZ=            -13.8182   YZ=             -1.2304
 Traceless Quadrupole moment (field-independent basis, Debye-Ang):
   XX=            -19.3300   YY=             11.5893   ZZ=              7.7407
   XY=            -14.7797   XZ=            -13.8182   YZ=             -1.2304
 Octapole moment (field-independent basis, Debye-Ang**2):
  XXX=            108.6104  YYY=             13.5296  ZZZ=              6.1252  XYY=             32.8913
  XXY=             61.6387  XXZ=             47.0906  XZZ=            -14.5461  YZZ=             -1.1743
  YYZ=              2.5138  XYZ=             -6.2137
 Hexadecapole moment (field-independent basis, Debye-Ang**3):
 XXXX=          -9086.4175 YYYY=           -811.8251 ZZZZ=           -579.1811 XXXY=           -211.4916
 XXXZ=           -114.5206 YYYX=            -41.9117 YYYZ=            -16.9715 ZZZX=            -35.1698
 ZZZY=              8.6623 XXYY=          -1610.3800 XXZZ=          -1716.6325 YYZZ=           -232.2591
 XXYZ=            -58.8427 YYXZ=             -2.6386 ZZXY=              8.6256
 N-N= 1.423720843508D+03 E-N=-5.712471179091D+03  KE= 1.207557954214D+03
 Leave Link  601 at Thu Sep 24 08:31:36 2020, MaxMem=   262144000 cpu:               0.5 elap:               0.2
 (Enter /prod/apps/gaussian/g16b1/l9999.exe)
 1\1\GINC-PIRINEUS11\SP\RMP2-FC\Aug-CC-pVDZ\C11H12N3O3S1(1-)\UBAFAR01\2
 4-Sep-2020\0\\#p mp2/aug-cc-pVDZ scf=(MaxCycle=2000,NoVarAcc,NoIncFock
 ) maxdisk=120GB geom=allcheck\\SM43_m1.a.3.pdb.xyz\\-1,1\O,0,-2.976669
 1815,0.3222654986,-1.843734934\S,0,-2.9969786888,-0.4022031487,-0.5497
 171896\N,0,-1.6187435093,-1.0941239233,-0.1159966771\C,0,-0.4360677971
 ,-0.3980480972,-0.1885426194\N,0,-0.2745621718,0.8903610843,-0.4922545
 87\O,0,1.1282221748,1.1184718013,-0.4316342759\C,0,1.7541453447,-0.034
 9333338,-0.0918765359\C,0,3.2118368027,-0.0002132635,0.0122006657\C,0,
 3.9221189663,1.1770282792,-0.2763926334\C,0,5.3117960378,1.2013246821,
 -0.1810768802\C,0,6.0112900012,0.0551070521,0.2024218233\C,0,5.3112078
 373,-1.1194477359,0.4920981121\C,0,3.9223350215,-1.1497273376,0.398771
 8651\C,0,0.8303719239,-1.0201937171,0.0770595376\N,0,-3.3004000504,0.8
 279994639,0.6133561352\C,0,-4.4004792983,1.7241902412,0.2338128885\C,0
 ,-3.458699863,0.3054998611,1.9745050602\O,0,-4.0450469569,-1.447909546
 2,-0.438245791\H,0,3.3790628799,2.0656759607,-0.5758415195\H,0,5.84871
 18418,2.1162979751,-0.4079028965\H,0,7.0934424582,0.0758611543,0.27533
 20318\H,0,5.8481599409,-2.0132157983,0.7915267173\H,0,3.3847597676,-2.
 0639292741,0.6262679495\H,0,0.9938829768,-2.0519808888,0.343099158\H,0
 ,-4.2298520574,2.0945946447,-0.775674513\H,0,-4.4033143615,2.566616166
 ,0.9303027839\H,0,-5.3829348855,1.2318827979,0.2790861347\H,0,-2.62603
 79834,-0.3568536288,2.2107618275\H,0,-4.4023772042,-0.2403720038,2.111
 6841785\H,0,-3.4401799662,1.1509750345,2.6666041836\\Version=ES64L-G16
 RevB.01\State=1-A\HF=-1208.9858061\MP2=-1211.7823033\RMSD=4.870e-09\PG
 =C01 [X(C11H12N3O3S1)]\\@


 Life may have no meaning.  Or even worse, it may have a
 meaning of which I disapprove.
                                 -- Ashleigh Brilliant
 Job cpu time:       0 days  1 hours 53 minutes 54.5 seconds.
 Elapsed time:       0 days  0 hours 31 minutes 10.1 seconds.
 File lengths (MBytes):  RWF=  68412 Int=      0 D2E=      0 Chk=     23 Scr=      1
 Normal termination of Gaussian 16 at Thu Sep 24 08:31:37 2020.
