 Entering Gaussian System, Link 0=g16
 Initial command:
 /prod/apps/gaussian/g16b1/l1.exe "/tmp/ubafar01/1461172/Gau-28374.inp" -scrdir="/tmp/ubafar01/1461172/"
 Entering Link 1 = /prod/apps/gaussian/g16b1/l1.exe PID=     28375.
  
 Copyright (c) 1988-2017, Gaussian, Inc.  All Rights Reserved.
  
 This is part of the Gaussian(R) 16 program.  It is based on
 the Gaussian(R) 09 system (copyright 2009, Gaussian, Inc.),
 the Gaussian(R) 03 system (copyright 2003, Gaussian, Inc.),
 the Gaussian(R) 98 system (copyright 1998, Gaussian, Inc.),
 the Gaussian(R) 94 system (copyright 1995, Gaussian, Inc.),
 the Gaussian 92(TM) system (copyright 1992, Gaussian, Inc.),
 the Gaussian 90(TM) system (copyright 1990, Gaussian, Inc.),
 the Gaussian 88(TM) system (copyright 1988, Gaussian, Inc.),
 the Gaussian 86(TM) system (copyright 1986, Carnegie Mellon
 University), and the Gaussian 82(TM) system (copyright 1983,
 Carnegie Mellon University). Gaussian is a federally registered
 trademark of Gaussian, Inc.
  
 This software contains proprietary and confidential information,
 including trade secrets, belonging to Gaussian, Inc.
  
 This software is provided under written license and may be
 used, copied, transmitted, or stored only in accord with that
 written license.
  
 The following legend is applicable only to US Government
 contracts under FAR:
  
                    RESTRICTED RIGHTS LEGEND
  
 Use, reproduction and disclosure by the US Government is
 subject to restrictions as set forth in subparagraphs (a)
 and (c) of the Commercial Computer Software - Restricted
 Rights clause in FAR 52.227-19.
  
 Gaussian, Inc.
 340 Quinnipiac St., Bldg. 40, Wallingford CT 06492
  
  
 ---------------------------------------------------------------
 Warning -- This program may not be used in any manner that
 competes with the business of Gaussian, Inc. or will provide
 assistance to any competitor of Gaussian, Inc.  The licensee
 of this program is prohibited from giving any competitor of
 Gaussian, Inc. access to this program.  By using this program,
 the user acknowledges that Gaussian, Inc. is engaged in the
 business of creating and licensing software in the field of
 computational chemistry and represents and warrants to the
 licensee that it is not a competitor of Gaussian, Inc. and that
 it will not use this program in any manner prohibited above.
 ---------------------------------------------------------------
  

 Cite this work as:
 Gaussian 16, Revision B.01,
 M. J. Frisch, G. W. Trucks, H. B. Schlegel, G. E. Scuseria, 
 M. A. Robb, J. R. Cheeseman, G. Scalmani, V. Barone, 
 G. A. Petersson, H. Nakatsuji, X. Li, M. Caricato, A. V. Marenich, 
 J. Bloino, B. G. Janesko, R. Gomperts, B. Mennucci, H. P. Hratchian, 
 J. V. Ortiz, A. F. Izmaylov, J. L. Sonnenberg, D. Williams-Young, 
 F. Ding, F. Lipparini, F. Egidi, J. Goings, B. Peng, A. Petrone, 
 T. Henderson, D. Ranasinghe, V. G. Zakrzewski, J. Gao, N. Rega, 
 G. Zheng, W. Liang, M. Hada, M. Ehara, K. Toyota, R. Fukuda, 
 J. Hasegawa, M. Ishida, T. Nakajima, Y. Honda, O. Kitao, H. Nakai, 
 T. Vreven, K. Throssell, J. A. Montgomery, Jr., J. E. Peralta, 
 F. Ogliaro, M. J. Bearpark, J. J. Heyd, E. N. Brothers, K. N. Kudin, 
 V. N. Staroverov, T. A. Keith, R. Kobayashi, J. Normand, 
 K. Raghavachari, A. P. Rendell, J. C. Burant, S. S. Iyengar, 
 J. Tomasi, M. Cossi, J. M. Millam, M. Klene, C. Adamo, R. Cammi, 
 J. W. Ochterski, R. L. Martin, K. Morokuma, O. Farkas, 
 J. B. Foresman, and D. J. Fox, Gaussian, Inc., Wallingford CT, 2016.
 
 ******************************************
 Gaussian 16:  ES64L-G16RevB.01 20-Dec-2017
                24-Sep-2020 
 ******************************************
 %nproc=4
 Will use up to    4 processors via shared memory.
 %Chk=SM43_m1.a.10.pdb.xyz.mst.a.w.chk
 %mem=16GB
 ----------------------------------------------------------------------
 #p b3lyp/6-31G(d) opt freq NoSymm scf=(MaxCycle=2000,NoVarAcc,NoIncFoc
 k) scrf=(iefpcm,read,solvent=water)
 ----------------------------------------------------------------------
 1/18=20,19=15,26=3,38=1,40=2/1,3;
 2/9=110,12=2,15=1,17=6,18=5,40=1/2;
 3/5=1,6=6,7=1,11=2,25=1,30=1,70=2203,71=1,72=1,74=-5/1,2,3;
 4//1;
 5/5=100002,7=2000,38=1,53=1/2;
 6/7=2,8=2,9=2,10=2,28=1/1;
 7/30=1/1,2,3,16;
 1/18=20,19=15,26=3/3(2);
 2/9=110,15=1/2;
 99//99;
 2/9=110,15=1/2;
 3/5=1,6=6,7=1,11=2,25=1,30=1,70=2205,71=1,72=1,74=-5/1,2,3;
 4/5=5,16=3,69=1/1;
 5/5=100002,7=2000,38=1,53=1/2;
 7/30=1/1,2,3,16;
 1/18=20,19=15,26=3/3(-5);
 2/9=110,15=1/2;
 6/7=2,8=2,9=2,10=2,19=2,28=1/1;
 99/9=1/99;
 Leave Link    1 at Thu Sep 24 06:49:44 2020, MaxMem=  2147483648 cpu:               0.1 elap:               0.0
 (Enter /prod/apps/gaussian/g16b1/l101.exe)
 --------------------
 SM43_m1.a.10.pdb.xyz
 --------------------
 Symbolic Z-matrix:
 Charge = -1 Multiplicity = 1
 O                    -3.065     0.261    -1.92 
 S                    -3.129    -0.48     -0.638 
 N                    -1.726    -1.094    -0.129 
 C                    -0.543    -0.41     -0.251 
 N                    -0.361     0.834    -0.7 
 O                     1.043     1.059    -0.627 
 C                     1.651    -0.051    -0.141 
 C                     3.108    -0.01      0. 
 C                     3.804    -1.127     0.495 
 C                     5.191    -1.091     0.629 
 C                     5.904     0.058     0.272 
 C                     5.219     1.172    -0.22 
 C                     3.832     1.141    -0.356 
 C                     0.714    -1.006     0.115 
 N                    -3.784     0.655     0.48 
 C                    -3.849     0.15      1.857 
 C                    -3.275     2.031     0.404 
 O                    -4.093    -1.603    -0.584 
 H                     3.26     -2.024     0.775 
 H                     5.715    -1.962     1.012 
 H                     6.985     0.083     0.377 
 H                     5.765     2.068    -0.5 
 H                     3.305     2.009    -0.738 
 H                     0.856    -2.003     0.504 
 H                    -4.278    -0.853     1.86 
 H                    -4.505     0.811     2.431 
 H                    -2.864     0.124     2.347 
 H                    -3.236     2.349    -0.637 
 H                    -2.279     2.147     0.854 
 H                    -3.979     2.674     0.942 
 
 ITRead=  0  0  0  0  0  0  0  0  0  0  0  0  0  0  0  0  0  0  0  0
 ITRead=  0  0  0  0  0  0  0  0  0  0
 MicOpt= -1 -1 -1 -1 -1 -1 -1 -1 -1 -1 -1 -1 -1 -1 -1 -1 -1 -1 -1 -1
 MicOpt= -1 -1 -1 -1 -1 -1 -1 -1 -1 -1
 NAtoms=     30 NQM=       30 NQMF=       0 NMMI=      0 NMMIF=      0
                NMic=       0 NMicF=      0.
                    Isotopes and Nuclear Properties:
 (Nuclear quadrupole moments (NQMom) in fm**2, nuclear magnetic moments (NMagM)
  in nuclear magnetons)

  Atom         1           2           3           4           5           6           7           8           9          10
 IAtWgt=          16          32          14          12          14          16          12          12          12          12
 AtmWgt=  15.9949146  31.9720718  14.0030740  12.0000000  14.0030740  15.9949146  12.0000000  12.0000000  12.0000000  12.0000000
 NucSpn=           0           0           2           0           2           0           0           0           0           0
 AtZEff=  -0.0000000  -0.0000000  -0.0000000  -0.0000000  -0.0000000  -0.0000000  -0.0000000  -0.0000000  -0.0000000  -0.0000000
 NQMom=    0.0000000   0.0000000   2.0440000   0.0000000   2.0440000   0.0000000   0.0000000   0.0000000   0.0000000   0.0000000
 NMagM=    0.0000000   0.0000000   0.4037610   0.0000000   0.4037610   0.0000000   0.0000000   0.0000000   0.0000000   0.0000000
 AtZNuc=   8.0000000  16.0000000   7.0000000   6.0000000   7.0000000   8.0000000   6.0000000   6.0000000   6.0000000   6.0000000

  Atom        11          12          13          14          15          16          17          18          19          20
 IAtWgt=          12          12          12          12          14          12          12          16           1           1
 AtmWgt=  12.0000000  12.0000000  12.0000000  12.0000000  14.0030740  12.0000000  12.0000000  15.9949146   1.0078250   1.0078250
 NucSpn=           0           0           0           0           2           0           0           0           1           1
 AtZEff=  -0.0000000  -0.0000000  -0.0000000  -0.0000000  -0.0000000  -0.0000000  -0.0000000  -0.0000000  -0.0000000  -0.0000000
 NQMom=    0.0000000   0.0000000   0.0000000   0.0000000   2.0440000   0.0000000   0.0000000   0.0000000   0.0000000   0.0000000
 NMagM=    0.0000000   0.0000000   0.0000000   0.0000000   0.4037610   0.0000000   0.0000000   0.0000000   2.7928460   2.7928460
 AtZNuc=   6.0000000   6.0000000   6.0000000   6.0000000   7.0000000   6.0000000   6.0000000   8.0000000   1.0000000   1.0000000

  Atom        21          22          23          24          25          26          27          28          29          30
 IAtWgt=           1           1           1           1           1           1           1           1           1           1
 AtmWgt=   1.0078250   1.0078250   1.0078250   1.0078250   1.0078250   1.0078250   1.0078250   1.0078250   1.0078250   1.0078250
 NucSpn=           1           1           1           1           1           1           1           1           1           1
 AtZEff=  -0.0000000  -0.0000000  -0.0000000  -0.0000000  -0.0000000  -0.0000000  -0.0000000  -0.0000000  -0.0000000  -0.0000000
 NQMom=    0.0000000   0.0000000   0.0000000   0.0000000   0.0000000   0.0000000   0.0000000   0.0000000   0.0000000   0.0000000
 NMagM=    2.7928460   2.7928460   2.7928460   2.7928460   2.7928460   2.7928460   2.7928460   2.7928460   2.7928460   2.7928460
 AtZNuc=   1.0000000   1.0000000   1.0000000   1.0000000   1.0000000   1.0000000   1.0000000   1.0000000   1.0000000   1.0000000
 Leave Link  101 at Thu Sep 24 06:49:45 2020, MaxMem=  2147483648 cpu:               2.4 elap:               0.6
 (Enter /prod/apps/gaussian/g16b1/l103.exe)

 GradGradGradGradGradGradGradGradGradGradGradGradGradGradGradGradGradGrad
 Berny optimization.
 Initialization pass.
                           ----------------------------
                           !    Initial Parameters    !
                           ! (Angstroms and Degrees)  !
 --------------------------                            --------------------------
 ! Name  Definition              Value          Derivative Info.                !
 --------------------------------------------------------------------------------
 ! R1    R(1,2)                  1.4821         estimate D2E/DX2                !
 ! R2    R(2,3)                  1.6138         estimate D2E/DX2                !
 ! R3    R(2,15)                 1.7225         estimate D2E/DX2                !
 ! R4    R(2,18)                 1.481          estimate D2E/DX2                !
 ! R5    R(3,4)                  1.3719         estimate D2E/DX2                !
 ! R6    R(4,5)                  1.335          estimate D2E/DX2                !
 ! R7    R(4,14)                 1.4385         estimate D2E/DX2                !
 ! R8    R(5,6)                  1.4238         estimate D2E/DX2                !
 ! R9    R(6,7)                  1.3557         estimate D2E/DX2                !
 ! R10   R(7,8)                  1.4644         estimate D2E/DX2                !
 ! R11   R(7,14)                 1.3622         estimate D2E/DX2                !
 ! R12   R(8,9)                  1.4061         estimate D2E/DX2                !
 ! R13   R(8,13)                 1.4056         estimate D2E/DX2                !
 ! R14   R(9,10)                 1.3939         estimate D2E/DX2                !
 ! R15   R(9,19)                 1.0858         estimate D2E/DX2                !
 ! R16   R(10,11)                1.3986         estimate D2E/DX2                !
 ! R17   R(10,20)                1.0862         estimate D2E/DX2                !
 ! R18   R(11,12)                1.3972         estimate D2E/DX2                !
 ! R19   R(11,21)                1.0864         estimate D2E/DX2                !
 ! R20   R(12,13)                1.394          estimate D2E/DX2                !
 ! R21   R(12,22)                1.086          estimate D2E/DX2                !
 ! R22   R(13,23)                1.0849         estimate D2E/DX2                !
 ! R23   R(14,24)                1.0796         estimate D2E/DX2                !
 ! R24   R(15,16)                1.4681         estimate D2E/DX2                !
 ! R25   R(15,17)                1.4691         estimate D2E/DX2                !
 ! R26   R(16,25)                1.0909         estimate D2E/DX2                !
 ! R27   R(16,26)                1.094          estimate D2E/DX2                !
 ! R28   R(16,27)                1.1005         estimate D2E/DX2                !
 ! R29   R(17,28)                1.0892         estimate D2E/DX2                !
 ! R30   R(17,29)                1.0991         estimate D2E/DX2                !
 ! R31   R(17,30)                1.0948         estimate D2E/DX2                !
 ! A1    A(1,2,3)              115.1812         estimate D2E/DX2                !
 ! A2    A(1,2,15)             104.3825         estimate D2E/DX2                !
 ! A3    A(1,2,18)             116.0242         estimate D2E/DX2                !
 ! A4    A(3,2,15)             112.1204         estimate D2E/DX2                !
 ! A5    A(3,2,18)             105.4194         estimate D2E/DX2                !
 ! A6    A(15,2,18)            103.2063         estimate D2E/DX2                !
 ! A7    A(2,3,4)              122.1338         estimate D2E/DX2                !
 ! A8    A(3,4,5)              127.7368         estimate D2E/DX2                !
 ! A9    A(3,4,14)             121.6212         estimate D2E/DX2                !
 ! A10   A(5,4,14)             110.6418         estimate D2E/DX2                !
 ! A11   A(4,5,6)              105.334          estimate D2E/DX2                !
 ! A12   A(5,6,7)              109.3436         estimate D2E/DX2                !
 ! A13   A(6,7,8)              117.2456         estimate D2E/DX2                !
 ! A14   A(6,7,14)             109.4447         estimate D2E/DX2                !
 ! A15   A(8,7,14)             133.3092         estimate D2E/DX2                !
 ! A16   A(7,8,9)              120.2746         estimate D2E/DX2                !
 ! A17   A(7,8,13)             120.7322         estimate D2E/DX2                !
 ! A18   A(9,8,13)             118.9932         estimate D2E/DX2                !
 ! A19   A(8,9,10)             120.3879         estimate D2E/DX2                !
 ! A20   A(8,9,19)             119.9375         estimate D2E/DX2                !
 ! A21   A(10,9,19)            119.6746         estimate D2E/DX2                !
 ! A22   A(9,10,11)            120.2617         estimate D2E/DX2                !
 ! A23   A(9,10,20)            119.5505         estimate D2E/DX2                !
 ! A24   A(11,10,20)           120.1877         estimate D2E/DX2                !
 ! A25   A(10,11,12)           119.6671         estimate D2E/DX2                !
 ! A26   A(10,11,21)           120.1003         estimate D2E/DX2                !
 ! A27   A(12,11,21)           120.2326         estimate D2E/DX2                !
 ! A28   A(11,12,13)           120.2925         estimate D2E/DX2                !
 ! A29   A(11,12,22)           120.1402         estimate D2E/DX2                !
 ! A30   A(13,12,22)           119.5673         estimate D2E/DX2                !
 ! A31   A(8,13,12)            120.3976         estimate D2E/DX2                !
 ! A32   A(8,13,23)            119.6112         estimate D2E/DX2                !
 ! A33   A(12,13,23)           119.9911         estimate D2E/DX2                !
 ! A34   A(4,14,7)             105.2358         estimate D2E/DX2                !
 ! A35   A(4,14,24)            126.1039         estimate D2E/DX2                !
 ! A36   A(7,14,24)            128.6598         estimate D2E/DX2                !
 ! A37   A(2,15,16)            113.512          estimate D2E/DX2                !
 ! A38   A(2,15,17)            116.8612         estimate D2E/DX2                !
 ! A39   A(16,15,17)           112.7084         estimate D2E/DX2                !
 ! A40   A(15,16,25)           109.6487         estimate D2E/DX2                !
 ! A41   A(15,16,26)           108.1101         estimate D2E/DX2                !
 ! A42   A(15,16,27)           112.714          estimate D2E/DX2                !
 ! A43   A(25,16,26)           108.5592         estimate D2E/DX2                !
 ! A44   A(25,16,27)           109.211          estimate D2E/DX2                !
 ! A45   A(26,16,27)           108.505          estimate D2E/DX2                !
 ! A46   A(15,17,28)           109.5914         estimate D2E/DX2                !
 ! A47   A(15,17,29)           113.0573         estimate D2E/DX2                !
 ! A48   A(15,17,30)           107.5716         estimate D2E/DX2                !
 ! A49   A(28,17,29)           109.1509         estimate D2E/DX2                !
 ! A50   A(28,17,30)           108.7376         estimate D2E/DX2                !
 ! A51   A(29,17,30)           108.6359         estimate D2E/DX2                !
 ! D1    D(1,2,3,4)             39.6873         estimate D2E/DX2                !
 ! D2    D(15,2,3,4)           -79.4824         estimate D2E/DX2                !
 ! D3    D(18,2,3,4)           168.9298         estimate D2E/DX2                !
 ! D4    D(1,2,15,16)         -176.0039         estimate D2E/DX2                !
 ! D5    D(1,2,15,17)          -42.1945         estimate D2E/DX2                !
 ! D6    D(3,2,15,16)          -50.6671         estimate D2E/DX2                !
 ! D7    D(3,2,15,17)           83.1423         estimate D2E/DX2                !
 ! D8    D(18,2,15,16)          62.2992         estimate D2E/DX2                !
 ! D9    D(18,2,15,17)        -163.8914         estimate D2E/DX2                !
 ! D10   D(2,3,4,5)              4.4983         estimate D2E/DX2                !
 ! D11   D(2,3,4,14)          -175.3224         estimate D2E/DX2                !
 ! D12   D(3,4,5,6)           -179.8488         estimate D2E/DX2                !
 ! D13   D(14,4,5,6)            -0.0119         estimate D2E/DX2                !
 ! D14   D(3,4,14,7)           179.8159         estimate D2E/DX2                !
 ! D15   D(3,4,14,24)            0.0417         estimate D2E/DX2                !
 ! D16   D(5,4,14,7)            -0.0326         estimate D2E/DX2                !
 ! D17   D(5,4,14,24)         -179.8067         estimate D2E/DX2                !
 ! D18   D(4,5,6,7)              0.0535         estimate D2E/DX2                !
 ! D19   D(5,6,7,8)            179.7052         estimate D2E/DX2                !
 ! D20   D(5,6,7,14)            -0.0763         estimate D2E/DX2                !
 ! D21   D(6,7,8,9)           -179.8636         estimate D2E/DX2                !
 ! D22   D(6,7,8,13)             0.1072         estimate D2E/DX2                !
 ! D23   D(14,7,8,9)            -0.1467         estimate D2E/DX2                !
 ! D24   D(14,7,8,13)          179.8241         estimate D2E/DX2                !
 ! D25   D(6,7,14,4)             0.066          estimate D2E/DX2                !
 ! D26   D(6,7,14,24)          179.8323         estimate D2E/DX2                !
 ! D27   D(8,7,14,4)          -179.6671         estimate D2E/DX2                !
 ! D28   D(8,7,14,24)            0.0992         estimate D2E/DX2                !
 ! D29   D(7,8,9,10)           179.9394         estimate D2E/DX2                !
 ! D30   D(7,8,9,19)            -0.0513         estimate D2E/DX2                !
 ! D31   D(13,8,9,10)           -0.0319         estimate D2E/DX2                !
 ! D32   D(13,8,9,19)          179.9774         estimate D2E/DX2                !
 ! D33   D(7,8,13,12)         -179.9445         estimate D2E/DX2                !
 ! D34   D(7,8,13,23)            0.0953         estimate D2E/DX2                !
 ! D35   D(9,8,13,12)            0.0267         estimate D2E/DX2                !
 ! D36   D(9,8,13,23)         -179.9335         estimate D2E/DX2                !
 ! D37   D(8,9,10,11)            0.0067         estimate D2E/DX2                !
 ! D38   D(8,9,10,20)         -179.9439         estimate D2E/DX2                !
 ! D39   D(19,9,10,11)         179.9974         estimate D2E/DX2                !
 ! D40   D(19,9,10,20)           0.0468         estimate D2E/DX2                !
 ! D41   D(9,10,11,12)           0.024          estimate D2E/DX2                !
 ! D42   D(9,10,11,21)        -179.9666         estimate D2E/DX2                !
 ! D43   D(20,10,11,12)        179.9743         estimate D2E/DX2                !
 ! D44   D(20,10,11,21)         -0.0163         estimate D2E/DX2                !
 ! D45   D(10,11,12,13)         -0.0293         estimate D2E/DX2                !
 ! D46   D(10,11,12,22)       -179.9689         estimate D2E/DX2                !
 ! D47   D(21,11,12,13)        179.9613         estimate D2E/DX2                !
 ! D48   D(21,11,12,22)          0.0217         estimate D2E/DX2                !
 ! D49   D(11,12,13,8)           0.0037         estimate D2E/DX2                !
 ! D50   D(11,12,13,23)        179.9638         estimate D2E/DX2                !
 ! D51   D(22,12,13,8)         179.9437         estimate D2E/DX2                !
 ! D52   D(22,12,13,23)         -0.0962         estimate D2E/DX2                !
 ! D53   D(2,15,16,25)         -47.0291         estimate D2E/DX2                !
 ! D54   D(2,15,16,26)        -165.2158         estimate D2E/DX2                !
 ! D55   D(2,15,16,27)          74.8565         estimate D2E/DX2                !
 ! D56   D(17,15,16,25)        177.2283         estimate D2E/DX2                !
 ! D57   D(17,15,16,26)         59.0416         estimate D2E/DX2                !
 ! D58   D(17,15,16,27)        -60.8861         estimate D2E/DX2                !
 ! D59   D(2,15,17,28)          45.118          estimate D2E/DX2                !
 ! D60   D(2,15,17,29)         -76.8839         estimate D2E/DX2                !
 ! D61   D(2,15,17,30)         163.1763         estimate D2E/DX2                !
 ! D62   D(16,15,17,28)        179.2826         estimate D2E/DX2                !
 ! D63   D(16,15,17,29)         57.2807         estimate D2E/DX2                !
 ! D64   D(16,15,17,30)        -62.659          estimate D2E/DX2                !
 --------------------------------------------------------------------------------
 Trust Radius=3.00D-01 FncErr=1.00D-07 GrdErr=1.00D-06 EigMax=2.50D+02 EigMin=1.00D-04
 Number of steps in this run=    156 maximum allowed number of steps=    180.
 GradGradGradGradGradGradGradGradGradGradGradGradGradGradGradGradGradGrad

 Leave Link  103 at Thu Sep 24 06:49:45 2020, MaxMem=  2147483648 cpu:               0.0 elap:               0.0
 (Enter /prod/apps/gaussian/g16b1/l202.exe)
                          Input orientation:                          
 ---------------------------------------------------------------------
 Center     Atomic      Atomic             Coordinates (Angstroms)
 Number     Number       Type             X           Y           Z
 ---------------------------------------------------------------------
      1          8           0       -3.065000    0.261000   -1.920000
      2         16           0       -3.129000   -0.480000   -0.638000
      3          7           0       -1.726000   -1.094000   -0.129000
      4          6           0       -0.543000   -0.410000   -0.251000
      5          7           0       -0.361000    0.834000   -0.700000
      6          8           0        1.043000    1.059000   -0.627000
      7          6           0        1.651000   -0.051000   -0.141000
      8          6           0        3.108000   -0.010000    0.000000
      9          6           0        3.804000   -1.127000    0.495000
     10          6           0        5.191000   -1.091000    0.629000
     11          6           0        5.904000    0.058000    0.272000
     12          6           0        5.219000    1.172000   -0.220000
     13          6           0        3.832000    1.141000   -0.356000
     14          6           0        0.714000   -1.006000    0.115000
     15          7           0       -3.784000    0.655000    0.480000
     16          6           0       -3.849000    0.150000    1.857000
     17          6           0       -3.275000    2.031000    0.404000
     18          8           0       -4.093000   -1.603000   -0.584000
     19          1           0        3.260000   -2.024000    0.775000
     20          1           0        5.715000   -1.962000    1.012000
     21          1           0        6.985000    0.083000    0.377000
     22          1           0        5.765000    2.068000   -0.500000
     23          1           0        3.305000    2.009000   -0.738000
     24          1           0        0.856000   -2.003000    0.504000
     25          1           0       -4.278000   -0.853000    1.860000
     26          1           0       -4.505000    0.811000    2.431000
     27          1           0       -2.864000    0.124000    2.347000
     28          1           0       -3.236000    2.349000   -0.637000
     29          1           0       -2.279000    2.147000    0.854000
     30          1           0       -3.979000    2.674000    0.942000
 ---------------------------------------------------------------------
                    Distance matrix (angstroms):
                    1          2          3          4          5
     1  O    0.000000
     2  S    1.482127   0.000000
     3  N    2.614694   1.613842   0.000000
     4  C    3.097787   2.615734   1.371944   0.000000
     5  N    3.021315   3.064680   2.430319   1.335013   0.000000
     6  O    4.379991   4.446822   3.542707   2.194250   1.423787
     7  C    5.050034   4.824878   3.534420   2.225897   2.268006
     8  C    6.470376   6.287139   4.955729   3.681413   3.638172
     9  C    7.412282   7.054700   5.565192   4.468446   4.756130
    10  C    8.745676   8.438069   6.958409   5.840969   6.024663
    11  C    9.235206   9.094649   7.726888   6.485088   6.387267
    12  C    8.505562   8.520149   7.305892   5.975310   5.610797
    13  C    7.126648   7.152810   5.994841   4.642979   4.218274
    14  C    4.475193   3.951245   2.453748   1.438479   2.281546
    15  N    2.536178   1.722549   2.768618   3.488935   3.625103
    16  C    3.859107   2.672139   3.162098   3.960669   4.378613
    17  C    2.928818   2.722536   3.528330   3.721737   3.338116
    18  O    2.513200   1.480993   2.463492   3.759872   4.458727
    19  H    7.244990   6.723082   5.151923   4.256816   4.843081
    20  H    9.519808   9.117848   7.577848   6.570117   6.904081
    21  H   10.310693  10.180383   8.804708   7.570219   7.462416
    22  H    9.124174   9.252815   8.139470   6.781840   6.252250
    23  H    6.710404   6.899382   5.942260   4.571196   3.849886
    24  H    5.135729   4.416324   2.809572   2.250528   3.313499
    25  H    4.123198   2.774767   3.244519   4.313096   4.974179
    26  H    4.615983   3.602613   4.231485   4.937753   5.193884
    27  H    4.273928   3.057003   2.984819   3.524458   4.006659
    28  H    2.456639   2.831023   3.793733   3.874703   3.250357
    29  H    3.445267   3.138422   3.431644   3.282220   2.795999
    30  H    3.853441   3.628583   4.518946   4.768690   4.378549
                    6          7          8          9         10
     6  O    0.000000
     7  C    1.355714   0.000000
     8  C    2.408343   1.464381   0.000000
     9  C    3.696025   2.489514   1.406105   0.000000
    10  C    4.837969   3.769098   2.429628   1.393923   0.000000
    11  C    5.043761   4.274396   2.810022   2.421560   1.398577
    12  C    4.197308   3.772611   2.429371   2.792642   2.417179
    13  C    2.803335   2.494765   1.405601   2.422562   2.792656
    14  C    2.218790   1.362178   2.595472   3.115629   4.507211
    15  N    4.968762   5.515732   6.940626   7.794453   9.144471
    16  C    5.561313   5.855118   7.202354   7.877448   9.207044
    17  C    4.544543   5.375614   6.713538   7.751999   9.026110
    18  O    5.785031   5.966447   7.398183   7.984574   9.376895
    19  H    4.047911   2.705673   2.163313   1.085792   2.149550
    20  H    5.800030   4.636532   3.410410   2.148589   1.086235
    21  H    6.104749   5.360768   3.896397   3.405405   2.158753
    22  H    4.830269   4.641556   3.409946   3.878604   3.403439
    23  H    2.455904   2.708454   2.158660   3.406433   3.877588
    24  H    3.269553   2.204167   3.049192   3.075412   4.431658
    25  H    6.176889   6.308744   7.663109   8.201038   9.551647
    26  H    6.339809   6.727151   8.033777   8.748910  10.043765
    27  H    4.998355   5.158100   6.418033   7.032576   8.325309
    28  H    4.469233   5.467064   6.798308   7.932566   9.189705
    29  H    3.796418   4.611521   5.865299   6.917431   8.144702
    30  H    5.503678   6.347867   7.636543   8.673091   9.917767
                   11         12         13         14         15
    11  C    0.000000
    12  C    1.397242   0.000000
    13  C    2.420838   1.393996   0.000000
    14  C    5.300268   5.015071   3.814888   0.000000
    15  N    9.708605   9.044960   7.677145   4.808758   0.000000
    16  C    9.881381   9.358795   8.054639   5.019150   1.468121
    17  C    9.389579   8.560099   7.202718   5.021853   1.469093
    18  O   10.170136   9.723501   8.389705   4.894105   2.515182
    19  H    3.402715   3.878417   3.409336   2.820291   7.542016
    20  H    2.159565   3.403791   3.878882   5.169966   9.867255
    21  H    1.086375   2.158955   3.405593   6.370244  10.784672
    22  H    2.157639   1.085971   2.148617   5.944771   9.702596
    23  H    3.403131   2.152275   1.084932   4.065847   7.319205
    24  H    5.457458   5.444315   4.413719   1.079580   5.347442
    25  H   10.345279   9.930762   8.640532   5.290416   2.102974
    26  H   10.657184  10.085351   8.796695   5.991937   2.085804
    27  H    9.010428   8.545331   7.292250   4.365869   2.148034
    28  H    9.466497   8.546709   7.175991   5.236796   2.101816
    29  H    8.465467   7.637022   6.310345   4.409714   2.151968
    30  H   10.245294   9.391989   8.065148   6.020845   2.080344
                   16         17         18         19         20
    16  C    0.000000
    17  C    2.445168   0.000000
    18  O    3.015133   3.853729   0.000000
    19  H    7.512315   7.699798   7.489375   0.000000
    20  H    9.830802   9.855649   9.943488   2.467192   0.000000
    21  H   10.934827  10.443325  11.246697   4.298078   2.489608
    22  H   10.082816   9.085163  10.519670   4.964385   4.304596
    23  H    7.833877   6.678402   8.234116   4.307700   4.963813
    24  H    5.348181   5.774800   5.082946   2.419318   4.885655
    25  H    1.090898   3.382810   2.563174   7.705187  10.090046
    26  H    1.093953   2.666464   3.884246   8.430586  10.684170
    27  H    1.100455   2.753329   3.617144   6.677459   8.929326
    28  H    3.381036   1.089186   4.044201   7.957065  10.070964
    29  H    2.731102   1.099078   4.406920   6.934263   8.989598
    30  H    2.687880   1.094764   4.542510   8.631467  10.745745
                   21         22         23         24         25
    21  H    0.000000
    22  H    2.489529   0.000000
    23  H    4.300593   2.472190   0.000000
    24  H    6.475505   6.455954   4.861719   0.000000
    25  H   11.398708  10.722112   8.511318   5.433157   0.000000
    26  H   11.694828  10.753777   8.513158   6.353916   1.773828
    27  H   10.044172   9.292157   7.150315   4.664673   1.786363
    28  H   10.518165   9.006427   6.550609   6.081632   4.192085
    29  H    9.503122   8.157542   5.808146   5.212794   3.742731
    30  H   11.280151   9.868745   7.504751   6.741172   3.656755
                   26         27         28         29         30
    26  H    0.000000
    27  H    1.780985   0.000000
    28  H    3.659020   3.740757   0.000000
    29  H    3.037581   2.581434   1.783181   0.000000
    30  H    2.442246   3.117651   1.775082   1.781986   0.000000
 Symmetry turned off by external request.
 Stoichiometry    C11H12N3O3S(1-)
 Framework group  C1[X(C11H12N3O3S)]
 Deg. of freedom    84
 Full point group                 C1      NOp   1
 Rotational constants (GHZ):           1.1843822           0.1551811           0.1503815
 Leave Link  202 at Thu Sep 24 06:49:45 2020, MaxMem=  2147483648 cpu:               0.0 elap:               0.0
 (Enter /prod/apps/gaussian/g16b1/l301.exe)
 Standard basis: 6-31G(d) (6D, 7F)
 Ernie: Thresh=  0.10000D-02 Tol=  0.10000D-05 Strict=F.
   298 basis functions,   576 primitive gaussians,   298 cartesian basis functions
    70 alpha electrons       70 beta electrons
       nuclear repulsion energy      1425.5380018648 Hartrees.
 IExCor=  402 DFT=T Ex+Corr=B3LYP ExCW=0 ScaHFX=  0.200000
 ScaDFX=  0.800000  0.720000  1.000000  0.810000 ScalE2=  1.000000  1.000000
 IRadAn=      5 IRanWt=     -1 IRanGd=            0 ICorTp=0 IEmpDi=  4
 NAtoms=   30 NActive=   30 NUniq=   30 SFac= 1.00D+00 NAtFMM=   60 NAOKFM=F Big=F
 Integral buffers will be    131072 words long.
 Raffenetti 2 integral format.
 Two-electron integral symmetry is turned off.
 Using the following non-standard input for PCM:
 MSTModel=DFT cav MSTcharged
 --- end of non-standard input.
 MST model for solvation energy: B3LYP parametrization.
 MST cavity parameters:
 ISph   IAn     Re0     Alpha   Atom Type   QCorr
 ------------------------------------------------
   1      8     1.40     1.25      O          F
   2     16     1.75     1.25      S          F
   3      7     1.40     1.15      N          T
   4      6     1.50     1.25      C          F
   5      7     1.40     1.25      N          F
   6      8     1.40     1.25      O          F
   7      6     1.50     1.25      C          F
   8      6     1.50     1.25      C          F
   9      6     1.50     1.25      CH         F
  10      6     1.50     1.25      CH         F
  11      6     1.50     1.25      CH         F
  12      6     1.50     1.25      CH         F
  13      6     1.50     1.25      CH         F
  14      6     1.50     1.25      CH         F
  15      7     1.40     1.25      N          F
  16      6     1.50     1.25      CH3        F
  17      6     1.50     1.25      CH3        F
  18      8     1.40     1.25      O          F
  19      1     1.20     1.25      CH         F
  20      1     1.20     1.25      CH         F
  21      1     1.20     1.25      CH         F
  22      1     1.20     1.25      CH         F
  23      1     1.20     1.25      CH         F
  24      1     1.20     1.25      CH         F
  25      1     1.20     1.25      CH3        F
  26      1     1.20     1.25      CH3        F
  27      1     1.20     1.25      CH3        F
  28      1     1.20     1.25      CH3        F
  29      1     1.20     1.25      CH3        F
  30      1     1.20     1.25      CH3        F
 ------------------------------------------------------------------------------
 Polarizable Continuum Model (PCM)
 =================================
 Model                : PCM.
 Atomic radii         : MST.
 Polarization charges : Total charges.
 Charge compensation  : None.
 Solution method      : On-the-fly selection.
 Cavity type          : Scaled VdW (van der Waals Surface) (Alpha=1.250).
 Cavity algorithm     : GePol (No added spheres)
                        Default sphere list used, NSphG=   30.
                        Lebedev-Laikov grids with approx.  5.0 points / Ang**2.
                        Smoothing algorithm: York/Karplus (Gamma=1.0000).
                        Polarization charges: spherical gaussians, with
                                              point-specific exponents (IZeta= 3).
                        Self-potential: point-specific (ISelfS= 7).
                        Self-field    : sphere-specific E.n sum rule (ISelfD= 2).
 1st derivatives      : Analytical E(r).r(x)/FMM algorithm (CHGder, D1EAlg=3).
                        Cavity 1st derivative terms included.
 Solvent              : Water, Eps=  78.355300 Eps(inf)=   1.777849
 ------------------------------------------------------------------------------
 GePol: Number of generator spheres                  =      30
 GePol: Total number of spheres                      =      30
 GePol: Number of exposed spheres                    =      30 (100.00%)
 GePol: Number of points                             =    2341
 GePol: Average weight of points                     =       0.13
 GePol: Minimum weight of points                     =   0.34D-10
 GePol: Maximum weight of points                     =    0.22001
 GePol: Number of points with low weight             =     137
 GePol: Fraction of low-weight points (<1% of avg)   =       5.85%
 GePol: Cavity surface area                          =    307.598 Ang**2
 GePol: Cavity volume                                =    290.413 Ang**3
 PCM non-electrostatic energy =         0.0041599887 Hartrees.
 Nuclear repulsion after PCM non-electrostatic terms =     1425.5421618535 Hartrees.
 Leave Link  301 at Thu Sep 24 06:49:45 2020, MaxMem=  2147483648 cpu:               0.3 elap:               0.1
 (Enter /prod/apps/gaussian/g16b1/l302.exe)
 NPDir=0 NMtPBC=     1 NCelOv=     1 NCel=       1 NClECP=     1 NCelD=      1
         NCelK=      1 NCelE2=     1 NClLst=     1 CellRange=     0.0.
 One-electron integrals computed using PRISM.
 NBasis=   298 RedAO= T EigKep=  4.60D-04  NBF=   298
 NBsUse=   298 1.00D-06 EigRej= -1.00D+00 NBFU=   298
 Precomputing XC quadrature grid using
 IXCGrd= 4 IRadAn=           5 IRanWt=          -1 IRanGd=           0 AccXCQ= 0.00D+00.
 Generated NRdTot=       0 NPtTot=           0 NUsed=           0 NTot=          32
 NSgBfM=   297   296   296   296   297 MxSgAt=    30 MxSgA2=    30.
 Leave Link  302 at Thu Sep 24 06:49:45 2020, MaxMem=  2147483648 cpu:               1.4 elap:               0.4
 (Enter /prod/apps/gaussian/g16b1/l303.exe)
 DipDrv:  MaxL=1.
 Leave Link  303 at Thu Sep 24 06:49:45 2020, MaxMem=  2147483648 cpu:               0.2 elap:               0.0
 (Enter /prod/apps/gaussian/g16b1/l401.exe)
 ExpMin= 1.17D-01 ExpMax= 2.19D+04 ExpMxC= 3.30D+03 IAcc=3 IRadAn=         5 AccDes= 0.00D+00
 Harris functional with IExCor=  402 and IRadAn=       5 diagonalized for initial guess.
 HarFok:  IExCor=  402 AccDes= 0.00D+00 IRadAn=         5 IDoV= 1 UseB2=F ITyADJ=14
 ICtDFT=  3500011 ScaDFX=  1.000000  1.000000  1.000000  1.000000
 FoFCou: FMM=F IPFlag=           0 FMFlag=      100000 FMFlg1=           0
         NFxFlg=           0 DoJE=T BraDBF=F KetDBF=T FulRan=T
         wScrn=  0.000000 ICntrl=       500 IOpCl=  0 I1Cent=   200000004 NGrid=           0
         NMat0=    1 NMatS0=      1 NMatT0=    0 NMatD0=    1 NMtDS0=    0 NMtDT0=    0
 Symmetry not used in FoFCou.
 Harris En= -1214.60762054182    
 JPrj=0 DoOrth=F DoCkMO=F.
 Leave Link  401 at Thu Sep 24 06:49:47 2020, MaxMem=  2147483648 cpu:               7.4 elap:               1.9
 (Enter /prod/apps/gaussian/g16b1/l502.exe)
 Keep R1 ints in memory in canonical form, NReq=1005784643.
 FoFCou: FMM=F IPFlag=           0 FMFlag=           0 FMFlg1=           0
         NFxFlg=           0 DoJE=F BraDBF=F KetDBF=F FulRan=T
         wScrn=  0.000000 ICntrl=       600 IOpCl=  0 I1Cent=           0 NGrid=           0
         NMat0=    1 NMatS0=  44551 NMatT0=    0 NMatD0=    1 NMtDS0=    0 NMtDT0=    0
 Symmetry not used in FoFCou.
 Two-electron integral symmetry not used.
 Closed shell SCF:
 Using DIIS extrapolation, IDIIS=  1040.
 NGot=  2147483648 LenX=  1154883590 LenY=  1154794345
 Requested convergence on RMS density matrix=1.00D-08 within2000 cycles.
 Requested convergence on MAX density matrix=1.00D-06.
 Requested convergence on             energy=1.00D-06.
 No special actions if energy rises.

 Cycle   1  Pass 1  IDiag  1:
 Inv3:  Mode=1 IEnd=    16440843.
 Iteration    1 A*A^-1 deviation from unit magnitude is 3.33D-15 for   1108.
 Iteration    1 A*A^-1 deviation from orthogonality  is 4.84D-15 for   2090    742.
 Iteration    1 A^-1*A deviation from unit magnitude is 3.11D-15 for   1108.
 Iteration    1 A^-1*A deviation from orthogonality  is 3.89D-15 for   1997   1976.
 E= -1213.97826748384    
 DIIS: error= 3.46D-02 at cycle   1 NSaved=   1.
 NSaved= 1 IEnMin= 1 EnMin= -1213.97826748384     IErMin= 1 ErrMin= 3.46D-02
 ErrMax= 3.46D-02  0.00D+00 EMaxC= 1.00D-01 BMatC= 6.48D-01 BMatP= 6.48D-01
 IDIUse=3 WtCom= 6.54D-01 WtEn= 3.46D-01
 Coeff-Com:  0.100D+01
 Coeff-En:   0.100D+01
 Coeff:      0.100D+01
 Gap=     0.195 Goal=   None    Shift=    0.000
 GapD=    0.195 DampG=1.000 DampE=0.500 DampFc=0.5000 IDamp=-1.
 Damping current iteration by 5.00D-01
 RMSDP=6.17D-03 MaxDP=5.53D-01              OVMax= 2.10D-01

 Cycle   2  Pass 1  IDiag  1:
 E= -1214.16431475920     Delta-E=       -0.186047275363 Rises=F Damp=T
 DIIS: error= 1.05D-02 at cycle   2 NSaved=   2.
 NSaved= 2 IEnMin= 2 EnMin= -1214.16431475920     IErMin= 2 ErrMin= 1.05D-02
 ErrMax= 1.05D-02  0.00D+00 EMaxC= 1.00D-01 BMatC= 7.05D-02 BMatP= 6.48D-01
 IDIUse=3 WtCom= 8.95D-01 WtEn= 1.05D-01
 Coeff-Com:  0.180D+00 0.820D+00
 Coeff-En:   0.289D+00 0.711D+00
 Coeff:      0.191D+00 0.809D+00
 Gap=     0.199 Goal=   None    Shift=    0.000
 RMSDP=1.69D-03 MaxDP=1.35D-01 DE=-1.86D-01 OVMax= 1.71D-01

 Cycle   3  Pass 1  IDiag  1:
 E= -1214.50685866531     Delta-E=       -0.342543906103 Rises=F Damp=F
 DIIS: error= 8.08D-03 at cycle   3 NSaved=   3.
 NSaved= 3 IEnMin= 3 EnMin= -1214.50685866531     IErMin= 3 ErrMin= 8.08D-03
 ErrMax= 8.08D-03  0.00D+00 EMaxC= 1.00D-01 BMatC= 3.57D-02 BMatP= 7.05D-02
 IDIUse=3 WtCom= 9.19D-01 WtEn= 8.08D-02
 Coeff-Com:  0.417D-01 0.414D+00 0.544D+00
 Coeff-En:   0.000D+00 0.000D+00 0.100D+01
 Coeff:      0.383D-01 0.381D+00 0.581D+00
 Gap=     0.167 Goal=   None    Shift=    0.000
 RMSDP=8.69D-04 MaxDP=4.15D-02 DE=-3.43D-01 OVMax= 3.31D-02

 Cycle   4  Pass 1  IDiag  1:
 E= -1214.53285359415     Delta-E=       -0.025994928844 Rises=F Damp=F
 DIIS: error= 3.22D-03 at cycle   4 NSaved=   4.
 NSaved= 4 IEnMin= 4 EnMin= -1214.53285359415     IErMin= 4 ErrMin= 3.22D-03
 ErrMax= 3.22D-03  0.00D+00 EMaxC= 1.00D-01 BMatC= 5.85D-03 BMatP= 3.57D-02
 IDIUse=3 WtCom= 9.68D-01 WtEn= 3.22D-02
 Coeff-Com:  0.101D-02 0.963D-01 0.310D+00 0.593D+00
 Coeff-En:   0.000D+00 0.000D+00 0.116D+00 0.884D+00
 Coeff:      0.976D-03 0.932D-01 0.304D+00 0.602D+00
 Gap=     0.161 Goal=   None    Shift=    0.000
 RMSDP=2.92D-04 MaxDP=1.40D-02 DE=-2.60D-02 OVMax= 1.32D-02

 Cycle   5  Pass 1  IDiag  1:
 E= -1214.53731262333     Delta-E=       -0.004459029179 Rises=F Damp=F
 DIIS: error= 1.04D-03 at cycle   5 NSaved=   5.
 NSaved= 5 IEnMin= 5 EnMin= -1214.53731262333     IErMin= 5 ErrMin= 1.04D-03
 ErrMax= 1.04D-03  0.00D+00 EMaxC= 1.00D-01 BMatC= 5.61D-04 BMatP= 5.85D-03
 IDIUse=3 WtCom= 9.90D-01 WtEn= 1.04D-02
 Coeff-Com: -0.274D-02 0.179D-01 0.112D+00 0.324D+00 0.549D+00
 Coeff-En:   0.000D+00 0.000D+00 0.000D+00 0.173D-01 0.983D+00
 Coeff:     -0.271D-02 0.177D-01 0.111D+00 0.321D+00 0.553D+00
 Gap=     0.163 Goal=   None    Shift=    0.000
 RMSDP=9.06D-05 MaxDP=4.80D-03 DE=-4.46D-03 OVMax= 5.26D-03

 Cycle   6  Pass 1  IDiag  1:
 E= -1214.53777154525     Delta-E=       -0.000458921919 Rises=F Damp=F
 DIIS: error= 1.83D-04 at cycle   6 NSaved=   6.
 NSaved= 6 IEnMin= 6 EnMin= -1214.53777154525     IErMin= 6 ErrMin= 1.83D-04
 ErrMax= 1.83D-04  0.00D+00 EMaxC= 1.00D-01 BMatC= 3.05D-05 BMatP= 5.61D-04
 IDIUse=3 WtCom= 9.98D-01 WtEn= 1.83D-03
 Coeff-Com: -0.153D-02 0.355D-02 0.379D-01 0.127D+00 0.282D+00 0.551D+00
 Coeff-En:   0.000D+00 0.000D+00 0.000D+00 0.000D+00 0.000D+00 0.100D+01
 Coeff:     -0.153D-02 0.354D-02 0.378D-01 0.126D+00 0.282D+00 0.552D+00
 Gap=     0.162 Goal=   None    Shift=    0.000
 RMSDP=2.09D-05 MaxDP=1.27D-03 DE=-4.59D-04 OVMax= 2.07D-03

 Cycle   7  Pass 1  IDiag  1:
 E= -1214.53779400072     Delta-E=       -0.000022455471 Rises=F Damp=F
 DIIS: error= 7.01D-05 at cycle   7 NSaved=   7.
 NSaved= 7 IEnMin= 7 EnMin= -1214.53779400072     IErMin= 7 ErrMin= 7.01D-05
 ErrMax= 7.01D-05  0.00D+00 EMaxC= 1.00D-01 BMatC= 4.28D-06 BMatP= 3.05D-05
 IDIUse=1 WtCom= 1.00D+00 WtEn= 0.00D+00
 Coeff-Com: -0.703D-03 0.446D-03 0.125D-01 0.464D-01 0.121D+00 0.333D+00
 Coeff-Com:  0.487D+00
 Coeff:     -0.703D-03 0.446D-03 0.125D-01 0.464D-01 0.121D+00 0.333D+00
 Coeff:      0.487D+00
 Gap=     0.162 Goal=   None    Shift=    0.000
 RMSDP=7.72D-06 MaxDP=5.47D-04 DE=-2.25D-05 OVMax= 7.68D-04

 Cycle   8  Pass 1  IDiag  1:
 E= -1214.53779751681     Delta-E=       -0.000003516087 Rises=F Damp=F
 DIIS: error= 2.41D-05 at cycle   8 NSaved=   8.
 NSaved= 8 IEnMin= 8 EnMin= -1214.53779751681     IErMin= 8 ErrMin= 2.41D-05
 ErrMax= 2.41D-05  0.00D+00 EMaxC= 1.00D-01 BMatC= 3.32D-07 BMatP= 4.28D-06
 IDIUse=1 WtCom= 1.00D+00 WtEn= 0.00D+00
 Coeff-Com: -0.205D-03-0.155D-03 0.230D-02 0.101D-01 0.335D-01 0.120D+00
 Coeff-Com:  0.263D+00 0.571D+00
 Coeff:     -0.205D-03-0.155D-03 0.230D-02 0.101D-01 0.335D-01 0.120D+00
 Coeff:      0.263D+00 0.571D+00
 Gap=     0.162 Goal=   None    Shift=    0.000
 RMSDP=2.37D-06 MaxDP=1.41D-04 DE=-3.52D-06 OVMax= 2.22D-04

 Cycle   9  Pass 1  IDiag  1:
 E= -1214.53779778510     Delta-E=       -0.000000268297 Rises=F Damp=F
 DIIS: error= 7.46D-06 at cycle   9 NSaved=   9.
 NSaved= 9 IEnMin= 9 EnMin= -1214.53779778510     IErMin= 9 ErrMin= 7.46D-06
 ErrMax= 7.46D-06  0.00D+00 EMaxC= 1.00D-01 BMatC= 3.50D-08 BMatP= 3.32D-07
 IDIUse=1 WtCom= 1.00D+00 WtEn= 0.00D+00
 Coeff-Com: -0.192D-04-0.121D-03-0.405D-03-0.893D-03 0.145D-02 0.173D-01
 Coeff-Com:  0.656D-01 0.296D+00 0.621D+00
 Coeff:     -0.192D-04-0.121D-03-0.405D-03-0.893D-03 0.145D-02 0.173D-01
 Coeff:      0.656D-01 0.296D+00 0.621D+00
 Gap=     0.162 Goal=   None    Shift=    0.000
 RMSDP=7.22D-07 MaxDP=2.45D-05 DE=-2.68D-07 OVMax= 3.92D-05

 Cycle  10  Pass 1  IDiag  1:
 E= -1214.53779781259     Delta-E=       -0.000000027487 Rises=F Damp=F
 DIIS: error= 3.39D-06 at cycle  10 NSaved=  10.
 NSaved=10 IEnMin=10 EnMin= -1214.53779781259     IErMin=10 ErrMin= 3.39D-06
 ErrMax= 3.39D-06  0.00D+00 EMaxC= 1.00D-01 BMatC= 3.40D-09 BMatP= 3.50D-08
 IDIUse=1 WtCom= 1.00D+00 WtEn= 0.00D+00
 Coeff-Com: -0.243D-05-0.535D-04-0.335D-03-0.993D-03-0.832D-03 0.368D-02
 Coeff-Com:  0.223D-01 0.139D+00 0.349D+00 0.488D+00
 Coeff:     -0.243D-05-0.535D-04-0.335D-03-0.993D-03-0.832D-03 0.368D-02
 Coeff:      0.223D-01 0.139D+00 0.349D+00 0.488D+00
 Gap=     0.162 Goal=   None    Shift=    0.000
 RMSDP=2.23D-07 MaxDP=8.58D-06 DE=-2.75D-08 OVMax= 1.62D-05

 Cycle  11  Pass 1  IDiag  1:
 E= -1214.53779781549     Delta-E=       -0.000000002897 Rises=F Damp=F
 DIIS: error= 5.73D-07 at cycle  11 NSaved=  11.
 NSaved=11 IEnMin=11 EnMin= -1214.53779781549     IErMin=11 ErrMin= 5.73D-07
 ErrMax= 5.73D-07  0.00D+00 EMaxC= 1.00D-01 BMatC= 2.50D-10 BMatP= 3.40D-09
 IDIUse=1 WtCom= 1.00D+00 WtEn= 0.00D+00
 Coeff-Com:  0.112D-05-0.354D-05-0.109D-03-0.382D-03-0.781D-03-0.140D-02
 Coeff-Com: -0.108D-02 0.194D-01 0.572D-01 0.227D+00 0.700D+00
 Coeff:      0.112D-05-0.354D-05-0.109D-03-0.382D-03-0.781D-03-0.140D-02
 Coeff:     -0.108D-02 0.194D-01 0.572D-01 0.227D+00 0.700D+00
 Gap=     0.162 Goal=   None    Shift=    0.000
 RMSDP=6.06D-08 MaxDP=2.47D-06 DE=-2.90D-09 OVMax= 3.64D-06

 Cycle  12  Pass 1  IDiag  1:
 E= -1214.53779781568     Delta-E=       -0.000000000191 Rises=F Damp=F
 DIIS: error= 2.08D-07 at cycle  12 NSaved=  12.
 NSaved=12 IEnMin=12 EnMin= -1214.53779781568     IErMin=12 ErrMin= 2.08D-07
 ErrMax= 2.08D-07  0.00D+00 EMaxC= 1.00D-01 BMatC= 3.62D-11 BMatP= 2.50D-10
 IDIUse=1 WtCom= 1.00D+00 WtEn= 0.00D+00
 Coeff-Com:  0.489D-06 0.165D-05-0.413D-04-0.151D-03-0.368D-03-0.877D-03
 Coeff-Com: -0.174D-02 0.381D-02 0.121D-01 0.993D-01 0.386D+00 0.502D+00
 Coeff:      0.489D-06 0.165D-05-0.413D-04-0.151D-03-0.368D-03-0.877D-03
 Coeff:     -0.174D-02 0.381D-02 0.121D-01 0.993D-01 0.386D+00 0.502D+00
 Gap=     0.162 Goal=   None    Shift=    0.000
 RMSDP=2.41D-08 MaxDP=1.15D-06 DE=-1.91D-10 OVMax= 1.76D-06

 Cycle  13  Pass 1  IDiag  1:
 E= -1214.53779781570     Delta-E=       -0.000000000025 Rises=F Damp=F
 DIIS: error= 8.84D-08 at cycle  13 NSaved=  13.
 NSaved=13 IEnMin=13 EnMin= -1214.53779781570     IErMin=13 ErrMin= 8.84D-08
 ErrMax= 8.84D-08  0.00D+00 EMaxC= 1.00D-01 BMatC= 4.70D-12 BMatP= 3.62D-11
 IDIUse=1 WtCom= 1.00D+00 WtEn= 0.00D+00
 Coeff-Com:  0.487D-07 0.146D-05-0.373D-05-0.162D-04-0.768D-04-0.273D-03
 Coeff-Com: -0.954D-03-0.179D-02-0.534D-02 0.125D-01 0.767D-01 0.284D+00
 Coeff-Com:  0.635D+00
 Coeff:      0.487D-07 0.146D-05-0.373D-05-0.162D-04-0.768D-04-0.273D-03
 Coeff:     -0.954D-03-0.179D-02-0.534D-02 0.125D-01 0.767D-01 0.284D+00
 Coeff:      0.635D+00
 Gap=     0.162 Goal=   None    Shift=    0.000
 RMSDP=8.71D-09 MaxDP=3.13D-07 DE=-2.46D-11 OVMax= 7.00D-07

 Error on total polarization charges =  0.02254
 SCF Done:  E(RB3LYP) =  -1214.53779782     A.U. after   13 cycles
            NFock= 13  Conv=0.87D-08     -V/T= 2.0075
 KE= 1.205454524824D+03 PE=-5.719530095163D+03 EE= 1.873995610670D+03
 Leave Link  502 at Thu Sep 24 06:50:51 2020, MaxMem=  2147483648 cpu:             194.9 elap:              63.5
 (Enter /prod/apps/gaussian/g16b1/l601.exe)
 Copying SCF densities to generalized density rwf, IOpCl= 0 IROHF=0.

 **********************************************************************

            Population analysis using the SCF Density.

 **********************************************************************

 Alpha  occ. eigenvalues --  -89.10023 -19.21662 -19.12135 -19.11657 -14.35407
 Alpha  occ. eigenvalues --  -14.34931 -14.30373 -10.25305 -10.24804 -10.21131
 Alpha  occ. eigenvalues --  -10.20588 -10.20324 -10.19783 -10.19621 -10.19522
 Alpha  occ. eigenvalues --  -10.19470 -10.19427 -10.18176  -8.12195  -6.08680
 Alpha  occ. eigenvalues --   -6.08663  -6.08557  -1.11566  -1.08925  -0.97163
 Alpha  occ. eigenvalues --   -0.91394  -0.90235  -0.86399  -0.81819  -0.78993
 Alpha  occ. eigenvalues --   -0.74964  -0.74108  -0.70721  -0.67664  -0.63254
 Alpha  occ. eigenvalues --   -0.62119  -0.60226  -0.58009  -0.54241  -0.53013
 Alpha  occ. eigenvalues --   -0.49728  -0.48332  -0.47328  -0.46344  -0.45782
 Alpha  occ. eigenvalues --   -0.45432  -0.44800  -0.43909  -0.42773  -0.42488
 Alpha  occ. eigenvalues --   -0.41270  -0.40056  -0.39257  -0.38548  -0.37572
 Alpha  occ. eigenvalues --   -0.36973  -0.35646  -0.34557  -0.34233  -0.33118
 Alpha  occ. eigenvalues --   -0.31726  -0.30235  -0.29220  -0.28810  -0.28581
 Alpha  occ. eigenvalues --   -0.26069  -0.25742  -0.24146  -0.22607  -0.20357
 Alpha virt. eigenvalues --   -0.04146  -0.00633   0.03756   0.08148   0.08566
 Alpha virt. eigenvalues --    0.09486   0.10453   0.11529   0.11927   0.13151
 Alpha virt. eigenvalues --    0.14047   0.15199   0.15500   0.16000   0.16881
 Alpha virt. eigenvalues --    0.17353   0.17400   0.17847   0.18289   0.19426
 Alpha virt. eigenvalues --    0.19564   0.21025   0.22631   0.24203   0.24467
 Alpha virt. eigenvalues --    0.26704   0.27456   0.30301   0.30960   0.33203
 Alpha virt. eigenvalues --    0.33678   0.34657   0.37324   0.39515   0.41539
 Alpha virt. eigenvalues --    0.44962   0.46198   0.48192   0.48645   0.50615
 Alpha virt. eigenvalues --    0.51130   0.52538   0.53465   0.54073   0.54491
 Alpha virt. eigenvalues --    0.55798   0.56138   0.56825   0.57915   0.58460
 Alpha virt. eigenvalues --    0.59173   0.59988   0.60252   0.61085   0.61956
 Alpha virt. eigenvalues --    0.62722   0.64089   0.64646   0.65130   0.65921
 Alpha virt. eigenvalues --    0.67283   0.69403   0.70529   0.71782   0.72588
 Alpha virt. eigenvalues --    0.74367   0.76882   0.77407   0.77936   0.79322
 Alpha virt. eigenvalues --    0.80322   0.82196   0.82778   0.83825   0.84544
 Alpha virt. eigenvalues --    0.85112   0.85132   0.86637   0.87769   0.87931
 Alpha virt. eigenvalues --    0.89033   0.90868   0.91216   0.91839   0.92214
 Alpha virt. eigenvalues --    0.92992   0.94265   0.95280   0.95950   0.96461
 Alpha virt. eigenvalues --    0.96950   0.98117   0.99548   1.01549   1.02343
 Alpha virt. eigenvalues --    1.03305   1.04671   1.05193   1.06939   1.08896
 Alpha virt. eigenvalues --    1.10268   1.11416   1.12894   1.15069   1.16583
 Alpha virt. eigenvalues --    1.17508   1.18799   1.19377   1.22870   1.24759
 Alpha virt. eigenvalues --    1.25673   1.27746   1.28787   1.31029   1.32698
 Alpha virt. eigenvalues --    1.33259   1.35815   1.38107   1.39308   1.41579
 Alpha virt. eigenvalues --    1.42706   1.43112   1.44220   1.46594   1.47757
 Alpha virt. eigenvalues --    1.48602   1.49408   1.50609   1.50916   1.53685
 Alpha virt. eigenvalues --    1.56268   1.57175   1.60130   1.61062   1.68824
 Alpha virt. eigenvalues --    1.70641   1.73751   1.79015   1.79544   1.79988
 Alpha virt. eigenvalues --    1.81703   1.81935   1.83152   1.84218   1.87589
 Alpha virt. eigenvalues --    1.88189   1.89126   1.89263   1.91008   1.92611
 Alpha virt. eigenvalues --    1.94791   1.95507   1.97066   1.97672   1.98764
 Alpha virt. eigenvalues --    1.99310   2.01189   2.02317   2.03551   2.04756
 Alpha virt. eigenvalues --    2.06311   2.10347   2.11542   2.11726   2.13106
 Alpha virt. eigenvalues --    2.13509   2.14126   2.14928   2.16374   2.19996
 Alpha virt. eigenvalues --    2.21934   2.23059   2.24144   2.24713   2.25913
 Alpha virt. eigenvalues --    2.28344   2.28516   2.30322   2.32871   2.33380
 Alpha virt. eigenvalues --    2.33996   2.34874   2.44372   2.49857   2.51428
 Alpha virt. eigenvalues --    2.53200   2.54147   2.54549   2.58426   2.59065
 Alpha virt. eigenvalues --    2.59954   2.61960   2.64949   2.66475   2.67142
 Alpha virt. eigenvalues --    2.73230   2.73618   2.74823   2.74883   2.75407
 Alpha virt. eigenvalues --    2.81453   2.86131   2.89435   2.91359   2.94790
 Alpha virt. eigenvalues --    3.04870   3.06768   3.15165   3.28557   3.42910
 Alpha virt. eigenvalues --    3.75813   3.84437   3.98511   4.01264   4.06827
 Alpha virt. eigenvalues --    4.08773   4.11102   4.11465   4.17157   4.20762
 Alpha virt. eigenvalues --    4.24611   4.31683   4.32332   4.33940   4.38893
 Alpha virt. eigenvalues --    4.42584   4.58957   4.74768
          Condensed to atoms (all electrons):
               1          2          3          4          5          6
     1  O    8.374807   0.402457  -0.054822  -0.001018   0.002256   0.000029
     2  S    0.402457  13.586427   0.272491  -0.019769  -0.001048   0.000046
     3  N   -0.054822   0.272491   7.464912   0.350682  -0.090215   0.005044
     4  C   -0.001018  -0.019769   0.350682   4.462577   0.366448  -0.037078
     5  N    0.002256  -0.001048  -0.090215   0.366448   7.099527   0.084702
     6  O    0.000029   0.000046   0.005044  -0.037078   0.084702   8.266898
     7  C    0.000013   0.000135   0.000028  -0.017117  -0.072829   0.236369
     8  C    0.000000  -0.000009  -0.000180   0.002948   0.004274  -0.040467
     9  C    0.000000   0.000000   0.000002   0.000503  -0.000087   0.003101
    10  C    0.000000  -0.000000   0.000000  -0.000006   0.000001  -0.000060
    11  C   -0.000000  -0.000000   0.000000   0.000000  -0.000000   0.000001
    12  C    0.000000  -0.000000  -0.000000   0.000004   0.000000   0.000328
    13  C    0.000000  -0.000000  -0.000001  -0.000330   0.000120  -0.005681
    14  C   -0.000105   0.000189  -0.055058   0.438256  -0.068769  -0.082533
    15  N   -0.052051   0.134561  -0.064318  -0.002811   0.000940  -0.000003
    16  C    0.001755  -0.013275   0.001626  -0.000251  -0.000053   0.000000
    17  C   -0.005574  -0.016497  -0.000682  -0.000008  -0.002766  -0.000007
    18  O   -0.050113   0.456152  -0.071604   0.001099  -0.000019   0.000000
    19  H    0.000000  -0.000000  -0.000001   0.000041  -0.000003   0.000022
    20  H   -0.000000   0.000000  -0.000000  -0.000000  -0.000000   0.000000
    21  H   -0.000000  -0.000000  -0.000000  -0.000000   0.000000   0.000000
    22  H    0.000000   0.000000   0.000000  -0.000000   0.000000  -0.000002
    23  H    0.000000  -0.000000  -0.000000   0.000040  -0.000239   0.010605
    24  H    0.000002  -0.000092   0.000121  -0.030174   0.006019   0.003680
    25  H    0.000072   0.001970  -0.002143  -0.000015   0.000004  -0.000000
    26  H   -0.000053   0.002340   0.000040  -0.000029  -0.000001  -0.000000
    27  H   -0.000018  -0.008836   0.007166   0.001532  -0.000226   0.000001
    28  H    0.013082  -0.002148  -0.000067  -0.000182   0.000735  -0.000004
    29  H   -0.000279  -0.006632   0.001773   0.002582   0.005287  -0.000076
    30  H    0.000161   0.001486  -0.000184  -0.000034   0.000239  -0.000001
               7          8          9         10         11         12
     1  O    0.000013   0.000000   0.000000   0.000000  -0.000000   0.000000
     2  S    0.000135  -0.000009   0.000000  -0.000000  -0.000000  -0.000000
     3  N    0.000028  -0.000180   0.000002   0.000000   0.000000  -0.000000
     4  C   -0.017117   0.002948   0.000503  -0.000006   0.000000   0.000004
     5  N   -0.072829   0.004274  -0.000087   0.000001  -0.000000   0.000000
     6  O    0.236369  -0.040467   0.003101  -0.000060   0.000001   0.000328
     7  C    4.750765   0.348796  -0.043997   0.006180   0.000819   0.004535
     8  C    0.348796   4.786999   0.536266  -0.011414  -0.033810  -0.010468
     9  C   -0.043997   0.536266   5.024373   0.516424  -0.040234  -0.041283
    10  C    0.006180  -0.011414   0.516424   4.890454   0.539264  -0.026827
    11  C    0.000819  -0.033810  -0.040234   0.539264   4.881239   0.538932
    12  C    0.004535  -0.010468  -0.041283  -0.026827   0.538932   4.897683
    13  C   -0.042313   0.470326  -0.082726  -0.042002  -0.038228   0.503728
    14  C    0.492893  -0.056650  -0.019823   0.000227   0.000014  -0.000224
    15  N    0.000002  -0.000000   0.000000   0.000000  -0.000000   0.000000
    16  C    0.000001   0.000000  -0.000000  -0.000000   0.000000  -0.000000
    17  C    0.000015   0.000000  -0.000000  -0.000000   0.000000  -0.000000
    18  O   -0.000000  -0.000000  -0.000000  -0.000000   0.000000  -0.000000
    19  H   -0.012220  -0.036085   0.356807  -0.042913   0.004523   0.000164
    20  H   -0.000197   0.003188  -0.037599   0.362560  -0.041119   0.004405
    21  H    0.000004   0.000491   0.004732  -0.041760   0.364173  -0.041574
    22  H   -0.000168   0.003236   0.000756   0.004427  -0.041315   0.363132
    23  H   -0.012985  -0.043051   0.005423   0.000203   0.004624  -0.042083
    24  H   -0.031218  -0.003286   0.001217   0.000094  -0.000001   0.000001
    25  H   -0.000000  -0.000000   0.000000   0.000000   0.000000  -0.000000
    26  H    0.000000  -0.000000   0.000000   0.000000  -0.000000   0.000000
    27  H   -0.000000   0.000000  -0.000000  -0.000000   0.000000  -0.000000
    28  H    0.000001   0.000000   0.000000  -0.000000   0.000000   0.000000
    29  H   -0.000001   0.000001   0.000000  -0.000000  -0.000000  -0.000000
    30  H    0.000000  -0.000000   0.000000  -0.000000  -0.000000   0.000000
              13         14         15         16         17         18
     1  O    0.000000  -0.000105  -0.052051   0.001755  -0.005574  -0.050113
     2  S   -0.000000   0.000189   0.134561  -0.013275  -0.016497   0.456152
     3  N   -0.000001  -0.055058  -0.064318   0.001626  -0.000682  -0.071604
     4  C   -0.000330   0.438256  -0.002811  -0.000251  -0.000008   0.001099
     5  N    0.000120  -0.068769   0.000940  -0.000053  -0.002766  -0.000019
     6  O   -0.005681  -0.082533  -0.000003   0.000000  -0.000007   0.000000
     7  C   -0.042313   0.492893   0.000002   0.000001   0.000015  -0.000000
     8  C    0.470326  -0.056650  -0.000000   0.000000   0.000000  -0.000000
     9  C   -0.082726  -0.019823   0.000000  -0.000000  -0.000000  -0.000000
    10  C   -0.042002   0.000227   0.000000  -0.000000  -0.000000  -0.000000
    11  C   -0.038228   0.000014  -0.000000   0.000000   0.000000   0.000000
    12  C    0.503728  -0.000224   0.000000  -0.000000  -0.000000  -0.000000
    13  C    5.073626   0.011501   0.000000   0.000000  -0.000000  -0.000000
    14  C    0.011501   5.306465  -0.000146  -0.000026  -0.000007  -0.000060
    15  N    0.000000  -0.000146   7.246477   0.279714   0.280073  -0.057214
    16  C    0.000000  -0.000026   0.279714   4.998491  -0.053935  -0.007981
    17  C   -0.000000  -0.000007   0.280073  -0.053935   5.005385   0.001803
    18  O   -0.000000  -0.000060  -0.057214  -0.007981   0.001803   8.350695
    19  H    0.005770   0.005929  -0.000000  -0.000000   0.000000  -0.000000
    20  H    0.000776  -0.000001  -0.000000   0.000000   0.000000  -0.000000
    21  H    0.004609  -0.000000   0.000000   0.000000   0.000000  -0.000000
    22  H   -0.037798   0.000001   0.000000   0.000000   0.000000   0.000000
    23  H    0.362119   0.000236   0.000000   0.000000   0.000000  -0.000000
    24  H   -0.000123   0.350739   0.000002   0.000000   0.000000  -0.000002
    25  H   -0.000000   0.000005  -0.036316   0.372430   0.005338   0.012261
    26  H    0.000000  -0.000001  -0.035485   0.376051  -0.003485  -0.000037
    27  H   -0.000000   0.000028  -0.048086   0.367136  -0.003206  -0.000233
    28  H   -0.000000  -0.000002  -0.033769   0.005144   0.374361   0.000070
    29  H    0.000000   0.000053  -0.044675  -0.003338   0.364382  -0.000071
    30  H    0.000000   0.000000  -0.038411  -0.003066   0.369817  -0.000059
              19         20         21         22         23         24
     1  O    0.000000  -0.000000  -0.000000   0.000000   0.000000   0.000002
     2  S   -0.000000   0.000000  -0.000000   0.000000  -0.000000  -0.000092
     3  N   -0.000001  -0.000000  -0.000000   0.000000  -0.000000   0.000121
     4  C    0.000041  -0.000000  -0.000000  -0.000000   0.000040  -0.030174
     5  N   -0.000003  -0.000000   0.000000   0.000000  -0.000239   0.006019
     6  O    0.000022   0.000000   0.000000  -0.000002   0.010605   0.003680
     7  C   -0.012220  -0.000197   0.000004  -0.000168  -0.012985  -0.031218
     8  C   -0.036085   0.003188   0.000491   0.003236  -0.043051  -0.003286
     9  C    0.356807  -0.037599   0.004732   0.000756   0.005423   0.001217
    10  C   -0.042913   0.362560  -0.041760   0.004427   0.000203   0.000094
    11  C    0.004523  -0.041119   0.364173  -0.041315   0.004624  -0.000001
    12  C    0.000164   0.004405  -0.041574   0.363132  -0.042083   0.000001
    13  C    0.005770   0.000776   0.004609  -0.037798   0.362119  -0.000123
    14  C    0.005929  -0.000001  -0.000000   0.000001   0.000236   0.350739
    15  N   -0.000000  -0.000000   0.000000   0.000000   0.000000   0.000002
    16  C   -0.000000   0.000000   0.000000   0.000000   0.000000   0.000000
    17  C    0.000000   0.000000   0.000000   0.000000   0.000000   0.000000
    18  O   -0.000000  -0.000000  -0.000000   0.000000  -0.000000  -0.000002
    19  H    0.560214  -0.004928  -0.000156   0.000015  -0.000139   0.002052
    20  H   -0.004928   0.561954  -0.005099  -0.000164   0.000015  -0.000002
    21  H   -0.000156  -0.005099   0.564944  -0.005090  -0.000152  -0.000000
    22  H    0.000015  -0.000164  -0.005090   0.562316  -0.005023   0.000000
    23  H   -0.000139   0.000015  -0.000152  -0.005023   0.560890  -0.000009
    24  H    0.002052  -0.000002  -0.000000   0.000000  -0.000009   0.536606
    25  H    0.000000   0.000000  -0.000000   0.000000  -0.000000   0.000000
    26  H   -0.000000   0.000000   0.000000   0.000000   0.000000   0.000000
    27  H    0.000000  -0.000000   0.000000  -0.000000   0.000000   0.000001
    28  H   -0.000000   0.000000  -0.000000   0.000000   0.000000  -0.000000
    29  H    0.000000   0.000000  -0.000000  -0.000000  -0.000000  -0.000003
    30  H   -0.000000   0.000000  -0.000000   0.000000  -0.000000  -0.000000
              25         26         27         28         29         30
     1  O    0.000072  -0.000053  -0.000018   0.013082  -0.000279   0.000161
     2  S    0.001970   0.002340  -0.008836  -0.002148  -0.006632   0.001486
     3  N   -0.002143   0.000040   0.007166  -0.000067   0.001773  -0.000184
     4  C   -0.000015  -0.000029   0.001532  -0.000182   0.002582  -0.000034
     5  N    0.000004  -0.000001  -0.000226   0.000735   0.005287   0.000239
     6  O   -0.000000  -0.000000   0.000001  -0.000004  -0.000076  -0.000001
     7  C   -0.000000   0.000000  -0.000000   0.000001  -0.000001   0.000000
     8  C   -0.000000  -0.000000   0.000000   0.000000   0.000001  -0.000000
     9  C    0.000000   0.000000  -0.000000   0.000000   0.000000   0.000000
    10  C    0.000000   0.000000  -0.000000  -0.000000  -0.000000  -0.000000
    11  C    0.000000  -0.000000   0.000000   0.000000  -0.000000  -0.000000
    12  C   -0.000000   0.000000  -0.000000   0.000000  -0.000000   0.000000
    13  C   -0.000000   0.000000  -0.000000  -0.000000   0.000000   0.000000
    14  C    0.000005  -0.000001   0.000028  -0.000002   0.000053   0.000000
    15  N   -0.036316  -0.035485  -0.048086  -0.033769  -0.044675  -0.038411
    16  C    0.372430   0.376051   0.367136   0.005144  -0.003338  -0.003066
    17  C    0.005338  -0.003485  -0.003206   0.374361   0.364382   0.369817
    18  O    0.012261  -0.000037  -0.000233   0.000070  -0.000071  -0.000059
    19  H    0.000000  -0.000000   0.000000  -0.000000   0.000000  -0.000000
    20  H    0.000000   0.000000  -0.000000   0.000000   0.000000   0.000000
    21  H   -0.000000   0.000000   0.000000  -0.000000  -0.000000  -0.000000
    22  H    0.000000   0.000000  -0.000000   0.000000  -0.000000   0.000000
    23  H   -0.000000   0.000000   0.000000   0.000000  -0.000000  -0.000000
    24  H    0.000000   0.000000   0.000001  -0.000000  -0.000003  -0.000000
    25  H    0.527590  -0.024070  -0.033512  -0.000215  -0.000201  -0.000009
    26  H   -0.024070   0.549274  -0.038271  -0.000029  -0.001661   0.005067
    27  H   -0.033512  -0.038271   0.597644  -0.000192   0.010111  -0.001742
    28  H   -0.000215  -0.000029  -0.000192   0.521574  -0.031575  -0.023323
    29  H   -0.000201  -0.001661   0.010111  -0.031575   0.589768  -0.038818
    30  H   -0.000009   0.005067  -0.001742  -0.023323  -0.038818   0.564197
 Mulliken charges:
               1
     1  O   -0.630600
     2  S    1.210051
     3  N   -0.764610
     4  C    0.482111
     5  N   -0.334300
     6  O   -0.444914
     7  C    0.392488
     8  C    0.078895
     9  C   -0.183855
    10  C   -0.154854
    11  C   -0.138882
    12  C   -0.150455
    13  C   -0.183373
    14  C   -0.323132
    15  N   -0.528482
    16  C   -0.320423
    17  C   -0.315008
    18  O   -0.634687
    19  H    0.160910
    20  H    0.156209
    21  H    0.154877
    22  H    0.155676
    23  H    0.159526
    24  H    0.164375
    25  H    0.176811
    26  H    0.170348
    27  H    0.150704
    28  H    0.176540
    29  H    0.153371
    30  H    0.164680
 Sum of Mulliken charges =  -1.00000
 Mulliken charges with hydrogens summed into heavy atoms:
               1
     1  O   -0.630600
     2  S    1.210051
     3  N   -0.764610
     4  C    0.482111
     5  N   -0.334300
     6  O   -0.444914
     7  C    0.392488
     8  C    0.078895
     9  C   -0.022945
    10  C    0.001355
    11  C    0.015996
    12  C    0.005222
    13  C   -0.023847
    14  C   -0.158757
    15  N   -0.528482
    16  C    0.177440
    17  C    0.179584
    18  O   -0.634687
 Electronic spatial extent (au):  <R**2>=           7065.8702
 Charge=             -1.0000 electrons
 Dipole moment (field-independent basis, Debye):
    X=             14.5437    Y=              2.6472    Z=              7.3654  Tot=             16.5160
 Quadrupole moment (field-independent basis, Debye-Ang):
   XX=           -142.7621   YY=           -116.2399   ZZ=           -121.2768
   XY=            -18.0467   XZ=            -18.7561   YZ=             -0.9972
 Traceless Quadrupole moment (field-independent basis, Debye-Ang):
   XX=            -16.0025   YY=             10.5197   ZZ=              5.4828
   XY=            -18.0467   XZ=            -18.7561   YZ=             -0.9972
 Octapole moment (field-independent basis, Debye-Ang**2):
  XXX=            266.8337  YYY=              8.9894  ZZZ=             41.6094  XYY=             34.0380
  XXY=             62.5823  XXZ=             89.0483  XZZ=             -1.3393  YZZ=             -4.5169
  YYZ=             16.5678  XYZ=            -12.3000
 Hexadecapole moment (field-independent basis, Debye-Ang**3):
 XXXX=          -8029.1708 YYYY=           -811.4250 ZZZZ=           -576.0934 XXXY=           -226.9299
 XXXZ=           -273.3990 YYYX=            -79.3612 YYYZ=             -4.7769 ZZZX=           -145.5790
 ZZZY=             22.7820 XXYY=          -1466.6784 XXZZ=          -1522.4717 YYZZ=           -226.9380
 XXYZ=            -66.3693 YYXZ=            -40.5255 ZZXY=             -8.4011
 N-N= 1.425542161853D+03 E-N=-5.719530091809D+03  KE= 1.205454524824D+03
 No NMR shielding tensors so no spin-rotation constants.
 Leave Link  601 at Thu Sep 24 06:50:52 2020, MaxMem=  2147483648 cpu:               0.4 elap:               0.1
 (Enter /prod/apps/gaussian/g16b1/l701.exe)
 ... and contract with generalized density number  0.
 Compute integral first derivatives.
 D1PCM: PCM CHGder 1st derivatives, ID1Alg=3 FixD1E=F DoIter=F DoCFld=F I1PDM=0.
 GePol: Maximum number of non-zero 1st derivatives   =     172
 Leave Link  701 at Thu Sep 24 06:50:54 2020, MaxMem=  2147483648 cpu:               8.3 elap:               2.1
 (Enter /prod/apps/gaussian/g16b1/l702.exe)
 L702 exits ... SP integral derivatives will be done elsewhere.
 Leave Link  702 at Thu Sep 24 06:50:54 2020, MaxMem=  2147483648 cpu:               0.1 elap:               0.0
 (Enter /prod/apps/gaussian/g16b1/l703.exe)
 Integral derivatives from FoFJK, PRISM(SPDF).
 Compute integral first derivatives, UseDBF=F ICtDFT=           0.
 Calling FoFJK, ICntrl=      2127 FMM=F ISym2X=0 I1Cent= 0 IOpClX= 0 NMat=1 NMatS=1 NMatT=0.
 FoFJK:  IHMeth= 1 ICntrl=    2127 DoSepK=F KAlg= 0 I1Cent=           0 FoldK=F
 IRaf=         0 NMat=       1 IRICut=       1 DoRegI=T DoRafI=F ISym2E= 0 IDoP0=0 IntGTp=1.
 FoFCou: FMM=F IPFlag=           0 FMFlag=      100000 FMFlg1=         800
         NFxFlg=           0 DoJE=F BraDBF=F KetDBF=F FulRan=T
         wScrn=  0.000000 ICntrl=      2127 IOpCl=  0 I1Cent=           0 NGrid=           0
         NMat0=    1 NMatS0=      1 NMatT0=    0 NMatD0=    1 NMtDS0=    0 NMtDT0=    0
 Symmetry not used in FoFCou.
 Leave Link  703 at Thu Sep 24 06:51:06 2020, MaxMem=  2147483648 cpu:              49.1 elap:              12.3
 (Enter /prod/apps/gaussian/g16b1/l716.exe)
 Dipole        = 5.72193543D+00 1.04148952D+00 2.89778220D+00
 -------------------------------------------------------------------
 Center     Atomic                   Forces (Hartrees/Bohr)
 Number     Number              X              Y              Z
 -------------------------------------------------------------------
      1        8          -0.000148980    0.000492628    0.000686468
      2       16          -0.000206528   -0.000014265    0.000768573
      3        7          -0.000206864   -0.000054588    0.000096508
      4        6           0.000082672    0.000131470   -0.000299643
      5        7           0.000328925   -0.001104832    0.000491727
      6        8           0.000606890    0.000391182   -0.000017868
      7        6           0.000024907   -0.000738104    0.000161759
      8        6          -0.000599965   -0.000415142    0.000166143
      9        6           0.001007860   -0.000154174    0.000166818
     10        6          -0.000797267    0.000019402   -0.000140820
     11        6           0.000168965   -0.000361283    0.000166355
     12        6           0.000231871   -0.000217770    0.000027711
     13        6           0.000004826    0.000860001   -0.000232794
     14        6          -0.000129936    0.000319891   -0.000047852
     15        7           0.000172008    0.000429247    0.000142204
     16        6           0.000441860    0.000216754   -0.000252324
     17        6           0.000728500   -0.001023220    0.000506373
     18        8           0.000901978    0.001181068    0.000298619
     19        1           0.000088418    0.000807067   -0.000299479
     20        1          -0.000437378    0.000895293   -0.000345753
     21        1          -0.001075577    0.000045194   -0.000121926
     22        1          -0.000367480   -0.000647174    0.000246258
     23        1          -0.000100442   -0.001046914    0.000332221
     24        1           0.000250668    0.001145891   -0.000381384
     25        1           0.000384229    0.000515877   -0.000703849
     26        1           0.000313574   -0.000117194   -0.000438219
     27        1          -0.000697562    0.000001212   -0.000339135
     28        1           0.000043932   -0.000931950    0.000200625
     29        1          -0.001366075   -0.000066474   -0.000653350
     30        1           0.000351972   -0.000559091   -0.000183967
 -------------------------------------------------------------------
 Cartesian Forces:  Max     0.001366075 RMS     0.000518996
 Leave Link  716 at Thu Sep 24 06:51:06 2020, MaxMem=  2147483648 cpu:               0.1 elap:               0.0
 (Enter /prod/apps/gaussian/g16b1/l103.exe)

 GradGradGradGradGradGradGradGradGradGradGradGradGradGradGradGradGradGrad
 Berny optimization.
 FormGI is forming the generalized inverse of G from B-inverse, IUseBI=4.
 Internal  Forces:  Max     0.002507444 RMS     0.000618020
 Search for a local minimum.
 Step number   1 out of a maximum of  156
 All quantities printed in internal units (Hartrees-Bohrs-Radians)
 RMS Force = .61802D-03 SwitMx=.10000D-02 MixMth= 2
 Mixed Optimization -- En-DIIS/RFO-DIIS
 Second derivative matrix not updated -- first step.
 ITU=  0
     Eigenvalues ---    0.00778   0.00791   0.00998   0.01237   0.01777
     Eigenvalues ---    0.01808   0.01864   0.01974   0.01978   0.02028
     Eigenvalues ---    0.02063   0.02080   0.02094   0.02116   0.02124
     Eigenvalues ---    0.02132   0.02143   0.02149   0.02165   0.02346
     Eigenvalues ---    0.02436   0.07114   0.07148   0.07660   0.07704
     Eigenvalues ---    0.09988   0.12190   0.16000   0.16000   0.16000
     Eigenvalues ---    0.16000   0.16000   0.16000   0.16000   0.16000
     Eigenvalues ---    0.16000   0.16000   0.16000   0.16000   0.17450
     Eigenvalues ---    0.18835   0.19541   0.21833   0.22000   0.22000
     Eigenvalues ---    0.23475   0.23793   0.25000   0.25000   0.25000
     Eigenvalues ---    0.25000   0.25000   0.25000   0.33308   0.33632
     Eigenvalues ---    0.33784   0.34268   0.34360   0.34709   0.34907
     Eigenvalues ---    0.35235   0.35251   0.35282   0.35303   0.35405
     Eigenvalues ---    0.35849   0.35966   0.36045   0.36421   0.37688
     Eigenvalues ---    0.40766   0.41335   0.41750   0.45078   0.45396
     Eigenvalues ---    0.46143   0.46636   0.48632   0.48936   0.50605
     Eigenvalues ---    0.51918   0.56880   0.82914   0.83332
 RFO step:  Lambda=-1.91707426D-04 EMin= 7.77818052D-03
 Linear search not attempted -- first point.
 Iteration  1 RMS(Cart)=  0.01154958 RMS(Int)=  0.00003660
 Iteration  2 RMS(Cart)=  0.00005193 RMS(Int)=  0.00000292
 Iteration  3 RMS(Cart)=  0.00000000 RMS(Int)=  0.00000292
 ITry= 1 IFail=0 DXMaxC= 5.71D-02 DCOld= 1.00D+10 DXMaxT= 3.00D-01 DXLimC= 3.00D+00 Rises=F
 Variable       Old X    -DE/DX   Delta X   Delta X   Delta X     New X
                                 (Linear)    (Quad)   (Total)
    R1        2.80081  -0.00036   0.00000  -0.00043  -0.00043   2.80038
    R2        3.04972  -0.00080   0.00000  -0.00164  -0.00164   3.04808
    R3        3.25515  -0.00226   0.00000  -0.00678  -0.00678   3.24837
    R4        2.79867  -0.00147   0.00000  -0.00176  -0.00176   2.79691
    R5        2.59260  -0.00061   0.00000  -0.00121  -0.00121   2.59139
    R6        2.52281  -0.00074   0.00000  -0.00123  -0.00123   2.52158
    R7        2.71833  -0.00106   0.00000  -0.00276  -0.00276   2.71557
    R8        2.69057  -0.00017   0.00000  -0.00026  -0.00026   2.69031
    R9        2.56193  -0.00045   0.00000  -0.00080  -0.00080   2.56113
   R10        2.76728  -0.00188   0.00000  -0.00516  -0.00516   2.76212
   R11        2.57414  -0.00140   0.00000  -0.00276  -0.00276   2.57139
   R12        2.65715  -0.00105   0.00000  -0.00239  -0.00239   2.65476
   R13        2.65620  -0.00087   0.00000  -0.00189  -0.00189   2.65431
   R14        2.63413  -0.00167   0.00000  -0.00367  -0.00367   2.63047
   R15        2.05185  -0.00079   0.00000  -0.00224  -0.00224   2.04961
   R16        2.64293  -0.00092   0.00000  -0.00206  -0.00206   2.64087
   R17        2.05269  -0.00106   0.00000  -0.00299  -0.00299   2.04969
   R18        2.64040  -0.00069   0.00000  -0.00146  -0.00146   2.63895
   R19        2.05295  -0.00108   0.00000  -0.00307  -0.00307   2.04988
   R20        2.63427  -0.00062   0.00000  -0.00124  -0.00124   2.63303
   R21        2.05219  -0.00078   0.00000  -0.00220  -0.00220   2.04998
   R22        2.05022  -0.00090   0.00000  -0.00254  -0.00254   2.04768
   R23        2.04011  -0.00116   0.00000  -0.00323  -0.00323   2.03689
   R24        2.77435  -0.00183   0.00000  -0.00509  -0.00509   2.76926
   R25        2.77618  -0.00251   0.00000  -0.00699  -0.00699   2.76919
   R26        2.06150  -0.00062   0.00000  -0.00180  -0.00180   2.05970
   R27        2.06727  -0.00049   0.00000  -0.00142  -0.00142   2.06585
   R28        2.07956  -0.00077   0.00000  -0.00229  -0.00229   2.07727
   R29        2.05826  -0.00047   0.00000  -0.00134  -0.00134   2.05692
   R30        2.07696  -0.00151   0.00000  -0.00447  -0.00447   2.07248
   R31        2.06880  -0.00064   0.00000  -0.00188  -0.00188   2.06693
    A1        2.01029   0.00039   0.00000   0.00172   0.00172   2.01201
    A2        1.82182  -0.00115   0.00000  -0.00594  -0.00594   1.81588
    A3        2.02500   0.00052   0.00000   0.00327   0.00326   2.02826
    A4        1.95687   0.00052   0.00000   0.00130   0.00130   1.95817
    A5        1.83992  -0.00000   0.00000   0.00085   0.00085   1.84077
    A6        1.80129  -0.00032   0.00000  -0.00153  -0.00153   1.79976
    A7        2.13164  -0.00133   0.00000  -0.00532  -0.00532   2.12632
    A8        2.22943  -0.00005   0.00000  -0.00013  -0.00013   2.22929
    A9        2.12269   0.00024   0.00000   0.00104   0.00104   2.12373
   A10        1.93106  -0.00019   0.00000  -0.00090  -0.00090   1.93016
   A11        1.83843   0.00038   0.00000   0.00188   0.00188   1.84031
   A12        1.90841  -0.00090   0.00000  -0.00327  -0.00327   1.90513
   A13        2.04632  -0.00035   0.00000  -0.00133  -0.00133   2.04499
   A14        1.91017   0.00058   0.00000   0.00217   0.00217   1.91235
   A15        2.32668  -0.00023   0.00000  -0.00084  -0.00084   2.32585
   A16        2.09919   0.00006   0.00000   0.00020   0.00020   2.09939
   A17        2.10717  -0.00048   0.00000  -0.00193  -0.00193   2.10524
   A18        2.07682   0.00042   0.00000   0.00173   0.00173   2.07855
   A19        2.10117  -0.00008   0.00000  -0.00063  -0.00063   2.10054
   A20        2.09330  -0.00032   0.00000  -0.00197  -0.00197   2.09133
   A21        2.08872   0.00041   0.00000   0.00260   0.00260   2.09132
   A22        2.09896   0.00009   0.00000   0.00015   0.00015   2.09911
   A23        2.08655   0.00005   0.00000   0.00049   0.00049   2.08704
   A24        2.09767  -0.00014   0.00000  -0.00064  -0.00064   2.09703
   A25        2.08858   0.00011   0.00000   0.00054   0.00054   2.08912
   A26        2.09615   0.00002   0.00000   0.00024   0.00024   2.09639
   A27        2.09845  -0.00014   0.00000  -0.00078  -0.00078   2.09768
[...]
 Alpha virt. eigenvalues --    1.61864   1.62259   1.62732   1.63403   1.64191
 Alpha virt. eigenvalues --    1.64562   1.65266   1.65671   1.66433   1.67945
 Alpha virt. eigenvalues --    1.68968   1.69640   1.70247   1.70511   1.71408
 Alpha virt. eigenvalues --    1.71513   1.72305   1.73861   1.74136   1.74861
 Alpha virt. eigenvalues --    1.75707   1.77236   1.77822   1.78408   1.79142
 Alpha virt. eigenvalues --    1.80090   1.80684   1.81290   1.81876   1.84039
 Alpha virt. eigenvalues --    1.84391   1.84767   1.85697   1.86533   1.87329
 Alpha virt. eigenvalues --    1.88821   1.89182   1.89533   1.91210   1.91645
 Alpha virt. eigenvalues --    1.92390   1.92822   1.95073   1.95834   1.97248
 Alpha virt. eigenvalues --    1.97496   1.98835   1.99495   1.99834   2.01362
 Alpha virt. eigenvalues --    2.02087   2.02457   2.03442   2.03560   2.05261
 Alpha virt. eigenvalues --    2.05829   2.06468   2.06639   2.07049   2.08644
 Alpha virt. eigenvalues --    2.09280   2.09978   2.10849   2.12150   2.13159
 Alpha virt. eigenvalues --    2.14585   2.15561   2.16131   2.16699   2.17675
 Alpha virt. eigenvalues --    2.18234   2.20183   2.21397   2.23232   2.23665
 Alpha virt. eigenvalues --    2.24196   2.25641   2.26617   2.27779   2.28789
 Alpha virt. eigenvalues --    2.29348   2.30028   2.31109   2.32807   2.33891
 Alpha virt. eigenvalues --    2.34687   2.35713   2.36577   2.36972   2.38422
 Alpha virt. eigenvalues --    2.39178   2.39836   2.40427   2.41554   2.42045
 Alpha virt. eigenvalues --    2.42913   2.43288   2.43835   2.44779   2.45143
 Alpha virt. eigenvalues --    2.45607   2.45642   2.47233   2.48175   2.48268
 Alpha virt. eigenvalues --    2.48952   2.51398   2.51645   2.53677   2.54066
 Alpha virt. eigenvalues --    2.55293   2.56228   2.59804   2.61291   2.62547
 Alpha virt. eigenvalues --    2.65597   2.68556   2.70578   2.71257   2.71797
 Alpha virt. eigenvalues --    2.75065   2.76588   2.77107   2.83058   2.84855
 Alpha virt. eigenvalues --    2.85401   2.87011   2.87724   2.88355   2.90567
 Alpha virt. eigenvalues --    2.90700   2.91293   2.93766   2.94335   2.96618
 Alpha virt. eigenvalues --    2.97734   2.98551   2.99454   3.01522   3.01806
 Alpha virt. eigenvalues --    3.04462   3.05454   3.07488   3.09085   3.11370
 Alpha virt. eigenvalues --    3.12105   3.13073   3.15778   3.18382   3.19482
 Alpha virt. eigenvalues --    3.20064   3.23072   3.24811   3.25652   3.25972
 Alpha virt. eigenvalues --    3.28949   3.31409   3.32842   3.34933   3.40898
 Alpha virt. eigenvalues --    3.44512   3.45923   3.47707   3.48406   3.50991
 Alpha virt. eigenvalues --    3.52273   3.57198   3.61787   3.67350   3.71790
 Alpha virt. eigenvalues --    3.75235   3.86144   3.90957   3.94110   3.95329
 Alpha virt. eigenvalues --    3.96465   3.98014   3.98147   4.00354   4.02253
 Alpha virt. eigenvalues --    4.02837   4.04852   4.07740   4.08605   4.10102
 Alpha virt. eigenvalues --    4.17959   4.21203   4.26342   4.42798   4.73201
 Alpha virt. eigenvalues --    4.97110
          Condensed to atoms (all electrons):
               1          2          3          4          5          6
     1  O    9.372113  -0.472808   0.045773   0.181608  -0.005803  -0.003597
     2  S   -0.472808  15.531567  -0.145661  -1.200796   0.062222  -0.056170
     3  N    0.045773  -0.145661   8.791439  -1.148417   0.108606  -0.063056
     4  C    0.181608  -1.200796  -1.148417  15.009483  -1.172131   0.607951
     5  N   -0.005803   0.062222   0.108606  -1.172131   9.460189  -1.247868
     6  O   -0.003597  -0.056170  -0.063056   0.607951  -1.247868  10.352332
     7  C   -0.030318   0.072304   0.340838  -1.425813  -0.863363  -0.251539
     8  C    0.003947  -0.008373  -0.064311   0.360156   0.412017   0.365785
     9  C   -0.001639   0.013806   0.082509  -0.724188   0.325868  -0.164636
    10  C    0.000037   0.003090  -0.014719   0.040979   0.068972   0.052375
    11  C   -0.000025   0.000083   0.007655  -0.098540   0.001194  -0.050082
    12  C   -0.000028  -0.001832  -0.016327   0.225031  -0.102553  -0.030945
    13  C   -0.001893   0.000546   0.031961  -0.342919  -0.335882  -0.195446
    14  C   -0.026017   0.233478   0.166773  -5.000985   0.651375  -0.170298
    15  N    0.137554  -0.337278   0.094412   0.149660  -0.065677   0.011569
    16  C    0.045634  -0.247199   0.052102   0.041923   0.013948  -0.002652
    17  C    0.014775  -0.072761  -0.002434  -0.066842   0.020184   0.002637
    18  O   -0.016642  -0.393036  -0.021709   0.108681   0.012864  -0.000501
    19  H   -0.000391  -0.007090  -0.013746   0.034767  -0.006528   0.001623
    20  H    0.000003   0.000321  -0.000326   0.006356   0.001718   0.001667
    21  H   -0.000002   0.000005   0.000166  -0.003746   0.000475  -0.000621
    22  H    0.000001  -0.000066  -0.000608   0.004744  -0.003519   0.004985
    23  H   -0.000560   0.001222   0.003556  -0.019969  -0.015432  -0.092784
    24  H    0.000150   0.054442  -0.035591   0.662372  -0.054156   0.014967
    25  H   -0.005124   0.107724   0.001891   0.024794   0.000580  -0.000615
    26  H   -0.002232  -0.058047   0.023996  -0.036703   0.004903  -0.000552
    27  H    0.007621  -0.045988  -0.056901   0.098345  -0.014729   0.004543
    28  H   -0.017512   0.132067  -0.012688   0.024665  -0.023180  -0.001763
    29  H    0.004230  -0.067431  -0.005350   0.087515   0.000061  -0.007292
    30  H   -0.000078  -0.022450   0.021296  -0.055747   0.012454   0.000972
               7          8          9         10         11         12
     1  O   -0.030318   0.003947  -0.001639   0.000037  -0.000025  -0.000028
     2  S    0.072304  -0.008373   0.013806   0.003090   0.000083  -0.001832
     3  N    0.340838  -0.064311   0.082509  -0.014719   0.007655  -0.016327
     4  C   -1.425813   0.360156  -0.724188   0.040979  -0.098540   0.225031
     5  N   -0.863363   0.412017   0.325868   0.068972   0.001194  -0.102553
     6  O   -0.251539   0.365785  -0.164636   0.052375  -0.050082  -0.030945
     7  C   19.968143  -4.716186  -0.809199  -0.668072   0.504243  -0.350351
     8  C   -4.716186  19.742332  -6.983790   2.204589  -3.711494   1.586117
     9  C   -0.809199  -6.983790  21.520532  -6.733800   3.655789  -3.527607
    10  C   -0.668072   2.204589  -6.733800  14.304090  -3.394851   3.738507
    11  C    0.504243  -3.711494   3.655789  -3.394851   9.416649  -3.117684
    12  C   -0.350351   1.586117  -3.527607   3.738507  -3.117684  11.808420
    13  C    0.072407  -5.768071   0.401711  -3.495083   2.741733  -4.206501
    14  C   -6.930073   0.438898  -1.219826   0.458734  -0.311838   0.095401
    15  N    0.000797  -0.001475  -0.002361  -0.000357  -0.000051   0.000528
    16  C   -0.019641  -0.000078  -0.002514   0.000014  -0.000096   0.000333
    17  C    0.019075  -0.001793   0.001603   0.000478  -0.000074  -0.001028
    18  O    0.010463   0.000785   0.000024  -0.000055   0.000007  -0.000012
    19  H   -0.117708   0.810436  -1.335984   0.327256  -0.125704   0.071650
    20  H   -0.053229  -0.139438   0.967007  -1.044657   0.324834  -0.271041
    21  H   -0.013312   0.030149  -0.080217   0.283316  -0.589151   0.375925
    22  H   -0.005968  -0.129511   0.093270  -0.231299   0.309728  -0.813939
    23  H    0.268289   0.251063  -0.089968   0.050212  -0.085800   0.322894
    24  H    0.711634   0.019241  -0.014334   0.061713  -0.030718   0.021147
    25  H   -0.003131   0.000995  -0.000143   0.000037  -0.000016   0.000022
    26  H    0.000904  -0.000738  -0.000109  -0.000022   0.000006   0.000024
    27  H   -0.002577  -0.000836  -0.001256  -0.000197  -0.000112   0.000255
    28  H   -0.009254   0.000555  -0.000584  -0.000133   0.000022   0.000342
    29  H    0.002279   0.002543   0.000210  -0.000126  -0.000009   0.000009
    30  H    0.003065  -0.001077   0.000611   0.000101  -0.000013  -0.000212
              13         14         15         16         17         18
     1  O   -0.001893  -0.026017   0.137554   0.045634   0.014775  -0.016642
     2  S    0.000546   0.233478  -0.337278  -0.247199  -0.072761  -0.393036
     3  N    0.031961   0.166773   0.094412   0.052102  -0.002434  -0.021709
     4  C   -0.342919  -5.000985   0.149660   0.041923  -0.066842   0.108681
     5  N   -0.335882   0.651375  -0.065677   0.013948   0.020184   0.012864
     6  O   -0.195446  -0.170298   0.011569  -0.002652   0.002637  -0.000501
     7  C    0.072407  -6.930073   0.000797  -0.019641   0.019075   0.010463
     8  C   -5.768071   0.438898  -0.001475  -0.000078  -0.001793   0.000785
     9  C    0.401711  -1.219826  -0.002361  -0.002514   0.001603   0.000024
    10  C   -3.495083   0.458734  -0.000357   0.000014   0.000478  -0.000055
    11  C    2.741733  -0.311838  -0.000051  -0.000096  -0.000074   0.000007
    12  C   -4.206501   0.095401   0.000528   0.000333  -0.001028  -0.000012
    13  C   18.533757  -1.690141   0.001471   0.000292  -0.002739  -0.000127
    14  C   -1.690141  19.199081  -0.043093  -0.024650  -0.002472  -0.020582
    15  N    0.001471  -0.043093   8.053543   0.235986   0.115758  -0.003502
    16  C    0.000292  -0.024650   0.235986   4.333212  -0.185086   0.057996
    17  C   -0.002739  -0.002472   0.115758  -0.185086   4.288475   0.015347
    18  O   -0.000127  -0.020582  -0.003502   0.057996   0.015347   9.428186
    19  H   -0.096378   0.221123   0.001224  -0.000302  -0.000480   0.000901
    20  H    0.106178   0.048025  -0.000027   0.000012   0.000016  -0.000013
    21  H   -0.055871   0.002840  -0.000001  -0.000004  -0.000002   0.000000
    22  H    0.706195   0.003735   0.000023   0.000017  -0.000020  -0.000001
    23  H   -0.830945  -0.019595  -0.000426  -0.000314   0.000667   0.000022
    24  H   -0.034879  -1.582512  -0.010217   0.001356   0.001768  -0.010011
    25  H   -0.000215  -0.004585  -0.120785   0.365534  -0.034757   0.016771
    26  H    0.000409   0.008411  -0.113786   0.391048   0.053774   0.000888
    27  H   -0.001070  -0.038743   0.174604   0.231453   0.002327   0.005995
    28  H    0.001196   0.005922  -0.071278  -0.052951   0.394618  -0.006150
    29  H   -0.002820  -0.049911   0.142667   0.020637   0.174788   0.007177
    30  H   -0.000584   0.018849  -0.179655   0.034561   0.420858  -0.004951
              19         20         21         22         23         24
     1  O   -0.000391   0.000003  -0.000002   0.000001  -0.000560   0.000150
     2  S   -0.007090   0.000321   0.000005  -0.000066   0.001222   0.054442
     3  N   -0.013746  -0.000326   0.000166  -0.000608   0.003556  -0.035591
     4  C    0.034767   0.006356  -0.003746   0.004744  -0.019969   0.662372
     5  N   -0.006528   0.001718   0.000475  -0.003519  -0.015432  -0.054156
     6  O    0.001623   0.001667  -0.000621   0.004985  -0.092784   0.014967
     7  C   -0.117708  -0.053229  -0.013312  -0.005968   0.268289   0.711634
     8  C    0.810436  -0.139438   0.030149  -0.129511   0.251063   0.019241
     9  C   -1.335984   0.967007  -0.080217   0.093270  -0.089968  -0.014334
    10  C    0.327256  -1.044657   0.283316  -0.231299   0.050212   0.061713
    11  C   -0.125704   0.324834  -0.589151   0.309728  -0.085800  -0.030718
    12  C    0.071650  -0.271041   0.375925  -0.813939   0.322894   0.021147
    13  C   -0.096378   0.106178  -0.055871   0.706195  -0.830945  -0.034879
    14  C    0.221123   0.048025   0.002840   0.003735  -0.019595  -1.582512
    15  N    0.001224  -0.000027  -0.000001   0.000023  -0.000426  -0.010217
    16  C   -0.000302   0.000012  -0.000004   0.000017  -0.000314   0.001356
    17  C   -0.000480   0.000016  -0.000002  -0.000020   0.000667   0.001768
    18  O    0.000901  -0.000013   0.000000  -0.000001   0.000022  -0.010011
    19  H    2.024673  -0.082983  -0.018306   0.010166  -0.015894  -0.099784
    20  H   -0.082983   1.698617  -0.050115  -0.021378   0.007144   0.000632
    21  H   -0.018306  -0.050115   1.638002  -0.054927  -0.011198   0.000409
    22  H    0.010166  -0.021378  -0.054927   1.672792  -0.089897   0.000636
    23  H   -0.015894   0.007144  -0.011198  -0.089897   2.026061  -0.001423
    24  H   -0.099784   0.000632   0.000409   0.000636  -0.001423   1.938087
    25  H   -0.000057   0.000003  -0.000000   0.000001  -0.000008   0.002125
    26  H   -0.000094   0.000003   0.000000  -0.000001   0.000019   0.000191
    27  H    0.000587  -0.000035  -0.000005   0.000014  -0.000084  -0.004955
    28  H   -0.000135   0.000002  -0.000001   0.000009  -0.000020   0.000893
    29  H    0.000356  -0.000017  -0.000002   0.000002  -0.001251  -0.000825
    30  H    0.000014   0.000001   0.000000  -0.000005   0.000247  -0.000137
              25         26         27         28         29         30
     1  O   -0.005124  -0.002232   0.007621  -0.017512   0.004230  -0.000078
     2  S    0.107724  -0.058047  -0.045988   0.132067  -0.067431  -0.022450
     3  N    0.001891   0.023996  -0.056901  -0.012688  -0.005350   0.021296
     4  C    0.024794  -0.036703   0.098345   0.024665   0.087515  -0.055747
     5  N    0.000580   0.004903  -0.014729  -0.023180   0.000061   0.012454
     6  O   -0.000615  -0.000552   0.004543  -0.001763  -0.007292   0.000972
     7  C   -0.003131   0.000904  -0.002577  -0.009254   0.002279   0.003065
     8  C    0.000995  -0.000738  -0.000836   0.000555   0.002543  -0.001077
     9  C   -0.000143  -0.000109  -0.001256  -0.000584   0.000210   0.000611
    10  C    0.000037  -0.000022  -0.000197  -0.000133  -0.000126   0.000101
    11  C   -0.000016   0.000006  -0.000112   0.000022  -0.000009  -0.000013
    12  C    0.000022   0.000024   0.000255   0.000342   0.000009  -0.000212
    13  C   -0.000215   0.000409  -0.001070   0.001196  -0.002820  -0.000584
    14  C   -0.004585   0.008411  -0.038743   0.005922  -0.049911   0.018849
    15  N   -0.120785  -0.113786   0.174604  -0.071278   0.142667  -0.179655
    16  C    0.365534   0.391048   0.231453  -0.052951   0.020637   0.034561
    17  C   -0.034757   0.053774   0.002327   0.394618   0.174788   0.420858
    18  O    0.016771   0.000888   0.005995  -0.006150   0.007177  -0.004951
    19  H   -0.000057  -0.000094   0.000587  -0.000135   0.000356   0.000014
    20  H    0.000003   0.000003  -0.000035   0.000002  -0.000017   0.000001
    21  H   -0.000000   0.000000  -0.000005  -0.000001  -0.000002   0.000000
    22  H    0.000001  -0.000001   0.000014   0.000009   0.000002  -0.000005
    23  H   -0.000008   0.000019  -0.000084  -0.000020  -0.001251   0.000247
    24  H    0.002125   0.000191  -0.004955   0.000893  -0.000825  -0.000137
    25  H    1.277957  -0.323715  -0.160381  -0.003426  -0.005167   0.007141
    26  H   -0.323715   1.410601  -0.175183   0.007931  -0.010933   0.004829
    27  H   -0.160381  -0.175183   1.024961  -0.008074   0.012277  -0.011634
    28  H   -0.003426   0.007931  -0.008074   1.282722  -0.146566  -0.350377
    29  H   -0.005167  -0.010933   0.012277  -0.146566   1.099436  -0.222486
    30  H    0.007141   0.004829  -0.011634  -0.350377  -0.222486   1.537934
 Mulliken charges:
               1
     1  O   -1.228777
     2  S    2.924108
     3  N   -1.171130
     4  C   -0.372234
     5  N   -0.246808
     6  O   -1.080992
     7  C    0.295295
     8  C    1.297562
     9  C    0.629216
    10  C   -0.011129
    11  C    0.554315
    12  C    0.193458
    13  C    0.463709
    14  C    1.582676
    15  N   -1.169826
    16  C    0.709430
    17  C    0.843340
    18  O   -1.188817
    19  H   -0.583209
    20  H   -0.499281
    21  H   -0.453805
    22  H   -0.455176
    23  H   -0.655827
    24  H   -0.612221
    25  H   -0.143452
    26  H   -0.185825
    27  H   -0.040220
    28  H   -0.146853
    29  H   -0.033998
    30  H   -0.213529
 Sum of Mulliken charges =  -1.00000
 Mulliken charges with hydrogens summed into heavy atoms:
               1
     1  O   -1.228777
     2  S    2.924108
     3  N   -1.171130
     4  C   -0.372234
     5  N   -0.246808
     6  O   -1.080992
     7  C    0.295295
     8  C    1.297562
     9  C    0.046007
    10  C   -0.510410
    11  C    0.100511
    12  C   -0.261718
    13  C   -0.192119
    14  C    0.970455
    15  N   -1.169826
    16  C    0.339934
    17  C    0.448961
    18  O   -1.188817
 Electronic spatial extent (au):  <R**2>=           7068.4705
 Charge=             -1.0000 electrons
 Dipole moment (field-independent basis, Debye):
    X=             11.7949    Y=              1.3192    Z=              5.4658  Tot=             13.0666
 Quadrupole moment (field-independent basis, Debye-Ang):
   XX=           -162.7573   YY=           -122.0557   ZZ=           -127.0881
   XY=            -12.8755   XZ=            -15.6496   YZ=             -1.0405
 Traceless Quadrupole moment (field-independent basis, Debye-Ang):
   XX=            -25.4569   YY=             15.2446   ZZ=             10.2123
   XY=            -12.8755   XZ=            -15.6496   YZ=             -1.0405
 Octapole moment (field-independent basis, Debye-Ang**2):
  XXX=            163.0796  YYY=             12.9302  ZZZ=              2.6272  XYY=             29.8361
  XXY=             50.6120  XXZ=             57.9264  XZZ=            -14.1127  YZZ=             -2.6236
  YYZ=              5.0998  XYZ=             -6.9755
 Hexadecapole moment (field-independent basis, Debye-Ang**3):
 XXXX=          -8991.0847 YYYY=           -857.1959 ZZZZ=           -618.5015 XXXY=           -150.9896
 XXXZ=           -156.7168 YYYX=            -41.8753 YYYZ=            -25.6059 ZZZX=            -34.9667
 ZZZY=              7.4190 XXYY=          -1563.5644 XXZZ=          -1650.1322 YYZZ=           -249.4307
 XXYZ=            -68.3152 YYXZ=             -9.2770 ZZXY=             12.0237
 N-N= 1.427144421546D+03 E-N=-5.719187570871D+03  KE= 1.207561809619D+03
 Leave Link  601 at Thu Sep 24 08:28:08 2020, MaxMem=   262144000 cpu:               1.4 elap:               0.5
 (Enter /prod/apps/gaussian/g16b1/l9999.exe)
 1\1\GINC-PIRINEUS7\SP\RMP2-FC\Aug-CC-pVDZ\C11H12N3O3S1(1-)\UBAFAR01\24
 -Sep-2020\0\\#p mp2/aug-cc-pVDZ scf=(MaxCycle=2000,NoVarAcc,NoIncFock)
  maxdisk=120GB geom=allcheck\\SM43_m1.a.10.pdb.xyz\\-1,1\O,0,-3.066429
 9429,0.2859503069,-1.9116786775\S,0,-3.1278358376,-0.4685810279,-0.637
 7705093\N,0,-1.7259298998,-1.0893419539,-0.1363179771\C,0,-0.542248496
 2,-0.4081503663,-0.2645173579\N,0,-0.357406971,0.8288707389,-0.7293736
 318\O,0,1.046389232,1.0550921465,-0.6552757813\C,0,1.6501668043,-0.049
 4784095,-0.1528576916\C,0,3.1040643175,-0.0089389647,-0.0057232409\C,0
 ,3.7956245883,-1.1200581066,0.5056758625\C,0,5.1800672994,-1.083520047
 6,0.6453966022\C,0,5.8951800592,0.0597696503,0.2779546644\C,0,5.214808
 7873,1.1681394663,-0.2309356464\C,0,3.8290023147,1.1372466243,-0.37286
 35717\C,0,0.7124341221,-0.9990688469,0.1127321359\N,0,-3.776397412,0.6
 566908359,0.4875892634\C,0,-3.8514418127,0.1383863098,1.8563517514\C,0
 ,-3.2556424824,2.0250108517,0.4220923557\O,0,-4.0935872714,-1.58876164
 9,-0.5894941221\H,0,3.2465774718,-2.0104520557,0.7925373419\H,0,5.7020
 032889,-1.9481112505,1.0413041591\H,0,6.9741455985,0.0855940839,0.3876
 116743\H,0,5.7633821421,2.0589148794,-0.5182468895\H,0,3.2999349835,1.
 9965781645,-0.767584339\H,0,0.857542599,-1.9881914342,0.5160898776\H,0
 ,-4.2774410248,-0.8646619248,1.8390813977\H,0,-4.5133422578,0.79098193
 66,2.4318847145\H,0,-2.871517455,0.1076592586,2.3536162138\H,0,-3.1952
 190922,2.3362703789,-0.6190210702\H,0,-2.2686138458,2.1331998143,0.888
 2978237\H,0,-3.9622698071,2.6749605909,0.9464446681\\Version=ES64L-G16
 RevB.01\State=1-A\HF=-1208.9849096\MP2=-1211.7814017\RMSD=4.805e-09\PG
 =C01 [X(C11H12N3O3S1)]\\@


 IF MATHEMATICALLY YOU END UP WITH THE INCORRECT ANSWER,
 TRY MULTIPLYING BY THE PAGE NUMBER.
 Job cpu time:       0 days  2 hours  1 minutes 29.5 seconds.
 Elapsed time:       0 days  0 hours 34 minutes 30.1 seconds.
 File lengths (MBytes):  RWF=  69156 Int=      0 D2E=      0 Chk=     23 Scr=      1
 Normal termination of Gaussian 16 at Thu Sep 24 08:28:11 2020.
