 Entering Gaussian System, Link 0=g16
 Initial command:
 /prod/apps/gaussian/g16b1/l1.exe "/tmp/ubafar01/1459037/Gau-56200.inp" -scrdir="/tmp/ubafar01/1459037/"
 Entering Link 1 = /prod/apps/gaussian/g16b1/l1.exe PID=     56201.
  
 Copyright (c) 1988-2017, Gaussian, Inc.  All Rights Reserved.
  
 This is part of the Gaussian(R) 16 program.  It is based on
 the Gaussian(R) 09 system (copyright 2009, Gaussian, Inc.),
 the Gaussian(R) 03 system (copyright 2003, Gaussian, Inc.),
 the Gaussian(R) 98 system (copyright 1998, Gaussian, Inc.),
 the Gaussian(R) 94 system (copyright 1995, Gaussian, Inc.),
 the Gaussian 92(TM) system (copyright 1992, Gaussian, Inc.),
 the Gaussian 90(TM) system (copyright 1990, Gaussian, Inc.),
 the Gaussian 88(TM) system (copyright 1988, Gaussian, Inc.),
 the Gaussian 86(TM) system (copyright 1986, Carnegie Mellon
 University), and the Gaussian 82(TM) system (copyright 1983,
 Carnegie Mellon University). Gaussian is a federally registered
 trademark of Gaussian, Inc.
  
 This software contains proprietary and confidential information,
 including trade secrets, belonging to Gaussian, Inc.
  
 This software is provided under written license and may be
 used, copied, transmitted, or stored only in accord with that
 written license.
  
 The following legend is applicable only to US Government
 contracts under FAR:
  
                    RESTRICTED RIGHTS LEGEND
  
 Use, reproduction and disclosure by the US Government is
 subject to restrictions as set forth in subparagraphs (a)
 and (c) of the Commercial Computer Software - Restricted
 Rights clause in FAR 52.227-19.
  
 Gaussian, Inc.
 340 Quinnipiac St., Bldg. 40, Wallingford CT 06492
  
  
 ---------------------------------------------------------------
 Warning -- This program may not be used in any manner that
 competes with the business of Gaussian, Inc. or will provide
 assistance to any competitor of Gaussian, Inc.  The licensee
 of this program is prohibited from giving any competitor of
 Gaussian, Inc. access to this program.  By using this program,
 the user acknowledges that Gaussian, Inc. is engaged in the
 business of creating and licensing software in the field of
 computational chemistry and represents and warrants to the
 licensee that it is not a competitor of Gaussian, Inc. and that
 it will not use this program in any manner prohibited above.
 ---------------------------------------------------------------
  

 Cite this work as:
 Gaussian 16, Revision B.01,
 M. J. Frisch, G. W. Trucks, H. B. Schlegel, G. E. Scuseria, 
 M. A. Robb, J. R. Cheeseman, G. Scalmani, V. Barone, 
 G. A. Petersson, H. Nakatsuji, X. Li, M. Caricato, A. V. Marenich, 
 J. Bloino, B. G. Janesko, R. Gomperts, B. Mennucci, H. P. Hratchian, 
 J. V. Ortiz, A. F. Izmaylov, J. L. Sonnenberg, D. Williams-Young, 
 F. Ding, F. Lipparini, F. Egidi, J. Goings, B. Peng, A. Petrone, 
 T. Henderson, D. Ranasinghe, V. G. Zakrzewski, J. Gao, N. Rega, 
 G. Zheng, W. Liang, M. Hada, M. Ehara, K. Toyota, R. Fukuda, 
 J. Hasegawa, M. Ishida, T. Nakajima, Y. Honda, O. Kitao, H. Nakai, 
 T. Vreven, K. Throssell, J. A. Montgomery, Jr., J. E. Peralta, 
 F. Ogliaro, M. J. Bearpark, J. J. Heyd, E. N. Brothers, K. N. Kudin, 
 V. N. Staroverov, T. A. Keith, R. Kobayashi, J. Normand, 
 K. Raghavachari, A. P. Rendell, J. C. Burant, S. S. Iyengar, 
 J. Tomasi, M. Cossi, J. M. Millam, M. Klene, C. Adamo, R. Cammi, 
 J. W. Ochterski, R. L. Martin, K. Morokuma, O. Farkas, 
 J. B. Foresman, and D. J. Fox, Gaussian, Inc., Wallingford CT, 2016.
 
 ******************************************
 Gaussian 16:  ES64L-G16RevB.01 20-Dec-2017
                14-Sep-2020 
 ******************************************
 %nproc=4
 Will use up to    4 processors via shared memory.
 %Chk=SM43_m0.n.2.pdb.xyz.mst.n.w.chk
 %mem=16GB
 ----------------------------------------------------------------------
 #p b3lyp/6-31G(d) opt freq NoSymm scf=(MaxCycle=2000,NoVarAcc,NoIncFoc
 k) scrf=(iefpcm,read,solvent=water) MaxDisk=20GB
 ----------------------------------------------------------------------
 1/18=20,19=15,26=3,38=1,40=2/1,3;
 2/9=110,12=2,15=1,17=6,18=5,40=1/2;
 3/5=1,6=6,7=1,11=2,25=1,30=1,70=2203,71=1,72=1,74=-5/1,2,3;
 4//1;
 5/5=100002,7=2000,38=1,53=1/2;
 6/7=2,8=2,9=2,10=2,28=1/1;
 7/30=1/1,2,3,16;
 1/18=20,19=15,26=3/3(2);
 2/9=110,15=1/2;
 99//99;
 2/9=110,15=1/2;
 3/5=1,6=6,7=1,11=2,25=1,30=1,70=2205,71=1,72=1,74=-5/1,2,3;
 4/5=5,16=3,69=1/1;
 5/5=100002,7=2000,38=1,53=1/2;
 7/30=1/1,2,3,16;
 1/18=20,19=15,26=3/3(-5);
 2/9=110,15=1/2;
 6/7=2,8=2,9=2,10=2,19=2,28=1/1;
 99/9=1/99;
 Leave Link    1 at Mon Sep 14 19:03:51 2020, MaxMem=  2147483648 cpu:               0.2 elap:               0.0
 (Enter /prod/apps/gaussian/g16b1/l101.exe)
 -------------------
 SM43_m0.n.2.pdb.xyz
 -------------------
 Symbolic Z-matrix:
 Charge =  0 Multiplicity = 1
 O                     4.252    -0.307    -0.952 
 S                     2.916     0.193    -0.61 
 N                     1.924    -1.155    -0.767 
 C                     0.574    -1.125    -0.412 
 N                     0.021    -2.209     0.1 
 O                    -1.332    -1.873     0.26 
 C                    -1.535    -0.594    -0.143 
 C                    -2.892    -0.066    -0.041 
 C                    -3.16      1.263    -0.412 
 C                    -4.454     1.767    -0.32 
 C                    -5.494     0.956     0.143 
 C                    -5.232    -0.365     0.514 
 C                    -3.941    -0.876     0.423 
 C                    -0.354    -0.066    -0.588 
 N                     2.761     0.623     1.003 
 C                     3.393    -0.315     1.944 
 C                     3.032     2.042     1.3 
 O                     2.326     1.282    -1.388 
 H                     2.408    -2.036    -0.592 
 H                    -2.356     1.898    -0.768 
 H                    -4.651     2.793    -0.607 
 H                    -6.501     1.351     0.213 
 H                    -6.036    -0.999     0.873 
 H                    -3.737    -1.901     0.708 
 H                    -0.157     0.913    -0.991 
 H                     3.075    -1.335     1.726 
 H                     3.043    -0.054     2.944 
 H                     4.486    -0.258     1.918 
 H                     2.497     2.668     0.589 
 H                     4.101     2.278     1.274 
 H                     2.65      2.234     2.306 
 
 ITRead=  0  0  0  0  0  0  0  0  0  0  0  0  0  0  0  0  0  0  0  0
 ITRead=  0  0  0  0  0  0  0  0  0  0  0
 MicOpt= -1 -1 -1 -1 -1 -1 -1 -1 -1 -1 -1 -1 -1 -1 -1 -1 -1 -1 -1 -1
 MicOpt= -1 -1 -1 -1 -1 -1 -1 -1 -1 -1 -1
 NAtoms=     31 NQM=       31 NQMF=       0 NMMI=      0 NMMIF=      0
                NMic=       0 NMicF=      0.
                    Isotopes and Nuclear Properties:
 (Nuclear quadrupole moments (NQMom) in fm**2, nuclear magnetic moments (NMagM)
  in nuclear magnetons)

  Atom         1           2           3           4           5           6           7           8           9          10
 IAtWgt=          16          32          14          12          14          16          12          12          12          12
 AtmWgt=  15.9949146  31.9720718  14.0030740  12.0000000  14.0030740  15.9949146  12.0000000  12.0000000  12.0000000  12.0000000
 NucSpn=           0           0           2           0           2           0           0           0           0           0
 AtZEff=  -0.0000000  -0.0000000  -0.0000000  -0.0000000  -0.0000000  -0.0000000  -0.0000000  -0.0000000  -0.0000000  -0.0000000
 NQMom=    0.0000000   0.0000000   2.0440000   0.0000000   2.0440000   0.0000000   0.0000000   0.0000000   0.0000000   0.0000000
 NMagM=    0.0000000   0.0000000   0.4037610   0.0000000   0.4037610   0.0000000   0.0000000   0.0000000   0.0000000   0.0000000
 AtZNuc=   8.0000000  16.0000000   7.0000000   6.0000000   7.0000000   8.0000000   6.0000000   6.0000000   6.0000000   6.0000000

  Atom        11          12          13          14          15          16          17          18          19          20
 IAtWgt=          12          12          12          12          14          12          12          16           1           1
 AtmWgt=  12.0000000  12.0000000  12.0000000  12.0000000  14.0030740  12.0000000  12.0000000  15.9949146   1.0078250   1.0078250
 NucSpn=           0           0           0           0           2           0           0           0           1           1
 AtZEff=  -0.0000000  -0.0000000  -0.0000000  -0.0000000  -0.0000000  -0.0000000  -0.0000000  -0.0000000  -0.0000000  -0.0000000
 NQMom=    0.0000000   0.0000000   0.0000000   0.0000000   2.0440000   0.0000000   0.0000000   0.0000000   0.0000000   0.0000000
 NMagM=    0.0000000   0.0000000   0.0000000   0.0000000   0.4037610   0.0000000   0.0000000   0.0000000   2.7928460   2.7928460
 AtZNuc=   6.0000000   6.0000000   6.0000000   6.0000000   7.0000000   6.0000000   6.0000000   8.0000000   1.0000000   1.0000000

  Atom        21          22          23          24          25          26          27          28          29          30
 IAtWgt=           1           1           1           1           1           1           1           1           1           1
 AtmWgt=   1.0078250   1.0078250   1.0078250   1.0078250   1.0078250   1.0078250   1.0078250   1.0078250   1.0078250   1.0078250
 NucSpn=           1           1           1           1           1           1           1           1           1           1
 AtZEff=  -0.0000000  -0.0000000  -0.0000000  -0.0000000  -0.0000000  -0.0000000  -0.0000000  -0.0000000  -0.0000000  -0.0000000
 NQMom=    0.0000000   0.0000000   0.0000000   0.0000000   0.0000000   0.0000000   0.0000000   0.0000000   0.0000000   0.0000000
 NMagM=    2.7928460   2.7928460   2.7928460   2.7928460   2.7928460   2.7928460   2.7928460   2.7928460   2.7928460   2.7928460
 AtZNuc=   1.0000000   1.0000000   1.0000000   1.0000000   1.0000000   1.0000000   1.0000000   1.0000000   1.0000000   1.0000000

  Atom        31
 IAtWgt=           1
 AtmWgt=   1.0078250
 NucSpn=           1
 AtZEff=  -0.0000000
 NQMom=    0.0000000
 NMagM=    2.7928460
 AtZNuc=   1.0000000
 Leave Link  101 at Mon Sep 14 19:03:52 2020, MaxMem=  2147483648 cpu:               1.7 elap:               0.4
 (Enter /prod/apps/gaussian/g16b1/l103.exe)

 GradGradGradGradGradGradGradGradGradGradGradGradGradGradGradGradGradGrad
 Berny optimization.
 Initialization pass.
                           ----------------------------
                           !    Initial Parameters    !
                           ! (Angstroms and Degrees)  !
 --------------------------                            --------------------------
 ! Name  Definition              Value          Derivative Info.                !
 --------------------------------------------------------------------------------
 ! R1    R(1,2)                  1.4669         estimate D2E/DX2                !
 ! R2    R(2,3)                  1.681          estimate D2E/DX2                !
 ! R3    R(2,15)                 1.6765         estimate D2E/DX2                !
 ! R4    R(2,18)                 1.4626         estimate D2E/DX2                !
 ! R5    R(3,4)                  1.3962         estimate D2E/DX2                !
 ! R6    R(3,19)                 1.0203         estimate D2E/DX2                !
 ! R7    R(4,5)                  1.3202         estimate D2E/DX2                !
 ! R8    R(4,14)                 1.419          estimate D2E/DX2                !
 ! R9    R(5,6)                  1.4032         estimate D2E/DX2                !
 ! R10   R(6,7)                  1.3563         estimate D2E/DX2                !
 ! R11   R(7,8)                  1.4597         estimate D2E/DX2                !
 ! R12   R(7,14)                 1.3681         estimate D2E/DX2                !
 ! R13   R(8,9)                  1.4056         estimate D2E/DX2                !
 ! R14   R(8,13)                 1.4042         estimate D2E/DX2                !
 ! R15   R(9,10)                 1.3917         estimate D2E/DX2                !
 ! R16   R(9,20)                 1.0846         estimate D2E/DX2                !
 ! R17   R(10,11)                1.3977         estimate D2E/DX2                !
 ! R18   R(10,21)                1.0834         estimate D2E/DX2                !
 ! R19   R(11,12)                1.3969         estimate D2E/DX2                !
 ! R20   R(11,22)                1.084          estimate D2E/DX2                !
 ! R21   R(12,13)                1.3914         estimate D2E/DX2                !
 ! R22   R(12,23)                1.085          estimate D2E/DX2                !
 ! R23   R(13,24)                1.0833         estimate D2E/DX2                !
 ! R24   R(14,25)                1.0769         estimate D2E/DX2                !
 ! R25   R(15,16)                1.4713         estimate D2E/DX2                !
 ! R26   R(15,17)                1.4749         estimate D2E/DX2                !
 ! R27   R(16,26)                1.0904         estimate D2E/DX2                !
 ! R28   R(16,27)                1.0912         estimate D2E/DX2                !
 ! R29   R(16,28)                1.0948         estimate D2E/DX2                !
 ! R30   R(17,29)                1.0879         estimate D2E/DX2                !
 ! R31   R(17,30)                1.095          estimate D2E/DX2                !
 ! R32   R(17,31)                1.0931         estimate D2E/DX2                !
 ! A1    A(1,2,3)              104.0253         estimate D2E/DX2                !
 ! A2    A(1,2,15)             113.3242         estimate D2E/DX2                !
 ! A3    A(1,2,18)             119.8114         estimate D2E/DX2                !
 ! A4    A(3,2,15)             103.944          estimate D2E/DX2                !
 ! A5    A(3,2,18)             108.0186         estimate D2E/DX2                !
 ! A6    A(15,2,18)            106.4696         estimate D2E/DX2                !
 ! A7    A(2,3,4)              121.979          estimate D2E/DX2                !
 ! A8    A(2,3,19)             113.3567         estimate D2E/DX2                !
 ! A9    A(4,3,19)             115.6965         estimate D2E/DX2                !
 ! A10   A(3,4,5)              119.0756         estimate D2E/DX2                !
 ! A11   A(3,4,14)             128.0843         estimate D2E/DX2                !
 ! A12   A(5,4,14)             112.7633         estimate D2E/DX2                !
 ! A13   A(4,5,6)              104.5654         estimate D2E/DX2                !
 ! A14   A(5,6,7)              109.6479         estimate D2E/DX2                !
 ! A15   A(6,7,8)              117.355          estimate D2E/DX2                !
 ! A16   A(6,7,14)             109.3541         estimate D2E/DX2                !
 ! A17   A(8,7,14)             133.2885         estimate D2E/DX2                !
 ! A18   A(7,8,9)              120.0545         estimate D2E/DX2                !
 ! A19   A(7,8,13)             120.5925         estimate D2E/DX2                !
 ! A20   A(9,8,13)             119.3527         estimate D2E/DX2                !
 ! A21   A(8,9,10)             120.1479         estimate D2E/DX2                !
 ! A22   A(8,9,20)             119.9244         estimate D2E/DX2                !
 ! A23   A(10,9,20)            119.9275         estimate D2E/DX2                !
 ! A24   A(9,10,11)            120.2373         estimate D2E/DX2                !
 ! A25   A(9,10,21)            119.6359         estimate D2E/DX2                !
 ! A26   A(11,10,21)           120.1266         estimate D2E/DX2                !
 ! A27   A(10,11,12)           119.8094         estimate D2E/DX2                !
 ! A28   A(10,11,22)           120.0784         estimate D2E/DX2                !
 ! A29   A(12,11,22)           120.1122         estimate D2E/DX2                !
 ! A30   A(11,12,13)           120.2613         estimate D2E/DX2                !
 ! A31   A(11,12,23)           120.0973         estimate D2E/DX2                !
 ! A32   A(13,12,23)           119.6412         estimate D2E/DX2                !
 ! A33   A(8,13,12)            120.1913         estimate D2E/DX2                !
 ! A34   A(8,13,24)            119.4764         estimate D2E/DX2                !
 ! A35   A(12,13,24)           120.3323         estimate D2E/DX2                !
 ! A36   A(4,14,7)             103.6611         estimate D2E/DX2                !
 ! A37   A(4,14,25)            127.2459         estimate D2E/DX2                !
 ! A38   A(7,14,25)            129.0889         estimate D2E/DX2                !
 ! A39   A(2,15,16)            114.3373         estimate D2E/DX2                !
 ! A40   A(2,15,17)            115.0576         estimate D2E/DX2                !
 ! A41   A(16,15,17)           113.9325         estimate D2E/DX2                !
 ! A42   A(15,16,26)           110.073          estimate D2E/DX2                !
 ! A43   A(15,16,27)           107.2091         estimate D2E/DX2                !
 ! A44   A(15,16,28)           112.3624         estimate D2E/DX2                !
 ! A45   A(26,16,27)           108.2656         estimate D2E/DX2                !
 ! A46   A(26,16,28)           109.5788         estimate D2E/DX2                !
 ! A47   A(27,16,28)           109.2412         estimate D2E/DX2                !
 ! A48   A(15,17,29)           109.3685         estimate D2E/DX2                !
 ! A49   A(15,17,30)           112.4543         estimate D2E/DX2                !
 ! A50   A(15,17,31)           106.8649         estimate D2E/DX2                !
 ! A51   A(29,17,30)           109.9093         estimate D2E/DX2                !
 ! A52   A(29,17,31)           109.1802         estimate D2E/DX2                !
 ! A53   A(30,17,31)           108.9749         estimate D2E/DX2                !
 ! D1    D(1,2,3,4)            174.277          estimate D2E/DX2                !
 ! D2    D(1,2,3,19)            28.5431         estimate D2E/DX2                !
 ! D3    D(15,2,3,4)            55.4274         estimate D2E/DX2                !
 ! D4    D(15,2,3,19)          -90.3066         estimate D2E/DX2                !
 ! D5    D(18,2,3,4)           -57.3992         estimate D2E/DX2                !
 ! D6    D(18,2,3,19)          156.8668         estimate D2E/DX2                !
 ! D7    D(1,2,15,16)          -41.918          estimate D2E/DX2                !
 ! D8    D(1,2,15,17)           92.746          estimate D2E/DX2                !
 ! D9    D(3,2,15,16)           70.3529         estimate D2E/DX2                !
 ! D10   D(3,2,15,17)         -154.9831         estimate D2E/DX2                !
 ! D11   D(18,2,15,16)        -175.7084         estimate D2E/DX2                !
 ! D12   D(18,2,15,17)         -41.0444         estimate D2E/DX2                !
 ! D13   D(2,3,4,5)           -145.6421         estimate D2E/DX2                !
 ! D14   D(2,3,4,14)            37.7913         estimate D2E/DX2                !
 ! D15   D(19,3,4,5)            -0.6457         estimate D2E/DX2                !
 ! D16   D(19,3,4,14)         -177.2123         estimate D2E/DX2                !
 ! D17   D(3,4,5,6)           -176.3744         estimate D2E/DX2                !
 ! D18   D(14,4,5,6)             0.6954         estimate D2E/DX2                !
 ! D19   D(3,4,14,7)           176.5205         estimate D2E/DX2                !
 ! D20   D(3,4,14,25)           -2.8            estimate D2E/DX2                !
 ! D21   D(5,4,14,7)            -0.2255         estimate D2E/DX2                !
 ! D22   D(5,4,14,25)         -179.546          estimate D2E/DX2                !
 ! D23   D(4,5,6,7)             -0.9199         estimate D2E/DX2                !
 ! D24   D(5,6,7,8)           -179.6757         estimate D2E/DX2                !
 ! D25   D(5,6,7,14)             0.8191         estimate D2E/DX2                !
 ! D26   D(6,7,8,9)            178.4416         estimate D2E/DX2                !
 ! D27   D(6,7,8,13)            -1.7313         estimate D2E/DX2                !
 ! D28   D(14,7,8,9)            -2.1997         estimate D2E/DX2                !
 ! D29   D(14,7,8,13)          177.6275         estimate D2E/DX2                !
 ! D30   D(6,7,14,4)            -0.3735         estimate D2E/DX2                !
 ! D31   D(6,7,14,25)          178.9296         estimate D2E/DX2                !
 ! D32   D(8,7,14,4)          -179.7698         estimate D2E/DX2                !
 ! D33   D(8,7,14,25)           -0.4668         estimate D2E/DX2                !
 ! D34   D(7,8,9,10)           179.7727         estimate D2E/DX2                !
 ! D35   D(7,8,9,20)            -0.4076         estimate D2E/DX2                !
 ! D36   D(13,8,9,10)           -0.0565         estimate D2E/DX2                !
 ! D37   D(13,8,9,20)          179.7631         estimate D2E/DX2                !
 ! D38   D(7,8,13,12)         -179.8529         estimate D2E/DX2                !
 ! D39   D(7,8,13,24)            0.0769         estimate D2E/DX2                !
 ! D40   D(9,8,13,12)           -0.0246         estimate D2E/DX2                !
 ! D41   D(9,8,13,24)          179.9052         estimate D2E/DX2                !
 ! D42   D(8,9,10,11)            0.0768         estimate D2E/DX2                !
 ! D43   D(8,9,10,21)          179.9232         estimate D2E/DX2                !
 ! D44   D(20,9,10,11)        -179.7429         estimate D2E/DX2                !
 ! D45   D(20,9,10,21)           0.1036         estimate D2E/DX2                !
 ! D46   D(9,10,11,12)          -0.0157         estimate D2E/DX2                !
 ! D47   D(9,10,11,22)        -179.9597         estimate D2E/DX2                !
 ! D48   D(21,10,11,12)       -179.8614         estimate D2E/DX2                !
 ! D49   D(21,10,11,22)          0.1946         estimate D2E/DX2                !
 ! D50   D(10,11,12,13)         -0.0658         estimate D2E/DX2                !
 ! D51   D(10,11,12,23)       -179.9324         estimate D2E/DX2                !
 ! D52   D(22,11,12,13)        179.8782         estimate D2E/DX2                !
 ! D53   D(22,11,12,23)          0.0117         estimate D2E/DX2                !
 ! D54   D(11,12,13,8)           0.0858         estimate D2E/DX2                !
 ! D55   D(11,12,13,24)       -179.8434         estimate D2E/DX2                !
 ! D56   D(23,12,13,8)         179.953          estimate D2E/DX2                !
 ! D57   D(23,12,13,24)          0.0237         estimate D2E/DX2                !
 ! D58   D(2,15,16,26)         -50.2918         estimate D2E/DX2                !
 ! D59   D(2,15,16,27)        -167.8409         estimate D2E/DX2                !
 ! D60   D(2,15,16,28)          72.1281         estimate D2E/DX2                !
 ! D61   D(17,15,16,26)        174.5302         estimate D2E/DX2                !
 ! D62   D(17,15,16,27)         56.981          estimate D2E/DX2                !
 ! D63   D(17,15,16,28)        -63.0499         estimate D2E/DX2                !
 ! D64   D(2,15,17,29)          47.6077         estimate D2E/DX2                !
 ! D65   D(2,15,17,30)         -74.7942         estimate D2E/DX2                !
 ! D66   D(2,15,17,31)         165.6726         estimate D2E/DX2                !
 ! D67   D(16,15,17,29)       -177.5454         estimate D2E/DX2                !
 ! D68   D(16,15,17,30)         60.0527         estimate D2E/DX2                !
 ! D69   D(16,15,17,31)        -59.4805         estimate D2E/DX2                !
 --------------------------------------------------------------------------------
 Trust Radius=3.00D-01 FncErr=1.00D-07 GrdErr=1.00D-06 EigMax=2.50D+02 EigMin=1.00D-04
 Number of steps in this run=    164 maximum allowed number of steps=    186.
 GradGradGradGradGradGradGradGradGradGradGradGradGradGradGradGradGradGrad

 Leave Link  103 at Mon Sep 14 19:03:52 2020, MaxMem=  2147483648 cpu:               0.1 elap:               0.0
 (Enter /prod/apps/gaussian/g16b1/l202.exe)
                          Input orientation:                          
 ---------------------------------------------------------------------
 Center     Atomic      Atomic             Coordinates (Angstroms)
 Number     Number       Type             X           Y           Z
 ---------------------------------------------------------------------
      1          8           0        4.252000   -0.307000   -0.952000
      2         16           0        2.916000    0.193000   -0.610000
      3          7           0        1.924000   -1.155000   -0.767000
      4          6           0        0.574000   -1.125000   -0.412000
      5          7           0        0.021000   -2.209000    0.100000
      6          8           0       -1.332000   -1.873000    0.260000
      7          6           0       -1.535000   -0.594000   -0.143000
      8          6           0       -2.892000   -0.066000   -0.041000
      9          6           0       -3.160000    1.263000   -0.412000
     10          6           0       -4.454000    1.767000   -0.320000
     11          6           0       -5.494000    0.956000    0.143000
     12          6           0       -5.232000   -0.365000    0.514000
     13          6           0       -3.941000   -0.876000    0.423000
     14          6           0       -0.354000   -0.066000   -0.588000
     15          7           0        2.761000    0.623000    1.003000
     16          6           0        3.393000   -0.315000    1.944000
     17          6           0        3.032000    2.042000    1.300000
     18          8           0        2.326000    1.282000   -1.388000
     19          1           0        2.408000   -2.036000   -0.592000
     20          1           0       -2.356000    1.898000   -0.768000
     21          1           0       -4.651000    2.793000   -0.607000
     22          1           0       -6.501000    1.351000    0.213000
     23          1           0       -6.036000   -0.999000    0.873000
     24          1           0       -3.737000   -1.901000    0.708000
     25          1           0       -0.157000    0.913000   -0.991000
     26          1           0        3.075000   -1.335000    1.726000
     27          1           0        3.043000   -0.054000    2.944000
     28          1           0        4.486000   -0.258000    1.918000
     29          1           0        2.497000    2.668000    0.589000
     30          1           0        4.101000    2.278000    1.274000
     31          1           0        2.650000    2.234000    2.306000
 ---------------------------------------------------------------------
                    Distance matrix (angstroms):
                    1          2          3          4          5
     1  O    0.000000
     2  S    1.466922   0.000000
     3  N    2.484535   1.681017   0.000000
     4  C    3.806364   2.694678   1.396218   0.000000
     5  N    4.756645   3.828150   2.341797   1.320231   0.000000
     6  O    5.924724   4.803203   3.488809   2.154977   1.403248
     7  C    5.850318   4.544102   3.559323   2.191393   2.255750
     8  C    7.205882   5.841550   4.990677   3.643114   3.619102
     9  C    7.595673   6.172672   5.640905   4.432302   4.736633
    10  C    8.971919   7.541782   7.029707   5.801113   6.000883
    11  C    9.888312   8.478047   7.766025   6.438883   6.358797
    12  C    9.596811   8.244067   7.312551   5.928298   5.582629
    13  C    8.327042   7.016288   5.991007   4.598310   4.192691
    14  C    4.626642   3.280315   2.531254   1.419028   2.281758
    15  N    2.628689   1.676512   2.644760   3.136989   4.042676
    16  C    3.020722   2.647359   3.195791   3.762127   4.284619
    17  C    3.475299   2.660894   3.964967   4.359197   5.345757
    18  O    2.534658   1.462636   2.546805   3.133006   4.440073
    19  H    2.553307   2.286226   1.020315   2.055694   2.491297
    20  H    6.968611   5.543101   5.257301   4.224946   4.824003
    21  H    9.433580   8.001219   7.670914   6.533711   6.880947
    22  H   10.942267   9.523559   8.844267   7.521757   7.431208
    23  H   10.471506   9.151965   8.128686   6.734924   6.224860
    24  H    8.313877   7.098195   5.897378   4.521205   3.819305
    25  H    4.574844   3.179134   2.942339   2.241215   3.311925
    26  H    3.100612   2.795883   2.751772   3.296990   3.568567
    27  H    4.087115   3.564836   4.029377   4.301830   4.675986
    28  H    2.879940   3.009831   3.818073   4.635120   5.200745
    29  H    3.782239   2.781868   4.096632   4.368842   5.491341
    30  H    3.414689   3.049739   4.548681   5.182927   6.177204
    31  H    4.431439   3.569243   4.632033   4.793765   5.614118
                    6          7          8          9         10
     6  O    0.000000
     7  C    1.356267   0.000000
     8  C    2.406128   1.459670   0.000000
     9  C    3.691567   2.482224   1.405598   0.000000
    10  C    4.830412   3.758485   2.424371   1.391731   0.000000
    11  C    5.033803   4.261218   2.801561   2.418642   1.397745
    12  C    4.189103   3.761901   2.423433   2.793035   2.417905
    13  C    2.797760   2.487713   1.404207   2.425388   2.792967
    14  C    2.222799   1.368053   2.596277   3.109800   4.499079
    15  N    4.851259   4.609775   5.789738   6.121280   7.423967
    16  C    5.252508   5.358973   6.595715   7.140212   8.428276
    17  C    5.954269   5.467013   6.429286   6.471371   7.664217
    18  O    5.104008   4.469533   5.555091   5.572175   6.880716
    19  H    3.839280   4.222347   5.681065   6.474444   7.850085
    20  H    4.040520   2.697171   2.161740   1.084609   2.149295
    21  H    5.791287   4.625637   3.404162   2.145229   1.083445
    22  H    6.092204   5.345177   3.885523   3.400096   2.155772
    23  H    4.823615   4.631985   3.404500   3.878047   3.402459
    24  H    2.446531   2.698380   2.154588   3.405617   3.876222
    25  H    3.272220   2.211117   3.056332   3.078271   4.432129
    26  H    4.675495   5.029348   6.351200   7.084905   8.396092
    27  H    5.445479   5.547905   6.643387   7.174569   8.377037
    28  H    6.261494   6.372838   7.636061   8.136563   9.435723
    29  H    5.948963   5.237699   6.075605   5.914193   7.067849
    30  H    6.912054   6.482343   7.491703   7.522961   8.717223
    31  H    6.075351   5.613324   6.442994   6.487408   7.588200
                   11         12         13         14         15
    11  C    0.000000
    12  C    1.396899   0.000000
    13  C    2.417940   1.391432   0.000000
    14  C    5.291356   5.009859   3.813763   0.000000
    15  N    8.306354   8.068662   6.892039   3.565000   0.000000
    16  C    9.156299   8.742884   7.511040   4.529132   1.471309
    17  C    8.672411   8.643214   7.609637   4.412845   1.474860
    18  O    7.975126   7.965775   6.871097   3.104755   2.518013
    19  H    8.481385   7.898422   6.533424   3.392574   3.120723
    20  H    3.400637   3.877637   3.409660   2.810285   5.562891
    21  H    2.155857   3.401054   3.876411   5.161245   7.889154
    22  H    1.083962   2.155370   3.399592   6.358860   9.324094
    23  H    2.156082   1.085013   2.146312   5.940550   8.946228
    24  H    3.401283   2.152198   1.083266   4.060976   6.977220
    25  H    5.456315   5.445543   4.417983   1.076875   3.546105
    26  H    9.010124   8.450804   7.150716   4.327008   2.110708
    27  H    9.041353   8.630020   7.470434   4.900487   2.074930
    28  H   10.209056   9.819480   8.580867   5.453668   2.142198
    29  H    8.184494   8.303141   7.350873   4.121685   2.103121
    30  H    9.751455   9.729745   8.680189   5.367346   2.146641
    31  H    8.522710   8.490700   7.527222   4.763324   2.074958
                   16         17         18         19         20
    16  C    0.000000
    17  C    2.469920   0.000000
    18  O    3.845923   2.881212   0.000000
    19  H    3.219218   4.538626   3.413131   0.000000
    20  H    6.730774   5.773032   4.762875   6.180860   0.000000
    21  H    8.992953   7.951675   7.181338   8.552716   2.468597
    22  H   10.181510   9.619623   8.971281   9.565044   4.294484
    23  H    9.514249   9.573852   8.957574   8.632655   4.962649
    24  H    7.408103   7.856022   7.161332   6.282456   4.303271
    25  H    4.767044   4.085712   2.541468   3.928744   2.419825
    26  H    1.090435   3.404035   4.136023   2.511855   6.794710
    27  H    1.091156   2.663846   4.589685   4.103029   6.836552
    28  H    1.094794   2.790348   4.238730   3.712071   7.660019
    29  H    3.396635   1.087944   2.420489   4.850804   5.097642
    30  H    2.770165   1.095049   3.350953   4.995878   6.782847
    31  H    2.679644   1.093080   3.828435   5.166224   5.884081
                   21         22         23         24         25
    21  H    0.000000
    22  H    2.484807   0.000000
    23  H    4.299755   2.484819   0.000000
    24  H    4.959663   4.296536   2.475122   0.000000
    25  H    4.886501   6.472078   6.457002   4.860205   0.000000
    26  H    9.065007  10.059997   9.157010   6.910863   4.783452
    27  H    8.939387  10.025982   9.360038   7.374246   5.163266
    28  H    9.958363  11.234326  10.599698   8.472383   5.602765
    29  H    7.248444   9.101641   9.291912   7.729986   3.552484
    30  H    8.966654  10.695207  10.661065   8.900485   5.012386
    31  H    7.880524   9.428740   9.378293   7.774677   4.527085
                   26         27         28         29         30
    26  H    0.000000
    27  H    1.767911   0.000000
    28  H    1.785417   1.782285   0.000000
    29  H    4.201293   3.640525   3.779397   0.000000
    30  H    3.782955   3.057203   2.644666   1.787216   0.000000
    31  H    3.640712   2.407579   3.119536   1.777598   1.781112
                   31
    31  H    0.000000
 Symmetry turned off by external request.
 Stoichiometry    C11H13N3O3S
 Framework group  C1[X(C11H13N3O3S)]
 Deg. of freedom    87
 Full point group                 C1      NOp   1
 Rotational constants (GHZ):           0.9086965           0.1782086           0.1674932
 Leave Link  202 at Mon Sep 14 19:03:52 2020, MaxMem=  2147483648 cpu:               0.1 elap:               0.0
 (Enter /prod/apps/gaussian/g16b1/l301.exe)
 Standard basis: 6-31G(d) (6D, 7F)
 Ernie: Thresh=  0.10000D-02 Tol=  0.10000D-05 Strict=F.
   300 basis functions,   580 primitive gaussians,   300 cartesian basis functions
    70 alpha electrons       70 beta electrons
       nuclear repulsion energy      1462.5993764165 Hartrees.
 IExCor=  402 DFT=T Ex+Corr=B3LYP ExCW=0 ScaHFX=  0.200000
 ScaDFX=  0.800000  0.720000  1.000000  0.810000 ScalE2=  1.000000  1.000000
 IRadAn=      5 IRanWt=     -1 IRanGd=            0 ICorTp=0 IEmpDi=  4
 NAtoms=   31 NActive=   31 NUniq=   31 SFac= 1.00D+00 NAtFMM=   60 NAOKFM=F Big=F
 Integral buffers will be    131072 words long.
 Raffenetti 2 integral format.
 Two-electron integral symmetry is turned off.
 Using the following non-standard input for PCM:
 MSTModel=DFT cav
 --- end of non-standard input.
 MST model for solvation energy: B3LYP parametrization.
 MST cavity parameters:
 ISph   IAn     Re0     Alpha   Atom Type   QCorr
 ------------------------------------------------
   1      8     1.40     1.25      O          F
   2     16     1.75     1.25      S          F
   3      7     1.50     1.25      NH         F
   4      6     1.50     1.25      C          F
   5      7     1.40     1.25      N          F
   6      8     1.40     1.25      O          F
   7      6     1.50     1.25      C          F
   8      6     1.50     1.25      C          F
   9      6     1.50     1.25      CH         F
  10      6     1.50     1.25      CH         F
  11      6     1.50     1.25      CH         F
  12      6     1.50     1.25      CH         F
  13      6     1.50     1.25      CH         F
  14      6     1.50     1.25      CH         F
  15      7     1.40     1.25      N          F
  16      6     1.50     1.25      CH3        F
  17      6     1.50     1.25      CH3        F
  18      8     1.40     1.25      O          F
  19      1     0.90     1.25      NH         F
  20      1     1.20     1.25      CH         F
  21      1     1.20     1.25      CH         F
  22      1     1.20     1.25      CH         F
  23      1     1.20     1.25      CH         F
  24      1     1.20     1.25      CH         F
  25      1     1.20     1.25      CH         F
  26      1     1.20     1.25      CH3        F
  27      1     1.20     1.25      CH3        F
  28      1     1.20     1.25      CH3        F
  29      1     1.20     1.25      CH3        F
  30      1     1.20     1.25      CH3        F
  31      1     1.20     1.25      CH3        F
 ------------------------------------------------------------------------------
 Polarizable Continuum Model (PCM)
 =================================
 Model                : PCM.
 Atomic radii         : MST.
 Polarization charges : Total charges.
 Charge compensation  : None.
 Solution method      : On-the-fly selection.
 Cavity type          : Scaled VdW (van der Waals Surface) (Alpha=1.250).
 Cavity algorithm     : GePol (No added spheres)
                        Default sphere list used, NSphG=   31.
                        Lebedev-Laikov grids with approx.  5.0 points / Ang**2.
                        Smoothing algorithm: York/Karplus (Gamma=1.0000).
                        Polarization charges: spherical gaussians, with
                                              point-specific exponents (IZeta= 3).
                        Self-potential: point-specific (ISelfS= 7).
                        Self-field    : sphere-specific E.n sum rule (ISelfD= 2).
 1st derivatives      : Analytical E(r).r(x)/FMM algorithm (CHGder, D1EAlg=3).
                        Cavity 1st derivative terms included.
 Solvent              : Water, Eps=  78.355300 Eps(inf)=   1.777849
 ------------------------------------------------------------------------------
 GePol: Number of generator spheres                  =      31
 GePol: Total number of spheres                      =      31
 GePol: Number of exposed spheres                    =      31 (100.00%)
 GePol: Number of points                             =    2357
 GePol: Average weight of points                     =       0.13
 GePol: Minimum weight of points                     =   0.80D-11
 GePol: Maximum weight of points                     =    0.22001
 GePol: Number of points with low weight             =     157
 GePol: Fraction of low-weight points (<1% of avg)   =       6.66%
 GePol: Cavity surface area                          =    310.099 Ang**2
 GePol: Cavity volume                                =    293.705 Ang**3
 PCM non-electrostatic energy =         0.0033049881 Hartrees.
 Nuclear repulsion after PCM non-electrostatic terms =     1462.6026814046 Hartrees.
 Leave Link  301 at Mon Sep 14 19:03:52 2020, MaxMem=  2147483648 cpu:               0.4 elap:               0.1
 (Enter /prod/apps/gaussian/g16b1/l302.exe)
 NPDir=0 NMtPBC=     1 NCelOv=     1 NCel=       1 NClECP=     1 NCelD=      1
         NCelK=      1 NCelE2=     1 NClLst=     1 CellRange=     0.0.
 One-electron integrals computed using PRISM.
 NBasis=   300 RedAO= T EigKep=  4.58D-04  NBF=   300
 NBsUse=   300 1.00D-06 EigRej= -1.00D+00 NBFU=   300
 Precomputing XC quadrature grid using
 IXCGrd= 4 IRadAn=           5 IRanWt=          -1 IRanGd=           0 AccXCQ= 0.00D+00.
 Generated NRdTot=       0 NPtTot=           0 NUsed=           0 NTot=          32
 NSgBfM=   299   299   299   299   299 MxSgAt=    31 MxSgA2=    31.
 Leave Link  302 at Mon Sep 14 19:03:52 2020, MaxMem=  2147483648 cpu:               1.5 elap:               0.4
 (Enter /prod/apps/gaussian/g16b1/l303.exe)
 DipDrv:  MaxL=1.
 Leave Link  303 at Mon Sep 14 19:03:52 2020, MaxMem=  2147483648 cpu:               0.2 elap:               0.1
 (Enter /prod/apps/gaussian/g16b1/l401.exe)
 ExpMin= 1.17D-01 ExpMax= 2.19D+04 ExpMxC= 3.30D+03 IAcc=3 IRadAn=         5 AccDes= 0.00D+00
 Harris functional with IExCor=  402 and IRadAn=       5 diagonalized for initial guess.
 HarFok:  IExCor=  402 AccDes= 0.00D+00 IRadAn=         5 IDoV= 1 UseB2=F ITyADJ=14
 ICtDFT=  3500011 ScaDFX=  1.000000  1.000000  1.000000  1.000000
 FoFCou: FMM=F IPFlag=           0 FMFlag=      100000 FMFlg1=           0
         NFxFlg=           0 DoJE=T BraDBF=F KetDBF=T FulRan=T
         wScrn=  0.000000 ICntrl=       500 IOpCl=  0 I1Cent=   200000004 NGrid=           0
         NMat0=    1 NMatS0=      1 NMatT0=    0 NMatD0=    1 NMtDS0=    0 NMtDT0=    0
 Symmetry not used in FoFCou.
 Harris En= -1215.01284328611    
 JPrj=0 DoOrth=F DoCkMO=F.
 Leave Link  401 at Mon Sep 14 19:03:55 2020, MaxMem=  2147483648 cpu:              10.5 elap:               2.6
 (Enter /prod/apps/gaussian/g16b1/l502.exe)
 Keep R1 ints in memory in canonical form, NReq=1032920423.
 FoFCou: FMM=F IPFlag=           0 FMFlag=           0 FMFlg1=           0
         NFxFlg=           0 DoJE=F BraDBF=F KetDBF=F FulRan=T
         wScrn=  0.000000 ICntrl=       600 IOpCl=  0 I1Cent=           0 NGrid=           0
         NMat0=    1 NMatS0=  45150 NMatT0=    0 NMatD0=    1 NMtDS0=    0 NMtDT0=    0
 Symmetry not used in FoFCou.
 Two-electron integral symmetry not used.
 Closed shell SCF:
 Using DIIS extrapolation, IDIIS=  1040.
 NGot=  2147483648 LenX=  1128015396 LenY=  1127924955
 Requested convergence on RMS density matrix=1.00D-08 within2000 cycles.
 Requested convergence on MAX density matrix=1.00D-06.
 Requested convergence on             energy=1.00D-06.
 No special actions if energy rises.

 Cycle   1  Pass 1  IDiag  1:
 Inv3:  Mode=1 IEnd=    16666347.
 Iteration    1 A*A^-1 deviation from unit magnitude is 3.00D-15 for   2173.
 Iteration    1 A*A^-1 deviation from orthogonality  is 2.57D-15 for   1823    386.
 Iteration    1 A^-1*A deviation from unit magnitude is 3.00D-15 for   1143.
 Iteration    1 A^-1*A deviation from orthogonality  is 7.97D-15 for   2007   1953.
 E= -1214.47486631861    
 DIIS: error= 4.47D-02 at cycle   1 NSaved=   1.
 NSaved= 1 IEnMin= 1 EnMin= -1214.47486631861     IErMin= 1 ErrMin= 4.47D-02
 ErrMax= 4.47D-02  0.00D+00 EMaxC= 1.00D-01 BMatC= 6.15D-01 BMatP= 6.15D-01
 IDIUse=3 WtCom= 5.53D-01 WtEn= 4.47D-01
 Coeff-Com:  0.100D+01
 Coeff-En:   0.100D+01
 Coeff:      0.100D+01
 Gap=     0.265 Goal=   None    Shift=    0.000
 GapD=    0.265 DampG=1.000 DampE=0.500 DampFc=0.5000 IDamp=-1.
 Damping current iteration by 5.00D-01
 RMSDP=6.16D-03 MaxDP=5.91D-01              OVMax= 2.14D-01

 Cycle   2  Pass 1  IDiag  1:
 E= -1214.62833982268     Delta-E=       -0.153473504069 Rises=F Damp=T
 DIIS: error= 1.27D-02 at cycle   2 NSaved=   2.
 NSaved= 2 IEnMin= 2 EnMin= -1214.62833982268     IErMin= 2 ErrMin= 1.27D-02
 ErrMax= 1.27D-02  0.00D+00 EMaxC= 1.00D-01 BMatC= 8.34D-02 BMatP= 6.15D-01
 IDIUse=3 WtCom= 8.73D-01 WtEn= 1.27D-01
 Coeff-Com:  0.207D+00 0.793D+00
 Coeff-En:   0.332D+00 0.668D+00
 Coeff:      0.223D+00 0.777D+00
 Gap=     0.221 Goal=   None    Shift=    0.000
 RMSDP=1.75D-03 MaxDP=1.36D-01 DE=-1.53D-01 OVMax= 1.68D-01

 Cycle   3  Pass 1  IDiag  1:
 E= -1214.96939009127     Delta-E=       -0.341050268594 Rises=F Damp=F
 DIIS: error= 9.54D-03 at cycle   3 NSaved=   3.
 NSaved= 3 IEnMin= 3 EnMin= -1214.96939009127     IErMin= 3 ErrMin= 9.54D-03
 ErrMax= 9.54D-03  0.00D+00 EMaxC= 1.00D-01 BMatC= 4.56D-02 BMatP= 8.34D-02
 IDIUse=3 WtCom= 9.05D-01 WtEn= 9.54D-02
 Coeff-Com:  0.563D-01 0.425D+00 0.519D+00
 Coeff-En:   0.000D+00 0.000D+00 0.100D+01
 Coeff:      0.510D-01 0.384D+00 0.565D+00
 Gap=     0.183 Goal=   None    Shift=    0.000
 RMSDP=9.24D-04 MaxDP=3.18D-02 DE=-3.41D-01 OVMax= 5.02D-02

 Cycle   4  Pass 1  IDiag  1:
 E= -1215.00165540443     Delta-E=       -0.032265313158 Rises=F Damp=F
 DIIS: error= 3.73D-03 at cycle   4 NSaved=   4.
 NSaved= 4 IEnMin= 4 EnMin= -1215.00165540443     IErMin= 4 ErrMin= 3.73D-03
 ErrMax= 3.73D-03  0.00D+00 EMaxC= 1.00D-01 BMatC= 7.68D-03 BMatP= 4.56D-02
 IDIUse=3 WtCom= 9.63D-01 WtEn= 3.73D-02
 Coeff-Com:  0.229D-02 0.102D+00 0.311D+00 0.585D+00
 Coeff-En:   0.000D+00 0.000D+00 0.136D+00 0.864D+00
 Coeff:      0.221D-02 0.978D-01 0.305D+00 0.595D+00
 Gap=     0.183 Goal=   None    Shift=    0.000
 RMSDP=3.30D-04 MaxDP=1.44D-02 DE=-3.23D-02 OVMax= 2.06D-02

 Cycle   5  Pass 1  IDiag  1:
 E= -1215.00750636603     Delta-E=       -0.005850961598 Rises=F Damp=F
 DIIS: error= 1.03D-03 at cycle   5 NSaved=   5.
 NSaved= 5 IEnMin= 5 EnMin= -1215.00750636603     IErMin= 5 ErrMin= 1.03D-03
 ErrMax= 1.03D-03  0.00D+00 EMaxC= 1.00D-01 BMatC= 7.52D-04 BMatP= 7.68D-03
 IDIUse=3 WtCom= 9.90D-01 WtEn= 1.03D-02
 Coeff-Com: -0.388D-02 0.222D-01 0.122D+00 0.332D+00 0.528D+00
 Coeff-En:   0.000D+00 0.000D+00 0.000D+00 0.260D-01 0.974D+00
 Coeff:     -0.384D-02 0.220D-01 0.120D+00 0.329D+00 0.532D+00
 Gap=     0.183 Goal=   None    Shift=    0.000
 RMSDP=1.07D-04 MaxDP=5.66D-03 DE=-5.85D-03 OVMax= 9.23D-03

 Cycle   6  Pass 1  IDiag  1:
 E= -1215.00809860384     Delta-E=       -0.000592237815 Rises=F Damp=F
 DIIS: error= 3.02D-04 at cycle   6 NSaved=   6.
 NSaved= 6 IEnMin= 6 EnMin= -1215.00809860384     IErMin= 6 ErrMin= 3.02D-04
 ErrMax= 3.02D-04  0.00D+00 EMaxC= 1.00D-01 BMatC= 7.12D-05 BMatP= 7.52D-04
 IDIUse=3 WtCom= 9.97D-01 WtEn= 3.02D-03
 Coeff-Com: -0.241D-02 0.546D-02 0.433D-01 0.139D+00 0.307D+00 0.507D+00
 Coeff-En:   0.000D+00 0.000D+00 0.000D+00 0.000D+00 0.155D-01 0.985D+00
 Coeff:     -0.240D-02 0.544D-02 0.432D-01 0.138D+00 0.307D+00 0.509D+00
 Gap=     0.183 Goal=   None    Shift=    0.000
 RMSDP=3.06D-05 MaxDP=1.60D-03 DE=-5.92D-04 OVMax= 2.96D-03

 Cycle   7  Pass 1  IDiag  1:
 E= -1215.00815587908     Delta-E=       -0.000057275241 Rises=F Damp=F
 DIIS: error= 8.96D-05 at cycle   7 NSaved=   7.
 NSaved= 7 IEnMin= 7 EnMin= -1215.00815587908     IErMin= 7 ErrMin= 8.96D-05
 ErrMax= 8.96D-05  0.00D+00 EMaxC= 1.00D-01 BMatC= 6.57D-06 BMatP= 7.12D-05
 IDIUse=1 WtCom= 1.00D+00 WtEn= 0.00D+00
 Coeff-Com: -0.113D-02 0.812D-03 0.128D-01 0.468D-01 0.124D+00 0.298D+00
 Coeff-Com:  0.519D+00
 Coeff:     -0.113D-02 0.812D-03 0.128D-01 0.468D-01 0.124D+00 0.298D+00
 Coeff:      0.519D+00
 Gap=     0.183 Goal=   None    Shift=    0.000
 RMSDP=8.53D-06 MaxDP=4.24D-04 DE=-5.73D-05 OVMax= 5.65D-04

 Cycle   8  Pass 1  IDiag  1:
 E= -1215.00816115953     Delta-E=       -0.000005280445 Rises=F Damp=F
 DIIS: error= 2.84D-05 at cycle   8 NSaved=   8.
 NSaved= 8 IEnMin= 8 EnMin= -1215.00816115953     IErMin= 8 ErrMin= 2.84D-05
 ErrMax= 2.84D-05  0.00D+00 EMaxC= 1.00D-01 BMatC= 3.47D-07 BMatP= 6.57D-06
 IDIUse=1 WtCom= 1.00D+00 WtEn= 0.00D+00
 Coeff-Com: -0.320D-03-0.787D-04 0.180D-02 0.856D-02 0.301D-01 0.100D+00
 Coeff-Com:  0.244D+00 0.615D+00
 Coeff:     -0.320D-03-0.787D-04 0.180D-02 0.856D-02 0.301D-01 0.100D+00
 Coeff:      0.244D+00 0.615D+00
 Gap=     0.183 Goal=   None    Shift=    0.000
 RMSDP=2.21D-06 MaxDP=1.13D-04 DE=-5.28D-06 OVMax= 1.11D-04

 Cycle   9  Pass 1  IDiag  1:
 E= -1215.00816142207     Delta-E=       -0.000000262539 Rises=F Damp=F
 DIIS: error= 6.70D-06 at cycle   9 NSaved=   9.
 NSaved= 9 IEnMin= 9 EnMin= -1215.00816142207     IErMin= 9 ErrMin= 6.70D-06
 ErrMax= 6.70D-06  0.00D+00 EMaxC= 1.00D-01 BMatC= 3.92D-08 BMatP= 3.47D-07
 IDIUse=1 WtCom= 1.00D+00 WtEn= 0.00D+00
 Coeff-Com: -0.368D-04-0.988D-04-0.497D-03-0.100D-02 0.750D-03 0.157D-01
 Coeff-Com:  0.543D-01 0.298D+00 0.633D+00
 Coeff:     -0.368D-04-0.988D-04-0.497D-03-0.100D-02 0.750D-03 0.157D-01
 Coeff:      0.543D-01 0.298D+00 0.633D+00
 Gap=     0.183 Goal=   None    Shift=    0.000
 RMSDP=7.09D-07 MaxDP=2.58D-05 DE=-2.63D-07 OVMax= 4.08D-05

 Cycle  10  Pass 1  IDiag  1:
 E= -1215.00816145186     Delta-E=       -0.000000029790 Rises=F Damp=F
 DIIS: error= 2.22D-06 at cycle  10 NSaved=  10.
 NSaved=10 IEnMin=10 EnMin= -1215.00816145186     IErMin=10 ErrMin= 2.22D-06
 ErrMax= 2.22D-06  0.00D+00 EMaxC= 1.00D-01 BMatC= 3.84D-09 BMatP= 3.92D-08
 IDIUse=1 WtCom= 1.00D+00 WtEn= 0.00D+00
 Coeff-Com: -0.583D-05-0.459D-04-0.376D-03-0.103D-02-0.129D-02 0.324D-02
 Coeff-Com:  0.154D-01 0.131D+00 0.344D+00 0.509D+00
 Coeff:     -0.583D-05-0.459D-04-0.376D-03-0.103D-02-0.129D-02 0.324D-02
 Coeff:      0.154D-01 0.131D+00 0.344D+00 0.509D+00
 Gap=     0.183 Goal=   None    Shift=    0.000
 RMSDP=2.27D-07 MaxDP=1.24D-05 DE=-2.98D-08 OVMax= 1.75D-05

 Cycle  11  Pass 1  IDiag  1:
 E= -1215.00816145513     Delta-E=       -0.000000003275 Rises=F Damp=F
 DIIS: error= 6.21D-07 at cycle  11 NSaved=  11.
 NSaved=11 IEnMin=11 EnMin= -1215.00816145513     IErMin=11 ErrMin= 6.21D-07
 ErrMax= 6.21D-07  0.00D+00 EMaxC= 1.00D-01 BMatC= 2.31D-10 BMatP= 3.84D-09
 IDIUse=1 WtCom= 1.00D+00 WtEn= 0.00D+00
 Coeff-Com:  0.123D-05-0.284D-05-0.104D-03-0.322D-03-0.732D-03-0.732D-03
 Coeff-Com: -0.128D-02 0.177D-01 0.605D-01 0.214D+00 0.711D+00
 Coeff:      0.123D-05-0.284D-05-0.104D-03-0.322D-03-0.732D-03-0.732D-03
 Coeff:     -0.128D-02 0.177D-01 0.605D-01 0.214D+00 0.711D+00
 Gap=     0.183 Goal=   None    Shift=    0.000
 RMSDP=5.85D-08 MaxDP=3.01D-06 DE=-3.28D-09 OVMax= 5.12D-06

 Cycle  12  Pass 1  IDiag  1:
 E= -1215.00816145530     Delta-E=       -0.000000000166 Rises=F Damp=F
 DIIS: error= 3.35D-07 at cycle  12 NSaved=  12.
 NSaved=12 IEnMin=12 EnMin= -1215.00816145530     IErMin=12 ErrMin= 3.35D-07
 ErrMax= 3.35D-07  0.00D+00 EMaxC= 1.00D-01 BMatC= 4.69D-11 BMatP= 2.31D-10
 IDIUse=1 WtCom= 1.00D+00 WtEn= 0.00D+00
 Coeff-Com:  0.972D-06 0.179D-05-0.385D-04-0.124D-03-0.357D-03-0.624D-03
 Coeff-Com: -0.181D-02 0.197D-02 0.124D-01 0.905D-01 0.412D+00 0.487D+00
 Coeff:      0.972D-06 0.179D-05-0.385D-04-0.124D-03-0.357D-03-0.624D-03
 Coeff:     -0.181D-02 0.197D-02 0.124D-01 0.905D-01 0.412D+00 0.487D+00
 Gap=     0.183 Goal=   None    Shift=    0.000
 RMSDP=2.46D-08 MaxDP=1.49D-06 DE=-1.66D-10 OVMax= 2.33D-06

 Cycle  13  Pass 1  IDiag  1:
 E= -1215.00816145534     Delta-E=       -0.000000000040 Rises=F Damp=F
 DIIS: error= 9.89D-08 at cycle  13 NSaved=  13.
 NSaved=13 IEnMin=13 EnMin= -1215.00816145534     IErMin=13 ErrMin= 9.89D-08
 ErrMax= 9.89D-08  0.00D+00 EMaxC= 1.00D-01 BMatC= 4.20D-12 BMatP= 4.69D-11
 IDIUse=1 WtCom= 1.00D+00 WtEn= 0.00D+00
 Coeff-Com:  0.224D-06 0.127D-05-0.344D-05-0.111D-04-0.709D-04-0.208D-03
 Coeff-Com: -0.801D-03-0.206D-02-0.425D-02 0.109D-01 0.904D-01 0.256D+00
 Coeff-Com:  0.650D+00
 Coeff:      0.224D-06 0.127D-05-0.344D-05-0.111D-04-0.709D-04-0.208D-03
 Coeff:     -0.801D-03-0.206D-02-0.425D-02 0.109D-01 0.904D-01 0.256D+00
 Coeff:      0.650D+00
 Gap=     0.183 Goal=   None    Shift=    0.000
 RMSDP=8.11D-09 MaxDP=3.23D-07 DE=-3.96D-11 OVMax= 7.09D-07

 Error on total polarization charges =  0.02036
 SCF Done:  E(RB3LYP) =  -1215.00816146     A.U. after   13 cycles
            NFock= 13  Conv=0.81D-08     -V/T= 2.0075
 KE= 1.205906330008D+03 PE=-5.772105226574D+03 EE= 1.888588053707D+03
 Leave Link  502 at Mon Sep 14 19:05:42 2020, MaxMem=  2147483648 cpu:             310.9 elap:             106.8
 (Enter /prod/apps/gaussian/g16b1/l601.exe)
 Copying SCF densities to generalized density rwf, IOpCl= 0 IROHF=0.

 **********************************************************************

            Population analysis using the SCF Density.

 **********************************************************************

 Alpha  occ. eigenvalues --  -89.14942 -19.24255 -19.16468 -19.16420 -14.39431
 Alpha  occ. eigenvalues --  -14.38590 -14.38318 -10.27946 -10.27142 -10.22298
 Alpha  occ. eigenvalues --  -10.22125 -10.21693 -10.20264 -10.20210 -10.20093
 Alpha  occ. eigenvalues --  -10.19883 -10.19772 -10.19746  -8.17140  -6.13640
 Alpha  occ. eigenvalues --   -6.13553  -6.13536  -1.14803  -1.14091  -1.02366
 Alpha  occ. eigenvalues --   -0.96981  -0.94531  -0.87580  -0.85435  -0.81111
 Alpha  occ. eigenvalues --   -0.75519  -0.75303  -0.72870  -0.71901  -0.65397
 Alpha  occ. eigenvalues --   -0.64238  -0.61489  -0.59958  -0.58903  -0.55220
 Alpha  occ. eigenvalues --   -0.54656  -0.52007  -0.50293  -0.49169  -0.48490
 Alpha  occ. eigenvalues --   -0.48074  -0.46680  -0.46358  -0.45251  -0.44688
 Alpha  occ. eigenvalues --   -0.43269  -0.42599  -0.42217  -0.40966  -0.40117
 Alpha  occ. eigenvalues --   -0.39119  -0.38622  -0.37325  -0.36203  -0.36161
 Alpha  occ. eigenvalues --   -0.35035  -0.34769  -0.33653  -0.32549  -0.32347
 Alpha  occ. eigenvalues --   -0.30031  -0.27074  -0.26292  -0.26063  -0.23611
 Alpha virt. eigenvalues --   -0.05336  -0.00995   0.01326   0.04671   0.05891
 Alpha virt. eigenvalues --    0.06919   0.08407   0.09389   0.09901   0.10431
 Alpha virt. eigenvalues --    0.11362   0.12842   0.13351   0.14473   0.15335
 Alpha virt. eigenvalues --    0.15984   0.16804   0.16854   0.17060   0.17660
 Alpha virt. eigenvalues --    0.18519   0.18909   0.19383   0.20227   0.22272
 Alpha virt. eigenvalues --    0.23815   0.24638   0.27207   0.28860   0.30031
 Alpha virt. eigenvalues --    0.31209   0.33066   0.33822   0.36518   0.37291
 Alpha virt. eigenvalues --    0.40005   0.42401   0.44495   0.45760   0.47400
 Alpha virt. eigenvalues --    0.49018   0.49845   0.50167   0.51692   0.52527
 Alpha virt. eigenvalues --    0.53334   0.54457   0.55615   0.56270   0.57836
 Alpha virt. eigenvalues --    0.58095   0.58684   0.58817   0.60103   0.60704
 Alpha virt. eigenvalues --    0.61175   0.61518   0.62563   0.63194   0.64451
 Alpha virt. eigenvalues --    0.64949   0.65289   0.66866   0.68272   0.69580
 Alpha virt. eigenvalues --    0.70655   0.73892   0.74547   0.75740   0.76746
 Alpha virt. eigenvalues --    0.77246   0.78653   0.78919   0.80680   0.81371
 Alpha virt. eigenvalues --    0.82770   0.83157   0.83306   0.83708   0.85043
 Alpha virt. eigenvalues --    0.86045   0.86945   0.88404   0.88986   0.89449
 Alpha virt. eigenvalues --    0.89851   0.91030   0.92226   0.92689   0.93808
 Alpha virt. eigenvalues --    0.94906   0.95265   0.96858   0.97310   0.98262
 Alpha virt. eigenvalues --    0.99817   1.01096   1.01966   1.03252   1.04578
 Alpha virt. eigenvalues --    1.07355   1.09190   1.09957   1.10765   1.13495
 Alpha virt. eigenvalues --    1.14994   1.15637   1.16903   1.17904   1.19019
 Alpha virt. eigenvalues --    1.20871   1.22238   1.24301   1.25330   1.26408
 Alpha virt. eigenvalues --    1.31055   1.33137   1.34287   1.34982   1.35563
 Alpha virt. eigenvalues --    1.37354   1.39929   1.41220   1.42362   1.43964
 Alpha virt. eigenvalues --    1.45002   1.47077   1.47894   1.48238   1.49662
 Alpha virt. eigenvalues --    1.50148   1.52366   1.54020   1.54989   1.57388
 Alpha virt. eigenvalues --    1.62598   1.66909   1.69692   1.72193   1.76480
 Alpha virt. eigenvalues --    1.77643   1.78391   1.78729   1.79503   1.80888
 Alpha virt. eigenvalues --    1.83029   1.84661   1.85675   1.86276   1.88869
 Alpha virt. eigenvalues --    1.91388   1.92149   1.92724   1.94456   1.96773
 Alpha virt. eigenvalues --    1.97004   1.97845   1.98058   1.99357   2.01927
 Alpha virt. eigenvalues --    2.03510   2.05050   2.05706   2.08887   2.10472
 Alpha virt. eigenvalues --    2.11352   2.11589   2.13148   2.13312   2.14321
 Alpha virt. eigenvalues --    2.17063   2.18724   2.19818   2.20574   2.22242
 Alpha virt. eigenvalues --    2.24219   2.25170   2.27927   2.29136   2.30078
 Alpha virt. eigenvalues --    2.31724   2.32455   2.33546   2.36566   2.41855
 Alpha virt. eigenvalues --    2.45147   2.47798   2.51100   2.52721   2.53881
 Alpha virt. eigenvalues --    2.56323   2.58077   2.58887   2.60127   2.61907
 Alpha virt. eigenvalues --    2.65982   2.66618   2.68783   2.70370   2.73873
 Alpha virt. eigenvalues --    2.74561   2.75431   2.77450   2.81342   2.84399
 Alpha virt. eigenvalues --    2.90107   2.90444   3.01279   3.04717   3.13671
 Alpha virt. eigenvalues --    3.26797   3.42782   3.77441   3.80431   3.90058
 Alpha virt. eigenvalues --    4.01012   4.02433   4.07309   4.09167   4.10875
 Alpha virt. eigenvalues --    4.12991   4.16610   4.23480   4.25227   4.31503
 Alpha virt. eigenvalues --    4.33513   4.37513   4.39712   4.55081   4.74001
          Condensed to atoms (all electrons):
               1          2          3          4          5          6
     1  O    8.249123   0.453044  -0.057729   0.001549  -0.000017   0.000000
     2  S    0.453044  13.514803   0.162931  -0.011430  -0.002415   0.000094
     3  N   -0.057729   0.162931   7.410855   0.223629  -0.073373   0.005420
     4  C    0.001549  -0.011430   0.223629   4.488430   0.436687  -0.048821
     5  N   -0.000017  -0.002415  -0.073373   0.436687   6.921943   0.130230
     6  O    0.000000   0.000094   0.005420  -0.048821   0.130230   8.193922
     7  C   -0.000001   0.000355  -0.000825  -0.014789  -0.086218   0.249646
     8  C   -0.000000  -0.000018  -0.000204   0.003168   0.004719  -0.037443
     9  C   -0.000000  -0.000001   0.000002   0.000586  -0.000107   0.003113
    10  C   -0.000000  -0.000000   0.000000  -0.000007   0.000001  -0.000061
    11  C   -0.000000  -0.000000   0.000000   0.000000  -0.000000   0.000002
    12  C   -0.000000  -0.000000  -0.000000   0.000004   0.000001   0.000286
    13  C   -0.000000   0.000000  -0.000001  -0.000358   0.000160  -0.006801
    14  C   -0.000038   0.001444  -0.053379   0.453138  -0.050984  -0.087662
    15  N   -0.055504   0.169182  -0.061909   0.008548  -0.000349   0.000003
    16  C    0.002747  -0.010524  -0.004557  -0.000458   0.000091  -0.000002
    17  C   -0.001693  -0.024405   0.002198  -0.000157  -0.000003   0.000000
    18  O   -0.043492   0.427735  -0.049925  -0.007012   0.000046  -0.000000
    19  H    0.001392  -0.005966   0.289485  -0.019249   0.002310  -0.000157
    20  H   -0.000000  -0.000002  -0.000000   0.000080  -0.000006   0.000026
    21  H    0.000000   0.000000  -0.000000  -0.000000  -0.000000   0.000000
    22  H   -0.000000  -0.000000  -0.000000  -0.000000   0.000000   0.000000
    23  H    0.000000   0.000000   0.000000  -0.000000   0.000000  -0.000003
    24  H   -0.000000  -0.000000  -0.000000   0.000052  -0.000234   0.009727
    25  H    0.000017   0.001518  -0.001676  -0.028094   0.005138   0.003191
    26  H   -0.001949  -0.000763   0.007052  -0.000425   0.000518  -0.000002
    27  H    0.000066   0.002444  -0.000106  -0.000031   0.000005  -0.000000
    28  H    0.005470  -0.008000  -0.000383   0.000074   0.000002  -0.000000
    29  H   -0.000102  -0.004676   0.000143  -0.000028   0.000001  -0.000000
    30  H    0.001817  -0.002479  -0.000114   0.000012  -0.000000  -0.000000
    31  H   -0.000097   0.001468  -0.000077   0.000006   0.000001  -0.000000
               7          8          9         10         11         12
     1  O   -0.000001  -0.000000  -0.000000  -0.000000  -0.000000  -0.000000
     2  S    0.000355  -0.000018  -0.000001  -0.000000  -0.000000  -0.000000
     3  N   -0.000825  -0.000204   0.000002   0.000000   0.000000  -0.000000
     4  C   -0.014789   0.003168   0.000586  -0.000007   0.000000   0.000004
     5  N   -0.086218   0.004719  -0.000107   0.000001  -0.000000   0.000001
     6  O    0.249646  -0.037443   0.003113  -0.000061   0.000002   0.000286
     7  C    4.753572   0.342231  -0.041258   0.006312   0.000845   0.004642
     8  C    0.342231   4.790727   0.534452  -0.011153  -0.033911  -0.009501
     9  C   -0.041258   0.534452   5.015558   0.517752  -0.039921  -0.041327
    10  C    0.006312  -0.011153   0.517752   4.883941   0.539228  -0.026028
    11  C    0.000845  -0.033911  -0.039921   0.539228   4.874824   0.538355
    12  C    0.004642  -0.009501  -0.041327  -0.026028   0.538355   4.891072
    13  C   -0.041084   0.471751  -0.081804  -0.042104  -0.038046   0.506168
    14  C    0.490744  -0.056451  -0.020877   0.000222   0.000016  -0.000237
    15  N   -0.000382   0.000003  -0.000000  -0.000000   0.000000  -0.000000
    16  C    0.000005  -0.000000   0.000000   0.000000  -0.000000   0.000000
    17  C   -0.000002  -0.000000   0.000000   0.000000   0.000000  -0.000000
    18  O    0.000498  -0.000004   0.000002   0.000000  -0.000000   0.000000
    19  H    0.000238   0.000001   0.000000  -0.000000  -0.000000   0.000000
    20  H   -0.012447  -0.036874   0.357448  -0.041475   0.004480   0.000161
    21  H   -0.000202   0.003238  -0.037560   0.363402  -0.040886   0.004397
    22  H    0.000003   0.000477   0.004809  -0.041708   0.364888  -0.041490
    23  H   -0.000171   0.003243   0.000763   0.004406  -0.040935   0.363746
    24  H   -0.012867  -0.043064   0.005314   0.000195   0.004567  -0.040908
    25  H   -0.027316  -0.003150   0.001100   0.000078  -0.000001   0.000001
    26  H   -0.000004  -0.000000   0.000000  -0.000000  -0.000000  -0.000000
    27  H    0.000001  -0.000000   0.000000   0.000000   0.000000   0.000000
    28  H   -0.000000   0.000000  -0.000000  -0.000000  -0.000000  -0.000000
    29  H    0.000002  -0.000000   0.000000  -0.000000   0.000000   0.000000
    30  H   -0.000000   0.000000  -0.000000  -0.000000  -0.000000  -0.000000
    31  H    0.000000  -0.000000   0.000000   0.000000  -0.000000   0.000000
              13         14         15         16         17         18
     1  O   -0.000000  -0.000038  -0.055504   0.002747  -0.001693  -0.043492
     2  S    0.000000   0.001444   0.169182  -0.010524  -0.024405   0.427735
     3  N   -0.000001  -0.053379  -0.061909  -0.004557   0.002198  -0.049925
     4  C   -0.000358   0.453138   0.008548  -0.000458  -0.000157  -0.007012
     5  N    0.000160  -0.050984  -0.000349   0.000091  -0.000003   0.000046
     6  O   -0.006801  -0.087662   0.000003  -0.000002   0.000000  -0.000000
     7  C   -0.041084   0.490744  -0.000382   0.000005  -0.000002   0.000498
     8  C    0.471751  -0.056451   0.000003  -0.000000  -0.000000  -0.000004
     9  C   -0.081804  -0.020877  -0.000000   0.000000   0.000000   0.000002
    10  C   -0.042104   0.000222  -0.000000   0.000000   0.000000   0.000000
    11  C   -0.038046   0.000016   0.000000  -0.000000   0.000000  -0.000000
    12  C    0.506168  -0.000237  -0.000000   0.000000  -0.000000   0.000000
    13  C    5.059080   0.011820   0.000000   0.000000  -0.000000  -0.000000
    14  C    0.011820   5.229093  -0.000231   0.000058  -0.000159   0.001925
    15  N    0.000000  -0.000231   7.204895   0.264605   0.279770  -0.054425
    16  C    0.000000   0.000058   0.264605   4.992916  -0.048417   0.001664
    17  C   -0.000000  -0.000159   0.279770  -0.048417   4.989134  -0.003735
    18  O   -0.000000   0.001925  -0.054425   0.001664  -0.003735   8.283324
    19  H   -0.000000   0.003984   0.000462  -0.000250  -0.000026   0.001080
    20  H    0.005584   0.006297  -0.000000   0.000000   0.000000  -0.000009
    21  H    0.000791  -0.000001   0.000000  -0.000000  -0.000000   0.000000
    22  H    0.004699  -0.000000   0.000000  -0.000000  -0.000000  -0.000000
    23  H   -0.037613   0.000001  -0.000000   0.000000  -0.000000   0.000000
    24  H    0.362991   0.000235   0.000000   0.000000  -0.000000  -0.000000
    25  H   -0.000089   0.348364  -0.000268   0.000004  -0.000022   0.009092
    26  H    0.000000  -0.000036  -0.033947   0.375732   0.004442   0.000003
    27  H   -0.000000   0.000003  -0.032536   0.378355  -0.004101  -0.000050
    28  H    0.000000  -0.000002  -0.044839   0.375492  -0.001912  -0.000051
    29  H   -0.000000  -0.000009  -0.031699   0.004400   0.377162   0.011017
    30  H    0.000000   0.000002  -0.046783  -0.001929   0.374795  -0.000490
    31  H   -0.000000   0.000015  -0.037102  -0.002795   0.379556   0.000241
              19         20         21         22         23         24
     1  O    0.001392  -0.000000   0.000000  -0.000000   0.000000  -0.000000
     2  S   -0.005966  -0.000002   0.000000  -0.000000   0.000000  -0.000000
     3  N    0.289485  -0.000000  -0.000000  -0.000000   0.000000  -0.000000
     4  C   -0.019249   0.000080  -0.000000  -0.000000  -0.000000   0.000052
     5  N    0.002310  -0.000006  -0.000000   0.000000   0.000000  -0.000234
     6  O   -0.000157   0.000026   0.000000   0.000000  -0.000003   0.009727
     7  C    0.000238  -0.012447  -0.000202   0.000003  -0.000171  -0.012867
     8  C    0.000001  -0.036874   0.003238   0.000477   0.003243  -0.043064
     9  C    0.000000   0.357448  -0.037560   0.004809   0.000763   0.005314
    10  C   -0.000000  -0.041475   0.363402  -0.041708   0.004406   0.000195
    11  C   -0.000000   0.004480  -0.040886   0.364888  -0.040935   0.004567
    12  C    0.000000   0.000161   0.004397  -0.041490   0.363746  -0.040908
    13  C   -0.000000   0.005584   0.000791   0.004699  -0.037613   0.362991
    14  C    0.003984   0.006297  -0.000001  -0.000000   0.000001   0.000235
    15  N    0.000462  -0.000000   0.000000   0.000000  -0.000000   0.000000
    16  C   -0.000250   0.000000  -0.000000  -0.000000   0.000000   0.000000
    17  C   -0.000026   0.000000  -0.000000  -0.000000  -0.000000  -0.000000
    18  O    0.001080  -0.000009   0.000000  -0.000000   0.000000  -0.000000
    19  H    0.296979  -0.000000   0.000000  -0.000000  -0.000000  -0.000000
    20  H   -0.000000   0.554192  -0.004874  -0.000154   0.000015  -0.000137
    21  H    0.000000  -0.004874   0.557203  -0.005131  -0.000163   0.000015
    22  H   -0.000000  -0.000154  -0.005131   0.560087  -0.005110  -0.000151
    23  H   -0.000000   0.000015  -0.000163  -0.005110   0.557443  -0.004950
    24  H   -0.000000  -0.000137   0.000015  -0.000151  -0.004950   0.554340
    25  H   -0.000126   0.001767  -0.000002  -0.000000   0.000000  -0.000008
    26  H    0.001005  -0.000000   0.000000  -0.000000   0.000000  -0.000000
    27  H    0.000007  -0.000000  -0.000000  -0.000000   0.000000  -0.000000
    28  H    0.000037   0.000000   0.000000   0.000000  -0.000000   0.000000
    29  H   -0.000004  -0.000000   0.000000  -0.000000   0.000000   0.000000
    30  H    0.000002   0.000000   0.000000   0.000000  -0.000000   0.000000
    31  H   -0.000001   0.000000  -0.000000  -0.000000   0.000000  -0.000000
              25         26         27         28         29         30
     1  O    0.000017  -0.001949   0.000066   0.005470  -0.000102   0.001817
     2  S    0.001518  -0.000763   0.002444  -0.008000  -0.004676  -0.002479
     3  N   -0.001676   0.007052  -0.000106  -0.000383   0.000143  -0.000114
     4  C   -0.028094  -0.000425  -0.000031   0.000074  -0.000028   0.000012
     5  N    0.005138   0.000518   0.000005   0.000002   0.000001  -0.000000
     6  O    0.003191  -0.000002  -0.000000  -0.000000  -0.000000  -0.000000
     7  C   -0.027316  -0.000004   0.000001  -0.000000   0.000002  -0.000000
     8  C   -0.003150  -0.000000  -0.000000   0.000000  -0.000000   0.000000
     9  C    0.001100   0.000000   0.000000  -0.000000   0.000000  -0.000000
    10  C    0.000078  -0.000000   0.000000  -0.000000  -0.000000  -0.000000
    11  C   -0.000001  -0.000000   0.000000  -0.000000   0.000000  -0.000000
    12  C    0.000001  -0.000000   0.000000  -0.000000   0.000000  -0.000000
    13  C   -0.000089   0.000000  -0.000000   0.000000  -0.000000   0.000000
    14  C    0.348364  -0.000036   0.000003  -0.000002  -0.000009   0.000002
    15  N   -0.000268  -0.033947  -0.032536  -0.044839  -0.031699  -0.046783
    16  C    0.000004   0.375732   0.378355   0.375492   0.004400  -0.001929
    17  C   -0.000022   0.004442  -0.004101  -0.001912   0.377162   0.374795
    18  O    0.009092   0.000003  -0.000050  -0.000051   0.011017  -0.000490
    19  H   -0.000126   0.001005   0.000007   0.000037  -0.000004   0.000002
    20  H    0.001767  -0.000000  -0.000000   0.000000  -0.000000   0.000000
    21  H   -0.000002   0.000000  -0.000000   0.000000   0.000000   0.000000
    22  H   -0.000000  -0.000000  -0.000000   0.000000  -0.000000   0.000000
    23  H    0.000000   0.000000   0.000000  -0.000000   0.000000  -0.000000
    24  H   -0.000008  -0.000000  -0.000000   0.000000   0.000000   0.000000
    25  H    0.491051  -0.000002   0.000000  -0.000000   0.000200  -0.000001
    26  H   -0.000002   0.514821  -0.022817  -0.031748  -0.000185  -0.000200
    27  H    0.000000  -0.022817   0.514815  -0.032924   0.000031  -0.001289
    28  H   -0.000000  -0.031748  -0.032924   0.554291  -0.000183   0.007562
    29  H    0.000200  -0.000185   0.000031  -0.000183   0.496843  -0.030395
    30  H   -0.000001  -0.000200  -0.001289   0.007562  -0.030395   0.562302
    31  H    0.000004   0.000082   0.005004  -0.001522  -0.020221  -0.037675
              31
     1  O   -0.000097
     2  S    0.001468
     3  N   -0.000077
     4  C    0.000006
     5  N    0.000001
     6  O   -0.000000
     7  C    0.000000
     8  C   -0.000000
     9  C    0.000000
    10  C    0.000000
    11  C   -0.000000
    12  C    0.000000
    13  C   -0.000000
    14  C    0.000015
    15  N   -0.037102
    16  C   -0.002795
    17  C    0.379556
    18  O    0.000241
    19  H   -0.000001
    20  H    0.000000
    21  H   -0.000000
    22  H   -0.000000
    23  H    0.000000
    24  H   -0.000000
    25  H    0.000004
    26  H    0.000082
    27  H    0.005004
    28  H   -0.001522
    29  H   -0.020221
    30  H   -0.037675
    31  H    0.523647
 Mulliken charges:
               1
     1  O   -0.554605
     2  S    1.335663
     3  N   -0.797458
     4  C    0.514897
     5  N   -0.288147
     6  O   -0.414708
     7  C    0.388471
     8  C    0.077764
     9  C   -0.178042
    10  C   -0.153002
    11  C   -0.133504
    12  C   -0.149341
    13  C   -0.175143
    14  C   -0.277295
    15  N   -0.527491
    16  C   -0.327138
    17  C   -0.322425
    18  O   -0.577432
    19  H    0.428796
    20  H    0.165929
    21  H    0.159772
    22  H    0.158781
    23  H    0.159329
    24  H    0.164883
    25  H    0.199227
    26  H    0.188421
    27  H    0.193125
    28  H    0.178637
    29  H    0.197706
    30  H    0.174864
    31  H    0.189465
 Sum of Mulliken charges =  -0.00000
 Mulliken charges with hydrogens summed into heavy atoms:
               1
     1  O   -0.554605
     2  S    1.335663
     3  N   -0.368662
     4  C    0.514897
     5  N   -0.288147
     6  O   -0.414708
     7  C    0.388471
     8  C    0.077764
     9  C   -0.012113
    10  C    0.006770
    11  C    0.025277
    12  C    0.009988
    13  C   -0.010260
    14  C   -0.078068
    15  N   -0.527491
    16  C    0.233045
    17  C    0.239610
    18  O   -0.577432
 Electronic spatial extent (au):  <R**2>=           6426.3887
 Charge=             -0.0000 electrons
 Dipole moment (field-independent basis, Debye):
    X=             -2.2673    Y=              2.2454    Z=              4.4679  Tot=              5.4904
 Quadrupole moment (field-independent basis, Debye-Ang):
   XX=            -99.0363   YY=           -107.8300   ZZ=           -112.1805
   XY=             -6.0627   XZ=             16.4492   YZ=              2.9630
 Traceless Quadrupole moment (field-independent basis, Debye-Ang):
   XX=              7.3126   YY=             -1.4811   ZZ=             -5.8315
   XY=             -6.0627   XZ=             16.4492   YZ=              2.9630
 Octapole moment (field-independent basis, Debye-Ang**2):
  XXX=           -116.7782  YYY=             24.4833  ZZZ=             16.9188  XYY=             15.6703
  XXY=             12.4300  XXZ=             74.5185  XZZ=             25.6170  YZZ=             -1.7950
  YYZ=              0.4358  XYZ=             20.3677
 Hexadecapole moment (field-independent basis, Debye-Ang**3):
 XXXX=          -6364.6616 YYYY=          -1043.8250 ZZZZ=           -576.5454 XXXY=            -24.1822
 XXXZ=            124.5037 YYYX=            -32.0425 YYYZ=             10.0463 ZZZX=             42.4030
 ZZZY=              8.6031 XXYY=          -1162.3471 XXZZ=          -1274.2304 YYZZ=           -272.3269
 XXYZ=            -16.8662 YYXZ=             22.8652 ZZXY=             13.1260
 N-N= 1.462602681405D+03 E-N=-5.772105225043D+03  KE= 1.205906330008D+03
 No NMR shielding tensors so no spin-rotation constants.
 Leave Link  601 at Mon Sep 14 19:05:42 2020, MaxMem=  2147483648 cpu:               0.5 elap:               0.2
 (Enter /prod/apps/gaussian/g16b1/l701.exe)
 ... and contract with generalized density number  0.
 Compute integral first derivatives.
 D1PCM: PCM CHGder 1st derivatives, ID1Alg=3 FixD1E=F DoIter=F DoCFld=F I1PDM=0.
 GePol: Maximum number of non-zero 1st derivatives   =     177
 Leave Link  701 at Mon Sep 14 19:05:44 2020, MaxMem=  2147483648 cpu:               9.3 elap:               2.3
 (Enter /prod/apps/gaussian/g16b1/l702.exe)
 L702 exits ... SP integral derivatives will be done elsewhere.
 Leave Link  702 at Mon Sep 14 19:05:45 2020, MaxMem=  2147483648 cpu:               0.1 elap:               0.1
 (Enter /prod/apps/gaussian/g16b1/l703.exe)
 Integral derivatives from FoFJK, PRISM(SPDF).
 Compute integral first derivatives, UseDBF=F ICtDFT=           0.
 Calling FoFJK, ICntrl=      2127 FMM=F ISym2X=0 I1Cent= 0 IOpClX= 0 NMat=1 NMatS=1 NMatT=0.
 FoFJK:  IHMeth= 1 ICntrl=    2127 DoSepK=F KAlg= 0 I1Cent=           0 FoldK=F
 IRaf=         0 NMat=       1 IRICut=       1 DoRegI=T DoRafI=F ISym2E= 0 IDoP0=0 IntGTp=1.
 FoFCou: FMM=F IPFlag=           0 FMFlag=      100000 FMFlg1=         800
         NFxFlg=           0 DoJE=F BraDBF=F KetDBF=F FulRan=T
         wScrn=  0.000000 ICntrl=      2127 IOpCl=  0 I1Cent=           0 NGrid=           0
         NMat0=    1 NMatS0=      1 NMatT0=    0 NMatD0=    1 NMtDS0=    0 NMtDT0=    0
 Symmetry not used in FoFCou.
 Leave Link  703 at Mon Sep 14 19:06:04 2020, MaxMem=  2147483648 cpu:              77.4 elap:              19.4
 (Enter /prod/apps/gaussian/g16b1/l716.exe)
 Dipole        =-8.92015904D-01 8.83391288D-01 1.75781711D+00
 -------------------------------------------------------------------
 Center     Atomic                   Forces (Hartrees/Bohr)
 Number     Number              X              Y              Z
 -------------------------------------------------------------------
      1        8          -0.000991883    0.000324669    0.000051376
      2       16           0.000132396   -0.000794431    0.000125602
      3        7           0.000926703    0.000036937    0.000156779
      4        6          -0.000483937   -0.000695198    0.000337145
      5        7           0.000087796    0.000761496   -0.000269542
      6        8           0.000131285   -0.000006608   -0.000056856
      7        6          -0.000233068   -0.000471615    0.000288998
      8        6           0.000290886    0.000383136   -0.000366361
      9        6           0.000583815   -0.000430988    0.000176246
     10        6          -0.000320238   -0.000475223    0.000416852
     11        6           0.000672351   -0.000317218   -0.000144081
     12        6          -0.001153934    0.000219144    0.000029246
     13        6           0.000867231   -0.000312555   -0.000007577
     14        6          -0.000122101    0.000898140   -0.000258542
     15        7           0.000436829   -0.000231981    0.000160216
     16        6          -0.000668771    0.000176238    0.000211695
     17        6          -0.001411046    0.000166978    0.001160694
     18        8           0.000000713    0.000087827   -0.000305080
     19        1          -0.000003635    0.000163662   -0.000056511
     20        1          -0.000024293   -0.000065103   -0.000085275
     21        1          -0.000151265    0.000772548   -0.000290214
     22        1          -0.000489643    0.000200131    0.000094972
     23        1           0.000233350    0.000126042   -0.000038673
     24        1          -0.000043996   -0.000119599    0.000062219
     25        1           0.000054733   -0.000366176    0.000168358
     26        1          -0.000063872    0.000175163   -0.000222785
     27        1           0.000010252   -0.000012191   -0.000209055
     28        1           0.000447905   -0.000053453   -0.000039724
     29        1           0.000081490   -0.000063248   -0.000021578
     30        1           0.000794420    0.000124350   -0.000057876
     31        1           0.000409526   -0.000200875   -0.001010667
 -------------------------------------------------------------------
 Cartesian Forces:  Max     0.001411046 RMS     0.000432637
 Leave Link  716 at Mon Sep 14 19:06:04 2020, MaxMem=  2147483648 cpu:               0.1 elap:               0.1
 (Enter /prod/apps/gaussian/g16b1/l103.exe)

 GradGradGradGradGradGradGradGradGradGradGradGradGradGradGradGradGradGrad
 Berny optimization.
 FormGI is forming the generalized inverse of G from B-inverse, IUseBI=4.
 GSVD:  received Info=                   1 from GESDD.
 Internal  Forces:  Max     0.001106311 RMS     0.000243848
 Search for a local minimum.
 Step number   1 out of a maximum of  164
 All quantities printed in internal units (Hartrees-Bohrs-Radians)
 RMS Force = .24385D-03 SwitMx=.10000D-02 MixMth= 2
 Mixed Optimization -- En-DIIS/RFO-DIIS
 Second derivative matrix not updated -- first step.
 ITU=  0
     Eigenvalues ---    0.00702   0.00749   0.01299   0.01547   0.01607
     Eigenvalues ---    0.01742   0.01807   0.01873   0.01938   0.02041
     Eigenvalues ---    0.02074   0.02099   0.02111   0.02116   0.02124
     Eigenvalues ---    0.02144   0.02148   0.02165   0.02171   0.02233
     Eigenvalues ---    0.02274   0.02320   0.07135   0.07161   0.07724
     Eigenvalues ---    0.07768   0.10349   0.10844   0.13412   0.14467
     Eigenvalues ---    0.15998   0.16000   0.16000   0.16000   0.16000
     Eigenvalues ---    0.16000   0.16000   0.16000   0.16000   0.16000
     Eigenvalues ---    0.16000   0.16000   0.19028   0.19148   0.19443
     Eigenvalues ---    0.22000   0.22000   0.22477   0.23477   0.23802
     Eigenvalues ---    0.24965   0.24996   0.24999   0.25000   0.25000
     Eigenvalues ---    0.34236   0.34264   0.34459   0.34679   0.34762
     Eigenvalues ---    0.35051   0.35165   0.35395   0.35443   0.35520
     Eigenvalues ---    0.35581   0.35584   0.35603   0.36375   0.37006
     Eigenvalues ---    0.38276   0.38872   0.40028   0.41419   0.41986
     Eigenvalues ---    0.43585   0.44288   0.45261   0.45522   0.46253
     Eigenvalues ---    0.46336   0.47045   0.48566   0.51674   0.59769
     Eigenvalues ---    0.88764   0.90511
 RFO step:  Lambda=-3.71014809D-05 EMin= 7.01530676D-03
 Linear search not attempted -- first point.
 Iteration  1 RMS(Cart)=  0.01233487 RMS(Int)=  0.00002043
 Iteration  2 RMS(Cart)=  0.00003896 RMS(Int)=  0.00000089
 Iteration  3 RMS(Cart)=  0.00000000 RMS(Int)=  0.00000089
 ITry= 1 IFail=0 DXMaxC= 5.21D-02 DCOld= 1.00D+10 DXMaxT= 3.00D-01 DXLimC= 3.00D+00 Rises=F
 Variable       Old X    -DE/DX   Delta X   Delta X   Delta X     New X
                                 (Linear)    (Quad)   (Total)
    R1        2.77208  -0.00103   0.00000  -0.00116  -0.00116   2.77092
    R2        3.17666  -0.00076   0.00000  -0.00200  -0.00200   3.17466
    R3        3.16815  -0.00001   0.00000  -0.00002  -0.00002   3.16813
    R4        2.76398   0.00023   0.00000   0.00025   0.00025   2.76423
    R5        2.63847   0.00011   0.00000   0.00024   0.00024   2.63871
    R6        1.92812  -0.00015   0.00000  -0.00035  -0.00035   1.92777
    R7        2.49487  -0.00070   0.00000  -0.00118  -0.00118   2.49370
    R8        2.68157   0.00005   0.00000   0.00012   0.00012   2.68169
    R9        2.65175  -0.00016   0.00000  -0.00040  -0.00040   2.65136
   R10        2.56297  -0.00015   0.00000  -0.00025  -0.00025   2.56272
   R11        2.75838  -0.00044   0.00000  -0.00119  -0.00119   2.75718
   R12        2.58525  -0.00006   0.00000  -0.00005  -0.00005   2.58520
   R13        2.65620  -0.00031   0.00000  -0.00073  -0.00073   2.65547
   R14        2.65357   0.00006   0.00000   0.00015   0.00015   2.65372
   R15        2.62999   0.00048   0.00000   0.00098   0.00098   2.63097
   R16        2.04961  -0.00003   0.00000  -0.00008  -0.00008   2.04954
   R17        2.64135  -0.00002   0.00000  -0.00005  -0.00005   2.64131
   R18        2.04742   0.00084   0.00000   0.00236   0.00236   2.04977
   R19        2.63976  -0.00007   0.00000  -0.00012  -0.00012   2.63963
   R20        2.04839   0.00053   0.00000   0.00150   0.00150   2.04990
[...]
 Alpha virt. eigenvalues --    2.26243   2.27291   2.27562   2.28551   2.28975
 Alpha virt. eigenvalues --    2.29535   2.29837   2.31293   2.32468   2.33777
 Alpha virt. eigenvalues --    2.34497   2.35536   2.35726   2.36381   2.36727
 Alpha virt. eigenvalues --    2.38109   2.38393   2.38846   2.39699   2.41403
 Alpha virt. eigenvalues --    2.41644   2.43845   2.44646   2.47093   2.47733
 Alpha virt. eigenvalues --    2.47906   2.50555   2.51782   2.53313   2.54132
 Alpha virt. eigenvalues --    2.56862   2.59181   2.60888   2.61955   2.62028
 Alpha virt. eigenvalues --    2.65606   2.66044   2.67428   2.68660   2.70630
 Alpha virt. eigenvalues --    2.72364   2.73954   2.75221   2.77550   2.79347
 Alpha virt. eigenvalues --    2.80018   2.80775   2.82262   2.83875   2.84066
 Alpha virt. eigenvalues --    2.85135   2.87699   2.88245   2.89867   2.91384
 Alpha virt. eigenvalues --    2.93240   2.95294   2.96476   2.98363   2.98625
 Alpha virt. eigenvalues --    3.02426   3.04513   3.05446   3.06796   3.07819
 Alpha virt. eigenvalues --    3.09591   3.11282   3.14045   3.14358   3.16429
 Alpha virt. eigenvalues --    3.17992   3.21285   3.23786   3.28088   3.32332
 Alpha virt. eigenvalues --    3.36368   3.37588   3.38252   3.42437   3.47963
 Alpha virt. eigenvalues --    3.49103   3.52849   3.54813   3.64478   3.65385
 Alpha virt. eigenvalues --    3.74748   3.75701   3.77162   3.77449   3.78635
 Alpha virt. eigenvalues --    3.81712   3.83603   3.84290   3.87684   3.88325
 Alpha virt. eigenvalues --    3.89124   3.90648   3.96097   3.97437   4.05725
 Alpha virt. eigenvalues --    4.06437   4.15342   4.34875   4.61044   4.90199
          Condensed to atoms (all electrons):
               1          2          3          4          5          6
     1  O    9.139915  -0.150635  -0.036832  -0.004805   0.007675   0.002005
     2  S   -0.150635  13.631003   0.146624  -0.467139   0.016522  -0.011168
     3  N   -0.036832   0.146624   7.982563  -0.694642   0.084506  -0.046962
     4  C   -0.004805  -0.467139  -0.694642  13.136869  -1.525135   0.749945
     5  N    0.007675   0.016522   0.084506  -1.525135   8.849732  -0.776229
     6  O    0.002005  -0.011168  -0.046962   0.749945  -0.776229  10.176095
     7  C    0.012831  -0.106841   0.150935  -0.288347  -0.416574  -1.126407
     8  C   -0.002323  -0.010491  -0.092941   0.374239   0.079834   0.772584
     9  C    0.000350  -0.004565   0.035675  -0.347822   0.186253  -0.215515
    10  C   -0.000107   0.005082  -0.003959  -0.142399   0.032219   0.032889
    11  C   -0.000007  -0.000239   0.002504  -0.030364   0.003986  -0.049395
    12  C    0.000010  -0.001146  -0.008229   0.231180  -0.079783  -0.015101
    13  C    0.000300  -0.014432   0.009585   0.143586  -0.152368  -0.284937
    14  C   -0.007557   0.334583   0.129953  -5.771496   1.285976  -0.080825
    15  N    0.132088  -0.227394  -0.007822  -0.010092   0.033327   0.007614
    16  C    0.022736  -0.149548   0.058932  -0.011363   0.000392   0.002869
    17  C   -0.014332  -0.040187  -0.037859  -0.028206  -0.002868   0.003400
    18  O    0.013561  -0.099742  -0.083614   0.132609  -0.006422   0.002262
    19  H   -0.012018   0.003017   0.273259   0.249494  -0.164587   0.000048
    20  H   -0.000042  -0.008407  -0.005814   0.089809  -0.000225   0.008504
    21  H    0.000000   0.000387  -0.000122  -0.000188   0.000429   0.001184
    22  H   -0.000000  -0.000024   0.000046  -0.000723   0.000269  -0.000267
    23  H   -0.000000   0.000005  -0.000243   0.001320  -0.001618   0.006006
    24  H    0.000020  -0.001183   0.001130   0.021147  -0.038141  -0.112196
    25  H    0.000605  -0.005043  -0.042339   0.416323  -0.113144   0.026740
    26  H    0.052229  -0.063102  -0.044496   0.061824  -0.018682   0.006089
    27  H   -0.003396  -0.001726   0.004466   0.021051  -0.000638  -0.001924
    28  H   -0.028316   0.029894  -0.009053  -0.004137   0.001249   0.000122
    29  H   -0.004859   0.057811   0.007037  -0.019795   0.000639   0.000084
    30  H    0.019725  -0.098056   0.003957   0.011342  -0.000563  -0.000154
    31  H   -0.008079   0.046963  -0.016304  -0.011161  -0.000884   0.000589
               7          8          9         10         11         12
     1  O    0.012831  -0.002323   0.000350  -0.000107  -0.000007   0.000010
     2  S   -0.106841  -0.010491  -0.004565   0.005082  -0.000239  -0.001146
     3  N    0.150935  -0.092941   0.035675  -0.003959   0.002504  -0.008229
     4  C   -0.288347   0.374239  -0.347822  -0.142399  -0.030364   0.231180
     5  N   -0.416574   0.079834   0.186253   0.032219   0.003986  -0.079783
     6  O   -1.126407   0.772584  -0.215515   0.032889  -0.049395  -0.015101
     7  C   22.391862  -6.664943   0.257955  -0.537164   0.683743  -0.518870
     8  C   -6.664943  21.256959  -7.925044   1.938800  -4.045286   1.768955
     9  C    0.257955  -7.925044  21.831046  -6.410555   3.649271  -3.491003
    10  C   -0.537164   1.938800  -6.410555  13.889789  -3.242280   3.514928
    11  C    0.683743  -4.045286   3.649271  -3.242280   9.451944  -3.063957
    12  C   -0.518870   1.768955  -3.491003   3.514928  -3.063957  11.701748
    13  C    0.426654  -6.457213   0.373799  -3.179863   2.860746  -4.174394
    14  C   -9.107506   2.665114  -2.130627   0.618067  -0.497235   0.083485
    15  N    0.019730   0.004350  -0.006486  -0.000235  -0.000983   0.001290
    16  C   -0.007473   0.000154  -0.006340  -0.001007  -0.000454   0.001697
    17  C   -0.027300  -0.001477  -0.003488   0.002443  -0.000390   0.000367
    18  O   -0.088137   0.007319  -0.004307   0.001816  -0.000350   0.000061
    19  H   -0.038445   0.009262  -0.001203  -0.000160  -0.000114   0.000619
    20  H   -0.196687   0.845640  -1.176576   0.206882  -0.131606   0.095921
    21  H   -0.034625  -0.154405   0.944199  -0.997300   0.307436  -0.258417
    22  H   -0.016564   0.051621  -0.084646   0.301474  -0.589328   0.385103
    23  H   -0.022147  -0.109854   0.077661  -0.219286   0.289788  -0.777232
    24  H    0.401085   0.205220  -0.113141   0.064059  -0.092723   0.351167
    25  H    0.923778  -0.002238  -0.024342   0.053996  -0.038475   0.014105
    26  H    0.004499  -0.001306   0.000093   0.000291  -0.000164   0.000120
    27  H    0.010158  -0.000061  -0.000748  -0.000274   0.000069  -0.000015
    28  H   -0.006115   0.000202  -0.000286  -0.000102   0.000001   0.000052
    29  H    0.017798  -0.006183   0.000722  -0.001329   0.000396  -0.000233
    30  H   -0.001617   0.000018   0.000626   0.000267  -0.000032   0.000026
    31  H   -0.005287   0.000382  -0.001024   0.000338  -0.000086   0.000054
              13         14         15         16         17         18
     1  O    0.000300  -0.007557   0.132088   0.022736  -0.014332   0.013561
     2  S   -0.014432   0.334583  -0.227394  -0.149548  -0.040187  -0.099742
     3  N    0.009585   0.129953  -0.007822   0.058932  -0.037859  -0.083614
     4  C    0.143586  -5.771496  -0.010092  -0.011363  -0.028206   0.132609
     5  N   -0.152368   1.285976   0.033327   0.000392  -0.002868  -0.006422
     6  O   -0.284937  -0.080825   0.007614   0.002869   0.003400   0.002262
     7  C    0.426654  -9.107506   0.019730  -0.007473  -0.027300  -0.088137
     8  C   -6.457213   2.665114   0.004350   0.000154  -0.001477   0.007319
     9  C    0.373799  -2.130627  -0.006486  -0.006340  -0.003488  -0.004307
    10  C   -3.179863   0.618067  -0.000235  -0.001007   0.002443   0.001816
    11  C    2.860746  -0.497235  -0.000983  -0.000454  -0.000390  -0.000350
    12  C   -4.174394   0.083485   0.001290   0.001697   0.000367   0.000061
    13  C   19.075202  -2.728340   0.000722   0.003355  -0.003561  -0.005053
    14  C   -2.728340  21.002466  -0.013903  -0.022296   0.019108   0.005740
    15  N    0.000722  -0.013903   8.394636   0.108256   0.052373   0.007647
    16  C    0.003355  -0.022296   0.108256   4.347251  -0.140263   0.021033
    17  C   -0.003561   0.019108   0.052373  -0.140263   4.306648   0.047385
    18  O   -0.005053   0.005740   0.007647   0.021033   0.047385   9.239454
    19  H   -0.001010  -0.116208  -0.077445  -0.002152  -0.002148  -0.004415
    20  H   -0.093506   0.108874   0.003894   0.000497  -0.001201  -0.004436
    21  H    0.101238   0.054194   0.000054   0.000055   0.000049   0.000187
    22  H   -0.083815   0.001359  -0.000015  -0.000009  -0.000024  -0.000024
    23  H    0.686918   0.012575   0.000030   0.000046   0.000024   0.000024
    24  H   -0.845776  -0.093077   0.000370  -0.000382  -0.000236  -0.000558
    25  H    0.002098  -1.662160  -0.001102  -0.008990  -0.009290  -0.014045
    26  H   -0.002008   0.001045  -0.019830   0.359995  -0.079755   0.011582
    27  H    0.001524  -0.019321  -0.161334   0.399937   0.032537  -0.002537
    28  H    0.000008  -0.001625   0.023099   0.233575   0.067210  -0.002675
    29  H    0.002234  -0.007272  -0.048338  -0.077001   0.487692  -0.032282
    30  H   -0.000273   0.002565   0.119430   0.069707   0.176553   0.016227
    31  H   -0.001015   0.007367  -0.310758   0.054743   0.412666   0.007108
              19         20         21         22         23         24
     1  O   -0.012018  -0.000042   0.000000  -0.000000  -0.000000   0.000020
     2  S    0.003017  -0.008407   0.000387  -0.000024   0.000005  -0.001183
     3  N    0.273259  -0.005814  -0.000122   0.000046  -0.000243   0.001130
     4  C    0.249494   0.089809  -0.000188  -0.000723   0.001320   0.021147
     5  N   -0.164587  -0.000225   0.000429   0.000269  -0.001618  -0.038141
     6  O    0.000048   0.008504   0.001184  -0.000267   0.006006  -0.112196
     7  C   -0.038445  -0.196687  -0.034625  -0.016564  -0.022147   0.401085
     8  C    0.009262   0.845640  -0.154405   0.051621  -0.109854   0.205220
     9  C   -0.001203  -1.176576   0.944199  -0.084646   0.077661  -0.113141
    10  C   -0.000160   0.206882  -0.997300   0.301474  -0.219286   0.064059
    11  C   -0.000114  -0.131606   0.307436  -0.589328   0.289788  -0.092723
    12  C    0.000619   0.095921  -0.258417   0.385103  -0.777232   0.351167
    13  C   -0.001010  -0.093506   0.101238  -0.083815   0.686918  -0.845776
    14  C   -0.116208   0.108874   0.054194   0.001359   0.012575  -0.093077
    15  N   -0.077445   0.003894   0.000054  -0.000015   0.000030   0.000370
    16  C   -0.002152   0.000497   0.000055  -0.000009   0.000046  -0.000382
    17  C   -0.002148  -0.001201   0.000049  -0.000024   0.000024  -0.000236
    18  O   -0.004415  -0.004436   0.000187  -0.000024   0.000024  -0.000558
    19  H    0.969828   0.000254   0.000026  -0.000006   0.000026  -0.000795
    20  H    0.000254   2.028506  -0.076509  -0.019135   0.009422  -0.018162
    21  H    0.000026  -0.076509   1.665889  -0.050371  -0.020048   0.007129
    22  H   -0.000006  -0.019135  -0.050371   1.609174  -0.055923  -0.013636
    23  H    0.000026   0.009422  -0.020048  -0.055923   1.652815  -0.088661
    24  H   -0.000795  -0.018162   0.007129  -0.013636  -0.088661   2.036247
    25  H    0.005981  -0.080334  -0.002843   0.000791   0.001012   0.000850
    26  H    0.012153   0.000224  -0.000010  -0.000002   0.000007   0.000014
    27  H   -0.000785   0.000231  -0.000007   0.000001  -0.000006   0.000061
    28  H   -0.001927  -0.000079   0.000002  -0.000000   0.000002  -0.000055
    29  H   -0.000433  -0.000759  -0.000074   0.000002  -0.000014   0.000078
    30  H   -0.001151   0.000159   0.000018  -0.000001   0.000001  -0.000006
    31  H    0.000361  -0.000413  -0.000018  -0.000002   0.000007  -0.000059
              25         26         27         28         29         30
     1  O    0.000605   0.052229  -0.003396  -0.028316  -0.004859   0.019725
     2  S   -0.005043  -0.063102  -0.001726   0.029894   0.057811  -0.098056
     3  N   -0.042339  -0.044496   0.004466  -0.009053   0.007037   0.003957
     4  C    0.416323   0.061824   0.021051  -0.004137  -0.019795   0.011342
     5  N   -0.113144  -0.018682  -0.000638   0.001249   0.000639  -0.000563
     6  O    0.026740   0.006089  -0.001924   0.000122   0.000084  -0.000154
     7  C    0.923778   0.004499   0.010158  -0.006115   0.017798  -0.001617
     8  C   -0.002238  -0.001306  -0.000061   0.000202  -0.006183   0.000018
     9  C   -0.024342   0.000093  -0.000748  -0.000286   0.000722   0.000626
    10  C    0.053996   0.000291  -0.000274  -0.000102  -0.001329   0.000267
    11  C   -0.038475  -0.000164   0.000069   0.000001   0.000396  -0.000032
    12  C    0.014105   0.000120  -0.000015   0.000052  -0.000233   0.000026
    13  C    0.002098  -0.002008   0.001524   0.000008   0.002234  -0.000273
    14  C   -1.662160   0.001045  -0.019321  -0.001625  -0.007272   0.002565
    15  N   -0.001102  -0.019830  -0.161334   0.023099  -0.048338   0.119430
    16  C   -0.008990   0.359995   0.399937   0.233575  -0.077001   0.069707
    17  C   -0.009290  -0.079755   0.032537   0.067210   0.487692   0.176553
    18  O   -0.014045   0.011582  -0.002537  -0.002675  -0.032282   0.016227
    19  H    0.005981   0.012153  -0.000785  -0.001927  -0.000433  -0.001151
    20  H   -0.080334   0.000224   0.000231  -0.000079  -0.000759   0.000159
    21  H   -0.002843  -0.000010  -0.000007   0.000002  -0.000074   0.000018
    22  H    0.000791  -0.000002   0.000001  -0.000000   0.000002  -0.000001
    23  H    0.001012   0.000007  -0.000006   0.000002  -0.000014   0.000001
    24  H    0.000850   0.000014   0.000061  -0.000055   0.000078  -0.000006
    25  H    2.182617   0.001346   0.000305  -0.001891   0.004791  -0.002929
    26  H    0.001346   1.415396  -0.302620  -0.208045  -0.011401   0.004555
    27  H    0.000305  -0.302620   1.280736  -0.130429   0.005132  -0.001100
    28  H   -0.001891  -0.208045  -0.130429   1.077576   0.002402  -0.004285
    29  H    0.004791  -0.011401   0.005132   0.002402   1.232612  -0.216381
    30  H   -0.002929   0.004555  -0.001100  -0.004285  -0.216381   1.139536
    31  H   -0.001689   0.008371   0.016384   0.005635  -0.251323  -0.165682
              31
     1  O   -0.008079
     2  S    0.046963
     3  N   -0.016304
     4  C   -0.011161
     5  N   -0.000884
     6  O    0.000589
     7  C   -0.005287
     8  C    0.000382
     9  C   -0.001024
    10  C    0.000338
    11  C   -0.000086
    12  C    0.000054
    13  C   -0.001015
    14  C    0.007367
    15  N   -0.310758
    16  C    0.054743
    17  C    0.412666
    18  O    0.007108
    19  H    0.000361
    20  H   -0.000413
    21  H   -0.000018
    22  H   -0.000002
    23  H    0.000007
    24  H   -0.000059
    25  H   -0.001689
    26  H    0.008371
    27  H    0.016384
    28  H    0.005635
    29  H   -0.251323
    30  H   -0.165682
    31  H    1.372040
 Mulliken charges:
               1
     1  O   -1.130742
     2  S    3.189177
     3  N   -0.759939
     4  C   -0.282921
     5  N   -0.285148
     6  O   -1.077949
     7  C   -0.089981
     8  C    1.493113
     9  C    0.590069
    10  C    0.072677
    11  C    0.533582
    12  C    0.237492
    13  C    0.339596
    14  C    1.926976
    15  N   -1.023172
    16  C    0.742048
    17  C    0.784130
    18  O   -1.165416
    19  H   -0.099327
    20  H   -0.584924
    21  H   -0.487538
    22  H   -0.435327
    23  H   -0.442655
    24  H   -0.669787
    25  H   -0.624480
    26  H   -0.188412
    27  H   -0.145673
    28  H   -0.042008
    29  H   -0.141756
    30  H   -0.072480
    31  H   -0.159223
 Sum of Mulliken charges =  -0.00000
 Mulliken charges with hydrogens summed into heavy atoms:
               1
     1  O   -1.130742
     2  S    3.189177
     3  N   -0.859266
     4  C   -0.282921
     5  N   -0.285148
     6  O   -1.077949
     7  C   -0.089981
     8  C    1.493113
     9  C    0.005145
    10  C   -0.414861
    11  C    0.098255
    12  C   -0.205162
    13  C   -0.330191
    14  C    1.302496
    15  N   -1.023172
    16  C    0.365955
    17  C    0.410671
    18  O   -1.165416
 Electronic spatial extent (au):  <R**2>=           6417.4211
 Charge=             -0.0000 electrons
 Dipole moment (field-independent basis, Debye):
    X=             -2.3060    Y=              2.3632    Z=              3.9319  Tot=              5.1344
 Quadrupole moment (field-independent basis, Debye-Ang):
   XX=           -104.2909   YY=           -111.6808   ZZ=           -117.0661
   XY=             -3.7792   XZ=             14.6158   YZ=              2.2768
 Traceless Quadrupole moment (field-independent basis, Debye-Ang):
   XX=              6.7217   YY=             -0.6682   ZZ=             -6.0535
   XY=             -3.7792   XZ=             14.6158   YZ=              2.2768
 Octapole moment (field-independent basis, Debye-Ang**2):
  XXX=           -105.9401  YYY=             25.3159  ZZZ=             13.9953  XYY=             16.9174
  XXY=             13.1732  XXZ=             70.5574  XZZ=             30.3895  YZZ=             -3.2285
  YYZ=             -0.5139  XYZ=             20.0810
 Hexadecapole moment (field-independent basis, Debye-Ang**3):
 XXXX=          -6612.9612 YYYY=          -1097.7120 ZZZZ=           -605.2060 XXXY=             10.2255
 XXXZ=             99.4091 YYYX=            -18.7302 YYYZ=              2.6208 ZZZX=             32.3649
 ZZZY=              8.5684 XXYY=          -1207.8408 XXZZ=          -1336.1227 YYZZ=           -289.1529
 XXYZ=            -28.3442 YYXZ=             20.6544 ZZXY=             15.1583
 N-N= 1.463445287122D+03 E-N=-5.771938422364D+03  KE= 1.208040200088D+03
 Leave Link  601 at Mon Sep 14 20:28:48 2020, MaxMem=   262144000 cpu:               0.7 elap:               0.2
 (Enter /prod/apps/gaussian/g16b1/l9999.exe)
 1\1\GINC-PIRINEUS17\SP\RMP2-FC\Aug-CC-pVDZ\C11H13N3O3S1\UBAFAR01\14-Se
 p-2020\0\\#p mp2/aug-cc-pVDZ scf=(MaxCycle=2000,NoVarAcc,NoIncFock) ma
 xdisk=180GB geom=allcheck\\SM43_m0.n.2.pdb.xyz\\0,1\O,0,4.2486580543,-
 0.3088551147,-0.9506108686\S,0,2.9103663689,0.1859298675,-0.6135843631
 \N,0,1.9297490344,-1.1693401227,-0.7517769044\C,0,0.5767531146,-1.1434
 565331,-0.4088589484\N,0,0.0169974059,-2.2341688901,0.0788929885\O,0,-
 1.3360793424,-1.8965137653,0.2366912078\C,0,-1.5314599208,-0.609968052
 ,-0.1439169689\C,0,-2.8850037036,-0.0750155278,-0.0400259101\C,0,-3.13
 95498913,1.2639103195,-0.3824295689\C,0,-4.4300457107,1.777338916,-0.2
 855993279\C,0,-5.4792256053,0.9647503696,0.1530584669\C,0,-5.231137350
 2,-0.3665024388,0.4952402906\C,0,-3.9429037405,-0.8866185638,0.4003233
 987\C,0,-0.3462418987,-0.0774994231,-0.5718984124\N,0,2.7515395747,0.6
 34077737,0.9932996807\C,0,3.3709458689,-0.2974432411,1.9476864146\C,0,
 3.0223527685,2.0553774044,1.2780979063\O,0,2.3144167883,1.2618437423,-
 1.4056408525\H,0,2.418925428,-2.0471511599,-0.5773299534\H,0,-2.328449
 0982,1.8991091358,-0.721437771\H,0,-4.6169989139,2.8120345033,-0.55188
 52287\H,0,-6.4837479054,1.3673404732,0.2278014778\H,0,-6.0417640368,-1
 .0013698688,0.8361158312\H,0,-3.7494589575,-1.9194519094,0.6642497597\
 H,0,-0.1420758414,0.9071609928,-0.9554481597\H,0,3.0511197822,-1.31736
 08141,1.732735033\H,0,3.0122269987,-0.0280055742,2.9420227162\H,0,4.46
 51518173,-0.2453684398,1.9314561221\H,0,2.5008915747,2.6742176288,0.55
 10328886\H,0,4.0938489964,2.2871134112,1.26430128\H,0,2.6271983407,2.2
 608849375,2.2744377756\\Version=ES64L-G16RevB.01\State=1-A\HF=-1209.53
 48521\MP2=-1212.3182119\RMSD=3.348e-09\PG=C01 [X(C11H13N3O3S1)]\\@


      THE ONE-EYED VIEW OF OUR UNIVERSE SAYS YOU MUST NOT LOOK
      FAR AFIELD FOR PROBLEMS.  SUCH PROBLEMS MAY NEVER ARRIVE. 
      INSTEAD, TEND TO THE WOLF WITHIN YOUR FENCES.
      THE PACKS RANGING OUTSIDE MAY NOT EVEN EXIST.

                              -- THE AZHAR BOOK SHAMRA I:4
                                 CHILDREN OF DUNE, BY FRANK HERBERT
 Job cpu time:       0 days  2 hours 25 minutes  1.4 seconds.
 Elapsed time:       0 days  0 hours 37 minutes 45.6 seconds.
 File lengths (MBytes):  RWF=  74524 Int=      0 D2E=      0 Chk=     24 Scr=      1
 Normal termination of Gaussian 16 at Mon Sep 14 20:28:50 2020.
