 Entering Gaussian System, Link 0=g16
 Initial command:
 /prod/apps/gaussian/g16b1/l1.exe "/tmp/ubafar01/1461179/Gau-120590.inp" -scrdir="/tmp/ubafar01/1461179/"
 Entering Link 1 = /prod/apps/gaussian/g16b1/l1.exe PID=    120591.
  
 Copyright (c) 1988-2017, Gaussian, Inc.  All Rights Reserved.
  
 This is part of the Gaussian(R) 16 program.  It is based on
 the Gaussian(R) 09 system (copyright 2009, Gaussian, Inc.),
 the Gaussian(R) 03 system (copyright 2003, Gaussian, Inc.),
 the Gaussian(R) 98 system (copyright 1998, Gaussian, Inc.),
 the Gaussian(R) 94 system (copyright 1995, Gaussian, Inc.),
 the Gaussian 92(TM) system (copyright 1992, Gaussian, Inc.),
 the Gaussian 90(TM) system (copyright 1990, Gaussian, Inc.),
 the Gaussian 88(TM) system (copyright 1988, Gaussian, Inc.),
 the Gaussian 86(TM) system (copyright 1986, Carnegie Mellon
 University), and the Gaussian 82(TM) system (copyright 1983,
 Carnegie Mellon University). Gaussian is a federally registered
 trademark of Gaussian, Inc.
  
 This software contains proprietary and confidential information,
 including trade secrets, belonging to Gaussian, Inc.
  
 This software is provided under written license and may be
 used, copied, transmitted, or stored only in accord with that
 written license.
  
 The following legend is applicable only to US Government
 contracts under FAR:
  
                    RESTRICTED RIGHTS LEGEND
  
 Use, reproduction and disclosure by the US Government is
 subject to restrictions as set forth in subparagraphs (a)
 and (c) of the Commercial Computer Software - Restricted
 Rights clause in FAR 52.227-19.
  
 Gaussian, Inc.
 340 Quinnipiac St., Bldg. 40, Wallingford CT 06492
  
  
 ---------------------------------------------------------------
 Warning -- This program may not be used in any manner that
 competes with the business of Gaussian, Inc. or will provide
 assistance to any competitor of Gaussian, Inc.  The licensee
 of this program is prohibited from giving any competitor of
 Gaussian, Inc. access to this program.  By using this program,
 the user acknowledges that Gaussian, Inc. is engaged in the
 business of creating and licensing software in the field of
 computational chemistry and represents and warrants to the
 licensee that it is not a competitor of Gaussian, Inc. and that
 it will not use this program in any manner prohibited above.
 ---------------------------------------------------------------
  

 Cite this work as:
 Gaussian 16, Revision B.01,
 M. J. Frisch, G. W. Trucks, H. B. Schlegel, G. E. Scuseria, 
 M. A. Robb, J. R. Cheeseman, G. Scalmani, V. Barone, 
 G. A. Petersson, H. Nakatsuji, X. Li, M. Caricato, A. V. Marenich, 
 J. Bloino, B. G. Janesko, R. Gomperts, B. Mennucci, H. P. Hratchian, 
 J. V. Ortiz, A. F. Izmaylov, J. L. Sonnenberg, D. Williams-Young, 
 F. Ding, F. Lipparini, F. Egidi, J. Goings, B. Peng, A. Petrone, 
 T. Henderson, D. Ranasinghe, V. G. Zakrzewski, J. Gao, N. Rega, 
 G. Zheng, W. Liang, M. Hada, M. Ehara, K. Toyota, R. Fukuda, 
 J. Hasegawa, M. Ishida, T. Nakajima, Y. Honda, O. Kitao, H. Nakai, 
 T. Vreven, K. Throssell, J. A. Montgomery, Jr., J. E. Peralta, 
 F. Ogliaro, M. J. Bearpark, J. J. Heyd, E. N. Brothers, K. N. Kudin, 
 V. N. Staroverov, T. A. Keith, R. Kobayashi, J. Normand, 
 K. Raghavachari, A. P. Rendell, J. C. Burant, S. S. Iyengar, 
 J. Tomasi, M. Cossi, J. M. Millam, M. Klene, C. Adamo, R. Cammi, 
 J. W. Ochterski, R. L. Martin, K. Morokuma, O. Farkas, 
 J. B. Foresman, and D. J. Fox, Gaussian, Inc., Wallingford CT, 2016.
 
 ******************************************
 Gaussian 16:  ES64L-G16RevB.01 20-Dec-2017
                24-Sep-2020 
 ******************************************
 %nproc=4
 Will use up to    4 processors via shared memory.
 %Chk=SM43_m2.b.10.pdb.xyz.mst.b.w.chk
 %mem=16GB
 ----------------------------------------------------------------------
 #p b3lyp/6-31G(d) opt freq NoSymm scf=(MaxCycle=2000,NoVarAcc,NoIncFoc
 k) scrf=(iefpcm,read,solvent=water)
 ----------------------------------------------------------------------
 1/18=20,19=15,26=3,38=1,40=2/1,3;
 2/9=110,12=2,15=1,17=6,18=5,40=1/2;
 3/5=1,6=6,7=1,11=2,25=1,30=1,70=2203,71=1,72=1,74=-5/1,2,3;
 4//1;
 5/5=100002,7=2000,38=1,53=1/2;
 6/7=2,8=2,9=2,10=2,28=1/1;
 7/30=1/1,2,3,16;
 1/18=20,19=15,26=3/3(2);
 2/9=110,15=1/2;
 99//99;
 2/9=110,15=1/2;
 3/5=1,6=6,7=1,11=2,25=1,30=1,70=2205,71=1,72=1,74=-5/1,2,3;
 4/5=5,16=3,69=1/1;
 5/5=100002,7=2000,38=1,53=1/2;
 7/30=1/1,2,3,16;
 1/18=20,19=15,26=3/3(-5);
 2/9=110,15=1/2;
 6/7=2,8=2,9=2,10=2,19=2,28=1/1;
 99/9=1/99;
 Leave Link    1 at Thu Sep 24 06:49:44 2020, MaxMem=  2147483648 cpu:               0.1 elap:               0.0
 (Enter /prod/apps/gaussian/g16b1/l101.exe)
 --------------------
 SM43_m2.b.10.pdb.xyz
 --------------------
 Symbolic Z-matrix:
 Charge =  1 Multiplicity = 1
 O                    -2.797     0.255    -1.911 
 S                    -3.08     -0.539    -0.733 
 N                    -1.718    -0.938     0.08 
 C                    -0.447    -0.348    -0.04 
 N                    -0.297     0.921    -0.352 
 O                     1.084     1.115    -0.36 
 C                     1.716    -0.04     -0.029 
 C                     3.175    -0.015     0.025 
 C                     3.882    -1.133     0.5 
 C                     5.274    -1.109     0.555 
 C                     5.975     0.026     0.14 
 C                     5.278     1.141    -0.333 
 C                     3.886     1.125    -0.392 
 C                     0.78     -1.018     0.183 
 N                    -3.944     0.67      0.418 
 C                    -4.083     0.116     1.804 
 C                    -3.341     2.043     0.375 
 O                    -3.972    -1.683    -0.709 
 H                    -1.787    -1.82      0.593 
 H                     3.345    -2.016     0.832 
 H                     5.811    -1.977     0.926 
 H                     7.06      0.042     0.185 
 H                     5.818     2.026    -0.657 
 H                     3.348     1.991    -0.762 
 H                     0.925    -2.055     0.444 
 H                    -4.525    -0.878     1.744 
 H                    -4.746     0.786     2.352 
 H                    -3.102     0.084     2.275 
 H                    -3.391     2.408    -0.648 
 H                    -2.308     1.998     0.718 
 H                    -3.939     2.675     1.032 
 H                    -4.891     0.731     0.001 
 
 ITRead=  0  0  0  0  0  0  0  0  0  0  0  0  0  0  0  0  0  0  0  0
 ITRead=  0  0  0  0  0  0  0  0  0  0  0  0
 MicOpt= -1 -1 -1 -1 -1 -1 -1 -1 -1 -1 -1 -1 -1 -1 -1 -1 -1 -1 -1 -1
 MicOpt= -1 -1 -1 -1 -1 -1 -1 -1 -1 -1 -1 -1
 NAtoms=     32 NQM=       32 NQMF=       0 NMMI=      0 NMMIF=      0
                NMic=       0 NMicF=      0.
                    Isotopes and Nuclear Properties:
 (Nuclear quadrupole moments (NQMom) in fm**2, nuclear magnetic moments (NMagM)
  in nuclear magnetons)

  Atom         1           2           3           4           5           6           7           8           9          10
 IAtWgt=          16          32          14          12          14          16          12          12          12          12
 AtmWgt=  15.9949146  31.9720718  14.0030740  12.0000000  14.0030740  15.9949146  12.0000000  12.0000000  12.0000000  12.0000000
 NucSpn=           0           0           2           0           2           0           0           0           0           0
 AtZEff=  -0.0000000  -0.0000000  -0.0000000  -0.0000000  -0.0000000  -0.0000000  -0.0000000  -0.0000000  -0.0000000  -0.0000000
 NQMom=    0.0000000   0.0000000   2.0440000   0.0000000   2.0440000   0.0000000   0.0000000   0.0000000   0.0000000   0.0000000
 NMagM=    0.0000000   0.0000000   0.4037610   0.0000000   0.4037610   0.0000000   0.0000000   0.0000000   0.0000000   0.0000000
 AtZNuc=   8.0000000  16.0000000   7.0000000   6.0000000   7.0000000   8.0000000   6.0000000   6.0000000   6.0000000   6.0000000

  Atom        11          12          13          14          15          16          17          18          19          20
 IAtWgt=          12          12          12          12          14          12          12          16           1           1
 AtmWgt=  12.0000000  12.0000000  12.0000000  12.0000000  14.0030740  12.0000000  12.0000000  15.9949146   1.0078250   1.0078250
 NucSpn=           0           0           0           0           2           0           0           0           1           1
 AtZEff=  -0.0000000  -0.0000000  -0.0000000  -0.0000000  -0.0000000  -0.0000000  -0.0000000  -0.0000000  -0.0000000  -0.0000000
 NQMom=    0.0000000   0.0000000   0.0000000   0.0000000   2.0440000   0.0000000   0.0000000   0.0000000   0.0000000   0.0000000
 NMagM=    0.0000000   0.0000000   0.0000000   0.0000000   0.4037610   0.0000000   0.0000000   0.0000000   2.7928460   2.7928460
 AtZNuc=   6.0000000   6.0000000   6.0000000   6.0000000   7.0000000   6.0000000   6.0000000   8.0000000   1.0000000   1.0000000

  Atom        21          22          23          24          25          26          27          28          29          30
 IAtWgt=           1           1           1           1           1           1           1           1           1           1
 AtmWgt=   1.0078250   1.0078250   1.0078250   1.0078250   1.0078250   1.0078250   1.0078250   1.0078250   1.0078250   1.0078250
 NucSpn=           1           1           1           1           1           1           1           1           1           1
 AtZEff=  -0.0000000  -0.0000000  -0.0000000  -0.0000000  -0.0000000  -0.0000000  -0.0000000  -0.0000000  -0.0000000  -0.0000000
 NQMom=    0.0000000   0.0000000   0.0000000   0.0000000   0.0000000   0.0000000   0.0000000   0.0000000   0.0000000   0.0000000
 NMagM=    2.7928460   2.7928460   2.7928460   2.7928460   2.7928460   2.7928460   2.7928460   2.7928460   2.7928460   2.7928460
 AtZNuc=   1.0000000   1.0000000   1.0000000   1.0000000   1.0000000   1.0000000   1.0000000   1.0000000   1.0000000   1.0000000

  Atom        31          32
 IAtWgt=           1           1
 AtmWgt=   1.0078250   1.0078250
 NucSpn=           1           1
 AtZEff=  -0.0000000  -0.0000000
 NQMom=    0.0000000   0.0000000
 NMagM=    2.7928460   2.7928460
 AtZNuc=   1.0000000   1.0000000
 Leave Link  101 at Thu Sep 24 06:49:44 2020, MaxMem=  2147483648 cpu:               1.3 elap:               0.3
 (Enter /prod/apps/gaussian/g16b1/l103.exe)

 GradGradGradGradGradGradGradGradGradGradGradGradGradGradGradGradGradGrad
 Berny optimization.
 Initialization pass.
                           ----------------------------
                           !    Initial Parameters    !
                           ! (Angstroms and Degrees)  !
 --------------------------                            --------------------------
 ! Name  Definition              Value          Derivative Info.                !
 --------------------------------------------------------------------------------
 ! R1    R(1,2)                  1.4485         estimate D2E/DX2                !
 ! R2    R(2,3)                  1.6356         estimate D2E/DX2                !
 ! R3    R(2,15)                 1.8796         estimate D2E/DX2                !
 ! R4    R(2,18)                 1.4509         estimate D2E/DX2                !
 ! R5    R(3,4)                  1.4064         estimate D2E/DX2                !
 ! R6    R(3,19)                 1.0227         estimate D2E/DX2                !
 ! R7    R(4,5)                  1.3154         estimate D2E/DX2                !
 ! R8    R(4,14)                 1.4157         estimate D2E/DX2                !
 ! R9    R(5,6)                  1.3946         estimate D2E/DX2                !
 ! R10   R(6,7)                  1.3576         estimate D2E/DX2                !
 ! R11   R(7,8)                  1.4602         estimate D2E/DX2                !
 ! R12   R(7,14)                 1.3702         estimate D2E/DX2                !
 ! R13   R(8,9)                  1.4055         estimate D2E/DX2                !
 ! R14   R(8,13)                 1.4068         estimate D2E/DX2                !
 ! R15   R(9,10)                 1.3933         estimate D2E/DX2                !
 ! R16   R(9,20)                 1.0855         estimate D2E/DX2                !
 ! R17   R(10,11)                1.3971         estimate D2E/DX2                !
 ! R18   R(10,21)                1.086          estimate D2E/DX2                !
 ! R19   R(11,12)                1.3974         estimate D2E/DX2                !
 ! R20   R(11,22)                1.0861         estimate D2E/DX2                !
 ! R21   R(12,13)                1.3933         estimate D2E/DX2                !
 ! R22   R(12,23)                1.0862         estimate D2E/DX2                !
 ! R23   R(13,24)                1.0846         estimate D2E/DX2                !
 ! R24   R(14,25)                1.0791         estimate D2E/DX2                !
 ! R25   R(15,16)                1.4991         estimate D2E/DX2                !
 ! R26   R(15,17)                1.5002         estimate D2E/DX2                !
 ! R27   R(15,32)                1.0365         estimate D2E/DX2                !
 ! R28   R(16,26)                1.0895         estimate D2E/DX2                !
 ! R29   R(16,27)                1.0903         estimate D2E/DX2                !
 ! R30   R(16,28)                1.0887         estimate D2E/DX2                !
 ! R31   R(17,29)                1.0873         estimate D2E/DX2                !
 ! R32   R(17,30)                1.0894         estimate D2E/DX2                !
 ! R33   R(17,31)                1.0903         estimate D2E/DX2                !
 ! A1    A(1,2,3)              112.0405         estimate D2E/DX2                !
 ! A2    A(1,2,15)             103.605          estimate D2E/DX2                !
 ! A3    A(1,2,18)             124.4567         estimate D2E/DX2                !
 ! A4    A(3,2,15)             103.6094         estimate D2E/DX2                !
 ! A5    A(3,2,18)             108.143          estimate D2E/DX2                !
 ! A6    A(15,2,18)            102.3825         estimate D2E/DX2                !
 ! A7    A(2,3,4)              127.4308         estimate D2E/DX2                !
 ! A8    A(2,3,19)             113.8001         estimate D2E/DX2                !
 ! A9    A(4,3,19)             117.7481         estimate D2E/DX2                !
 ! A10   A(3,4,5)              121.8718         estimate D2E/DX2                !
 ! A11   A(3,4,14)             124.8408         estimate D2E/DX2                !
 ! A12   A(5,4,14)             113.2729         estimate D2E/DX2                !
 ! A13   A(4,5,6)              104.3883         estimate D2E/DX2                !
 ! A14   A(5,6,7)              109.9531         estimate D2E/DX2                !
 ! A15   A(6,7,8)              117.3613         estimate D2E/DX2                !
 ! A16   A(6,7,14)             109.0845         estimate D2E/DX2                !
 ! A17   A(8,7,14)             133.5533         estimate D2E/DX2                !
 ! A18   A(7,8,9)              120.0986         estimate D2E/DX2                !
 ! A19   A(7,8,13)             120.5243         estimate D2E/DX2                !
 ! A20   A(9,8,13)             119.3768         estimate D2E/DX2                !
 ! A21   A(8,9,10)             120.1457         estimate D2E/DX2                !
 ! A22   A(8,9,20)             120.1048         estimate D2E/DX2                !
 ! A23   A(10,9,20)            119.7481         estimate D2E/DX2                !
 ! A24   A(9,10,11)            120.2359         estimate D2E/DX2                !
 ! A25   A(9,10,21)            119.5858         estimate D2E/DX2                !
 ! A26   A(11,10,21)           120.178          estimate D2E/DX2                !
 ! A27   A(10,11,12)           119.9007         estimate D2E/DX2                !
 ! A28   A(10,11,22)           120.0618         estimate D2E/DX2                !
 ! A29   A(12,11,22)           120.0375         estimate D2E/DX2                !
 ! A30   A(11,12,13)           120.2298         estimate D2E/DX2                !
 ! A31   A(11,12,23)           120.206          estimate D2E/DX2                !
 ! A32   A(13,12,23)           119.5642         estimate D2E/DX2                !
 ! A33   A(8,13,12)            120.1112         estimate D2E/DX2                !
 ! A34   A(8,13,24)            119.8327         estimate D2E/DX2                !
 ! A35   A(12,13,24)           120.056          estimate D2E/DX2                !
 ! A36   A(4,14,7)             103.2904         estimate D2E/DX2                !
 ! A37   A(4,14,25)            127.5427         estimate D2E/DX2                !
 ! A38   A(7,14,25)            129.1624         estimate D2E/DX2                !
 ! A39   A(2,15,16)            111.7823         estimate D2E/DX2                !
 ! A40   A(2,15,17)            112.7285         estimate D2E/DX2                !
 ! A41   A(2,15,32)            102.208          estimate D2E/DX2                !
 ! A42   A(16,15,17)           113.7031         estimate D2E/DX2                !
 ! A43   A(16,15,32)           107.9983         estimate D2E/DX2                !
 ! A44   A(17,15,32)           107.5678         estimate D2E/DX2                !
 ! A45   A(15,16,26)           108.897          estimate D2E/DX2                !
 ! A46   A(15,16,27)           107.0967         estimate D2E/DX2                !
 ! A47   A(15,16,28)           109.1056         estimate D2E/DX2                !
 ! A48   A(26,16,27)           109.976          estimate D2E/DX2                !
 ! A49   A(26,16,28)           111.2584         estimate D2E/DX2                !
 ! A50   A(27,16,28)           110.399          estimate D2E/DX2                !
 ! A51   A(15,17,29)           108.4038         estimate D2E/DX2                !
 ! A52   A(15,17,30)           109.5308         estimate D2E/DX2                !
 ! A53   A(15,17,31)           107.0251         estimate D2E/DX2                !
 ! A54   A(29,17,30)           110.714          estimate D2E/DX2                !
 ! A55   A(29,17,31)           110.313          estimate D2E/DX2                !
 ! A56   A(30,17,31)           110.7513         estimate D2E/DX2                !
 ! D1    D(1,2,3,4)             16.9736         estimate D2E/DX2                !
 ! D2    D(1,2,3,19)          -151.095          estimate D2E/DX2                !
 ! D3    D(15,2,3,4)           -94.0724         estimate D2E/DX2                !
 ! D4    D(15,2,3,19)           97.8589         estimate D2E/DX2                !
 ! D5    D(18,2,3,4)           157.7775         estimate D2E/DX2                !
 ! D6    D(18,2,3,19)          -10.2912         estimate D2E/DX2                !
 ! D7    D(1,2,15,16)         -168.7821         estimate D2E/DX2                !
 ! D8    D(1,2,15,17)          -39.2321         estimate D2E/DX2                !
 ! D9    D(1,2,15,32)           75.9468         estimate D2E/DX2                !
 ! D10   D(3,2,15,16)          -51.663          estimate D2E/DX2                !
 ! D11   D(3,2,15,17)           77.887          estimate D2E/DX2                !
 ! D12   D(3,2,15,32)         -166.9341         estimate D2E/DX2                !
 ! D13   D(18,2,15,16)          60.7431         estimate D2E/DX2                !
 ! D14   D(18,2,15,17)        -169.707          estimate D2E/DX2                !
 ! D15   D(18,2,15,32)         -54.5281         estimate D2E/DX2                !
 ! D16   D(2,3,4,5)             30.8057         estimate D2E/DX2                !
 ! D17   D(2,3,4,14)          -150.6789         estimate D2E/DX2                !
 ! D18   D(19,3,4,5)          -161.5357         estimate D2E/DX2                !
 ! D19   D(19,3,4,14)           16.9797         estimate D2E/DX2                !
 ! D20   D(3,4,5,6)            179.5322         estimate D2E/DX2                !
 ! D21   D(14,4,5,6)             0.8585         estimate D2E/DX2                !
 ! D22   D(3,4,14,7)          -178.9667         estimate D2E/DX2                !
 ! D23   D(3,4,14,25)            1.755          estimate D2E/DX2                !
 ! D24   D(5,4,14,7)            -0.3391         estimate D2E/DX2                !
 ! D25   D(5,4,14,25)         -179.6174         estimate D2E/DX2                !
 ! D26   D(4,5,6,7)             -1.0698         estimate D2E/DX2                !
 ! D27   D(5,6,7,8)           -179.4017         estimate D2E/DX2                !
 ! D28   D(5,6,7,14)             0.905          estimate D2E/DX2                !
 ! D29   D(6,7,8,9)            173.1256         estimate D2E/DX2                !
 ! D30   D(6,7,8,13)            -6.6723         estimate D2E/DX2                !
 ! D31   D(14,7,8,9)            -7.2744         estimate D2E/DX2                !
 ! D32   D(14,7,8,13)          172.9278         estimate D2E/DX2                !
 ! D33   D(6,7,14,4)            -0.3593         estimate D2E/DX2                !
 ! D34   D(6,7,14,25)          178.9026         estimate D2E/DX2                !
 ! D35   D(8,7,14,4)          -179.9835         estimate D2E/DX2                !
 ! D36   D(8,7,14,25)           -0.7215         estimate D2E/DX2                !
 ! D37   D(7,8,9,10)          -179.8437         estimate D2E/DX2                !
 ! D38   D(7,8,9,20)            -0.2742         estimate D2E/DX2                !
 ! D39   D(13,8,9,10)           -0.0436         estimate D2E/DX2                !
 ! D40   D(13,8,9,20)          179.5259         estimate D2E/DX2                !
 ! D41   D(7,8,13,12)          179.8058         estimate D2E/DX2                !
 ! D42   D(7,8,13,24)           -0.3433         estimate D2E/DX2                !
 ! D43   D(9,8,13,12)            0.0065         estimate D2E/DX2                !
 ! D44   D(9,8,13,24)          179.8574         estimate D2E/DX2                !
 ! D45   D(8,9,10,11)            0.0657         estimate D2E/DX2                !
 ! D46   D(8,9,10,21)          179.844          estimate D2E/DX2                !
 ! D47   D(20,9,10,11)        -179.5053         estimate D2E/DX2                !
 ! D48   D(20,9,10,21)           0.2729         estimate D2E/DX2                !
 ! D49   D(9,10,11,12)          -0.0503         estimate D2E/DX2                !
 ! D50   D(9,10,11,22)         179.9398         estimate D2E/DX2                !
 ! D51   D(21,10,11,12)       -179.8273         estimate D2E/DX2                !
 ! D52   D(21,10,11,22)          0.1628         estimate D2E/DX2                !
 ! D53   D(10,11,12,13)          0.0131         estimate D2E/DX2                !
 ! D54   D(10,11,12,23)       -179.9944         estimate D2E/DX2                !
 ! D55   D(22,11,12,13)       -179.977          estimate D2E/DX2                !
 ! D56   D(22,11,12,23)          0.0155         estimate D2E/DX2                !
 ! D57   D(11,12,13,8)           0.0086         estimate D2E/DX2                !
 ! D58   D(11,12,13,24)       -179.842          estimate D2E/DX2                !
 ! D59   D(23,12,13,8)        -179.9839         estimate D2E/DX2                !
 ! D60   D(23,12,13,24)          0.1655         estimate D2E/DX2                !
 ! D61   D(2,15,16,26)         -50.8851         estimate D2E/DX2                !
 ! D62   D(2,15,16,27)        -169.7714         estimate D2E/DX2                !
 ! D63   D(2,15,16,28)          70.7256         estimate D2E/DX2                !
 ! D64   D(17,15,16,26)       -179.9242         estimate D2E/DX2                !
 ! D65   D(17,15,16,27)         61.1896         estimate D2E/DX2                !
 ! D66   D(17,15,16,28)        -58.3135         estimate D2E/DX2                !
 ! D67   D(32,15,16,26)         60.7852         estimate D2E/DX2                !
 ! D68   D(32,15,16,27)        -58.1011         estimate D2E/DX2                !
 ! D69   D(32,15,16,28)       -177.6041         estimate D2E/DX2                !
 ! D70   D(2,15,17,29)          58.2092         estimate D2E/DX2                !
 ! D71   D(2,15,17,30)         -62.6916         estimate D2E/DX2                !
 ! D72   D(2,15,17,31)         177.1898         estimate D2E/DX2                !
 ! D73   D(16,15,17,29)       -173.2333         estimate D2E/DX2                !
 ! D74   D(16,15,17,30)         65.8659         estimate D2E/DX2                !
 ! D75   D(16,15,17,31)        -54.2528         estimate D2E/DX2                !
 ! D76   D(32,15,17,29)        -53.6978         estimate D2E/DX2                !
 ! D77   D(32,15,17,30)       -174.5986         estimate D2E/DX2                !
 ! D78   D(32,15,17,31)         65.2827         estimate D2E/DX2                !
 --------------------------------------------------------------------------------
 Trust Radius=3.00D-01 FncErr=1.00D-07 GrdErr=1.00D-06 EigMax=2.50D+02 EigMin=1.00D-04
 Number of steps in this run=    177 maximum allowed number of steps=    192.
 GradGradGradGradGradGradGradGradGradGradGradGradGradGradGradGradGradGrad

 Leave Link  103 at Thu Sep 24 06:49:45 2020, MaxMem=  2147483648 cpu:               0.0 elap:               0.0
 (Enter /prod/apps/gaussian/g16b1/l202.exe)
                          Input orientation:                          
 ---------------------------------------------------------------------
 Center     Atomic      Atomic             Coordinates (Angstroms)
 Number     Number       Type             X           Y           Z
 ---------------------------------------------------------------------
      1          8           0       -2.797000    0.255000   -1.911000
      2         16           0       -3.080000   -0.539000   -0.733000
      3          7           0       -1.718000   -0.938000    0.080000
      4          6           0       -0.447000   -0.348000   -0.040000
      5          7           0       -0.297000    0.921000   -0.352000
      6          8           0        1.084000    1.115000   -0.360000
      7          6           0        1.716000   -0.040000   -0.029000
      8          6           0        3.175000   -0.015000    0.025000
      9          6           0        3.882000   -1.133000    0.500000
     10          6           0        5.274000   -1.109000    0.555000
     11          6           0        5.975000    0.026000    0.140000
     12          6           0        5.278000    1.141000   -0.333000
     13          6           0        3.886000    1.125000   -0.392000
     14          6           0        0.780000   -1.018000    0.183000
     15          7           0       -3.944000    0.670000    0.418000
     16          6           0       -4.083000    0.116000    1.804000
     17          6           0       -3.341000    2.043000    0.375000
     18          8           0       -3.972000   -1.683000   -0.709000
     19          1           0       -1.787000   -1.820000    0.593000
     20          1           0        3.345000   -2.016000    0.832000
     21          1           0        5.811000   -1.977000    0.926000
     22          1           0        7.060000    0.042000    0.185000
     23          1           0        5.818000    2.026000   -0.657000
     24          1           0        3.348000    1.991000   -0.762000
     25          1           0        0.925000   -2.055000    0.444000
     26          1           0       -4.525000   -0.878000    1.744000
     27          1           0       -4.746000    0.786000    2.352000
     28          1           0       -3.102000    0.084000    2.275000
     29          1           0       -3.391000    2.408000   -0.648000
     30          1           0       -2.308000    1.998000    0.718000
     31          1           0       -3.939000    2.675000    1.032000
     32          1           0       -4.891000    0.731000    0.001000
 ---------------------------------------------------------------------
                    Distance matrix (angstroms):
                    1          2          3          4          5
     1  O    0.000000
     2  S    1.448520   0.000000
     3  N    2.559604   1.635608   0.000000
     4  C    3.063780   2.729362   1.406393   0.000000
     5  N    3.020602   3.165731   2.379442   1.315373   0.000000
     6  O    4.267009   4.495969   3.501373   2.141665   1.394583
     7  C    4.898583   4.873011   3.551146   2.184846   2.253890
     8  C    6.283771   6.322513   4.979599   3.637856   3.615662
     9  C    7.235227   7.095250   5.619112   4.432614   4.733800
    10  C    8.548842   8.471904   7.010202   5.801981   5.998299
    11  C    9.011494   9.114515   7.753396   6.435399   6.354610
    12  C    8.275307   8.534551   7.310050   5.922719   5.579371
    13  C    6.908455   7.170100   5.990290   4.590046   4.188162
    14  C    4.335931   3.996010   2.501402   1.415683   2.281639
    15  N    2.629083   1.879622   2.766764   3.670844   3.735841
    16  C    3.933744   2.805602   3.110678   4.103185   4.430593
    17  C    2.952740   2.821792   3.406980   3.776816   3.324658
    18  O    2.565399   1.450854   2.501612   3.828239   4.518173
    19  H    3.405252   2.251907   1.022670   2.088797   3.259786
    20  H    7.099694   6.775794   5.230828   4.233423   4.826177
    21  H    9.334241   9.158057   7.647292   6.538300   6.880360
    22  H   10.079635  10.198033   8.833160   7.520490   7.428759
    23  H    8.884097   9.260637   8.131406   6.728060   6.221517
    24  H    6.488060   6.908033   5.912052   4.515997   3.820867
    25  H    4.973471   4.441127   2.892341   2.242875   3.314133
    26  H    4.198654   2.887642   3.263701   4.482593   5.050307
    27  H    4.717386   3.748120   4.159681   5.048665   5.208017
    28  H    4.200579   3.071917   2.788900   3.548926   3.933157
    29  H    2.565816   2.964583   3.811119   4.078276   3.445522
    30  H    3.191992   3.022872   3.061901   3.088948   2.519712
    31  H    3.977664   3.766019   4.346598   4.741495   4.272720
    32  H    2.875266   2.330531   3.586047   4.573298   4.611458
                    6          7          8          9         10
     6  O    0.000000
     7  C    1.357575   0.000000
     8  C    2.407780   1.460213   0.000000
     9  C    3.690787   2.483152   1.405489   0.000000
    10  C    4.831097   3.760742   2.425600   1.393293   0.000000
    11  C    5.035653   4.262863   2.802661   2.419407   1.397087
    12  C    4.194167   3.764973   2.426337   2.795314   2.418896
    13  C    2.802201   2.489557   1.406773   2.427806   2.795373
    14  C    2.221926   1.370228   2.601345   3.120275   4.510288
    15  N    5.107259   5.721845   7.162670   8.031426   9.389097
    16  C    5.690236   6.083800   7.473993   8.167107   9.519143
    17  C    4.580615   5.484100   6.842231   7.891409   9.175278
    18  O    5.789105   5.959462   7.375675   7.965519   9.349636
    19  H    4.214864   3.978227   5.310564   5.711233   7.096808
    20  H    4.041800   2.701766   2.164290   1.085487   2.149516
    21  H    5.792995   4.629581   3.407307   2.148221   1.086017
    22  H    6.095977   5.348912   3.888711   3.402871   2.156733
    23  H    4.829999   4.635638   3.408263   3.881498   3.404865
    24  H    2.460625   2.706598   2.161790   3.411331   3.879944
    25  H    3.274232   2.215770   3.065887   3.097914   4.452082
    26  H    6.313458   6.541854   7.936607   8.502365   9.873575
    27  H    6.438329   6.936057   8.294502   9.030772  10.354740
    28  H    5.052602   5.341996   6.668810   7.308076   8.633599
    29  H    4.666950   5.697132   7.031089   8.170258   9.428612
    30  H    3.667075   4.572092   5.881812   6.940229   8.195532
    31  H    5.440753   6.362073   7.671971   8.715040   9.971236
    32  H    5.998200   6.651901   8.100460   8.982707  10.345035
                   11         12         13         14         15
    11  C    0.000000
    12  C    1.397413   0.000000
    13  C    2.419658   1.393342   0.000000
    14  C    5.299039   5.015929   3.817108   0.000000
    15  N    9.943771   9.264509   7.884924   5.022026   0.000000
    16  C   10.195115   9.656382   8.327392   5.249987   1.499077
    17  C    9.534745   8.694943   7.325336   5.137044   1.500196
    18  O   10.128390   9.678784   8.350660   4.880512   2.609123
    19  H    7.991343   7.716166   6.467316   2.720440   3.298996
    20  H    3.400813   3.880768   3.414197   2.827796   7.779172
    21  H    2.157939   3.404570   3.881385   5.175200  10.120509
    22  H    1.086051   2.156768   3.402954   6.368831  11.024368
    23  H    2.158670   1.086186   2.148174   5.945837   9.914182
    24  H    3.402346   2.152078   1.084574   4.067153   7.504046
    25  H    5.470418   5.455892   4.424796   1.079127   5.579737
    26  H   10.660208  10.221991   8.906145   5.531668   2.119467
    27  H   10.973167  10.383440   9.063988   6.204487   2.096906
    28  H    9.324887   8.839871   7.551736   4.545414   2.121511
    29  H    9.696227   8.766760   7.393670   5.461252   2.112536
    30  H    8.534106   7.706260   6.352941   4.349509   2.128398
    31  H   10.300498   9.442959   8.103141   6.052108   2.096913
    32  H   10.889734  10.182741   8.794624   5.937370   1.036542
                   16         17         18         19         20
    16  C    0.000000
    17  C    2.511162   0.000000
    18  O    3.092554   3.931449   0.000000
    19  H    3.238245   4.169557   2.547194   0.000000
    20  H    7.788799   7.834981   7.484922   5.141300   0.000000
    21  H   10.150998  10.011149   9.923041   7.606914   2.468099
    22  H   11.260244  10.593437  11.201780   9.050023   4.295951
    23  H   10.379519   9.216973  10.469168   8.613376   4.966952
    24  H    8.082063   6.785145   8.190451   6.536664   4.312412
    25  H    5.625203   5.915836   5.044641   2.726237   2.451217
    26  H    1.089495   3.436315   2.640273   3.115896   8.003980
    27  H    1.090309   2.731777   4.008087   4.317522   8.696314
    28  H    1.088681   2.739489   3.575394   2.860693   6.932248
    29  H    3.427015   1.087315   4.132501   4.689230   8.193648
    30  H    2.805699   1.089387   4.284272   3.855410   6.934090
    31  H    2.676789   1.090265   4.693009   5.002884   8.666149
    32  H    2.069275   2.064878   2.678816   4.061143   8.721712
                   21         22         23         24         25
    21  H    0.000000
    22  H    2.487055   0.000000
    23  H    4.304642   2.487526   0.000000
    24  H    4.965958   4.298180   2.472479   0.000000
    25  H    4.910336   6.488660   6.465927   4.867800   0.000000
    26  H   10.426400  11.725575  11.007982   8.746161   5.725192
    27  H   11.005358  12.026265  11.053948   8.755676   6.623593
    28  H    9.247113  10.374782   9.588242   7.379872   4.913717
    29  H   10.314189  10.747802   9.216924   6.752852   6.303863
    30  H    9.042237   9.584855   8.241558   5.846434   5.191741
    31  H   10.803464  11.341433   9.923355   7.535692   6.810076
    32  H   11.077982  11.972259  10.807066   8.369641   6.464047
                   26         27         28         29         30
    26  H    0.000000
    27  H    1.785329   0.000000
    28  H    1.797869   1.789265   0.000000
    29  H    4.219646   3.669729   3.745454   0.000000
    30  H    3.773479   3.175334   2.591926   1.790795   0.000000
    31  H    3.670715   2.441715   2.993142   1.787175   1.793624
    32  H    2.400185   2.356109   2.964828   2.341694   2.965007
                   31         32
    31  H    0.000000
    32  H    2.397582   0.000000
 Symmetry turned off by external request.
 Stoichiometry    C11H14N3O3S(1+)
 Framework group  C1[X(C11H14N3O3S)]
 Deg. of freedom    90
 Full point group                 C1      NOp   1
 Rotational constants (GHZ):           1.1765712           0.1517322           0.1465412
 Leave Link  202 at Thu Sep 24 06:49:45 2020, MaxMem=  2147483648 cpu:               0.0 elap:               0.0
 (Enter /prod/apps/gaussian/g16b1/l301.exe)
 Standard basis: 6-31G(d) (6D, 7F)
 Ernie: Thresh=  0.10000D-02 Tol=  0.10000D-05 Strict=F.
   302 basis functions,   584 primitive gaussians,   302 cartesian basis functions
    70 alpha electrons       70 beta electrons
       nuclear repulsion energy      1461.5527389552 Hartrees.
 IExCor=  402 DFT=T Ex+Corr=B3LYP ExCW=0 ScaHFX=  0.200000
 ScaDFX=  0.800000  0.720000  1.000000  0.810000 ScalE2=  1.000000  1.000000
 IRadAn=      5 IRanWt=     -1 IRanGd=            0 ICorTp=0 IEmpDi=  4
 NAtoms=   32 NActive=   32 NUniq=   32 SFac= 1.00D+00 NAtFMM=   60 NAOKFM=F Big=F
 Integral buffers will be    131072 words long.
 Raffenetti 2 integral format.
 Two-electron integral symmetry is turned off.
 Using the following non-standard input for PCM:
 MSTModel=DFT cav MSTcharged
 --- end of non-standard input.
 MST model for solvation energy: B3LYP parametrization.
 MST cavity parameters:
 ISph   IAn     Re0     Alpha   Atom Type   QCorr
 ------------------------------------------------
   1      8     1.40     1.25      O          F
   2     16     1.75     1.25      S          F
   3      7     1.50     1.25      NH         F
   4      6     1.50     1.25      C          F
   5      7     1.40     1.25      N          F
   6      8     1.40     1.25      O          F
   7      6     1.50     1.25      C          F
   8      6     1.50     1.25      C          F
   9      6     1.50     1.25      CH         F
  10      6     1.50     1.25      CH         F
  11      6     1.50     1.25      CH         F
  12      6     1.50     1.25      CH         F
  13      6     1.50     1.25      CH         F
  14      6     1.50     1.25      CH         F
  15      7     1.50     1.15      NH         T
  16      6     1.50     1.25      CH3        F
  17      6     1.50     1.25      CH3        F
  18      8     1.40     1.25      O          F
  19      1     0.90     1.25      NH         F
  20      1     1.20     1.25      CH         F
  21      1     1.20     1.25      CH         F
  22      1     1.20     1.25      CH         F
  23      1     1.20     1.25      CH         F
  24      1     1.20     1.25      CH         F
  25      1     1.20     1.25      CH         F
  26      1     1.20     1.25      CH3        F
  27      1     1.20     1.25      CH3        F
  28      1     1.20     1.25      CH3        F
  29      1     1.20     1.25      CH3        F
  30      1     1.20     1.25      CH3        F
  31      1     1.20     1.25      CH3        F
  32      1     0.90     1.15      NH         T
 ------------------------------------------------------------------------------
 Polarizable Continuum Model (PCM)
 =================================
 Model                : PCM.
 Atomic radii         : MST.
 Polarization charges : Total charges.
 Charge compensation  : None.
 Solution method      : On-the-fly selection.
 Cavity type          : Scaled VdW (van der Waals Surface) (Alpha=1.250).
 Cavity algorithm     : GePol (No added spheres)
                        Default sphere list used, NSphG=   32.
                        Lebedev-Laikov grids with approx.  5.0 points / Ang**2.
                        Smoothing algorithm: York/Karplus (Gamma=1.0000).
                        Polarization charges: spherical gaussians, with
                                              point-specific exponents (IZeta= 3).
                        Self-potential: point-specific (ISelfS= 7).
                        Self-field    : sphere-specific E.n sum rule (ISelfD= 2).
 1st derivatives      : Analytical E(r).r(x)/FMM algorithm (CHGder, D1EAlg=3).
                        Cavity 1st derivative terms included.
 Solvent              : Water, Eps=  78.355300 Eps(inf)=   1.777849
 ------------------------------------------------------------------------------
 GePol: Number of generator spheres                  =      32
 GePol: Total number of spheres                      =      32
 GePol: Number of exposed spheres                    =      32 (100.00%)
 GePol: Number of points                             =    2402
 GePol: Average weight of points                     =       0.13
 GePol: Minimum weight of points                     =   0.53D-09
 GePol: Maximum weight of points                     =    0.22001
 GePol: Number of points with low weight             =     161
 GePol: Fraction of low-weight points (<1% of avg)   =       6.70%
 GePol: Cavity surface area                          =    308.100 Ang**2
 GePol: Cavity volume                                =    294.148 Ang**3
 PCM non-electrostatic energy =         0.0030203533 Hartrees.
 Nuclear repulsion after PCM non-electrostatic terms =     1461.5557593086 Hartrees.
 Leave Link  301 at Thu Sep 24 06:49:45 2020, MaxMem=  2147483648 cpu:               0.3 elap:               0.1
 (Enter /prod/apps/gaussian/g16b1/l302.exe)
 NPDir=0 NMtPBC=     1 NCelOv=     1 NCel=       1 NClECP=     1 NCelD=      1
         NCelK=      1 NCelE2=     1 NClLst=     1 CellRange=     0.0.
 One-electron integrals computed using PRISM.
 NBasis=   302 RedAO= T EigKep=  4.63D-04  NBF=   302
 NBsUse=   302 1.00D-06 EigRej= -1.00D+00 NBFU=   302
 Precomputing XC quadrature grid using
 IXCGrd= 4 IRadAn=           5 IRanWt=          -1 IRanGd=           0 AccXCQ= 0.00D+00.
 Generated NRdTot=       0 NPtTot=           0 NUsed=           0 NTot=          32
 NSgBfM=   299   299   299   299   299 MxSgAt=    32 MxSgA2=    32.
 Leave Link  302 at Thu Sep 24 06:49:45 2020, MaxMem=  2147483648 cpu:               1.4 elap:               0.4
 (Enter /prod/apps/gaussian/g16b1/l303.exe)
 DipDrv:  MaxL=1.
 Leave Link  303 at Thu Sep 24 06:49:45 2020, MaxMem=  2147483648 cpu:               0.1 elap:               0.1
 (Enter /prod/apps/gaussian/g16b1/l401.exe)
 ExpMin= 1.17D-01 ExpMax= 2.19D+04 ExpMxC= 3.30D+03 IAcc=3 IRadAn=         5 AccDes= 0.00D+00
 Harris functional with IExCor=  402 and IRadAn=       5 diagonalized for initial guess.
 HarFok:  IExCor=  402 AccDes= 0.00D+00 IRadAn=         5 IDoV= 1 UseB2=F ITyADJ=14
 ICtDFT=  3500011 ScaDFX=  1.000000  1.000000  1.000000  1.000000
 FoFCou: FMM=F IPFlag=           0 FMFlag=      100000 FMFlg1=           0
         NFxFlg=           0 DoJE=T BraDBF=F KetDBF=T FulRan=T
         wScrn=  0.000000 ICntrl=       500 IOpCl=  0 I1Cent=   200000004 NGrid=           0
         NMat0=    1 NMatS0=      1 NMatT0=    0 NMatD0=    1 NMtDS0=    0 NMtDT0=    0
 Symmetry not used in FoFCou.
 Harris En= -1215.40530566931    
 JPrj=0 DoOrth=F DoCkMO=F.
 Leave Link  401 at Thu Sep 24 06:49:47 2020, MaxMem=  2147483648 cpu:               8.0 elap:               2.0
 (Enter /prod/apps/gaussian/g16b1/l502.exe)
 Two-electron integral symmetry not used.
 Closed shell SCF:
 Using DIIS extrapolation, IDIIS=  1040.
 NGot=  2147483648 LenX=  2147296760 LenY=  2147205115
 Requested convergence on RMS density matrix=1.00D-08 within2000 cycles.
 Requested convergence on MAX density matrix=1.00D-06.
 Requested convergence on             energy=1.00D-06.
 No special actions if energy rises.

 Cycle   1  Pass 1  IDiag  1:
 FoFJK:  IHMeth= 1 ICntrl=       0 DoSepK=F KAlg= 0 I1Cent=           0 FoldK=F
 IRaf= 750000000 NMat=       1 IRICut=       1 DoRegI=T DoRafI=F ISym2E= 0 IDoP0=0 IntGTp=1.
 FoFCou: FMM=F IPFlag=           0 FMFlag=      100000 FMFlg1=           0
         NFxFlg=           0 DoJE=F BraDBF=F KetDBF=F FulRan=T
         wScrn=  0.000000 ICntrl=         0 IOpCl=  0 I1Cent=           0 NGrid=           0
         NMat0=    1 NMatS0=      1 NMatT0=    0 NMatD0=    1 NMtDS0=    0 NMtDT0=    0
 Symmetry not used in FoFCou.
 Inv3:  Mode=1 IEnd=    17308812.
 Iteration    1 A*A^-1 deviation from unit magnitude is 2.89D-15 for    369.
 Iteration    1 A*A^-1 deviation from orthogonality  is 2.95D-15 for   2055    941.
 Iteration    1 A^-1*A deviation from unit magnitude is 2.89D-15 for   1899.
 Iteration    1 A^-1*A deviation from orthogonality  is 1.95D-15 for   1198    381.
 E= -1214.90609187812    
 DIIS: error= 3.37D-02 at cycle   1 NSaved=   1.
 NSaved= 1 IEnMin= 1 EnMin= -1214.90609187812     IErMin= 1 ErrMin= 3.37D-02
 ErrMax= 3.37D-02  0.00D+00 EMaxC= 1.00D-01 BMatC= 6.12D-01 BMatP= 6.12D-01
 IDIUse=3 WtCom= 6.63D-01 WtEn= 3.37D-01
 Coeff-Com:  0.100D+01
 Coeff-En:   0.100D+01
 Coeff:      0.100D+01
 Gap=     0.293 Goal=   None    Shift=    0.000
 GapD=    0.293 DampG=1.000 DampE=0.500 DampFc=0.5000 IDamp=-1.
 Damping current iteration by 5.00D-01
 RMSDP=6.43D-03 MaxDP=6.66D-01              OVMax= 2.50D-01

 Cycle   2  Pass 1  IDiag  1:
 E= -1215.00900009201     Delta-E=       -0.102908213893 Rises=F Damp=T
 DIIS: error= 1.93D-02 at cycle   2 NSaved=   2.
 NSaved= 2 IEnMin= 2 EnMin= -1215.00900009201     IErMin= 2 ErrMin= 1.93D-02
 ErrMax= 1.93D-02  0.00D+00 EMaxC= 1.00D-01 BMatC= 1.19D-01 BMatP= 6.12D-01
 IDIUse=3 WtCom= 8.07D-01 WtEn= 1.93D-01
 Coeff-Com:  0.257D+00 0.743D+00
 Coeff-En:   0.404D+00 0.596D+00
 Coeff:      0.286D+00 0.714D+00
 Gap=     0.172 Goal=   None    Shift=    0.000
 RMSDP=1.89D-03 MaxDP=1.50D-01 DE=-1.03D-01 OVMax= 2.28D-01

 Cycle   3  Pass 1  IDiag  1:
 E= -1215.39485703217     Delta-E=       -0.385856940161 Rises=F Damp=F
 DIIS: error= 9.64D-03 at cycle   3 NSaved=   3.
 NSaved= 3 IEnMin= 3 EnMin= -1215.39485703217     IErMin= 3 ErrMin= 9.64D-03
 ErrMax= 9.64D-03  0.00D+00 EMaxC= 1.00D-01 BMatC= 5.34D-02 BMatP= 1.19D-01
 IDIUse=3 WtCom= 9.04D-01 WtEn= 9.64D-02
 Coeff-Com:  0.852D-01 0.400D+00 0.515D+00
 Coeff-En:   0.000D+00 0.000D+00 0.100D+01
 Coeff:      0.770D-01 0.361D+00 0.562D+00
 Gap=     0.185 Goal=   None    Shift=    0.000
 RMSDP=9.33D-04 MaxDP=3.21D-02 DE=-3.86D-01 OVMax= 6.75D-02

 Cycle   4  Pass 1  IDiag  1:
 E= -1215.43495162213     Delta-E=       -0.040094589957 Rises=F Damp=F
 DIIS: error= 3.23D-03 at cycle   4 NSaved=   4.
 NSaved= 4 IEnMin= 4 EnMin= -1215.43495162213     IErMin= 4 ErrMin= 3.23D-03
 ErrMax= 3.23D-03  0.00D+00 EMaxC= 1.00D-01 BMatC= 7.64D-03 BMatP= 5.34D-02
 IDIUse=3 WtCom= 9.68D-01 WtEn= 3.23D-02
 Coeff-Com:  0.636D-02 0.896D-01 0.294D+00 0.610D+00
 Coeff-En:   0.000D+00 0.000D+00 0.103D+00 0.897D+00
 Coeff:      0.615D-02 0.867D-01 0.288D+00 0.619D+00
 Gap=     0.182 Goal=   None    Shift=    0.000
 RMSDP=3.18D-04 MaxDP=1.37D-02 DE=-4.01D-02 OVMax= 2.25D-02

 Cycle   5  Pass 1  IDiag  1:
 E= -1215.44080925799     Delta-E=       -0.005857635865 Rises=F Damp=F
 DIIS: error= 1.13D-03 at cycle   5 NSaved=   5.
 NSaved= 5 IEnMin= 5 EnMin= -1215.44080925799     IErMin= 5 ErrMin= 1.13D-03
 ErrMax= 1.13D-03  0.00D+00 EMaxC= 1.00D-01 BMatC= 8.98D-04 BMatP= 7.64D-03
 IDIUse=3 WtCom= 9.89D-01 WtEn= 1.13D-02
 Coeff-Com: -0.391D-02 0.217D-01 0.119D+00 0.353D+00 0.510D+00
 Coeff-En:   0.000D+00 0.000D+00 0.000D+00 0.417D-01 0.958D+00
 Coeff:     -0.387D-02 0.214D-01 0.118D+00 0.349D+00 0.515D+00
 Gap=     0.182 Goal=   None    Shift=    0.000
 RMSDP=1.12D-04 MaxDP=5.95D-03 DE=-5.86D-03 OVMax= 1.10D-02

 Cycle   6  Pass 1  IDiag  1:
 E= -1215.44152986909     Delta-E=       -0.000720611094 Rises=F Damp=F
 DIIS: error= 4.96D-04 at cycle   6 NSaved=   6.
 NSaved= 6 IEnMin= 6 EnMin= -1215.44152986909     IErMin= 6 ErrMin= 4.96D-04
 ErrMax= 4.96D-04  0.00D+00 EMaxC= 1.00D-01 BMatC= 8.38D-05 BMatP= 8.98D-04
 IDIUse=3 WtCom= 9.95D-01 WtEn= 4.96D-03
 Coeff-Com: -0.293D-02 0.537D-02 0.393D-01 0.139D+00 0.296D+00 0.523D+00
 Coeff-En:   0.000D+00 0.000D+00 0.000D+00 0.000D+00 0.221D-01 0.978D+00
 Coeff:     -0.291D-02 0.535D-02 0.391D-01 0.138D+00 0.295D+00 0.526D+00
 Gap=     0.182 Goal=   None    Shift=    0.000
 RMSDP=3.19D-05 MaxDP=2.05D-03 DE=-7.21D-04 OVMax= 3.60D-03

 Cycle   7  Pass 1  IDiag  1:
 E= -1215.44159770389     Delta-E=       -0.000067834802 Rises=F Damp=F
 DIIS: error= 1.28D-04 at cycle   7 NSaved=   7.
 NSaved= 7 IEnMin= 7 EnMin= -1215.44159770389     IErMin= 7 ErrMin= 1.28D-04
 ErrMax= 1.28D-04  0.00D+00 EMaxC= 1.00D-01 BMatC= 7.95D-06 BMatP= 8.38D-05
 IDIUse=3 WtCom= 9.99D-01 WtEn= 1.28D-03
 EnCoef did     1 forward-backward iterations
 Coeff-Com: -0.153D-02 0.103D-02 0.116D-01 0.478D-01 0.124D+00 0.308D+00
 Coeff-Com:  0.509D+00
 Coeff-En:   0.000D+00 0.000D+00 0.000D+00 0.000D+00 0.000D+00 0.492D-02
 Coeff-En:   0.995D+00
 Coeff:     -0.153D-02 0.103D-02 0.116D-01 0.478D-01 0.124D+00 0.307D+00
 Coeff:      0.510D+00
 Gap=     0.182 Goal=   None    Shift=    0.000
 RMSDP=8.45D-06 MaxDP=5.03D-04 DE=-6.78D-05 OVMax= 5.56D-04

 Cycle   8  Pass 1  IDiag  1:
 E= -1215.44160383213     Delta-E=       -0.000006128237 Rises=F Damp=F
 DIIS: error= 4.44D-05 at cycle   8 NSaved=   8.
 NSaved= 8 IEnMin= 8 EnMin= -1215.44160383213     IErMin= 8 ErrMin= 4.44D-05
 ErrMax= 4.44D-05  0.00D+00 EMaxC= 1.00D-01 BMatC= 3.88D-07 BMatP= 7.95D-06
 IDIUse=1 WtCom= 1.00D+00 WtEn= 0.00D+00
 Coeff-Com: -0.442D-03 0.451D-04 0.121D-02 0.749D-02 0.272D-01 0.956D-01
 Coeff-Com:  0.232D+00 0.637D+00
 Coeff:     -0.442D-03 0.451D-04 0.121D-02 0.749D-02 0.272D-01 0.956D-01
 Coeff:      0.232D+00 0.637D+00
 Gap=     0.182 Goal=   None    Shift=    0.000
 RMSDP=2.19D-06 MaxDP=1.04D-04 DE=-6.13D-06 OVMax= 1.12D-04

 Cycle   9  Pass 1  IDiag  1:
 E= -1215.44160412386     Delta-E=       -0.000000291735 Rises=F Damp=F
 DIIS: error= 7.83D-06 at cycle   9 NSaved=   9.
 NSaved= 9 IEnMin= 9 EnMin= -1215.44160412386     IErMin= 9 ErrMin= 7.83D-06
 ErrMax= 7.83D-06  0.00D+00 EMaxC= 1.00D-01 BMatC= 4.66D-08 BMatP= 3.88D-07
 IDIUse=1 WtCom= 1.00D+00 WtEn= 0.00D+00
 Coeff-Com: -0.703D-04-0.456D-04-0.581D-03-0.123D-02 0.373D-03 0.152D-01
 Coeff-Com:  0.556D-01 0.310D+00 0.621D+00
 Coeff:     -0.703D-04-0.456D-04-0.581D-03-0.123D-02 0.373D-03 0.152D-01
 Coeff:      0.556D-01 0.310D+00 0.621D+00
 Gap=     0.182 Goal=   None    Shift=    0.000
 RMSDP=7.87D-07 MaxDP=2.52D-05 DE=-2.92D-07 OVMax= 5.11D-05

 Cycle  10  Pass 1  IDiag  1:
 E= -1215.44160416004     Delta-E=       -0.000000036172 Rises=F Damp=F
 DIIS: error= 4.16D-06 at cycle  10 NSaved=  10.
 NSaved=10 IEnMin=10 EnMin= -1215.44160416004     IErMin=10 ErrMin= 4.16D-06
 ErrMax= 4.16D-06  0.00D+00 EMaxC= 1.00D-01 BMatC= 4.96D-09 BMatP= 4.66D-08
 IDIUse=1 WtCom= 1.00D+00 WtEn= 0.00D+00
 Coeff-Com: -0.159D-04-0.233D-04-0.405D-03-0.114D-02-0.159D-02 0.232D-02
 Coeff-Com:  0.147D-01 0.129D+00 0.339D+00 0.518D+00
 Coeff:     -0.159D-04-0.233D-04-0.405D-03-0.114D-02-0.159D-02 0.232D-02
 Coeff:      0.147D-01 0.129D+00 0.339D+00 0.518D+00
 Gap=     0.182 Goal=   None    Shift=    0.000
 RMSDP=2.56D-07 MaxDP=1.15D-05 DE=-3.62D-08 OVMax= 2.30D-05

 Cycle  11  Pass 1  IDiag  1:
 E= -1215.44160416449     Delta-E=       -0.000000004458 Rises=F Damp=F
 DIIS: error= 6.59D-07 at cycle  11 NSaved=  11.
 NSaved=11 IEnMin=11 EnMin= -1215.44160416449     IErMin=11 ErrMin= 6.59D-07
 ErrMax= 6.59D-07  0.00D+00 EMaxC= 1.00D-01 BMatC= 2.27D-10 BMatP= 4.96D-09
 IDIUse=1 WtCom= 1.00D+00 WtEn= 0.00D+00
 Coeff-Com: -0.129D-06 0.232D-05-0.100D-03-0.314D-03-0.738D-03-0.825D-03
 Coeff-Com: -0.112D-02 0.159D-01 0.581D-01 0.188D+00 0.741D+00
 Coeff:     -0.129D-06 0.232D-05-0.100D-03-0.314D-03-0.738D-03-0.825D-03
 Coeff:     -0.112D-02 0.159D-01 0.581D-01 0.188D+00 0.741D+00
 Gap=     0.182 Goal=   None    Shift=    0.000
 RMSDP=6.05D-08 MaxDP=2.24D-06 DE=-4.46D-09 OVMax= 5.32D-06

 Cycle  12  Pass 1  IDiag  1:
 E= -1215.44160416469     Delta-E=       -0.000000000195 Rises=F Damp=F
 DIIS: error= 2.87D-07 at cycle  12 NSaved=  12.
 NSaved=12 IEnMin=12 EnMin= -1215.44160416469     IErMin=12 ErrMin= 2.87D-07
 ErrMax= 2.87D-07  0.00D+00 EMaxC= 1.00D-01 BMatC= 3.49D-11 BMatP= 2.27D-10
 IDIUse=1 WtCom= 1.00D+00 WtEn= 0.00D+00
 Coeff-Com:  0.671D-06 0.267D-05-0.302D-04-0.969D-04-0.306D-03-0.597D-03
 Coeff-Com: -0.164D-02-0.493D-04 0.820D-02 0.615D-01 0.382D+00 0.552D+00
 Coeff:      0.671D-06 0.267D-05-0.302D-04-0.969D-04-0.306D-03-0.597D-03
 Coeff:     -0.164D-02-0.493D-04 0.820D-02 0.615D-01 0.382D+00 0.552D+00
 Gap=     0.182 Goal=   None    Shift=    0.000
 RMSDP=2.21D-08 MaxDP=1.00D-06 DE=-1.95D-10 OVMax= 1.69D-06

 Cycle  13  Pass 1  IDiag  1:
 E= -1215.44160416471     Delta-E=       -0.000000000024 Rises=F Damp=F
 DIIS: error= 8.67D-08 at cycle  13 NSaved=  13.
 NSaved=13 IEnMin=13 EnMin= -1215.44160416471     IErMin=13 ErrMin= 8.67D-08
 ErrMax= 8.67D-08  0.00D+00 EMaxC= 1.00D-01 BMatC= 4.53D-12 BMatP= 3.49D-11
 IDIUse=1 WtCom= 1.00D+00 WtEn= 0.00D+00
 Coeff-Com:  0.285D-06 0.122D-05-0.341D-05-0.104D-04-0.701D-04-0.204D-03
 Coeff-Com: -0.729D-03-0.213D-02-0.361D-02 0.617D-02 0.993D-01 0.303D+00
 Coeff-Com:  0.598D+00
 Coeff:      0.285D-06 0.122D-05-0.341D-05-0.104D-04-0.701D-04-0.204D-03
 Coeff:     -0.729D-03-0.213D-02-0.361D-02 0.617D-02 0.993D-01 0.303D+00
 Coeff:      0.598D+00
 Gap=     0.182 Goal=   None    Shift=    0.000
 RMSDP=8.25D-09 MaxDP=4.08D-07 DE=-2.36D-11 OVMax= 5.43D-07

 Error on total polarization charges =  0.01895
 SCF Done:  E(RB3LYP) =  -1215.44160416     A.U. after   13 cycles
            NFock= 13  Conv=0.82D-08     -V/T= 2.0077
 KE= 1.206108636375D+03 PE=-5.750038087961D+03 EE= 1.866932088112D+03
 Leave Link  502 at Thu Sep 24 06:50:46 2020, MaxMem=  2147483648 cpu:             235.8 elap:              59.1
 (Enter /prod/apps/gaussian/g16b1/l601.exe)
 Copying SCF densities to generalized density rwf, IOpCl= 0 IROHF=0.

 **********************************************************************

            Population analysis using the SCF Density.

 **********************************************************************

 Alpha  occ. eigenvalues --  -89.18903 -19.25421 -19.21097 -19.20841 -14.48119
 Alpha  occ. eigenvalues --  -14.43198 -14.39958 -10.29731 -10.28101 -10.25269
 Alpha  occ. eigenvalues --  -10.24894 -10.22111 -10.21411 -10.20603 -10.20458
 Alpha  occ. eigenvalues --  -10.20153 -10.20023 -10.19998  -8.21198  -6.17665
 Alpha  occ. eigenvalues --   -6.17643  -6.17564  -1.18375  -1.16171  -1.07217
 Alpha  occ. eigenvalues --   -1.01090  -0.99646  -0.88834  -0.86631  -0.82233
 Alpha  occ. eigenvalues --   -0.76182  -0.75946  -0.75715  -0.73648  -0.70017
 Alpha  occ. eigenvalues --   -0.66119  -0.63478  -0.61318  -0.60669  -0.58711
 Alpha  occ. eigenvalues --   -0.56956  -0.55848  -0.54547  -0.52040  -0.51063
 Alpha  occ. eigenvalues --   -0.49697  -0.49320  -0.48878  -0.47330  -0.46083
 Alpha  occ. eigenvalues --   -0.45267  -0.44153  -0.43821  -0.43100  -0.42656
 Alpha  occ. eigenvalues --   -0.42119  -0.41002  -0.40653  -0.39526  -0.37984
 Alpha  occ. eigenvalues --   -0.37832  -0.37034  -0.36535  -0.36343  -0.35337
 Alpha  occ. eigenvalues --   -0.33306  -0.30632  -0.28865  -0.26338  -0.24255
 Alpha virt. eigenvalues --   -0.06039  -0.04398  -0.01300  -0.00211   0.03417
 Alpha virt. eigenvalues --    0.04655   0.05172   0.06182   0.07522   0.07789
 Alpha virt. eigenvalues --    0.09907   0.10627   0.10963   0.12320   0.12558
 Alpha virt. eigenvalues --    0.13617   0.14538   0.15022   0.15560   0.15766
 Alpha virt. eigenvalues --    0.16449   0.16701   0.17377   0.18205   0.19061
 Alpha virt. eigenvalues --    0.19223   0.22600   0.24613   0.24953   0.28575
 Alpha virt. eigenvalues --    0.28888   0.29769   0.31835   0.32529   0.34621
 Alpha virt. eigenvalues --    0.36815   0.38491   0.41830   0.43049   0.43200
 Alpha virt. eigenvalues --    0.45634   0.46206   0.48296   0.49743   0.50957
 Alpha virt. eigenvalues --    0.51698   0.52465   0.52904   0.53206   0.54758
 Alpha virt. eigenvalues --    0.55148   0.55619   0.57524   0.57709   0.58130
 Alpha virt. eigenvalues --    0.58617   0.59038   0.60277   0.61054   0.61396
 Alpha virt. eigenvalues --    0.62091   0.63846   0.64372   0.65687   0.67199
 Alpha virt. eigenvalues --    0.67805   0.70003   0.70699   0.71463   0.73290
 Alpha virt. eigenvalues --    0.75051   0.76334   0.77289   0.78024   0.78987
 Alpha virt. eigenvalues --    0.81011   0.81385   0.82165   0.83000   0.83364
 Alpha virt. eigenvalues --    0.84427   0.84664   0.85154   0.85969   0.86443
 Alpha virt. eigenvalues --    0.87507   0.89091   0.89680   0.90168   0.91084
 Alpha virt. eigenvalues --    0.91214   0.93137   0.93674   0.94158   0.94835
 Alpha virt. eigenvalues --    0.96556   0.97435   0.98401   0.99625   1.00634
 Alpha virt. eigenvalues --    1.02586   1.02841   1.04241   1.06211   1.08361
 Alpha virt. eigenvalues --    1.09800   1.10412   1.13003   1.13879   1.14828
 Alpha virt. eigenvalues --    1.15953   1.16820   1.17537   1.22281   1.23633
 Alpha virt. eigenvalues --    1.24043   1.26955   1.27510   1.30429   1.31356
 Alpha virt. eigenvalues --    1.34093   1.35973   1.37787   1.39953   1.40761
 Alpha virt. eigenvalues --    1.42031   1.42715   1.43484   1.46176   1.46837
 Alpha virt. eigenvalues --    1.47867   1.48071   1.49874   1.50399   1.52487
 Alpha virt. eigenvalues --    1.55428   1.58542   1.61597   1.67596   1.70492
 Alpha virt. eigenvalues --    1.72391   1.74410   1.75392   1.77410   1.77556
 Alpha virt. eigenvalues --    1.78233   1.79453   1.80039   1.81658   1.82301
 Alpha virt. eigenvalues --    1.85836   1.87605   1.88183   1.89148   1.91002
 Alpha virt. eigenvalues --    1.92113   1.93438   1.94317   1.95984   1.97408
 Alpha virt. eigenvalues --    1.98052   1.99158   2.00318   2.03351   2.03861
 Alpha virt. eigenvalues --    2.05958   2.06460   2.07991   2.09799   2.11547
 Alpha virt. eigenvalues --    2.12845   2.13939   2.15618   2.16142   2.18966
 Alpha virt. eigenvalues --    2.19965   2.20659   2.22614   2.24309   2.24983
 Alpha virt. eigenvalues --    2.26742   2.27665   2.29650   2.30323   2.32432
 Alpha virt. eigenvalues --    2.33230   2.34966   2.40291   2.41863   2.49563
 Alpha virt. eigenvalues --    2.52130   2.52643   2.53936   2.55836   2.57639
 Alpha virt. eigenvalues --    2.59239   2.61762   2.64698   2.65235   2.66009
 Alpha virt. eigenvalues --    2.70472   2.72021   2.73690   2.74200   2.75652
 Alpha virt. eigenvalues --    2.79136   2.87149   2.88091   2.90776   3.01982
 Alpha virt. eigenvalues --    3.03873   3.12172   3.25940   3.42025   3.72225
 Alpha virt. eigenvalues --    3.80504   3.91043   3.99897   4.03451   4.06772
 Alpha virt. eigenvalues --    4.07816   4.09405   4.10567   4.13245   4.22953
 Alpha virt. eigenvalues --    4.26924   4.29290   4.31467   4.37612   4.40086
 Alpha virt. eigenvalues --    4.55435   4.73337
          Condensed to atoms (all electrons):
               1          2          3          4          5          6
     1  O    8.168460   0.435565  -0.049443   0.005218  -0.002176   0.000029
     2  S    0.435565  13.506209   0.179500  -0.011018   0.003456  -0.000169
     3  N   -0.049443   0.179500   7.395530   0.191862  -0.072162   0.005513
     4  C    0.005218  -0.011018   0.191862   4.490248   0.397967  -0.037401
     5  N   -0.002176   0.003456  -0.072162   0.397967   6.920263   0.121568
     6  O    0.000029  -0.000169   0.005513  -0.037401   0.121568   8.189257
     7  C   -0.000005   0.000158  -0.000808  -0.019040  -0.081057   0.242143
     8  C    0.000000  -0.000006  -0.000206   0.002701   0.004341  -0.037158
     9  C   -0.000000   0.000000   0.000003   0.000601  -0.000101   0.002951
    10  C    0.000000  -0.000000   0.000000  -0.000006   0.000001  -0.000059
    11  C    0.000000  -0.000000   0.000000   0.000000  -0.000000   0.000002
    12  C    0.000000  -0.000000  -0.000000   0.000005   0.000001   0.000262
    13  C    0.000000  -0.000000  -0.000001  -0.000363   0.000152  -0.006322
    14  C    0.000033   0.002285  -0.049372   0.458576  -0.043494  -0.086509
    15  N   -0.043128   0.096778  -0.048681  -0.000972   0.000118   0.000001
    16  C    0.001033  -0.013208   0.002263   0.000433  -0.000068   0.000000
    17  C    0.002431  -0.010708   0.000609   0.000814  -0.007374   0.000073
    18  O   -0.033743   0.452285  -0.050472   0.000500  -0.000007   0.000000
    19  H    0.000653  -0.011598   0.294195  -0.009513   0.001792  -0.000034
    20  H    0.000000  -0.000000  -0.000001   0.000063  -0.000005   0.000025
    21  H   -0.000000   0.000000  -0.000000  -0.000000  -0.000000   0.000000
    22  H   -0.000000  -0.000000  -0.000000  -0.000000   0.000000   0.000000
    23  H    0.000000   0.000000   0.000000  -0.000000   0.000000  -0.000002
    24  H    0.000000  -0.000000  -0.000000   0.000050  -0.000238   0.008939
    25  H    0.000001  -0.000119  -0.001742  -0.027850   0.004583   0.003141
    26  H    0.000031   0.002053  -0.000949   0.000004   0.000001  -0.000000
    27  H   -0.000040   0.001616   0.000109  -0.000016  -0.000002   0.000000
    28  H    0.000005  -0.005682   0.004531   0.000557  -0.000017   0.000000
    29  H    0.005980  -0.003562   0.000050  -0.000004  -0.000049   0.000001
    30  H   -0.001198  -0.002639   0.001697   0.000081   0.015165  -0.000336
    31  H    0.000149   0.001900  -0.000134  -0.000018   0.000191  -0.000001
    32  H   -0.000131  -0.006924   0.001170   0.000007  -0.000014   0.000000
               7          8          9         10         11         12
     1  O   -0.000005   0.000000  -0.000000   0.000000   0.000000   0.000000
     2  S    0.000158  -0.000006   0.000000  -0.000000  -0.000000  -0.000000
     3  N   -0.000808  -0.000206   0.000003   0.000000   0.000000  -0.000000
     4  C   -0.019040   0.002701   0.000601  -0.000006   0.000000   0.000005
     5  N   -0.081057   0.004341  -0.000101   0.000001  -0.000000   0.000001
     6  O    0.242143  -0.037158   0.002951  -0.000059   0.000002   0.000262
     7  C    4.718371   0.348846  -0.042310   0.006221   0.000848   0.004706
     8  C    0.348846   4.785722   0.535729  -0.012012  -0.033427  -0.010641
     9  C   -0.042310   0.535729   5.004202   0.518525  -0.039970  -0.041126
    10  C    0.006221  -0.012012   0.518525   4.881330   0.539736  -0.026288
    11  C    0.000848  -0.033427  -0.039970   0.539736   4.871298   0.537858
    12  C    0.004706  -0.010641  -0.041126  -0.026288   0.537858   4.887954
    13  C   -0.041182   0.473891  -0.078280  -0.041753  -0.038188   0.508709
    14  C    0.508870  -0.056764  -0.018291   0.000212   0.000014  -0.000210
    15  N   -0.000002  -0.000000   0.000000   0.000000  -0.000000   0.000000
    16  C    0.000001   0.000000  -0.000000  -0.000000   0.000000  -0.000000
    17  C   -0.000007   0.000000  -0.000000   0.000000   0.000000   0.000000
    18  O   -0.000000  -0.000000  -0.000000  -0.000000   0.000000  -0.000000
    19  H   -0.000018   0.000000  -0.000000  -0.000000  -0.000000  -0.000000
    20  H   -0.011762  -0.037368   0.358047  -0.040558   0.004457   0.000165
    21  H   -0.000201   0.003228  -0.037297   0.363398  -0.040429   0.004345
    22  H    0.000003   0.000473   0.004781  -0.041366   0.364703  -0.041218
    23  H   -0.000170   0.003211   0.000752   0.004347  -0.040422   0.363828
    24  H   -0.012292  -0.042899   0.005114   0.000205   0.004512  -0.039922
    25  H   -0.025593  -0.002923   0.001055   0.000069  -0.000000   0.000001
    26  H   -0.000000  -0.000000   0.000000   0.000000  -0.000000  -0.000000
    27  H    0.000000  -0.000000  -0.000000  -0.000000  -0.000000  -0.000000
    28  H    0.000001   0.000000  -0.000000  -0.000000   0.000000  -0.000000
    29  H    0.000000   0.000000  -0.000000  -0.000000   0.000000   0.000000
    30  H    0.000039   0.000000   0.000000  -0.000000  -0.000000  -0.000000
    31  H    0.000000  -0.000000   0.000000  -0.000000  -0.000000  -0.000000
    32  H    0.000000   0.000000  -0.000000  -0.000000   0.000000   0.000000
              13         14         15         16         17         18
     1  O    0.000000   0.000033  -0.043128   0.001033   0.002431  -0.033743
     2  S   -0.000000   0.002285   0.096778  -0.013208  -0.010708   0.452285
     3  N   -0.000001  -0.049372  -0.048681   0.002263   0.000609  -0.050472
     4  C   -0.000363   0.458576  -0.000972   0.000433   0.000814   0.000500
     5  N    0.000152  -0.043494   0.000118  -0.000068  -0.007374  -0.000007
     6  O   -0.006322  -0.086509   0.000001   0.000000   0.000073   0.000000
     7  C   -0.041182   0.508870  -0.000002   0.000001  -0.000007  -0.000000
     8  C    0.473891  -0.056764  -0.000000   0.000000   0.000000  -0.000000
     9  C   -0.078280  -0.018291   0.000000  -0.000000  -0.000000  -0.000000
    10  C   -0.041753   0.000212   0.000000  -0.000000   0.000000  -0.000000
    11  C   -0.038188   0.000014  -0.000000   0.000000   0.000000   0.000000
    12  C    0.508709  -0.000210   0.000000  -0.000000   0.000000  -0.000000
    13  C    5.047727   0.011014   0.000000  -0.000000  -0.000000   0.000000
    14  C    0.011014   5.191072  -0.000043  -0.000008   0.000012  -0.000039
    15  N    0.000000  -0.000043   7.120055   0.209023   0.206933  -0.045194
    16  C   -0.000000  -0.000008   0.209023   5.073596  -0.040243  -0.002594
    17  C   -0.000000   0.000012   0.206933  -0.040243   5.091374   0.001199
    18  O    0.000000  -0.000039  -0.045194  -0.002594   0.001199   8.171513
    19  H    0.000000  -0.003352   0.000459  -0.000160   0.000060   0.001560
    20  H    0.005418   0.005593   0.000000   0.000000   0.000000  -0.000000
    21  H    0.000769  -0.000001  -0.000000   0.000000  -0.000000   0.000000
    22  H    0.004669  -0.000000  -0.000000   0.000000   0.000000  -0.000000
    23  H   -0.037362   0.000001   0.000000   0.000000  -0.000000   0.000000
    24  H    0.363239   0.000223   0.000000   0.000000   0.000000  -0.000000
    25  H   -0.000080   0.356703   0.000000   0.000000   0.000000  -0.000001
    26  H    0.000000   0.000002  -0.029561   0.374578   0.003507   0.006429
    27  H   -0.000000  -0.000000  -0.025402   0.375827  -0.002518  -0.000020
    28  H   -0.000000  -0.000016  -0.032673   0.381176  -0.001152  -0.000100
    29  H   -0.000000  -0.000002  -0.026859   0.003558   0.378196  -0.000003
    30  H    0.000000   0.000101  -0.031103  -0.002092   0.368159  -0.000027
    31  H    0.000000   0.000000  -0.025977  -0.001866   0.370249  -0.000044
    32  H   -0.000000   0.000000   0.282977  -0.019945  -0.019410   0.001819
              19         20         21         22         23         24
     1  O    0.000653   0.000000  -0.000000  -0.000000   0.000000   0.000000
     2  S   -0.011598  -0.000000   0.000000  -0.000000   0.000000  -0.000000
     3  N    0.294195  -0.000001  -0.000000  -0.000000   0.000000  -0.000000
     4  C   -0.009513   0.000063  -0.000000  -0.000000  -0.000000   0.000050
     5  N    0.001792  -0.000005  -0.000000   0.000000   0.000000  -0.000238
     6  O   -0.000034   0.000025   0.000000   0.000000  -0.000002   0.008939
     7  C   -0.000018  -0.011762  -0.000201   0.000003  -0.000170  -0.012292
     8  C    0.000000  -0.037368   0.003228   0.000473   0.003211  -0.042899
     9  C   -0.000000   0.358047  -0.037297   0.004781   0.000752   0.005114
    10  C   -0.000000  -0.040558   0.363398  -0.041366   0.004347   0.000205
    11  C   -0.000000   0.004457  -0.040429   0.364703  -0.040422   0.004512
    12  C   -0.000000   0.000165   0.004345  -0.041218   0.363828  -0.039922
    13  C    0.000000   0.005418   0.000769   0.004669  -0.037362   0.363239
    14  C   -0.003352   0.005593  -0.000001  -0.000000   0.000001   0.000223
    15  N    0.000459   0.000000  -0.000000  -0.000000   0.000000   0.000000
    16  C   -0.000160   0.000000   0.000000   0.000000   0.000000   0.000000
    17  C    0.000060   0.000000  -0.000000   0.000000  -0.000000   0.000000
    18  O    0.001560  -0.000000   0.000000  -0.000000   0.000000  -0.000000
    19  H    0.253598   0.000000   0.000000   0.000000   0.000000   0.000000
    20  H    0.000000   0.551579  -0.004845  -0.000152   0.000014  -0.000133
    21  H    0.000000  -0.004845   0.554366  -0.005084  -0.000159   0.000014
    22  H    0.000000  -0.000152  -0.005084   0.557354  -0.005040  -0.000150
    23  H    0.000000   0.000014  -0.000159  -0.005040   0.554250  -0.004888
    24  H    0.000000  -0.000133   0.000014  -0.000150  -0.004888   0.550427
    25  H    0.001318   0.001715  -0.000002  -0.000000   0.000000  -0.000007
    26  H    0.000049   0.000000   0.000000  -0.000000   0.000000   0.000000
    27  H    0.000001  -0.000000   0.000000  -0.000000   0.000000  -0.000000
    28  H    0.000122  -0.000000   0.000000   0.000000  -0.000000   0.000000
    29  H   -0.000004   0.000000  -0.000000   0.000000  -0.000000   0.000000
    30  H   -0.000057  -0.000000   0.000000  -0.000000   0.000000  -0.000000
    31  H    0.000001  -0.000000   0.000000  -0.000000   0.000000  -0.000000
    32  H   -0.000000  -0.000000  -0.000000   0.000000  -0.000000  -0.000000
              25         26         27         28         29         30
     1  O    0.000001   0.000031  -0.000040   0.000005   0.005980  -0.001198
     2  S   -0.000119   0.002053   0.001616  -0.005682  -0.003562  -0.002639
     3  N   -0.001742  -0.000949   0.000109   0.004531   0.000050   0.001697
     4  C   -0.027850   0.000004  -0.000016   0.000557  -0.000004   0.000081
     5  N    0.004583   0.000001  -0.000002  -0.000017  -0.000049   0.015165
     6  O    0.003141  -0.000000   0.000000   0.000000   0.000001  -0.000336
     7  C   -0.025593  -0.000000   0.000000   0.000001   0.000000   0.000039
     8  C   -0.002923  -0.000000  -0.000000   0.000000   0.000000   0.000000
     9  C    0.001055   0.000000  -0.000000  -0.000000  -0.000000   0.000000
    10  C    0.000069   0.000000  -0.000000  -0.000000  -0.000000  -0.000000
    11  C   -0.000000  -0.000000  -0.000000   0.000000   0.000000  -0.000000
    12  C    0.000001  -0.000000  -0.000000  -0.000000   0.000000  -0.000000
    13  C   -0.000080   0.000000  -0.000000  -0.000000  -0.000000   0.000000
    14  C    0.356703   0.000002  -0.000000  -0.000016  -0.000002   0.000101
    15  N    0.000000  -0.029561  -0.025402  -0.032673  -0.026859  -0.031103
    16  C    0.000000   0.374578   0.375827   0.381176   0.003558  -0.002092
    17  C    0.000000   0.003507  -0.002518  -0.001152   0.378196   0.368159
    18  O   -0.000001   0.006429  -0.000020  -0.000100  -0.000003  -0.000027
    19  H    0.001318   0.000049   0.000001   0.000122  -0.000004  -0.000057
    20  H    0.001715   0.000000  -0.000000  -0.000000   0.000000  -0.000000
    21  H   -0.000002   0.000000   0.000000   0.000000  -0.000000   0.000000
    22  H   -0.000000  -0.000000  -0.000000   0.000000   0.000000  -0.000000
    23  H    0.000000   0.000000   0.000000  -0.000000  -0.000000   0.000000
    24  H   -0.000007   0.000000  -0.000000   0.000000   0.000000  -0.000000
    25  H    0.483837   0.000000  -0.000000   0.000000  -0.000000  -0.000003
    26  H    0.000000   0.456625  -0.020258  -0.022162  -0.000156  -0.000037
    27  H   -0.000000  -0.020258   0.456787  -0.021845  -0.000040  -0.000303
    28  H    0.000000  -0.022162  -0.021845   0.460115  -0.000005   0.003425
    29  H   -0.000000  -0.000156  -0.000040  -0.000005   0.458421  -0.022533
    30  H   -0.000003  -0.000037  -0.000303   0.003425  -0.022533   0.457533
    31  H   -0.000000  -0.000021   0.002785  -0.000621  -0.020565  -0.020453
    32  H    0.000000  -0.001751  -0.002670   0.002964  -0.002272   0.002810
              31         32
     1  O    0.000149  -0.000131
     2  S    0.001900  -0.006924
     3  N   -0.000134   0.001170
     4  C   -0.000018   0.000007
     5  N    0.000191  -0.000014
     6  O   -0.000001   0.000000
     7  C    0.000000   0.000000
     8  C   -0.000000   0.000000
     9  C    0.000000  -0.000000
    10  C   -0.000000  -0.000000
    11  C   -0.000000   0.000000
    12  C   -0.000000   0.000000
    13  C    0.000000  -0.000000
    14  C    0.000000   0.000000
    15  N   -0.025977   0.282977
    16  C   -0.001866  -0.019945
    17  C    0.370249  -0.019410
    18  O   -0.000044   0.001819
    19  H    0.000001  -0.000000
    20  H   -0.000000  -0.000000
    21  H    0.000000  -0.000000
    22  H   -0.000000   0.000000
    23  H    0.000000  -0.000000
    24  H   -0.000000  -0.000000
    25  H   -0.000000   0.000000
    26  H   -0.000021  -0.001751
    27  H    0.002785  -0.002670
    28  H   -0.000621   0.002964
    29  H   -0.020565  -0.002272
    30  H   -0.020453   0.002810
    31  H    0.467383  -0.002675
    32  H   -0.002675   0.261835
 Mulliken charges:
               1
     1  O   -0.489723
     2  S    1.383829
     3  N   -0.803061
     4  C    0.556515
     5  N   -0.262835
     6  O   -0.405913
     7  C    0.404240
     8  C    0.075262
     9  C   -0.174385
    10  C   -0.152000
    11  C   -0.130991
    12  C   -0.148429
    13  C   -0.172058
    14  C   -0.276610
    15  N   -0.606749
    16  C   -0.341302
    17  C   -0.342202
    18  O   -0.503062
    19  H    0.470928
    20  H    0.167749
    21  H    0.161899
    22  H    0.161028
    23  H    0.161640
    24  H    0.167805
    25  H    0.205896
    26  H    0.231616
    27  H    0.235990
    28  H    0.231377
    29  H    0.229848
    30  H    0.231771
    31  H    0.229717
    32  H    0.502212
 Sum of Mulliken charges =   1.00000
 Mulliken charges with hydrogens summed into heavy atoms:
               1
     1  O   -0.489723
     2  S    1.383829
     3  N   -0.332133
     4  C    0.556515
     5  N   -0.262835
     6  O   -0.405913
     7  C    0.404240
     8  C    0.075262
     9  C   -0.006635
    10  C    0.009899
    11  C    0.030036
    12  C    0.013211
    13  C   -0.004253
    14  C   -0.070714
    15  N   -0.104537
    16  C    0.357681
    17  C    0.349134
    18  O   -0.503062
 Electronic spatial extent (au):  <R**2>=           7165.5231
 Charge=              1.0000 electrons
 Dipole moment (field-independent basis, Debye):
    X=            -12.0098    Y=             -0.5584    Z=              6.8668  Tot=             13.8456
 Quadrupole moment (field-independent basis, Debye-Ang):
   XX=            -20.8456   YY=            -94.8994   ZZ=           -108.8844
   XY=            -17.3777   XZ=            -19.3220   YZ=             -3.1097
 Traceless Quadrupole moment (field-independent basis, Debye-Ang):
   XX=             54.0308   YY=            -20.0229   ZZ=            -34.0079
   XY=            -17.3777   XZ=            -19.3220   YZ=             -3.1097
 Octapole moment (field-independent basis, Debye-Ang**2):
  XXX=           -192.1035  YYY=             -2.9203  ZZZ=             34.1382  XYY=            -17.9701
  XXY=             81.0361  XXZ=             85.2062  XZZ=            -40.0021  YZZ=             -2.1906
  YYZ=             18.1556  XYZ=            -15.3842
 Hexadecapole moment (field-independent basis, Debye-Ang**3):
 XXXX=          -5670.2878 YYYY=           -725.6052 ZZZZ=           -490.1776 XXXY=           -365.6835
 XXXZ=           -301.5187 YYYX=            -64.0543 YYYZ=            -10.6683 ZZZX=           -120.0151
 ZZZY=             20.2414 XXYY=          -1306.5509 XXZZ=          -1402.8138 YYZZ=           -204.6237
 XXYZ=            -62.4330 YYXZ=            -44.1252 ZZXY=             -8.5122
 N-N= 1.461555759309D+03 E-N=-5.750038092721D+03  KE= 1.206108636375D+03
 No NMR shielding tensors so no spin-rotation constants.
 Leave Link  601 at Thu Sep 24 06:50:46 2020, MaxMem=  2147483648 cpu:               0.4 elap:               0.1
 (Enter /prod/apps/gaussian/g16b1/l701.exe)
 ... and contract with generalized density number  0.
 Compute integral first derivatives.
 D1PCM: PCM CHGder 1st derivatives, ID1Alg=3 FixD1E=F DoIter=F DoCFld=F I1PDM=0.
 GePol: Maximum number of non-zero 1st derivatives   =     177
 Leave Link  701 at Thu Sep 24 06:50:49 2020, MaxMem=  2147483648 cpu:               8.6 elap:               2.2
 (Enter /prod/apps/gaussian/g16b1/l702.exe)
 L702 exits ... SP integral derivatives will be done elsewhere.
 Leave Link  702 at Thu Sep 24 06:50:49 2020, MaxMem=  2147483648 cpu:               0.1 elap:               0.0
 (Enter /prod/apps/gaussian/g16b1/l703.exe)
 Integral derivatives from FoFJK, PRISM(SPDF).
 Compute integral first derivatives, UseDBF=F ICtDFT=           0.
 Calling FoFJK, ICntrl=      2127 FMM=F ISym2X=0 I1Cent= 0 IOpClX= 0 NMat=1 NMatS=1 NMatT=0.
 FoFJK:  IHMeth= 1 ICntrl=    2127 DoSepK=F KAlg= 0 I1Cent=           0 FoldK=F
 IRaf=         0 NMat=       1 IRICut=       1 DoRegI=T DoRafI=F ISym2E= 0 IDoP0=0 IntGTp=1.
 FoFCou: FMM=F IPFlag=           0 FMFlag=      100000 FMFlg1=         800
         NFxFlg=           0 DoJE=F BraDBF=F KetDBF=F FulRan=T
         wScrn=  0.000000 ICntrl=      2127 IOpCl=  0 I1Cent=           0 NGrid=           0
         NMat0=    1 NMatS0=      1 NMatT0=    0 NMatD0=    1 NMtDS0=    0 NMtDT0=    0
 Symmetry not used in FoFCou.
 Leave Link  703 at Thu Sep 24 06:51:02 2020, MaxMem=  2147483648 cpu:              53.3 elap:              13.4
 (Enter /prod/apps/gaussian/g16b1/l716.exe)
 Dipole        =-4.72503733D+00-2.19709133D-01 2.70158939D+00
 -------------------------------------------------------------------
 Center     Atomic                   Forces (Hartrees/Bohr)
 Number     Number              X              Y              Z
 -------------------------------------------------------------------
      1        8          -0.000483231   -0.000093672    0.001635497
      2       16           0.000063107    0.000312095   -0.000331425
      3        7           0.000011664   -0.000299490    0.000130171
      4        6          -0.000047067   -0.000196322    0.000082111
      5        7          -0.000548544    0.000116300    0.000228138
      6        8           0.000732925   -0.000016805    0.000101541
      7        6           0.000464065   -0.000431305   -0.000014944
      8        6           0.000077813    0.000710258   -0.000237214
      9        6           0.000226338   -0.000254852    0.000024257
     10        6          -0.000729378   -0.000754313    0.000280051
     11        6           0.000744226    0.000450797   -0.000240551
     12        6          -0.000428022    0.000357156   -0.000039543
     13        6           0.000000200   -0.000392228    0.000188842
     14        6           0.000025103   -0.000829682    0.000225819
     15        7          -0.001158702    0.000296006   -0.000890745
     16        6          -0.000437849   -0.000414650    0.000644401
     17        6           0.000937927   -0.000482663    0.000653576
     18        8           0.000619697    0.001173856    0.000271136
     19        1           0.000061095    0.000548172   -0.000327071
     20        1           0.000226033    0.000831208   -0.000352169
     21        1          -0.000529392    0.000849323   -0.000399098
     22        1          -0.001027092   -0.000063629   -0.000008222
     23        1          -0.000516164   -0.001004705    0.000318646
     24        1          -0.000041941   -0.000934067    0.000398034
     25        1           0.000084580    0.001493913   -0.000357639
     26        1           0.000622941    0.001124843   -0.000433927
     27        1           0.000764095   -0.000496649   -0.000664158
     28        1          -0.000494935    0.000100570   -0.000306317
     29        1           0.000166088   -0.000764458    0.000286404
     30        1          -0.000980419   -0.000148263   -0.000819142
     31        1           0.000528641   -0.000745720   -0.000541861
     32        1           0.001066196   -0.000041024    0.000495404
 -------------------------------------------------------------------
 Cartesian Forces:  Max     0.001635497 RMS     0.000572763
 Leave Link  716 at Thu Sep 24 06:51:02 2020, MaxMem=  2147483648 cpu:               0.1 elap:               0.0
 (Enter /prod/apps/gaussian/g16b1/l103.exe)

 GradGradGradGradGradGradGradGradGradGradGradGradGradGradGradGradGradGrad
 Berny optimization.
 FormGI is forming the generalized inverse of G from B-inverse, IUseBI=4.
 GSVD:  received Info=                   1 from GESDD.
 Internal  Forces:  Max     0.002547552 RMS     0.000658324
 Search for a local minimum.
 Step number   1 out of a maximum of  177
 All quantities printed in internal units (Hartrees-Bohrs-Radians)
 RMS Force = .65832D-03 SwitMx=.10000D-02 MixMth= 2
 Mixed Optimization -- En-DIIS/RFO-DIIS
 Second derivative matrix not updated -- first step.
 ITU=  0
     Eigenvalues ---    0.00230   0.00366   0.00381   0.01292   0.01607
     Eigenvalues ---    0.01794   0.01873   0.01917   0.01984   0.02026
     Eigenvalues ---    0.02081   0.02097   0.02106   0.02125   0.02131
     Eigenvalues ---    0.02140   0.02148   0.02152   0.02156   0.02282
[...]
 Alpha virt. eigenvalues --    2.64740   2.66427   2.67359   2.68528   2.70232
 Alpha virt. eigenvalues --    2.70260   2.70748   2.72444   2.73925   2.74228
 Alpha virt. eigenvalues --    2.75441   2.76273   2.77210   2.80954   2.81984
 Alpha virt. eigenvalues --    2.82770   2.86121   2.87078   2.90683   2.91666
 Alpha virt. eigenvalues --    2.92231   2.93928   2.95290   2.96869   2.98475
 Alpha virt. eigenvalues --    3.00136   3.03266   3.05059   3.06157   3.08024
 Alpha virt. eigenvalues --    3.08860   3.12328   3.13765   3.17621   3.21960
 Alpha virt. eigenvalues --    3.29325   3.32179   3.32955   3.34679   3.38186
 Alpha virt. eigenvalues --    3.39201   3.43578   3.50805   3.55218   3.56981
 Alpha virt. eigenvalues --    3.58139   3.60683   3.62270   3.64799   3.65438
 Alpha virt. eigenvalues --    3.66067   3.67800   3.69608   3.73159   3.78214
 Alpha virt. eigenvalues --    3.79842   3.82752   3.86948   3.87803   3.94193
 Alpha virt. eigenvalues --    4.02719   4.21479   4.56102   4.80264
          Condensed to atoms (all electrons):
               1          2          3          4          5          6
     1  O    8.902695  -0.023829  -0.100183   0.159970   0.005025  -0.003263
     2  S   -0.023829  13.704671   0.236026  -0.543388   0.049641  -0.049465
     3  N   -0.100183   0.236026   9.366321  -1.917526   0.005670  -0.102820
     4  C    0.159970  -0.543388  -1.917526  15.141542  -0.985588   0.689551
     5  N    0.005025   0.049641   0.005670  -0.985588   9.400469  -1.223838
     6  O   -0.003263  -0.049465  -0.102820   0.689551  -1.223838  10.248296
     7  C   -0.004298  -0.015518   0.275560  -1.095467  -1.010369  -0.068991
     8  C    0.002306  -0.018222  -0.114527   0.284427   0.317319   0.237765
     9  C   -0.001280   0.003266   0.062721  -0.616378   0.293714  -0.115831
    10  C   -0.000015   0.001313  -0.024572   0.049553   0.051571   0.024694
    11  C    0.000001  -0.000421   0.006426  -0.089493   0.008052  -0.036073
    12  C    0.000074   0.000889  -0.007745   0.246877  -0.078515  -0.004944
    13  C    0.000186   0.000866   0.065350  -0.410106  -0.288924  -0.165127
    14  C   -0.014955   0.021995   0.114361  -5.570826   0.719120  -0.266059
    15  N    0.006933  -0.371812  -0.071765   0.068849  -0.009159   0.003024
    16  C    0.027206  -0.089380   0.087332   0.023862   0.025349  -0.003290
    17  C   -0.011710   0.156177   0.055461  -0.173620  -0.021467   0.000208
    18  O    0.017361   0.083067  -0.230268   0.136921   0.018135   0.000696
    19  H    0.007152  -0.064252   0.150894   0.167268   0.001959   0.008223
    20  H   -0.000186   0.000105   0.004866   0.063861  -0.006434   0.007668
    21  H    0.000002   0.000128  -0.000876   0.006514   0.001103   0.000857
    22  H   -0.000000  -0.000007   0.000206  -0.003669   0.000590  -0.000399
    23  H   -0.000006  -0.000020  -0.000589   0.004770  -0.003863   0.005305
    24  H   -0.000111   0.000441   0.007266  -0.030948  -0.011446  -0.119263
    25  H    0.000202  -0.002548  -0.054004   0.587933  -0.082695   0.011183
    26  H   -0.003634   0.137804  -0.081326   0.041934   0.001374  -0.000342
    27  H    0.003907  -0.071980   0.037221   0.000779  -0.000064   0.000104
    28  H    0.002088  -0.021556  -0.043795   0.061057   0.001884   0.000655
    29  H   -0.010586   0.119923  -0.034867   0.054317  -0.037820  -0.001520
    30  H    0.026510  -0.002943  -0.042735   0.066735   0.006301  -0.014076
    31  H   -0.000890  -0.030250   0.041262  -0.062123   0.031853  -0.000280
    32  H    0.025657  -0.071297   0.074981  -0.019462  -0.004743  -0.000393
               7          8          9         10         11         12
     1  O   -0.004298   0.002306  -0.001280  -0.000015   0.000001   0.000074
     2  S   -0.015518  -0.018222   0.003266   0.001313  -0.000421   0.000889
     3  N    0.275560  -0.114527   0.062721  -0.024572   0.006426  -0.007745
     4  C   -1.095467   0.284427  -0.616378   0.049553  -0.089493   0.246877
     5  N   -1.010369   0.317319   0.293714   0.051571   0.008052  -0.078515
     6  O   -0.068991   0.237765  -0.115831   0.024694  -0.036073  -0.004944
     7  C   19.194402  -3.856848  -0.730275  -0.744874   0.423198  -0.405073
     8  C   -3.856848  19.159751  -6.848296   2.188675  -3.575024   1.249926
     9  C   -0.730275  -6.848296  21.101242  -6.151919   3.439204  -3.196338
    10  C   -0.744874   2.188675  -6.151919  13.416010  -3.082786   3.398842
    11  C    0.423198  -3.575024   3.439204  -3.082786   9.096743  -2.760564
    12  C   -0.405073   1.249926  -3.196338   3.398842  -2.760564  11.554290
    13  C   -0.341991  -5.666067  -0.085016  -3.220605   2.445027  -3.887468
    14  C   -6.740580   0.248651  -1.284392   0.572457  -0.282786  -0.032891
    15  N   -0.037296   0.004127   0.000350   0.000233  -0.000084  -0.000005
    16  C   -0.015906   0.000647  -0.000733   0.000124  -0.000037  -0.000079
    17  C    0.001440  -0.007533   0.001528   0.000303  -0.000007  -0.000496
    18  O    0.020669   0.001088   0.000254   0.000023   0.000011  -0.000057
    19  H    0.003139  -0.000204  -0.001508  -0.001884  -0.000041   0.000745
    20  H   -0.130625   0.912239  -1.302184   0.259062  -0.126465   0.079281
    21  H   -0.038720  -0.149998   0.903466  -0.950181   0.303870  -0.262171
    22  H   -0.012955   0.026251  -0.085280   0.256891  -0.489481   0.338510
    23  H   -0.002768  -0.136320   0.093623  -0.222904   0.301430  -0.730231
    24  H    0.221606   0.300306  -0.101538   0.063155  -0.094420   0.291778
    25  H    0.929750  -0.058205  -0.010264   0.053628  -0.026482   0.014636
    26  H    0.006480  -0.000105   0.000226   0.000075  -0.000001  -0.000030
    27  H   -0.003155   0.000006   0.000005   0.000007   0.000000  -0.000016
    28  H   -0.009664   0.001761  -0.001519  -0.000085  -0.000084   0.000171
    29  H    0.001547   0.002044  -0.000670  -0.000117   0.000009   0.000360
    30  H    0.016880   0.000855   0.000921  -0.000225   0.000009   0.000209
    31  H    0.000816  -0.001433   0.000448   0.000077   0.000001  -0.000186
    32  H   -0.004156  -0.000163  -0.000032   0.000005  -0.000006   0.000034
              13         14         15         16         17         18
     1  O    0.000186  -0.014955   0.006933   0.027206  -0.011710   0.017361
     2  S    0.000866   0.021995  -0.371812  -0.089380   0.156177   0.083067
     3  N    0.065350   0.114361  -0.071765   0.087332   0.055461  -0.230268
     4  C   -0.410106  -5.570826   0.068849   0.023862  -0.173620   0.136921
     5  N   -0.288924   0.719120  -0.009159   0.025349  -0.021467   0.018135
     6  O   -0.165127  -0.266059   0.003024  -0.003290   0.000208   0.000696
     7  C   -0.341991  -6.740580  -0.037296  -0.015906   0.001440   0.020669
     8  C   -5.666067   0.248651   0.004127   0.000647  -0.007533   0.001088
     9  C   -0.085016  -1.284392   0.000350  -0.000733   0.001528   0.000254
    10  C   -3.220605   0.572457   0.000233   0.000124   0.000303   0.000023
    11  C    2.445027  -0.282786  -0.000084  -0.000037  -0.000007   0.000011
    12  C   -3.887468  -0.032891  -0.000005  -0.000079  -0.000496  -0.000057
    13  C   18.950303  -1.620556  -0.003930  -0.000724   0.000862  -0.000532
    14  C   -1.620556  20.196173   0.057812  -0.009942   0.055469  -0.073915
    15  N   -0.003930   0.057812   8.704104  -0.107733  -0.080232  -0.140246
    16  C   -0.000724  -0.009942  -0.107733   4.168050  -0.077642   0.054352
    17  C    0.000862   0.055469  -0.080232  -0.077642   4.149445  -0.024460
    18  O   -0.000532  -0.073915  -0.140246   0.054352  -0.024460   9.023458
    19  H   -0.000854  -0.103580  -0.018808  -0.013777   0.002130   0.034404
    20  H   -0.115223   0.144510   0.000122  -0.000159  -0.000332   0.000424
    21  H    0.110641   0.041195   0.000003   0.000003   0.000017  -0.000009
    22  H   -0.051564   0.001762  -0.000003  -0.000003   0.000002   0.000000
    23  H    0.648944   0.001659   0.000025  -0.000000  -0.000037  -0.000002
    24  H   -0.770754  -0.020129  -0.000932  -0.000032   0.000966   0.000065
    25  H   -0.001919  -1.623331  -0.001151  -0.000682   0.002285  -0.003496
    26  H   -0.000120  -0.021159  -0.114519   0.275203   0.002334   0.039201
    27  H   -0.000048   0.008749  -0.127511   0.396995   0.056112   0.002275
    28  H   -0.000836  -0.018251  -0.095176   0.382046  -0.020389   0.016917
    29  H    0.000791  -0.021495  -0.057600  -0.024304   0.324884  -0.002110
    30  H   -0.002238  -0.075880  -0.086359  -0.000503   0.324810   0.005552
    31  H   -0.000277   0.022045  -0.197689   0.067287   0.372990  -0.001369
    32  H    0.000109   0.010474   0.333618   0.016427  -0.026345   0.021135
              19         20         21         22         23         24
     1  O    0.007152  -0.000186   0.000002  -0.000000  -0.000006  -0.000111
     2  S   -0.064252   0.000105   0.000128  -0.000007  -0.000020   0.000441
     3  N    0.150894   0.004866  -0.000876   0.000206  -0.000589   0.007266
     4  C    0.167268   0.063861   0.006514  -0.003669   0.004770  -0.030948
     5  N    0.001959  -0.006434   0.001103   0.000590  -0.003863  -0.011446
     6  O    0.008223   0.007668   0.000857  -0.000399   0.005305  -0.119263
     7  C    0.003139  -0.130625  -0.038720  -0.012955  -0.002768   0.221606
     8  C   -0.000204   0.912239  -0.149998   0.026251  -0.136320   0.300306
     9  C   -0.001508  -1.302184   0.903466  -0.085280   0.093623  -0.101538
    10  C   -0.001884   0.259062  -0.950181   0.256891  -0.222904   0.063155
    11  C   -0.000041  -0.126465   0.303870  -0.489481   0.301430  -0.094420
    12  C    0.000745   0.079281  -0.262171   0.338510  -0.730231   0.291778
    13  C   -0.000854  -0.115223   0.110641  -0.051564   0.648944  -0.770754
    14  C   -0.103580   0.144510   0.041195   0.001762   0.001659  -0.020129
    15  N   -0.018808   0.000122   0.000003  -0.000003   0.000025  -0.000932
    16  C   -0.013777  -0.000159   0.000003  -0.000003  -0.000000  -0.000032
    17  C    0.002130  -0.000332   0.000017   0.000002  -0.000037   0.000966
    18  O    0.034404   0.000424  -0.000009   0.000000  -0.000002   0.000065
    19  H    0.859105  -0.001457   0.000011  -0.000002   0.000009  -0.000331
    20  H   -0.001457   1.965338  -0.074012  -0.017732   0.009680  -0.015274
    21  H    0.000011  -0.074012   1.645529  -0.053675  -0.020301   0.006932
    22  H   -0.000002  -0.017732  -0.053675   1.575382  -0.058647  -0.010234
    23  H    0.000009   0.009680  -0.020301  -0.058647   1.626834  -0.087774
    24  H   -0.000331  -0.015274   0.006932  -0.010234  -0.087774   2.028063
    25  H    0.016786  -0.062862  -0.002490   0.000491   0.000501  -0.000824
    26  H    0.014245   0.000038   0.000001   0.000000  -0.000001   0.000030
    27  H   -0.003232  -0.000031   0.000000  -0.000000   0.000000  -0.000026
    28  H   -0.002075  -0.000090   0.000001  -0.000003   0.000000   0.000046
    29  H    0.000131   0.000012  -0.000001  -0.000001   0.000006   0.000086
    30  H    0.007386  -0.000191   0.000006  -0.000004   0.000049  -0.001287
    31  H   -0.000664  -0.000031   0.000001   0.000001  -0.000009   0.000233
    32  H   -0.003832   0.000023   0.000001  -0.000000   0.000001  -0.000002
              25         26         27         28         29         30
     1  O    0.000202  -0.003634   0.003907   0.002088  -0.010586   0.026510
     2  S   -0.002548   0.137804  -0.071980  -0.021556   0.119923  -0.002943
     3  N   -0.054004  -0.081326   0.037221  -0.043795  -0.034867  -0.042735
     4  C    0.587933   0.041934   0.000779   0.061057   0.054317   0.066735
     5  N   -0.082695   0.001374  -0.000064   0.001884  -0.037820   0.006301
     6  O    0.011183  -0.000342   0.000104   0.000655  -0.001520  -0.014076
     7  C    0.929750   0.006480  -0.003155  -0.009664   0.001547   0.016880
     8  C   -0.058205  -0.000105   0.000006   0.001761   0.002044   0.000855
     9  C   -0.010264   0.000226   0.000005  -0.001519  -0.000670   0.000921
    10  C    0.053628   0.000075   0.000007  -0.000085  -0.000117  -0.000225
    11  C   -0.026482  -0.000001   0.000000  -0.000084   0.000009   0.000009
    12  C    0.014636  -0.000030  -0.000016   0.000171   0.000360   0.000209
    13  C   -0.001919  -0.000120  -0.000048  -0.000836   0.000791  -0.002238
    14  C   -1.623331  -0.021159   0.008749  -0.018251  -0.021495  -0.075880
    15  N   -0.001151  -0.114519  -0.127511  -0.095176  -0.057600  -0.086359
    16  C   -0.000682   0.275203   0.396995   0.382046  -0.024304  -0.000503
    17  C    0.002285   0.002334   0.056112  -0.020389   0.324884   0.324810
    18  O   -0.003496   0.039201   0.002275   0.016917  -0.002110   0.005552
    19  H    0.016786   0.014245  -0.003232  -0.002075   0.000131   0.007386
    20  H   -0.062862   0.000038  -0.000031  -0.000090   0.000012  -0.000191
    21  H   -0.002490   0.000001   0.000000   0.000001  -0.000001   0.000006
    22  H    0.000491   0.000000  -0.000000  -0.000003  -0.000001  -0.000004
    23  H    0.000501  -0.000001   0.000000   0.000000   0.000006   0.000049
    24  H   -0.000824   0.000030  -0.000026   0.000046   0.000086  -0.001287
    25  H    1.852076  -0.000012   0.000336  -0.002785   0.000115   0.003970
    26  H   -0.000012   1.298507  -0.273657  -0.182111  -0.001433   0.004331
    27  H    0.000336  -0.273657   1.323774  -0.214563   0.000885   0.005290
    28  H   -0.002785  -0.182111  -0.214563   1.202604   0.004814  -0.023083
    29  H    0.000115  -0.001433   0.000885   0.004814   1.298384  -0.154073
    30  H    0.003970   0.004331   0.005290  -0.023083  -0.154073   1.242192
    31  H    0.000184   0.011312   0.014996  -0.007505  -0.310764  -0.220772
    32  H   -0.000534  -0.032616  -0.019721   0.033943  -0.035368   0.016552
              31         32
     1  O   -0.000890   0.025657
     2  S   -0.030250  -0.071297
     3  N    0.041262   0.074981
     4  C   -0.062123  -0.019462
     5  N    0.031853  -0.004743
     6  O   -0.000280  -0.000393
     7  C    0.000816  -0.004156
     8  C   -0.001433  -0.000163
     9  C    0.000448  -0.000032
    10  C    0.000077   0.000005
    11  C    0.000001  -0.000006
    12  C   -0.000186   0.000034
    13  C   -0.000277   0.000109
    14  C    0.022045   0.010474
    15  N   -0.197689   0.333618
    16  C    0.067287   0.016427
    17  C    0.372990  -0.026345
    18  O   -0.001369   0.021135
    19  H   -0.000664  -0.003832
    20  H   -0.000031   0.000023
    21  H    0.000001   0.000001
    22  H    0.000001  -0.000000
    23  H   -0.000009   0.000001
    24  H    0.000233  -0.000002
    25  H    0.000184  -0.000534
    26  H    0.011312  -0.032616
    27  H    0.014996  -0.019721
    28  H   -0.007505   0.033943
    29  H   -0.310764  -0.035368
    30  H   -0.220772   0.016552
    31  H    1.398183  -0.005672
    32  H   -0.005672   0.546681
 Mulliken charges:
               1
     1  O   -1.012327
     2  S    2.860575
     3  N   -0.764324
     4  C   -0.338126
     5  N   -0.174204
     6  O   -1.062255
     7  C    0.174042
     8  C    1.494801
     9  C    0.632484
    10  C    0.063470
    11  C    0.540271
    12  C    0.190186
    13  C    0.411800
    14  C    1.564295
    15  N   -0.657193
    16  C    0.820042
    17  C    0.936845
    18  O   -0.999542
    19  H   -0.057088
    20  H   -0.593941
    21  H   -0.467848
    22  H   -0.416427
    23  H   -0.429364
    24  H   -0.655651
    25  H   -0.539791
    26  H   -0.122030
    27  H   -0.137439
    28  H   -0.064418
    29  H   -0.115579
    30  H   -0.104187
    31  H   -0.121776
    32  H    0.144698
 Sum of Mulliken charges =   1.00000
 Mulliken charges with hydrogens summed into heavy atoms:
               1
     1  O   -1.012327
     2  S    2.860575
     3  N   -0.821412
     4  C   -0.338126
     5  N   -0.174204
     6  O   -1.062255
     7  C    0.174042
     8  C    1.494801
     9  C    0.038543
    10  C   -0.404379
    11  C    0.123844
    12  C   -0.239178
    13  C   -0.243851
    14  C    1.024504
    15  N   -0.512495
    16  C    0.496155
    17  C    0.595303
    18  O   -0.999542
 Electronic spatial extent (au):  <R**2>=           7129.3535
 Charge=              1.0000 electrons
 Dipole moment (field-independent basis, Debye):
    X=             -8.5230    Y=              0.1307    Z=              6.0840  Tot=             10.4725
 Quadrupole moment (field-independent basis, Debye-Ang):
   XX=            -20.8423   YY=            -96.3703   ZZ=           -110.5333
   XY=            -15.2920   XZ=            -19.8506   YZ=             -2.7192
 Traceless Quadrupole moment (field-independent basis, Debye-Ang):
   XX=             55.0730   YY=            -20.4550   ZZ=            -34.6180
   XY=            -15.2920   XZ=            -19.8506   YZ=             -2.7192
 Octapole moment (field-independent basis, Debye-Ang**2):
  XXX=            -91.6861  YYY=              7.2817  ZZZ=             13.9725  XYY=            -19.3030
  XXY=             75.8231  XXZ=             77.4821  XZZ=            -60.0394  YZZ=              0.8537
  YYZ=             10.1200  XYZ=            -17.4638
 Hexadecapole moment (field-independent basis, Debye-Ang**3):
 XXXX=          -5611.4773 YYYY=           -735.9314 ZZZZ=           -477.1267 XXXY=           -296.4104
 XXXZ=           -272.6514 YYYX=            -54.7671 YYYZ=            -20.8333 ZZZX=            -76.2999
 ZZZY=             11.7653 XXYY=          -1319.2527 XXZZ=          -1433.5209 YYZZ=           -209.9719
 XXYZ=            -64.9740 YYXZ=            -26.9329 ZZXY=             -0.7840
 N-N= 1.464420504928D+03 E-N=-5.754826900216D+03  KE= 1.208297473768D+03
 Leave Link  601 at Thu Sep 24 08:12:51 2020, MaxMem=   262144000 cpu:               2.4 elap:               0.8
 (Enter /prod/apps/gaussian/g16b1/l9999.exe)
 1\1\GINC-PIRINEUS14\SP\RMP2-FC\Aug-CC-pVDZ\C11H14N3O3S1(1+)\UBAFAR01\2
 4-Sep-2020\0\\#p mp2/aug-cc-pVDZ scf=(MaxCycle=2000,NoVarAcc,NoIncFock
 ) maxdisk=120GB geom=allcheck\\SM43_m2.b.10.pdb.xyz\\1,1\O,0,-2.782309
 1778,0.2331544509,-1.9007387627\S,0,-3.0764105256,-0.55206036,-0.72091
 64955\N,0,-1.7229153117,-0.9477197095,0.107526766\C,0,-0.4527898091,-0
 .356403842,-0.007458978\N,0,-0.3080879261,0.9211572365,-0.2861901056\O
 ,0,1.0720819176,1.1186455185,-0.3021271278\C,0,1.7082019079,-0.0434870
 671,-0.0078623137\C,0,3.1650788999,-0.0150439677,0.0345749542\C,0,3.87
 90145612,-1.1407696366,0.4773230888\C,0,5.2698504608,-1.1117338073,0.5
 212304766\C,0,5.9622481297,0.0359314485,0.1260599448\C,0,5.2565804775,
 1.1579108631,-0.3145367847\C,0,3.8654786895,1.1362603541,-0.3613511166
 \C,0,0.7769424122,-1.0287033182,0.1862951727\N,0,-3.9354292662,0.67100
 21989,0.407263343\C,0,-4.0815752485,0.136471603,1.7993224645\C,0,-3.30
 92461723,2.0307506305,0.3422863119\O,0,-3.9729598938,-1.69105128,-0.69
 25280316\H,0,-1.7929490166,-1.8325191328,0.613955047\H,0,3.3467593222,
 -2.0310245653,0.7929195643\H,0,5.8138414292,-1.9837792807,0.8671811438
 \H,0,7.0460167682,0.0555009242,0.1624071755\H,0,5.7896428035,2.0504846
 794,-0.6233694998\H,0,3.3167447801,2.0046290174,-0.7054524174\H,0,0.93
 00283059,-2.0694240846,0.4175447427\H,0,-4.5433970702,-0.8468476149,1.
 7476464251\H,0,-4.7267166756,0.8266705487,2.340041988\H,0,-3.100617581
 4,0.0882885166,2.2669495726\H,0,-3.3641558677,2.3787021295,-0.68550808
 46\H,0,-2.2732845261,1.9692670813,0.6673129046\H,0,-3.8868585919,2.681
 1778466,0.9968065523\H,0,-4.8798082048,0.7385626192,-0.0106079205\\Ver
 sion=ES64L-G16RevB.01\State=1-A\HF=-1209.8719974\MP2=-1212.6609604\RMS
 D=8.535e-09\PG=C01 [X(C11H14N3O3S1)]\\@


 A HARD FALL SHOULD MEAN A HIGH BOUNCE 
 IF ONE IS MADE OF THE RIGHT MATERIAL.

                -- THE CHEMIST ANALYST, MARCH 1950
 Job cpu time:       0 days  2 hours 24 minutes 25.6 seconds.
 Elapsed time:       0 days  0 hours 41 minutes 11.1 seconds.
 File lengths (MBytes):  RWF=  76307 Int=      0 D2E=      0 Chk=     25 Scr=      1
 Normal termination of Gaussian 16 at Thu Sep 24 08:12:54 2020.
