 Entering Gaussian System, Link 0=g16
 Initial command:
 /prod/apps/gaussian/g16b1/l1.exe "/tmp/ubafar01/1459036/Gau-211456.inp" -scrdir="/tmp/ubafar01/1459036/"
 Entering Link 1 = /prod/apps/gaussian/g16b1/l1.exe PID=    211457.
  
 Copyright (c) 1988-2017, Gaussian, Inc.  All Rights Reserved.
  
 This is part of the Gaussian(R) 16 program.  It is based on
 the Gaussian(R) 09 system (copyright 2009, Gaussian, Inc.),
 the Gaussian(R) 03 system (copyright 2003, Gaussian, Inc.),
 the Gaussian(R) 98 system (copyright 1998, Gaussian, Inc.),
 the Gaussian(R) 94 system (copyright 1995, Gaussian, Inc.),
 the Gaussian 92(TM) system (copyright 1992, Gaussian, Inc.),
 the Gaussian 90(TM) system (copyright 1990, Gaussian, Inc.),
 the Gaussian 88(TM) system (copyright 1988, Gaussian, Inc.),
 the Gaussian 86(TM) system (copyright 1986, Carnegie Mellon
 University), and the Gaussian 82(TM) system (copyright 1983,
 Carnegie Mellon University). Gaussian is a federally registered
 trademark of Gaussian, Inc.
  
 This software contains proprietary and confidential information,
 including trade secrets, belonging to Gaussian, Inc.
  
 This software is provided under written license and may be
 used, copied, transmitted, or stored only in accord with that
 written license.
  
 The following legend is applicable only to US Government
 contracts under FAR:
  
                    RESTRICTED RIGHTS LEGEND
  
 Use, reproduction and disclosure by the US Government is
 subject to restrictions as set forth in subparagraphs (a)
 and (c) of the Commercial Computer Software - Restricted
 Rights clause in FAR 52.227-19.
  
 Gaussian, Inc.
 340 Quinnipiac St., Bldg. 40, Wallingford CT 06492
  
  
 ---------------------------------------------------------------
 Warning -- This program may not be used in any manner that
 competes with the business of Gaussian, Inc. or will provide
 assistance to any competitor of Gaussian, Inc.  The licensee
 of this program is prohibited from giving any competitor of
 Gaussian, Inc. access to this program.  By using this program,
 the user acknowledges that Gaussian, Inc. is engaged in the
 business of creating and licensing software in the field of
 computational chemistry and represents and warrants to the
 licensee that it is not a competitor of Gaussian, Inc. and that
 it will not use this program in any manner prohibited above.
 ---------------------------------------------------------------
  

 Cite this work as:
 Gaussian 16, Revision B.01,
 M. J. Frisch, G. W. Trucks, H. B. Schlegel, G. E. Scuseria, 
 M. A. Robb, J. R. Cheeseman, G. Scalmani, V. Barone, 
 G. A. Petersson, H. Nakatsuji, X. Li, M. Caricato, A. V. Marenich, 
 J. Bloino, B. G. Janesko, R. Gomperts, B. Mennucci, H. P. Hratchian, 
 J. V. Ortiz, A. F. Izmaylov, J. L. Sonnenberg, D. Williams-Young, 
 F. Ding, F. Lipparini, F. Egidi, J. Goings, B. Peng, A. Petrone, 
 T. Henderson, D. Ranasinghe, V. G. Zakrzewski, J. Gao, N. Rega, 
 G. Zheng, W. Liang, M. Hada, M. Ehara, K. Toyota, R. Fukuda, 
 J. Hasegawa, M. Ishida, T. Nakajima, Y. Honda, O. Kitao, H. Nakai, 
 T. Vreven, K. Throssell, J. A. Montgomery, Jr., J. E. Peralta, 
 F. Ogliaro, M. J. Bearpark, J. J. Heyd, E. N. Brothers, K. N. Kudin, 
 V. N. Staroverov, T. A. Keith, R. Kobayashi, J. Normand, 
 K. Raghavachari, A. P. Rendell, J. C. Burant, S. S. Iyengar, 
 J. Tomasi, M. Cossi, J. M. Millam, M. Klene, C. Adamo, R. Cammi, 
 J. W. Ochterski, R. L. Martin, K. Morokuma, O. Farkas, 
 J. B. Foresman, and D. J. Fox, Gaussian, Inc., Wallingford CT, 2016.
 
 ******************************************
 Gaussian 16:  ES64L-G16RevB.01 20-Dec-2017
                14-Sep-2020 
 ******************************************
 %nproc=4
 Will use up to    4 processors via shared memory.
 %Chk=SM43_m0.n.10.pdb.xyz.mst.n.w.chk
 %mem=16GB
 ----------------------------------------------------------------------
 #p b3lyp/6-31G(d) opt freq NoSymm scf=(MaxCycle=2000,NoVarAcc,NoIncFoc
 k) scrf=(iefpcm,read,solvent=water) MaxDisk=20GB
 ----------------------------------------------------------------------
 1/18=20,19=15,26=3,38=1,40=2/1,3;
 2/9=110,12=2,15=1,17=6,18=5,40=1/2;
 3/5=1,6=6,7=1,11=2,25=1,30=1,70=2203,71=1,72=1,74=-5/1,2,3;
 4//1;
 5/5=100002,7=2000,38=1,53=1/2;
 6/7=2,8=2,9=2,10=2,28=1/1;
 7/30=1/1,2,3,16;
 1/18=20,19=15,26=3/3(2);
 2/9=110,15=1/2;
 99//99;
 2/9=110,15=1/2;
 3/5=1,6=6,7=1,11=2,25=1,30=1,70=2205,71=1,72=1,74=-5/1,2,3;
 4/5=5,16=3,69=1/1;
 5/5=100002,7=2000,38=1,53=1/2;
 7/30=1/1,2,3,16;
 1/18=20,19=15,26=3/3(-5);
 2/9=110,15=1/2;
 6/7=2,8=2,9=2,10=2,19=2,28=1/1;
 99/9=1/99;
 Leave Link    1 at Mon Sep 14 19:03:51 2020, MaxMem=  2147483648 cpu:               0.2 elap:               0.1
 (Enter /prod/apps/gaussian/g16b1/l101.exe)
 --------------------
 SM43_m0.n.10.pdb.xyz
 --------------------
 Symbolic Z-matrix:
 Charge =  0 Multiplicity = 1
 O                    -2.767     0.112    -1.818 
 S                    -3.098    -0.505    -0.534 
 N                    -1.674    -1.003     0.261 
 C                    -0.43     -0.397     0.114 
 N                    -0.299     0.895    -0.12 
 O                     1.089     1.109    -0.163 
 C                     1.739    -0.058     0.062 
 C                     3.196    -0.027     0.057 
 C                     3.927    -1.194     0.336 
 C                     5.318    -1.166     0.328 
 C                     5.997     0.023     0.045 
 C                     5.275     1.185    -0.233 
 C                     3.882     1.164    -0.227 
 C                     0.823    -1.057     0.244 
 N                    -3.836     0.652     0.393 
 C                    -4.167     0.248     1.766 
 C                    -3.4       2.05      0.247 
 O                    -3.924    -1.712    -0.472 
 H                    -1.654    -2.015     0.367 
 H                     3.405    -2.118     0.559 
 H                     5.874    -2.072     0.545 
 H                     7.081     0.042     0.039 
 H                     5.796     2.111    -0.454 
 H                     3.32      2.064    -0.443 
 H                     0.997    -2.104     0.434 
 H                    -4.582    -0.758     1.76 
 H                    -4.926     0.939     2.135 
 H                    -3.294     0.286     2.426 
 H                    -3.238     2.27     -0.806 
 H                    -2.486     2.259     0.812 
 H                    -4.212     2.674     0.623 
 
 ITRead=  0  0  0  0  0  0  0  0  0  0  0  0  0  0  0  0  0  0  0  0
 ITRead=  0  0  0  0  0  0  0  0  0  0  0
 MicOpt= -1 -1 -1 -1 -1 -1 -1 -1 -1 -1 -1 -1 -1 -1 -1 -1 -1 -1 -1 -1
 MicOpt= -1 -1 -1 -1 -1 -1 -1 -1 -1 -1 -1
 NAtoms=     31 NQM=       31 NQMF=       0 NMMI=      0 NMMIF=      0
                NMic=       0 NMicF=      0.
                    Isotopes and Nuclear Properties:
 (Nuclear quadrupole moments (NQMom) in fm**2, nuclear magnetic moments (NMagM)
  in nuclear magnetons)

  Atom         1           2           3           4           5           6           7           8           9          10
 IAtWgt=          16          32          14          12          14          16          12          12          12          12
 AtmWgt=  15.9949146  31.9720718  14.0030740  12.0000000  14.0030740  15.9949146  12.0000000  12.0000000  12.0000000  12.0000000
 NucSpn=           0           0           2           0           2           0           0           0           0           0
 AtZEff=  -0.0000000  -0.0000000  -0.0000000  -0.0000000  -0.0000000  -0.0000000  -0.0000000  -0.0000000  -0.0000000  -0.0000000
 NQMom=    0.0000000   0.0000000   2.0440000   0.0000000   2.0440000   0.0000000   0.0000000   0.0000000   0.0000000   0.0000000
 NMagM=    0.0000000   0.0000000   0.4037610   0.0000000   0.4037610   0.0000000   0.0000000   0.0000000   0.0000000   0.0000000
 AtZNuc=   8.0000000  16.0000000   7.0000000   6.0000000   7.0000000   8.0000000   6.0000000   6.0000000   6.0000000   6.0000000

  Atom        11          12          13          14          15          16          17          18          19          20
 IAtWgt=          12          12          12          12          14          12          12          16           1           1
 AtmWgt=  12.0000000  12.0000000  12.0000000  12.0000000  14.0030740  12.0000000  12.0000000  15.9949146   1.0078250   1.0078250
 NucSpn=           0           0           0           0           2           0           0           0           1           1
 AtZEff=  -0.0000000  -0.0000000  -0.0000000  -0.0000000  -0.0000000  -0.0000000  -0.0000000  -0.0000000  -0.0000000  -0.0000000
 NQMom=    0.0000000   0.0000000   0.0000000   0.0000000   2.0440000   0.0000000   0.0000000   0.0000000   0.0000000   0.0000000
 NMagM=    0.0000000   0.0000000   0.0000000   0.0000000   0.4037610   0.0000000   0.0000000   0.0000000   2.7928460   2.7928460
 AtZNuc=   6.0000000   6.0000000   6.0000000   6.0000000   7.0000000   6.0000000   6.0000000   8.0000000   1.0000000   1.0000000

  Atom        21          22          23          24          25          26          27          28          29          30
 IAtWgt=           1           1           1           1           1           1           1           1           1           1
 AtmWgt=   1.0078250   1.0078250   1.0078250   1.0078250   1.0078250   1.0078250   1.0078250   1.0078250   1.0078250   1.0078250
 NucSpn=           1           1           1           1           1           1           1           1           1           1
 AtZEff=  -0.0000000  -0.0000000  -0.0000000  -0.0000000  -0.0000000  -0.0000000  -0.0000000  -0.0000000  -0.0000000  -0.0000000
 NQMom=    0.0000000   0.0000000   0.0000000   0.0000000   0.0000000   0.0000000   0.0000000   0.0000000   0.0000000   0.0000000
 NMagM=    2.7928460   2.7928460   2.7928460   2.7928460   2.7928460   2.7928460   2.7928460   2.7928460   2.7928460   2.7928460
 AtZNuc=   1.0000000   1.0000000   1.0000000   1.0000000   1.0000000   1.0000000   1.0000000   1.0000000   1.0000000   1.0000000

  Atom        31
 IAtWgt=           1
 AtmWgt=   1.0078250
 NucSpn=           1
 AtZEff=  -0.0000000
 NQMom=    0.0000000
 NMagM=    2.7928460
 AtZNuc=   1.0000000
 Leave Link  101 at Mon Sep 14 19:03:52 2020, MaxMem=  2147483648 cpu:               1.4 elap:               0.4
 (Enter /prod/apps/gaussian/g16b1/l103.exe)

 GradGradGradGradGradGradGradGradGradGradGradGradGradGradGradGradGradGrad
 Berny optimization.
 Initialization pass.
                           ----------------------------
                           !    Initial Parameters    !
                           ! (Angstroms and Degrees)  !
 --------------------------                            --------------------------
 ! Name  Definition              Value          Derivative Info.                !
 --------------------------------------------------------------------------------
 ! R1    R(1,2)                  1.4625         estimate D2E/DX2                !
 ! R2    R(2,3)                  1.7052         estimate D2E/DX2                !
 ! R3    R(2,15)                 1.6561         estimate D2E/DX2                !
 ! R4    R(2,18)                 1.4639         estimate D2E/DX2                !
 ! R5    R(3,4)                  1.3915         estimate D2E/DX2                !
 ! R6    R(3,19)                 1.0177         estimate D2E/DX2                !
 ! R7    R(4,5)                  1.3195         estimate D2E/DX2                !
 ! R8    R(4,14)                 1.4221         estimate D2E/DX2                !
 ! R9    R(5,6)                  1.4051         estimate D2E/DX2                !
 ! R10   R(6,7)                  1.3546         estimate D2E/DX2                !
 ! R11   R(7,8)                  1.4573         estimate D2E/DX2                !
 ! R12   R(7,14)                 1.3675         estimate D2E/DX2                !
 ! R13   R(8,9)                  1.405          estimate D2E/DX2                !
 ! R14   R(8,13)                 1.4035         estimate D2E/DX2                !
 ! R15   R(9,10)                 1.3913         estimate D2E/DX2                !
 ! R16   R(9,20)                 1.0844         estimate D2E/DX2                !
 ! R17   R(10,11)                1.3982         estimate D2E/DX2                !
 ! R18   R(10,21)                1.0849         estimate D2E/DX2                !
 ! R19   R(11,12)                1.396          estimate D2E/DX2                !
 ! R20   R(11,22)                1.0842         estimate D2E/DX2                !
 ! R21   R(12,13)                1.3932         estimate D2E/DX2                !
 ! R22   R(12,23)                1.0852         estimate D2E/DX2                !
 ! R23   R(13,24)                1.0828         estimate D2E/DX2                !
 ! R24   R(14,25)                1.0782         estimate D2E/DX2                !
 ! R25   R(15,16)                1.469          estimate D2E/DX2                !
 ! R26   R(15,17)                1.4717         estimate D2E/DX2                !
 ! R27   R(16,26)                1.0883         estimate D2E/DX2                !
 ! R28   R(16,27)                1.0907         estimate D2E/DX2                !
 ! R29   R(16,28)                1.0951         estimate D2E/DX2                !
 ! R30   R(17,29)                1.0879         estimate D2E/DX2                !
 ! R31   R(17,30)                1.0947         estimate D2E/DX2                !
 ! R32   R(17,31)                1.0909         estimate D2E/DX2                !
 ! A1    A(1,2,3)              110.0914         estimate D2E/DX2                !
 ! A2    A(1,2,15)             107.3106         estimate D2E/DX2                !
 ! A3    A(1,2,18)             120.8462         estimate D2E/DX2                !
 ! A4    A(3,2,15)             108.373          estimate D2E/DX2                !
 ! A5    A(3,2,18)             102.1607         estimate D2E/DX2                !
 ! A6    A(15,2,18)            107.5106         estimate D2E/DX2                !
 ! A7    A(2,3,4)              124.7577         estimate D2E/DX2                !
 ! A8    A(2,3,19)             110.8159         estimate D2E/DX2                !
 ! A9    A(4,3,19)             115.2438         estimate D2E/DX2                !
 ! A10   A(3,4,5)              122.2683         estimate D2E/DX2                !
 ! A11   A(3,4,14)             125.1616         estimate D2E/DX2                !
 ! A12   A(5,4,14)             112.5284         estimate D2E/DX2                !
 ! A13   A(4,5,6)              104.633          estimate D2E/DX2                !
 ! A14   A(5,6,7)              109.7378         estimate D2E/DX2                !
 ! A15   A(6,7,8)              117.4407         estimate D2E/DX2                !
 ! A16   A(6,7,14)             109.2705         estimate D2E/DX2                !
 ! A17   A(8,7,14)             133.287          estimate D2E/DX2                !
 ! A18   A(7,8,9)              120.1195         estimate D2E/DX2                !
 ! A19   A(7,8,13)             120.4921         estimate D2E/DX2                !
 ! A20   A(9,8,13)             119.3883         estimate D2E/DX2                !
 ! A21   A(8,9,10)             120.1526         estimate D2E/DX2                !
 ! A22   A(8,9,20)             119.8749         estimate D2E/DX2                !
 ! A23   A(10,9,20)            119.9724         estimate D2E/DX2                !
 ! A24   A(9,10,11)            120.2524         estimate D2E/DX2                !
 ! A25   A(9,10,21)            119.6308         estimate D2E/DX2                !
 ! A26   A(11,10,21)           120.1166         estimate D2E/DX2                !
 ! A27   A(10,11,12)           119.8015         estimate D2E/DX2                !
 ! A28   A(10,11,22)           120.1046         estimate D2E/DX2                !
 ! A29   A(12,11,22)           120.0937         estimate D2E/DX2                !
 ! A30   A(11,12,13)           120.2467         estimate D2E/DX2                !
 ! A31   A(11,12,23)           120.1655         estimate D2E/DX2                !
 ! A32   A(13,12,23)           119.5877         estimate D2E/DX2                !
 ! A33   A(8,13,12)            120.1583         estimate D2E/DX2                !
 ! A34   A(8,13,24)            119.4728         estimate D2E/DX2                !
 ! A35   A(12,13,24)           120.3688         estimate D2E/DX2                !
 ! A36   A(4,14,7)             103.8253         estimate D2E/DX2                !
 ! A37   A(4,14,25)            127.5124         estimate D2E/DX2                !
 ! A38   A(7,14,25)            128.6606         estimate D2E/DX2                !
 ! A39   A(2,15,16)            115.5598         estimate D2E/DX2                !
 ! A40   A(2,15,17)            118.4315         estimate D2E/DX2                !
 ! A41   A(16,15,17)           114.8809         estimate D2E/DX2                !
 ! A42   A(15,16,26)           109.573          estimate D2E/DX2                !
 ! A43   A(15,16,27)           107.3833         estimate D2E/DX2                !
 ! A44   A(15,16,28)           111.9716         estimate D2E/DX2                !
 ! A45   A(26,16,27)           108.792          estimate D2E/DX2                !
 ! A46   A(26,16,28)           109.8411         estimate D2E/DX2                !
 ! A47   A(27,16,28)           109.1999         estimate D2E/DX2                !
 ! A48   A(15,17,29)           109.4055         estimate D2E/DX2                !
 ! A49   A(15,17,30)           112.1807         estimate D2E/DX2                !
 ! A50   A(15,17,31)           106.7774         estimate D2E/DX2                !
 ! A51   A(29,17,30)           109.6727         estimate D2E/DX2                !
 ! A52   A(29,17,31)           109.195          estimate D2E/DX2                !
 ! A53   A(30,17,31)           109.5347         estimate D2E/DX2                !
 ! D1    D(1,2,3,4)             29.0296         estimate D2E/DX2                !
 ! D2    D(1,2,3,19)          -115.971          estimate D2E/DX2                !
 ! D3    D(15,2,3,4)           -88.0571         estimate D2E/DX2                !
 ! D4    D(15,2,3,19)          126.9424         estimate D2E/DX2                !
 ! D5    D(18,2,3,4)           158.6213         estimate D2E/DX2                !
 ! D6    D(18,2,3,19)           13.6207         estimate D2E/DX2                !
 ! D7    D(1,2,15,16)         -176.05           estimate D2E/DX2                !
 ! D8    D(1,2,15,17)          -33.9323         estimate D2E/DX2                !
 ! D9    D(3,2,15,16)          -57.1908         estimate D2E/DX2                !
 ! D10   D(3,2,15,17)           84.9269         estimate D2E/DX2                !
 ! D11   D(18,2,15,16)          52.5365         estimate D2E/DX2                !
 ! D12   D(18,2,15,17)        -165.3458         estimate D2E/DX2                !
 ! D13   D(2,3,4,5)             31.8494         estimate D2E/DX2                !
 ! D14   D(2,3,4,14)          -150.6749         estimate D2E/DX2                !
 ! D15   D(19,3,4,5)           175.498          estimate D2E/DX2                !
 ! D16   D(19,3,4,14)           -7.0262         estimate D2E/DX2                !
 ! D17   D(3,4,5,6)            178.391          estimate D2E/DX2                !
 ! D18   D(14,4,5,6)             0.625          estimate D2E/DX2                !
 ! D19   D(3,4,14,7)          -178.0088         estimate D2E/DX2                !
 ! D20   D(3,4,14,25)            2.4324         estimate D2E/DX2                !
 ! D21   D(5,4,14,7)            -0.3195         estimate D2E/DX2                !
 ! D22   D(5,4,14,25)         -179.8782         estimate D2E/DX2                !
 ! D23   D(4,5,6,7)             -0.7086         estimate D2E/DX2                !
 ! D24   D(5,6,7,8)           -179.8835         estimate D2E/DX2                !
 ! D25   D(5,6,7,14)             0.5364         estimate D2E/DX2                !
 ! D26   D(6,7,8,9)            177.5017         estimate D2E/DX2                !
 ! D27   D(6,7,8,13)            -2.572          estimate D2E/DX2                !
 ! D28   D(14,7,8,9)            -3.0427         estimate D2E/DX2                !
 ! D29   D(14,7,8,13)          176.8835         estimate D2E/DX2                !
 ! D30   D(6,7,14,4)            -0.1479         estimate D2E/DX2                !
 ! D31   D(6,7,14,25)          179.4038         estimate D2E/DX2                !
 ! D32   D(8,7,14,4)          -179.636          estimate D2E/DX2                !
 ! D33   D(8,7,14,25)           -0.0843         estimate D2E/DX2                !
 ! D34   D(7,8,9,10)           179.8329         estimate D2E/DX2                !
 ! D35   D(7,8,9,20)            -0.2308         estimate D2E/DX2                !
 ! D36   D(13,8,9,10)           -0.0941         estimate D2E/DX2                !
 ! D37   D(13,8,9,20)          179.8422         estimate D2E/DX2                !
 ! D38   D(7,8,13,12)         -179.8479         estimate D2E/DX2                !
 ! D39   D(7,8,13,24)            0.024          estimate D2E/DX2                !
 ! D40   D(9,8,13,12)            0.0788         estimate D2E/DX2                !
 ! D41   D(9,8,13,24)          179.9507         estimate D2E/DX2                !
 ! D42   D(8,9,10,11)            0.119          estimate D2E/DX2                !
 ! D43   D(8,9,10,21)          179.9771         estimate D2E/DX2                !
 ! D44   D(20,9,10,11)        -179.8173         estimate D2E/DX2                !
 ! D45   D(20,9,10,21)           0.0408         estimate D2E/DX2                !
 ! D46   D(9,10,11,12)          -0.1276         estimate D2E/DX2                !
 ! D47   D(9,10,11,22)        -179.9741         estimate D2E/DX2                !
 ! D48   D(21,10,11,12)       -179.985          estimate D2E/DX2                !
 ! D49   D(21,10,11,22)          0.1685         estimate D2E/DX2                !
 ! D50   D(10,11,12,13)          0.1122         estimate D2E/DX2                !
 ! D51   D(10,11,12,23)       -179.965          estimate D2E/DX2                !
 ! D52   D(22,11,12,13)        179.9588         estimate D2E/DX2                !
 ! D53   D(22,11,12,23)         -0.1184         estimate D2E/DX2                !
 ! D54   D(11,12,13,8)          -0.0885         estimate D2E/DX2                !
 ! D55   D(11,12,13,24)       -179.9592         estimate D2E/DX2                !
 ! D56   D(23,12,13,8)         179.9882         estimate D2E/DX2                !
 ! D57   D(23,12,13,24)          0.1175         estimate D2E/DX2                !
 ! D58   D(2,15,16,26)         -42.8156         estimate D2E/DX2                !
 ! D59   D(2,15,16,27)        -160.8215         estimate D2E/DX2                !
 ! D60   D(2,15,16,28)          79.3176         estimate D2E/DX2                !
 ! D61   D(17,15,16,26)        173.7132         estimate D2E/DX2                !
 ! D62   D(17,15,16,27)         55.7074         estimate D2E/DX2                !
 ! D63   D(17,15,16,28)        -64.1536         estimate D2E/DX2                !
 ! D64   D(2,15,17,29)          41.0949         estimate D2E/DX2                !
 ! D65   D(2,15,17,30)         -80.8474         estimate D2E/DX2                !
 ! D66   D(2,15,17,31)         159.1479         estimate D2E/DX2                !
 ! D67   D(16,15,17,29)       -176.5398         estimate D2E/DX2                !
 ! D68   D(16,15,17,30)         61.5179         estimate D2E/DX2                !
 ! D69   D(16,15,17,31)        -58.4868         estimate D2E/DX2                !
 --------------------------------------------------------------------------------
 Trust Radius=3.00D-01 FncErr=1.00D-07 GrdErr=1.00D-06 EigMax=2.50D+02 EigMin=1.00D-04
 Number of steps in this run=    164 maximum allowed number of steps=    186.
 GradGradGradGradGradGradGradGradGradGradGradGradGradGradGradGradGradGrad

 Leave Link  103 at Mon Sep 14 19:03:52 2020, MaxMem=  2147483648 cpu:               0.1 elap:               0.0
 (Enter /prod/apps/gaussian/g16b1/l202.exe)
                          Input orientation:                          
 ---------------------------------------------------------------------
 Center     Atomic      Atomic             Coordinates (Angstroms)
 Number     Number       Type             X           Y           Z
 ---------------------------------------------------------------------
      1          8           0       -2.767000    0.112000   -1.818000
      2         16           0       -3.098000   -0.505000   -0.534000
      3          7           0       -1.674000   -1.003000    0.261000
      4          6           0       -0.430000   -0.397000    0.114000
      5          7           0       -0.299000    0.895000   -0.120000
      6          8           0        1.089000    1.109000   -0.163000
      7          6           0        1.739000   -0.058000    0.062000
      8          6           0        3.196000   -0.027000    0.057000
      9          6           0        3.927000   -1.194000    0.336000
     10          6           0        5.318000   -1.166000    0.328000
     11          6           0        5.997000    0.023000    0.045000
     12          6           0        5.275000    1.185000   -0.233000
     13          6           0        3.882000    1.164000   -0.227000
     14          6           0        0.823000   -1.057000    0.244000
     15          7           0       -3.836000    0.652000    0.393000
     16          6           0       -4.167000    0.248000    1.766000
     17          6           0       -3.400000    2.050000    0.247000
     18          8           0       -3.924000   -1.712000   -0.472000
     19          1           0       -1.654000   -2.015000    0.367000
     20          1           0        3.405000   -2.118000    0.559000
     21          1           0        5.874000   -2.072000    0.545000
     22          1           0        7.081000    0.042000    0.039000
     23          1           0        5.796000    2.111000   -0.454000
     24          1           0        3.320000    2.064000   -0.443000
     25          1           0        0.997000   -2.104000    0.434000
     26          1           0       -4.582000   -0.758000    1.760000
     27          1           0       -4.926000    0.939000    2.135000
     28          1           0       -3.294000    0.286000    2.426000
     29          1           0       -3.238000    2.270000   -0.806000
     30          1           0       -2.486000    2.259000    0.812000
     31          1           0       -4.212000    2.674000    0.623000
 ---------------------------------------------------------------------
                    Distance matrix (angstroms):
                    1          2          3          4          5
     1  O    0.000000
     2  S    1.462500   0.000000
     3  N    2.600022   1.705229   0.000000
     4  C    3.074618   2.747688   1.391539   0.000000
     5  N    3.096339   3.156865   2.374487   1.319538   0.000000
     6  O    4.312977   4.502622   3.503497   2.156879   1.405058
     7  C    4.885421   4.894037   3.546998   2.195948   2.257161
     8  C    6.252385   6.339732   4.971025   3.645274   3.618900
     9  C    7.152272   7.112120   5.604758   4.434855   4.736131
    10  C    8.462023   8.485813   6.994221   5.803160   5.999926
    11  C    8.960267   9.128694   7.742323   6.441078   6.358241
    12  C    8.266639   8.547153   7.302053   5.930443   5.582683
    13  C    6.917166   7.183329   5.983575   4.598516   4.191011
    14  C    4.301919   4.035372   2.497642   1.422149   2.280720
    15  N    2.514534   1.656086   2.725930   3.574784   3.582260
    16  C    3.850137   2.645708   3.169397   4.136460   4.351670
    17  C    2.901854   2.688715   3.507147   3.850506   3.329402
    18  O    2.545062   1.463888   2.470318   3.778976   4.478948
    19  H    3.246093   2.275310   1.017733   2.044531   3.246736
    20  H    6.979729   6.788625   5.208481   4.226948   4.822741
    21  H    9.220656   9.171506   7.628612   6.536957   6.881224
    22  H   10.021799  10.209779   8.819940   7.524192   7.430834
    23  H    8.898397   9.271089   8.124600   6.736154   6.224085
    24  H    6.538539   6.913665   5.902723   4.519875   3.816812
    25  H    4.914250   4.501428   2.894196   2.247794   3.313689
    26  H    4.105266   2.743848   3.280776   4.480931   4.960937
    27  H    4.579456   3.542638   4.225961   5.107186   5.147435
    28  H    4.280133   3.070130   2.995521   3.743572   3.977816
    29  H    2.429599   2.791811   3.781152   3.980471   3.316465
    30  H    3.406680   3.134638   3.406404   3.430550   2.740819
    31  H    3.822349   3.561697   4.482501   4.898331   4.362162
                    6          7          8          9         10
     6  O    0.000000
     7  C    1.354627   0.000000
     8  C    2.403819   1.457338   0.000000
     9  C    3.688774   2.480507   1.405023   0.000000
    10  C    4.827126   3.756017   2.423561   1.391305   0.000000
    11  C    5.031016   4.258804   2.801472   2.418816   1.398160
    12  C    4.187275   3.759703   2.423899   2.792939   2.417389
    13  C    2.794275   2.483798   1.403472   2.424698   2.792673
    14  C    2.219901   1.367546   2.593646   3.108384   4.497106
    15  N    4.977310   5.629768   7.072691   7.979670   9.333009
    16  C    5.664618   6.154518   7.563734   8.344885   9.697034
    17  C    4.604856   5.557626   6.917893   8.013513   9.292618
    18  O    5.760529   5.923719   7.335766   7.909449   9.292614
    19  H    4.190981   3.928781   5.250785   5.641149   7.023611
    20  H    4.037161   2.695582   2.160548   1.084430   2.149240
    21  H    5.789322   4.624685   3.404681   2.146014   1.084924
    22  H    6.089611   5.342985   3.885654   3.400532   2.156607
    23  H    4.821259   4.629262   3.404727   3.878181   3.402754
    24  H    2.442905   2.693969   2.153522   3.404387   3.875480
    25  H    3.269288   2.207955   3.048222   3.069626   4.422909
    26  H    6.272468   6.582419   7.995740   8.638342  10.011348
    27  H    6.441268   7.050785   8.439083   9.282333  10.613002
    28  H    5.156640   5.571169   6.915940   7.661680   8.982007
    29  H    4.525958   5.562692   6.886025   8.039943   9.289628
    30  H    3.879916   4.876640   6.170976   7.299065   8.536234
    31  H    5.582797   6.572134   7.905329   9.015937  10.278790
                   11         12         13         14         15
    11  C    0.000000
    12  C    1.395999   0.000000
    13  C    2.418489   1.393171   0.000000
    14  C    5.289261   5.007434   3.809483   0.000000
    15  N    9.859241   9.148021   7.759772   4.964792   0.000000
    16  C   10.311128   9.696666   8.342512   5.377696   1.468981
    17  C    9.615256   8.731223   7.351000   5.242822   1.471671
    18  O   10.084828   9.647348   8.322562   4.845172   2.518822
    19  H    7.924325   7.655785   6.411410   2.658650   3.445967
    20  H    3.400962   3.877367   3.408350   2.809212   7.754517
    21  H    2.157349   3.401784   3.877595   5.160758  10.085999
    22  H    1.084183   2.154546   3.400477   6.357074  10.939758
    23  H    2.156188   1.085246   2.147495   5.937521   9.778625
    24  H    3.401493   2.153779   1.082820   4.055566   7.341728
    25  H    5.447518   5.437251   4.409078   1.078232   5.563731
    26  H   10.745531  10.242448   8.904019   5.621537   2.100787
    27  H   11.158812  10.475130   9.121981   6.372668   2.074857
    28  H    9.594843   9.016997   7.700927   4.849171   2.135605
    29  H    9.542454   8.600972   7.228615   5.353798   2.100745
    30  H    8.806207   7.904342   6.544461   4.718894   2.140213
    31  H   10.563407   9.641215   8.277405   6.278155   2.069483
                   16         17         18         19         20
    16  C    0.000000
    17  C    2.478478   0.000000
    18  O    2.984844   3.865770   0.000000
    19  H    3.659718   4.425736   2.438981   0.000000
    20  H    8.024337   7.986087   7.412290   5.063690   0.000000
    21  H   10.377616  10.153165   9.857215   7.530320   2.469468
    22  H   11.381673  10.673645  11.155611   8.979925   4.295227
    23  H   10.375960   9.222881  10.444810   8.555724   4.962609
    24  H    8.014531   6.755346   8.169122   6.483442   4.301204
    25  H    5.828638   6.051801   5.019038   2.653340   2.411283
    26  H    1.088254   3.401640   2.514936   3.477597   8.190493
    27  H    1.090744   2.669745   3.850747   4.749518   9.013023
    28  H    1.095068   2.805525   3.575935   3.496238   7.358091
    29  H    3.400986   1.087866   4.054439   4.716589   8.077575
    30  H    2.789265   1.094670   4.414220   4.376908   7.343434
    31  H    2.682154   1.090915   4.529786   5.347487   8.999225
                   21         22         23         24         25
    21  H    0.000000
    22  H    2.486339   0.000000
    23  H    4.301346   2.484962   0.000000
    24  H    4.960399   4.297200   2.476470   0.000000
    25  H    4.878368   6.463466   6.448656   4.851565   0.000000
    26  H   10.608052  11.816404  10.992536   8.675166   5.890266
    27  H   11.324055  12.221533  11.092240   8.712533   6.872785
    28  H    9.651453  10.648846   9.708405   7.425459   5.300268
    29  H   10.183649  10.590551   9.042253   6.571268   6.213268
    30  H    9.419047   9.850894   8.379510   5.943289   5.595529
    31  H   11.147107  11.610354  10.081516   7.631480   7.070975
                   26         27         28         29         30
    26  H    0.000000
    27  H    1.771657   0.000000
    28  H    1.786739   1.781717   0.000000
    29  H    4.190403   3.642854   3.792785   0.000000
    30  H    3.793970   3.073488   2.674059   1.784250   0.000000
    31  H    3.634322   2.409599   3.129869   1.775932   1.785223
                   31
    31  H    0.000000
 Symmetry turned off by external request.
 Stoichiometry    C11H13N3O3S
 Framework group  C1[X(C11H13N3O3S)]
 Deg. of freedom    87
 Full point group                 C1      NOp   1
 Rotational constants (GHZ):           1.2242578           0.1534208           0.1464945
 Leave Link  202 at Mon Sep 14 19:03:52 2020, MaxMem=  2147483648 cpu:               0.0 elap:               0.0
 (Enter /prod/apps/gaussian/g16b1/l301.exe)
 Standard basis: 6-31G(d) (6D, 7F)
 Ernie: Thresh=  0.10000D-02 Tol=  0.10000D-05 Strict=F.
   300 basis functions,   580 primitive gaussians,   300 cartesian basis functions
    70 alpha electrons       70 beta electrons
       nuclear repulsion energy      1446.3726501187 Hartrees.
 IExCor=  402 DFT=T Ex+Corr=B3LYP ExCW=0 ScaHFX=  0.200000
 ScaDFX=  0.800000  0.720000  1.000000  0.810000 ScalE2=  1.000000  1.000000
 IRadAn=      5 IRanWt=     -1 IRanGd=            0 ICorTp=0 IEmpDi=  4
 NAtoms=   31 NActive=   31 NUniq=   31 SFac= 1.00D+00 NAtFMM=   60 NAOKFM=F Big=F
 Integral buffers will be    131072 words long.
 Raffenetti 2 integral format.
 Two-electron integral symmetry is turned off.
 Using the following non-standard input for PCM:
 MSTModel=DFT cav
 --- end of non-standard input.
 MST model for solvation energy: B3LYP parametrization.
 MST cavity parameters:
 ISph   IAn     Re0     Alpha   Atom Type   QCorr
 ------------------------------------------------
   1      8     1.40     1.25      O          F
   2     16     1.75     1.25      S          F
   3      7     1.50     1.25      NH         F
   4      6     1.50     1.25      C          F
   5      7     1.40     1.25      N          F
   6      8     1.40     1.25      O          F
   7      6     1.50     1.25      C          F
   8      6     1.50     1.25      C          F
   9      6     1.50     1.25      CH         F
  10      6     1.50     1.25      CH         F
  11      6     1.50     1.25      CH         F
  12      6     1.50     1.25      CH         F
  13      6     1.50     1.25      CH         F
  14      6     1.50     1.25      CH         F
  15      7     1.40     1.25      N          F
  16      6     1.50     1.25      CH3        F
  17      6     1.50     1.25      CH3        F
  18      8     1.40     1.25      O          F
  19      1     0.90     1.25      NH         F
  20      1     1.20     1.25      CH         F
  21      1     1.20     1.25      CH         F
  22      1     1.20     1.25      CH         F
  23      1     1.20     1.25      CH         F
  24      1     1.20     1.25      CH         F
  25      1     1.20     1.25      CH         F
  26      1     1.20     1.25      CH3        F
  27      1     1.20     1.25      CH3        F
  28      1     1.20     1.25      CH3        F
  29      1     1.20     1.25      CH3        F
  30      1     1.20     1.25      CH3        F
  31      1     1.20     1.25      CH3        F
 ------------------------------------------------------------------------------
 Polarizable Continuum Model (PCM)
 =================================
 Model                : PCM.
 Atomic radii         : MST.
 Polarization charges : Total charges.
 Charge compensation  : None.
 Solution method      : On-the-fly selection.
 Cavity type          : Scaled VdW (van der Waals Surface) (Alpha=1.250).
 Cavity algorithm     : GePol (No added spheres)
                        Default sphere list used, NSphG=   31.
                        Lebedev-Laikov grids with approx.  5.0 points / Ang**2.
                        Smoothing algorithm: York/Karplus (Gamma=1.0000).
                        Polarization charges: spherical gaussians, with
                                              point-specific exponents (IZeta= 3).
                        Self-potential: point-specific (ISelfS= 7).
                        Self-field    : sphere-specific E.n sum rule (ISelfD= 2).
 1st derivatives      : Analytical E(r).r(x)/FMM algorithm (CHGder, D1EAlg=3).
                        Cavity 1st derivative terms included.
 Solvent              : Water, Eps=  78.355300 Eps(inf)=   1.777849
 ------------------------------------------------------------------------------
 GePol: Number of generator spheres                  =      31
 GePol: Total number of spheres                      =      31
 GePol: Number of exposed spheres                    =      31 (100.00%)
 GePol: Number of points                             =    2378
 GePol: Average weight of points                     =       0.13
 GePol: Minimum weight of points                     =   0.78D-11
 GePol: Maximum weight of points                     =    0.22001
 GePol: Number of points with low weight             =     150
 GePol: Fraction of low-weight points (<1% of avg)   =       6.31%
 GePol: Cavity surface area                          =    308.054 Ang**2
 GePol: Cavity volume                                =    293.039 Ang**3
 PCM non-electrostatic energy =         0.0032827953 Hartrees.
 Nuclear repulsion after PCM non-electrostatic terms =     1446.3759329140 Hartrees.
 Leave Link  301 at Mon Sep 14 19:03:52 2020, MaxMem=  2147483648 cpu:               0.3 elap:               0.1
 (Enter /prod/apps/gaussian/g16b1/l302.exe)
 NPDir=0 NMtPBC=     1 NCelOv=     1 NCel=       1 NClECP=     1 NCelD=      1
         NCelK=      1 NCelE2=     1 NClLst=     1 CellRange=     0.0.
 One-electron integrals computed using PRISM.
 NBasis=   300 RedAO= T EigKep=  4.58D-04  NBF=   300
 NBsUse=   300 1.00D-06 EigRej= -1.00D+00 NBFU=   300
 Precomputing XC quadrature grid using
 IXCGrd= 4 IRadAn=           5 IRanWt=          -1 IRanGd=           0 AccXCQ= 0.00D+00.
 Generated NRdTot=       0 NPtTot=           0 NUsed=           0 NTot=          32
 NSgBfM=   298   297   297   297   298 MxSgAt=    31 MxSgA2=    31.
 Leave Link  302 at Mon Sep 14 19:03:52 2020, MaxMem=  2147483648 cpu:               1.4 elap:               0.4
 (Enter /prod/apps/gaussian/g16b1/l303.exe)
 DipDrv:  MaxL=1.
 Leave Link  303 at Mon Sep 14 19:03:52 2020, MaxMem=  2147483648 cpu:               0.1 elap:               0.1
 (Enter /prod/apps/gaussian/g16b1/l401.exe)
 ExpMin= 1.17D-01 ExpMax= 2.19D+04 ExpMxC= 3.30D+03 IAcc=3 IRadAn=         5 AccDes= 0.00D+00
 Harris functional with IExCor=  402 and IRadAn=       5 diagonalized for initial guess.
 HarFok:  IExCor=  402 AccDes= 0.00D+00 IRadAn=         5 IDoV= 1 UseB2=F ITyADJ=14
 ICtDFT=  3500011 ScaDFX=  1.000000  1.000000  1.000000  1.000000
 FoFCou: FMM=F IPFlag=           0 FMFlag=      100000 FMFlg1=           0
         NFxFlg=           0 DoJE=T BraDBF=F KetDBF=T FulRan=T
         wScrn=  0.000000 ICntrl=       500 IOpCl=  0 I1Cent=   200000004 NGrid=           0
         NMat0=    1 NMatS0=      1 NMatT0=    0 NMatD0=    1 NMtDS0=    0 NMtDT0=    0
 Symmetry not used in FoFCou.
 Harris En= -1215.01414297901    
 JPrj=0 DoOrth=F DoCkMO=F.
 Leave Link  401 at Mon Sep 14 19:03:54 2020, MaxMem=  2147483648 cpu:               7.5 elap:               1.9
 (Enter /prod/apps/gaussian/g16b1/l502.exe)
 Keep R1 ints in memory in canonical form, NReq=1032920423.
 FoFCou: FMM=F IPFlag=           0 FMFlag=           0 FMFlg1=           0
         NFxFlg=           0 DoJE=F BraDBF=F KetDBF=F FulRan=T
         wScrn=  0.000000 ICntrl=       600 IOpCl=  0 I1Cent=           0 NGrid=           0
         NMat0=    1 NMatS0=  45150 NMatT0=    0 NMatD0=    1 NMtDS0=    0 NMtDT0=    0
 Symmetry not used in FoFCou.
 Two-electron integral symmetry not used.
 Closed shell SCF:
 Using DIIS extrapolation, IDIIS=  1040.
 NGot=  2147483648 LenX=  1128015396 LenY=  1127924955
 Requested convergence on RMS density matrix=1.00D-08 within2000 cycles.
 Requested convergence on MAX density matrix=1.00D-06.
 Requested convergence on             energy=1.00D-06.
 No special actions if energy rises.

 Cycle   1  Pass 1  IDiag  1:
 Inv3:  Mode=1 IEnd=    16964652.
 Iteration    1 A*A^-1 deviation from unit magnitude is 3.77D-15 for   1644.
 Iteration    1 A*A^-1 deviation from orthogonality  is 2.21D-15 for   2105    903.
 Iteration    1 A^-1*A deviation from unit magnitude is 3.77D-15 for   1644.
 Iteration    1 A^-1*A deviation from orthogonality  is 2.66D-15 for   2162    539.
 E= -1214.47437139263    
 DIIS: error= 3.66D-02 at cycle   1 NSaved=   1.
 NSaved= 1 IEnMin= 1 EnMin= -1214.47437139263     IErMin= 1 ErrMin= 3.66D-02
 ErrMax= 3.66D-02  0.00D+00 EMaxC= 1.00D-01 BMatC= 6.16D-01 BMatP= 6.16D-01
 IDIUse=3 WtCom= 6.34D-01 WtEn= 3.66D-01
 Coeff-Com:  0.100D+01
 Coeff-En:   0.100D+01
 Coeff:      0.100D+01
 Gap=     0.260 Goal=   None    Shift=    0.000
 GapD=    0.260 DampG=1.000 DampE=0.500 DampFc=0.5000 IDamp=-1.
 Damping current iteration by 5.00D-01
 RMSDP=6.14D-03 MaxDP=5.95D-01              OVMax= 2.01D-01

 Cycle   2  Pass 1  IDiag  1:
 E= -1214.62872401754     Delta-E=       -0.154352624913 Rises=F Damp=T
 DIIS: error= 1.40D-02 at cycle   2 NSaved=   2.
 NSaved= 2 IEnMin= 2 EnMin= -1214.62872401754     IErMin= 2 ErrMin= 1.40D-02
 ErrMax= 1.40D-02  0.00D+00 EMaxC= 1.00D-01 BMatC= 8.26D-02 BMatP= 6.16D-01
 IDIUse=3 WtCom= 8.60D-01 WtEn= 1.40D-01
 Coeff-Com:  0.206D+00 0.794D+00
 Coeff-En:   0.331D+00 0.669D+00
 Coeff:      0.223D+00 0.777D+00
 Gap=     0.205 Goal=   None    Shift=    0.000
 RMSDP=1.73D-03 MaxDP=1.40D-01 DE=-1.54D-01 OVMax= 1.62D-01

 Cycle   3  Pass 1  IDiag  1:
 E= -1214.97190475606     Delta-E=       -0.343180738517 Rises=F Damp=F
 DIIS: error= 9.36D-03 at cycle   3 NSaved=   3.
 NSaved= 3 IEnMin= 3 EnMin= -1214.97190475606     IErMin= 3 ErrMin= 9.36D-03
 ErrMax= 9.36D-03  0.00D+00 EMaxC= 1.00D-01 BMatC= 4.22D-02 BMatP= 8.26D-02
 IDIUse=3 WtCom= 9.06D-01 WtEn= 9.36D-02
 Coeff-Com:  0.556D-01 0.416D+00 0.528D+00
 Coeff-En:   0.000D+00 0.000D+00 0.100D+01
 Coeff:      0.504D-01 0.377D+00 0.573D+00
 Gap=     0.184 Goal=   None    Shift=    0.000
 RMSDP=8.86D-04 MaxDP=3.40D-02 DE=-3.43D-01 OVMax= 4.78D-02

 Cycle   4  Pass 1  IDiag  1:
 E= -1215.00204930677     Delta-E=       -0.030144550713 Rises=F Damp=F
 DIIS: error= 2.66D-03 at cycle   4 NSaved=   4.
 NSaved= 4 IEnMin= 4 EnMin= -1215.00204930677     IErMin= 4 ErrMin= 2.66D-03
 ErrMax= 2.66D-03  0.00D+00 EMaxC= 1.00D-01 BMatC= 6.94D-03 BMatP= 4.22D-02
 IDIUse=3 WtCom= 9.73D-01 WtEn= 2.66D-02
 Coeff-Com:  0.229D-02 0.971D-01 0.309D+00 0.591D+00
 Coeff-En:   0.000D+00 0.000D+00 0.125D+00 0.875D+00
 Coeff:      0.223D-02 0.946D-01 0.304D+00 0.599D+00
 Gap=     0.183 Goal=   None    Shift=    0.000
 RMSDP=3.04D-04 MaxDP=1.54D-02 DE=-3.01D-02 OVMax= 1.74D-02

 Cycle   5  Pass 1  IDiag  1:
 E= -1215.00732538996     Delta-E=       -0.005276083184 Rises=F Damp=F
 DIIS: error= 9.31D-04 at cycle   5 NSaved=   5.
 NSaved= 5 IEnMin= 5 EnMin= -1215.00732538996     IErMin= 5 ErrMin= 9.31D-04
 ErrMax= 9.31D-04  0.00D+00 EMaxC= 1.00D-01 BMatC= 6.39D-04 BMatP= 6.94D-03
 IDIUse=3 WtCom= 9.91D-01 WtEn= 9.31D-03
 Coeff-Com: -0.367D-02 0.204D-01 0.118D+00 0.327D+00 0.538D+00
 Coeff-En:   0.000D+00 0.000D+00 0.000D+00 0.969D-02 0.990D+00
 Coeff:     -0.363D-02 0.202D-01 0.117D+00 0.324D+00 0.542D+00
 Gap=     0.183 Goal=   None    Shift=    0.000
 RMSDP=1.00D-04 MaxDP=4.25D-03 DE=-5.28D-03 OVMax= 7.58D-03

 Cycle   6  Pass 1  IDiag  1:
 E= -1215.00782937036     Delta-E=       -0.000503980401 Rises=F Damp=F
 DIIS: error= 3.86D-04 at cycle   6 NSaved=   6.
 NSaved= 6 IEnMin= 6 EnMin= -1215.00782937036     IErMin= 6 ErrMin= 3.86D-04
 ErrMax= 3.86D-04  0.00D+00 EMaxC= 1.00D-01 BMatC= 6.28D-05 BMatP= 6.39D-04
 IDIUse=3 WtCom= 9.96D-01 WtEn= 3.86D-03
 Coeff-Com: -0.228D-02 0.526D-02 0.432D-01 0.138D+00 0.312D+00 0.504D+00
 Coeff-En:   0.000D+00 0.000D+00 0.000D+00 0.000D+00 0.158D-01 0.984D+00
 Coeff:     -0.227D-02 0.524D-02 0.430D-01 0.137D+00 0.311D+00 0.506D+00
 Gap=     0.183 Goal=   None    Shift=    0.000
 RMSDP=2.91D-05 MaxDP=1.68D-03 DE=-5.04D-04 OVMax= 2.56D-03

 Cycle   7  Pass 1  IDiag  1:
 E= -1215.00788020146     Delta-E=       -0.000050831104 Rises=F Damp=F
 DIIS: error= 1.32D-04 at cycle   7 NSaved=   7.
 NSaved= 7 IEnMin= 7 EnMin= -1215.00788020146     IErMin= 7 ErrMin= 1.32D-04
 ErrMax= 1.32D-04  0.00D+00 EMaxC= 1.00D-01 BMatC= 6.19D-06 BMatP= 6.28D-05
 IDIUse=3 WtCom= 9.99D-01 WtEn= 1.32D-03
 Coeff-Com: -0.107D-02 0.780D-03 0.127D-01 0.460D-01 0.126D+00 0.299D+00
 Coeff-Com:  0.516D+00
 Coeff-En:   0.000D+00 0.000D+00 0.000D+00 0.000D+00 0.000D+00 0.293D-01
 Coeff-En:   0.971D+00
 Coeff:     -0.107D-02 0.779D-03 0.127D-01 0.460D-01 0.126D+00 0.299D+00
 Coeff:      0.516D+00
 Gap=     0.183 Goal=   None    Shift=    0.000
 RMSDP=8.11D-06 MaxDP=4.55D-04 DE=-5.08D-05 OVMax= 5.11D-04

 Cycle   8  Pass 1  IDiag  1:
 E= -1215.00788518293     Delta-E=       -0.000004981470 Rises=F Damp=F
 DIIS: error= 4.60D-05 at cycle   8 NSaved=   8.
 NSaved= 8 IEnMin= 8 EnMin= -1215.00788518293     IErMin= 8 ErrMin= 4.60D-05
 ErrMax= 4.60D-05  0.00D+00 EMaxC= 1.00D-01 BMatC= 3.10D-07 BMatP= 6.19D-06
 IDIUse=1 WtCom= 1.00D+00 WtEn= 0.00D+00
 Coeff-Com: -0.311D-03-0.609D-04 0.189D-02 0.867D-02 0.315D-01 0.102D+00
 Coeff-Com:  0.242D+00 0.614D+00
 Coeff:     -0.311D-03-0.609D-04 0.189D-02 0.867D-02 0.315D-01 0.102D+00
 Coeff:      0.242D+00 0.614D+00
 Gap=     0.183 Goal=   None    Shift=    0.000
 RMSDP=2.09D-06 MaxDP=1.05D-04 DE=-4.98D-06 OVMax= 1.09D-04

 Cycle   9  Pass 1  IDiag  1:
 E= -1215.00788541447     Delta-E=       -0.000000231539 Rises=F Damp=F
 DIIS: error= 1.10D-05 at cycle   9 NSaved=   9.
 NSaved= 9 IEnMin= 9 EnMin= -1215.00788541447     IErMin= 9 ErrMin= 1.10D-05
 ErrMax= 1.10D-05  0.00D+00 EMaxC= 1.00D-01 BMatC= 3.95D-08 BMatP= 3.10D-07
 IDIUse=1 WtCom= 1.00D+00 WtEn= 0.00D+00
 Coeff-Com: -0.390D-04-0.914D-04-0.484D-03-0.976D-03 0.106D-02 0.166D-01
 Coeff-Com:  0.545D-01 0.308D+00 0.622D+00
 Coeff:     -0.390D-04-0.914D-04-0.484D-03-0.976D-03 0.106D-02 0.166D-01
 Coeff:      0.545D-01 0.308D+00 0.622D+00
 Gap=     0.183 Goal=   None    Shift=    0.000
 RMSDP=7.06D-07 MaxDP=2.49D-05 DE=-2.32D-07 OVMax= 4.40D-05

 Cycle  10  Pass 1  IDiag  1:
 E= -1215.00788544467     Delta-E=       -0.000000030203 Rises=F Damp=F
 DIIS: error= 3.71D-06 at cycle  10 NSaved=  10.
 NSaved=10 IEnMin=10 EnMin= -1215.00788544467     IErMin=10 ErrMin= 3.71D-06
 ErrMax= 3.71D-06  0.00D+00 EMaxC= 1.00D-01 BMatC= 3.76D-09 BMatP= 3.95D-08
 IDIUse=1 WtCom= 1.00D+00 WtEn= 0.00D+00
 Coeff-Com: -0.721D-05-0.431D-04-0.375D-03-0.102D-02-0.122D-02 0.358D-02
 Coeff-Com:  0.151D-01 0.136D+00 0.340D+00 0.507D+00
 Coeff:     -0.721D-05-0.431D-04-0.375D-03-0.102D-02-0.122D-02 0.358D-02
 Coeff:      0.151D-01 0.136D+00 0.340D+00 0.507D+00
 Gap=     0.183 Goal=   None    Shift=    0.000
 RMSDP=2.30D-07 MaxDP=9.50D-06 DE=-3.02D-08 OVMax= 1.74D-05

 Cycle  11  Pass 1  IDiag  1:
 E= -1215.00788544792     Delta-E=       -0.000000003243 Rises=F Damp=F
 DIIS: error= 5.85D-07 at cycle  11 NSaved=  11.
 NSaved=11 IEnMin=11 EnMin= -1215.00788544792     IErMin=11 ErrMin= 5.85D-07
 ErrMax= 5.85D-07  0.00D+00 EMaxC= 1.00D-01 BMatC= 2.20D-10 BMatP= 3.76D-09
 IDIUse=1 WtCom= 1.00D+00 WtEn= 0.00D+00
 Coeff-Com:  0.104D-05-0.261D-05-0.108D-03-0.334D-03-0.770D-03-0.685D-03
 Coeff-Com: -0.146D-02 0.193D-01 0.604D-01 0.210D+00 0.713D+00
 Coeff:      0.104D-05-0.261D-05-0.108D-03-0.334D-03-0.770D-03-0.685D-03
 Coeff:     -0.146D-02 0.193D-01 0.604D-01 0.210D+00 0.713D+00
 Gap=     0.183 Goal=   None    Shift=    0.000
 RMSDP=5.91D-08 MaxDP=2.15D-06 DE=-3.24D-09 OVMax= 4.16D-06

 Cycle  12  Pass 1  IDiag  1:
 E= -1215.00788544809     Delta-E=       -0.000000000175 Rises=F Damp=F
 DIIS: error= 2.70D-07 at cycle  12 NSaved=  12.
 NSaved=12 IEnMin=12 EnMin= -1215.00788544809     IErMin=12 ErrMin= 2.70D-07
 ErrMax= 2.70D-07  0.00D+00 EMaxC= 1.00D-01 BMatC= 4.43D-11 BMatP= 2.20D-10
 IDIUse=1 WtCom= 1.00D+00 WtEn= 0.00D+00
 Coeff-Com:  0.876D-06 0.163D-05-0.397D-04-0.127D-03-0.375D-03-0.608D-03
 Coeff-Com: -0.191D-02 0.249D-02 0.124D-01 0.875D-01 0.414D+00 0.487D+00
 Coeff:      0.876D-06 0.163D-05-0.397D-04-0.127D-03-0.375D-03-0.608D-03
 Coeff:     -0.191D-02 0.249D-02 0.124D-01 0.875D-01 0.414D+00 0.487D+00
 Gap=     0.183 Goal=   None    Shift=    0.000
 RMSDP=2.36D-08 MaxDP=1.24D-06 DE=-1.75D-10 OVMax= 1.61D-06

 Cycle  13  Pass 1  IDiag  1:
 E= -1215.00788544812     Delta-E=       -0.000000000025 Rises=F Damp=F
 DIIS: error= 8.44D-08 at cycle  13 NSaved=  13.
 NSaved=13 IEnMin=13 EnMin= -1215.00788544812     IErMin=13 ErrMin= 8.44D-08
 ErrMax= 8.44D-08  0.00D+00 EMaxC= 1.00D-01 BMatC= 3.98D-12 BMatP= 4.43D-11
 IDIUse=1 WtCom= 1.00D+00 WtEn= 0.00D+00
 Coeff-Com:  0.231D-06 0.122D-05-0.331D-05-0.110D-04-0.739D-04-0.204D-03
 Coeff-Com: -0.805D-03-0.205D-02-0.431D-02 0.845D-02 0.894D-01 0.257D+00
 Coeff-Com:  0.653D+00
 Coeff:      0.231D-06 0.122D-05-0.331D-05-0.110D-04-0.739D-04-0.204D-03
 Coeff:     -0.805D-03-0.205D-02-0.431D-02 0.845D-02 0.894D-01 0.257D+00
 Coeff:      0.653D+00
 Gap=     0.183 Goal=   None    Shift=    0.000
 RMSDP=7.95D-09 MaxDP=3.36D-07 DE=-2.50D-11 OVMax= 5.08D-07

 Error on total polarization charges =  0.02024
 SCF Done:  E(RB3LYP) =  -1215.00788545     A.U. after   13 cycles
            NFock= 13  Conv=0.80D-08     -V/T= 2.0076
 KE= 1.205901969608D+03 PE=-5.740173965818D+03 EE= 1.872888177848D+03
 Leave Link  502 at Mon Sep 14 19:04:57 2020, MaxMem=  2147483648 cpu:             188.6 elap:              62.5
 (Enter /prod/apps/gaussian/g16b1/l601.exe)
 Copying SCF densities to generalized density rwf, IOpCl= 0 IROHF=0.

 **********************************************************************

            Population analysis using the SCF Density.

 **********************************************************************

 Alpha  occ. eigenvalues --  -89.14838 -19.24065 -19.16420 -19.16109 -14.38870
 Alpha  occ. eigenvalues --  -14.38383 -14.38260 -10.27847 -10.27058 -10.22110
 Alpha  occ. eigenvalues --  -10.21895 -10.21654 -10.20264 -10.20255 -10.20084
 Alpha  occ. eigenvalues --  -10.19881 -10.19787 -10.19753  -8.16994  -6.13503
 Alpha  occ. eigenvalues --   -6.13416  -6.13388  -1.14639  -1.13921  -1.02355
 Alpha  occ. eigenvalues --   -0.96200  -0.94672  -0.87533  -0.85229  -0.81004
 Alpha  occ. eigenvalues --   -0.75485  -0.75321  -0.72791  -0.72085  -0.65063
 Alpha  occ. eigenvalues --   -0.64879  -0.61763  -0.60163  -0.56926  -0.55208
 Alpha  occ. eigenvalues --   -0.53989  -0.52291  -0.50508  -0.49076  -0.48280
 Alpha  occ. eigenvalues --   -0.48078  -0.46903  -0.46204  -0.45064  -0.44754
 Alpha  occ. eigenvalues --   -0.43341  -0.42704  -0.41959  -0.40928  -0.39701
 Alpha  occ. eigenvalues --   -0.39039  -0.38756  -0.37477  -0.36700  -0.35999
 Alpha  occ. eigenvalues --   -0.35033  -0.34141  -0.33472  -0.32368  -0.31622
 Alpha  occ. eigenvalues --   -0.29970  -0.27569  -0.26171  -0.25364  -0.23586
 Alpha virt. eigenvalues --   -0.05265  -0.00994   0.01916   0.04502   0.06629
 Alpha virt. eigenvalues --    0.07438   0.08078   0.08570   0.09585   0.10932
 Alpha virt. eigenvalues --    0.11728   0.12169   0.13472   0.14304   0.15318
 Alpha virt. eigenvalues --    0.16344   0.16874   0.17005   0.17037   0.17909
 Alpha virt. eigenvalues --    0.18755   0.19344   0.19919   0.20288   0.21990
 Alpha virt. eigenvalues --    0.23342   0.25763   0.26096   0.29929   0.30007
 Alpha virt. eigenvalues --    0.31913   0.32393   0.33136   0.35290   0.38007
 Alpha virt. eigenvalues --    0.40225   0.43375   0.44139   0.45683   0.47579
 Alpha virt. eigenvalues --    0.48665   0.50037   0.50544   0.52009   0.53295
 Alpha virt. eigenvalues --    0.53505   0.54207   0.54832   0.55722   0.56850
 Alpha virt. eigenvalues --    0.57940   0.58264   0.58435   0.58947   0.60208
 Alpha virt. eigenvalues --    0.60713   0.61428   0.62174   0.62404   0.63360
 Alpha virt. eigenvalues --    0.64804   0.64943   0.67316   0.68850   0.70467
 Alpha virt. eigenvalues --    0.70992   0.72427   0.75458   0.75799   0.76643
 Alpha virt. eigenvalues --    0.78285   0.78641   0.79409   0.81609   0.82740
 Alpha virt. eigenvalues --    0.83275   0.83646   0.84893   0.85134   0.85963
 Alpha virt. eigenvalues --    0.86857   0.87197   0.88477   0.89490   0.90279
 Alpha virt. eigenvalues --    0.90736   0.91169   0.92702   0.93191   0.94250
 Alpha virt. eigenvalues --    0.94712   0.95382   0.96594   0.96792   0.98217
 Alpha virt. eigenvalues --    1.00894   1.01051   1.02577   1.03851   1.04625
 Alpha virt. eigenvalues --    1.06476   1.07218   1.09479   1.10558   1.13335
 Alpha virt. eigenvalues --    1.13621   1.14837   1.16886   1.17773   1.18692
 Alpha virt. eigenvalues --    1.20568   1.22686   1.24198   1.26050   1.29418
 Alpha virt. eigenvalues --    1.30146   1.31666   1.32607   1.35167   1.35965
 Alpha virt. eigenvalues --    1.37468   1.41446   1.41928   1.42463   1.43670
 Alpha virt. eigenvalues --    1.45597   1.47161   1.47746   1.48234   1.48742
 Alpha virt. eigenvalues --    1.50129   1.50402   1.53712   1.56015   1.58332
 Alpha virt. eigenvalues --    1.61644   1.67502   1.71162   1.72199   1.76646
 Alpha virt. eigenvalues --    1.77745   1.78509   1.79053   1.80109   1.80424
 Alpha virt. eigenvalues --    1.81872   1.84306   1.86301   1.88376   1.88886
 Alpha virt. eigenvalues --    1.91919   1.92757   1.93990   1.95756   1.96486
 Alpha virt. eigenvalues --    1.96761   1.97376   1.97781   2.00034   2.00463
 Alpha virt. eigenvalues --    2.04214   2.05065   2.06530   2.09498   2.10367
 Alpha virt. eigenvalues --    2.11267   2.11382   2.12958   2.13274   2.14558
 Alpha virt. eigenvalues --    2.17809   2.19419   2.21167   2.22192   2.23354
 Alpha virt. eigenvalues --    2.24588   2.25571   2.27213   2.27982   2.29796
 Alpha virt. eigenvalues --    2.30113   2.33011   2.35029   2.35170   2.42410
 Alpha virt. eigenvalues --    2.43425   2.48420   2.51016   2.53178   2.53543
 Alpha virt. eigenvalues --    2.56883   2.58153   2.59254   2.60328   2.62619
 Alpha virt. eigenvalues --    2.66059   2.66701   2.70995   2.72169   2.73707
 Alpha virt. eigenvalues --    2.74198   2.74893   2.77605   2.83050   2.87924
 Alpha virt. eigenvalues --    2.89167   2.92594   3.02863   3.05908   3.13171
 Alpha virt. eigenvalues --    3.27287   3.42847   3.70851   3.81940   3.98411
 Alpha virt. eigenvalues --    4.00716   4.04698   4.07789   4.09116   4.10866
 Alpha virt. eigenvalues --    4.12755   4.16873   4.23371   4.29608   4.31739
 Alpha virt. eigenvalues --    4.32830   4.38290   4.40842   4.57159   4.74236
          Condensed to atoms (all electrons):
               1          2          3          4          5          6
     1  O    8.253406   0.442355  -0.055526   0.008224  -0.002331   0.000013
     2  S    0.442355  13.499921   0.120459  -0.013326   0.006089  -0.000244
     3  N   -0.055526   0.120459   7.448762   0.236866  -0.074082   0.005317
     4  C    0.008224  -0.013326   0.236866   4.470973   0.398162  -0.037647
     5  N   -0.002331   0.006089  -0.074082   0.398162   6.960131   0.111794
     6  O    0.000013  -0.000244   0.005317  -0.037647   0.111794   8.214836
     7  C    0.000004   0.000218  -0.000120  -0.018605  -0.082324   0.245093
     8  C    0.000000  -0.000010  -0.000212   0.002708   0.004163  -0.037895
     9  C    0.000000   0.000000   0.000003   0.000608  -0.000101   0.003113
    10  C    0.000000   0.000000   0.000000  -0.000006   0.000001  -0.000061
    11  C    0.000000  -0.000000   0.000000   0.000000  -0.000000   0.000002
    12  C    0.000000  -0.000000  -0.000000   0.000005   0.000000   0.000286
    13  C   -0.000000  -0.000000  -0.000001  -0.000352   0.000143  -0.006747
    14  C    0.000098   0.001217  -0.052955   0.454774  -0.045730  -0.090468
    15  N   -0.053414   0.195630  -0.056769  -0.005509   0.001008   0.000006
    16  C    0.001555  -0.017841   0.002055   0.000363  -0.000159   0.000000
    17  C   -0.004972  -0.018488   0.000158   0.000981  -0.003749   0.000023
    18  O   -0.040248   0.461275  -0.055976   0.001343  -0.000007   0.000000
    19  H    0.000202  -0.009598   0.300267  -0.016682   0.002743  -0.000060
    20  H    0.000000  -0.000000  -0.000001   0.000071  -0.000005   0.000023
    21  H   -0.000000   0.000000  -0.000000  -0.000000  -0.000000   0.000000
    22  H   -0.000000  -0.000000  -0.000000  -0.000000   0.000000   0.000000
    23  H    0.000000   0.000000   0.000000  -0.000000   0.000000  -0.000003
    24  H    0.000000  -0.000000  -0.000000   0.000055  -0.000259   0.009868
    25  H    0.000001  -0.000141  -0.002117  -0.027160   0.004843   0.003344
    26  H    0.000052   0.003018  -0.001548  -0.000016   0.000003  -0.000000
    27  H   -0.000050   0.002633   0.000017  -0.000025   0.000000   0.000000
    28  H   -0.000021  -0.009826   0.006136   0.001072  -0.000120  -0.000001
    29  H    0.010259  -0.003453   0.000016  -0.000093   0.000079   0.000002
    30  H   -0.000143  -0.007729   0.001551   0.001508   0.007903  -0.000177
    31  H    0.000148   0.003228  -0.000140  -0.000046   0.000199  -0.000000
               7          8          9         10         11         12
     1  O    0.000004   0.000000   0.000000   0.000000   0.000000   0.000000
     2  S    0.000218  -0.000010   0.000000   0.000000  -0.000000  -0.000000
     3  N   -0.000120  -0.000212   0.000003   0.000000   0.000000  -0.000000
     4  C   -0.018605   0.002708   0.000608  -0.000006   0.000000   0.000005
     5  N   -0.082324   0.004163  -0.000101   0.000001  -0.000000   0.000000
     6  O    0.245093  -0.037895   0.003113  -0.000061   0.000002   0.000286
     7  C    4.724119   0.347246  -0.042553   0.006365   0.000863   0.004769
     8  C    0.347246   4.785672   0.535673  -0.011105  -0.033839  -0.009640
     9  C   -0.042553   0.535673   5.012954   0.518464  -0.040074  -0.041433
    10  C    0.006365  -0.011105   0.518464   4.884394   0.538884  -0.026041
    11  C    0.000863  -0.033839  -0.040074   0.538884   4.874433   0.538970
    12  C    0.004769  -0.009640  -0.041433  -0.026041   0.538970   4.891923
    13  C   -0.041866   0.472504  -0.081750  -0.042245  -0.038034   0.505172
    14  C    0.508529  -0.056553  -0.019768   0.000216   0.000015  -0.000228
    15  N   -0.000004  -0.000000   0.000000   0.000000  -0.000000   0.000000
    16  C    0.000000   0.000000  -0.000000   0.000000   0.000000  -0.000000
    17  C   -0.000001   0.000000  -0.000000  -0.000000   0.000000  -0.000000
    18  O   -0.000000  -0.000000  -0.000000  -0.000000   0.000000  -0.000000
    19  H    0.000000  -0.000002  -0.000000  -0.000000  -0.000000  -0.000000
    20  H   -0.012377  -0.036892   0.357479  -0.041539   0.004483   0.000160
    21  H   -0.000204   0.003225  -0.037495   0.363142  -0.040773   0.004386
    22  H    0.000003   0.000479   0.004797  -0.041609   0.364883  -0.041546
    23  H   -0.000173   0.003229   0.000767   0.004403  -0.040893   0.363591
    24  H   -0.012994  -0.043167   0.005323   0.000195   0.004557  -0.040885
    25  H   -0.027299  -0.003216   0.001136   0.000083  -0.000001   0.000001
    26  H   -0.000000  -0.000000   0.000000   0.000000  -0.000000  -0.000000
    27  H    0.000000  -0.000000   0.000000   0.000000  -0.000000   0.000000
    28  H    0.000001   0.000000  -0.000000  -0.000000   0.000000  -0.000000
    29  H    0.000000   0.000000   0.000000  -0.000000   0.000000   0.000000
    30  H    0.000018   0.000000   0.000000  -0.000000  -0.000000  -0.000000
    31  H    0.000000  -0.000000   0.000000  -0.000000  -0.000000  -0.000000
              13         14         15         16         17         18
     1  O   -0.000000   0.000098  -0.053414   0.001555  -0.004972  -0.040248
     2  S   -0.000000   0.001217   0.195630  -0.017841  -0.018488   0.461275
     3  N   -0.000001  -0.052955  -0.056769   0.002055   0.000158  -0.055976
     4  C   -0.000352   0.454774  -0.005509   0.000363   0.000981   0.001343
     5  N    0.000143  -0.045730   0.001008  -0.000159  -0.003749  -0.000007
     6  O   -0.006747  -0.090468   0.000006   0.000000   0.000023   0.000000
     7  C   -0.041866   0.508529  -0.000004   0.000000  -0.000001  -0.000000
     8  C    0.472504  -0.056553  -0.000000   0.000000   0.000000  -0.000000
     9  C   -0.081750  -0.019768   0.000000  -0.000000  -0.000000  -0.000000
    10  C   -0.042245   0.000216   0.000000   0.000000  -0.000000  -0.000000
    11  C   -0.038034   0.000015  -0.000000   0.000000   0.000000   0.000000
    12  C    0.505172  -0.000228   0.000000  -0.000000  -0.000000  -0.000000
    13  C    5.060253   0.011746   0.000000  -0.000000  -0.000000   0.000000
    14  C    0.011746   5.231918  -0.000105  -0.000006   0.000011  -0.000068
    15  N    0.000000  -0.000105   7.174580   0.268667   0.268473  -0.055945
    16  C   -0.000000  -0.000006   0.268667   4.997577  -0.047256  -0.007140
    17  C   -0.000000   0.000011   0.268473  -0.047256   5.002724   0.001372
    18  O    0.000000  -0.000068  -0.055945  -0.007140   0.001372   8.262261
    19  H    0.000000  -0.004441   0.001542  -0.000204  -0.000020   0.004503
    20  H    0.005631   0.005886  -0.000000   0.000000   0.000000  -0.000000
    21  H    0.000791  -0.000001  -0.000000  -0.000000  -0.000000   0.000000
    22  H    0.004684  -0.000000  -0.000000   0.000000   0.000000  -0.000000
    23  H   -0.037548   0.000001   0.000000   0.000000   0.000000   0.000000
    24  H    0.363077   0.000264  -0.000000   0.000000   0.000000  -0.000000
    25  H   -0.000103   0.354425   0.000000   0.000000   0.000000  -0.000001
    26  H    0.000000   0.000001  -0.034580   0.374633   0.004307   0.009726
    27  H    0.000000  -0.000000  -0.033213   0.377813  -0.003861   0.000047
    28  H   -0.000000   0.000009  -0.046163   0.377456  -0.000724  -0.000220
    29  H   -0.000000  -0.000003  -0.031197   0.004280   0.377582   0.000037
    30  H   -0.000000   0.000061  -0.044131  -0.000727   0.371812  -0.000071
    31  H    0.000000   0.000000  -0.035641  -0.004010   0.373396  -0.000044
              19         20         21         22         23         24
     1  O    0.000202   0.000000  -0.000000  -0.000000   0.000000   0.000000
     2  S   -0.009598  -0.000000   0.000000  -0.000000   0.000000  -0.000000
     3  N    0.300267  -0.000001  -0.000000  -0.000000   0.000000  -0.000000
     4  C   -0.016682   0.000071  -0.000000  -0.000000  -0.000000   0.000055
     5  N    0.002743  -0.000005  -0.000000   0.000000   0.000000  -0.000259
     6  O   -0.000060   0.000023   0.000000   0.000000  -0.000003   0.009868
     7  C    0.000000  -0.012377  -0.000204   0.000003  -0.000173  -0.012994
     8  C   -0.000002  -0.036892   0.003225   0.000479   0.003229  -0.043167
     9  C   -0.000000   0.357479  -0.037495   0.004797   0.000767   0.005323
    10  C   -0.000000  -0.041539   0.363142  -0.041609   0.004403   0.000195
    11  C   -0.000000   0.004483  -0.040773   0.364883  -0.040893   0.004557
    12  C   -0.000000   0.000160   0.004386  -0.041546   0.363591  -0.040885
    13  C    0.000000   0.005631   0.000791   0.004684  -0.037548   0.363077
    14  C   -0.004441   0.005886  -0.000001  -0.000000   0.000001   0.000264
    15  N    0.001542  -0.000000  -0.000000  -0.000000   0.000000  -0.000000
    16  C   -0.000204   0.000000  -0.000000   0.000000   0.000000   0.000000
    17  C   -0.000020   0.000000  -0.000000   0.000000   0.000000   0.000000
    18  O    0.004503  -0.000000   0.000000  -0.000000   0.000000  -0.000000
    19  H    0.289926   0.000000   0.000000   0.000000   0.000000   0.000000
    20  H    0.000000   0.555259  -0.004875  -0.000154   0.000015  -0.000138
    21  H    0.000000  -0.004875   0.557424  -0.005111  -0.000162   0.000015
    22  H    0.000000  -0.000154  -0.005111   0.560081  -0.005113  -0.000151
    23  H    0.000000   0.000015  -0.000162  -0.005113   0.557522  -0.004906
    24  H    0.000000  -0.000138   0.000015  -0.000151  -0.004906   0.554096
    25  H    0.001722   0.001857  -0.000002  -0.000000   0.000000  -0.000008
    26  H   -0.000017   0.000000   0.000000  -0.000000   0.000000   0.000000
    27  H    0.000007  -0.000000  -0.000000  -0.000000   0.000000  -0.000000
    28  H   -0.000196   0.000000   0.000000   0.000000  -0.000000   0.000000
    29  H   -0.000001  -0.000000  -0.000000   0.000000  -0.000000  -0.000000
    30  H   -0.000029   0.000000   0.000000  -0.000000  -0.000000  -0.000000
    31  H    0.000002  -0.000000   0.000000  -0.000000   0.000000  -0.000000
              25         26         27         28         29         30
     1  O    0.000001   0.000052  -0.000050  -0.000021   0.010259  -0.000143
     2  S   -0.000141   0.003018   0.002633  -0.009826  -0.003453  -0.007729
     3  N   -0.002117  -0.001548   0.000017   0.006136   0.000016   0.001551
     4  C   -0.027160  -0.000016  -0.000025   0.001072  -0.000093   0.001508
     5  N    0.004843   0.000003   0.000000  -0.000120   0.000079   0.007903
     6  O    0.003344  -0.000000   0.000000  -0.000001   0.000002  -0.000177
     7  C   -0.027299  -0.000000   0.000000   0.000001   0.000000   0.000018
     8  C   -0.003216  -0.000000  -0.000000   0.000000   0.000000   0.000000
     9  C    0.001136   0.000000   0.000000  -0.000000   0.000000   0.000000
    10  C    0.000083   0.000000   0.000000  -0.000000  -0.000000  -0.000000
    11  C   -0.000001  -0.000000  -0.000000   0.000000   0.000000  -0.000000
    12  C    0.000001  -0.000000   0.000000  -0.000000   0.000000  -0.000000
    13  C   -0.000103   0.000000   0.000000  -0.000000  -0.000000  -0.000000
    14  C    0.354425   0.000001  -0.000000   0.000009  -0.000003   0.000061
    15  N    0.000000  -0.034580  -0.033213  -0.046163  -0.031197  -0.044131
    16  C    0.000000   0.374633   0.377813   0.377456   0.004280  -0.000727
    17  C    0.000000   0.004307  -0.003861  -0.000724   0.377582   0.371812
    18  O   -0.000001   0.009726   0.000047  -0.000220   0.000037  -0.000071
    19  H    0.001722  -0.000017   0.000007  -0.000196  -0.000001  -0.000029
    20  H    0.001857   0.000000  -0.000000   0.000000  -0.000000   0.000000
    21  H   -0.000002   0.000000  -0.000000   0.000000  -0.000000   0.000000
    22  H   -0.000000  -0.000000  -0.000000   0.000000   0.000000  -0.000000
    23  H    0.000000   0.000000   0.000000  -0.000000  -0.000000  -0.000000
    24  H   -0.000008   0.000000  -0.000000   0.000000  -0.000000  -0.000000
    25  H    0.498575   0.000000  -0.000000   0.000000  -0.000000  -0.000001
    26  H    0.000000   0.500302  -0.021596  -0.029820  -0.000193  -0.000160
    27  H   -0.000000  -0.021596   0.517712  -0.034216   0.000029  -0.001323
    28  H    0.000000  -0.029820  -0.034216   0.554375  -0.000153   0.006782
    29  H   -0.000000  -0.000193   0.000029  -0.000153   0.498011  -0.028611
    30  H   -0.000001  -0.000160  -0.001323   0.006782  -0.028611   0.549151
    31  H   -0.000000   0.000027   0.004930  -0.001352  -0.021630  -0.034016
              31
     1  O    0.000148
     2  S    0.003228
     3  N   -0.000140
     4  C   -0.000046
     5  N    0.000199
     6  O   -0.000000
     7  C    0.000000
     8  C   -0.000000
     9  C    0.000000
    10  C   -0.000000
    11  C   -0.000000
    12  C   -0.000000
    13  C    0.000000
    14  C    0.000000
    15  N   -0.035641
    16  C   -0.004010
    17  C    0.373396
    18  O   -0.000044
    19  H    0.000002
    20  H   -0.000000
    21  H    0.000000
    22  H   -0.000000
    23  H    0.000000
    24  H   -0.000000
    25  H   -0.000000
    26  H    0.000027
    27  H    0.004930
    28  H   -0.001352
    29  H   -0.021630
    30  H   -0.034016
    31  H    0.528450
 Mulliken charges:
               1
     1  O   -0.559613
     2  S    1.344614
     3  N   -0.822159
     4  C    0.541757
     5  N   -0.288396
     6  O   -0.420418
     7  C    0.401293
     8  C    0.077631
     9  C   -0.177143
    10  C   -0.153541
    11  C   -0.133477
    12  C   -0.149489
    13  C   -0.175354
    14  C   -0.298846
    15  N   -0.513237
    16  C   -0.327057
    17  C   -0.321766
    18  O   -0.580844
    19  H    0.430336
    20  H    0.165117
    21  H    0.159639
    22  H    0.158756
    23  H    0.159271
    24  H    0.165058
    25  H    0.194060
    26  H    0.195860
    27  H    0.191096
    28  H    0.176981
    29  H    0.195039
    30  H    0.178332
    31  H    0.186499
 Sum of Mulliken charges =  -0.00000
 Mulliken charges with hydrogens summed into heavy atoms:
               1
     1  O   -0.559613
     2  S    1.344614
     3  N   -0.391823
     4  C    0.541757
     5  N   -0.288396
     6  O   -0.420418
     7  C    0.401293
     8  C    0.077631
     9  C   -0.012026
    10  C    0.006098
    11  C    0.025280
    12  C    0.009783
    13  C   -0.010296
    14  C   -0.104787
    15  N   -0.513237
    16  C    0.236881
    17  C    0.238104
    18  O   -0.580844
 Electronic spatial extent (au):  <R**2>=           7149.7119
 Charge=             -0.0000 electrons
 Dipole moment (field-independent basis, Debye):
    X=              4.6526    Y=             -1.6325    Z=              5.4863  Tot=              7.3764
 Quadrupole moment (field-independent basis, Debye-Ang):
   XX=            -97.6973   YY=           -100.7317   ZZ=           -116.0323
   XY=            -12.3768   XZ=            -16.5103   YZ=             -2.4577
 Traceless Quadrupole moment (field-independent basis, Debye-Ang):
   XX=              7.1231   YY=              4.0887   ZZ=            -11.2119
   XY=            -12.3768   XZ=            -16.5103   YZ=             -2.4577
 Octapole moment (field-independent basis, Debye-Ang**2):
  XXX=            125.3680  YYY=             -6.3432  ZZZ=              9.2571  XYY=              5.5720
  XXY=             52.1933  XXZ=             61.6608  XZZ=            -25.8885  YZZ=              0.8889
  YYZ=              6.3163  XYZ=             -9.0545
 Hexadecapole moment (field-independent basis, Debye-Ang**3):
 XXXX=          -7341.6822 YYYY=           -781.1430 ZZZZ=           -448.1812 XXXY=           -215.8822
 XXXZ=           -225.5068 YYYX=            -36.5519 YYYZ=            -20.2555 ZZZX=            -42.9388
 ZZZY=              6.0767 XXYY=          -1397.2985 XXZZ=          -1488.1119 YYZZ=           -213.2771
 XXYZ=            -46.1899 YYXZ=            -14.1709 ZZXY=              0.4187
 N-N= 1.446375932914D+03 E-N=-5.740173965580D+03  KE= 1.205901969608D+03
 No NMR shielding tensors so no spin-rotation constants.
 Leave Link  601 at Mon Sep 14 19:04:57 2020, MaxMem=  2147483648 cpu:               1.1 elap:               0.4
 (Enter /prod/apps/gaussian/g16b1/l701.exe)
 ... and contract with generalized density number  0.
 Compute integral first derivatives.
 D1PCM: PCM CHGder 1st derivatives, ID1Alg=3 FixD1E=F DoIter=F DoCFld=F I1PDM=0.
 GePol: Maximum number of non-zero 1st derivatives   =     175
 Leave Link  701 at Mon Sep 14 19:04:59 2020, MaxMem=  2147483648 cpu:               8.4 elap:               2.1
 (Enter /prod/apps/gaussian/g16b1/l702.exe)
 L702 exits ... SP integral derivatives will be done elsewhere.
 Leave Link  702 at Mon Sep 14 19:04:59 2020, MaxMem=  2147483648 cpu:               0.1 elap:               0.1
 (Enter /prod/apps/gaussian/g16b1/l703.exe)
 Integral derivatives from FoFJK, PRISM(SPDF).
 Compute integral first derivatives, UseDBF=F ICtDFT=           0.
 Calling FoFJK, ICntrl=      2127 FMM=F ISym2X=0 I1Cent= 0 IOpClX= 0 NMat=1 NMatS=1 NMatT=0.
 FoFJK:  IHMeth= 1 ICntrl=    2127 DoSepK=F KAlg= 0 I1Cent=           0 FoldK=F
 IRaf=         0 NMat=       1 IRICut=       1 DoRegI=T DoRafI=F ISym2E= 0 IDoP0=0 IntGTp=1.
 FoFCou: FMM=F IPFlag=           0 FMFlag=      100000 FMFlg1=         800
         NFxFlg=           0 DoJE=F BraDBF=F KetDBF=F FulRan=T
         wScrn=  0.000000 ICntrl=      2127 IOpCl=  0 I1Cent=           0 NGrid=           0
         NMat0=    1 NMatS0=      1 NMatT0=    0 NMatD0=    1 NMtDS0=    0 NMtDT0=    0
 Symmetry not used in FoFCou.
 Leave Link  703 at Mon Sep 14 19:05:11 2020, MaxMem=  2147483648 cpu:              47.8 elap:              12.0
 (Enter /prod/apps/gaussian/g16b1/l716.exe)
 Dipole        = 1.83049299D+00-6.42257409D-01 2.15848249D+00
 -------------------------------------------------------------------
 Center     Atomic                   Forces (Hartrees/Bohr)
 Number     Number              X              Y              Z
 -------------------------------------------------------------------
      1        8          -0.000287399   -0.000128941    0.000759765
      2       16          -0.000863952    0.000497189   -0.000933195
      3        7           0.000755568    0.000134648    0.000366699
      4        6           0.000448655   -0.000587784    0.000035810
      5        7           0.000440068   -0.000072185   -0.000094238
      6        8          -0.000203765    0.000979962   -0.000026768
      7        6          -0.001831678   -0.001428510    0.000172474
      8        6           0.000805077   -0.000707859    0.000188954
      9        6          -0.000265963    0.000288695   -0.000215672
     10        6           0.000441496   -0.000121898    0.000232826
     11        6          -0.000471384   -0.000581652   -0.000169974
     12        6          -0.000091533    0.000793049    0.000087382
     13        6           0.000763306    0.000260833   -0.000126354
     14        6           0.000354025    0.000252280   -0.000046821
     15        7           0.000269049    0.000303809   -0.000549403
     16        6          -0.000570929    0.000136045    0.000359826
     17        6           0.000503895   -0.001110792   -0.000228539
     18        8           0.000361830    0.000600061   -0.000146044
     19        1          -0.000132885   -0.000295557    0.000209828
     20        1          -0.000011010    0.000100522    0.000008118
     21        1          -0.000122445    0.000170280   -0.000057194
     22        1           0.000287728   -0.000079475    0.000082268
     23        1          -0.000127736   -0.000355159    0.000044459
     24        1          -0.000163909    0.000443340   -0.000115088
     25        1          -0.000079236    0.000537930   -0.000184032
     26        1          -0.000045997   -0.000482263   -0.000142431
     27        1          -0.000208396    0.000260778    0.000141759
     28        1           0.000537234    0.000062118    0.000358774
     29        1          -0.000009704   -0.000206480    0.000164592
     30        1          -0.000354838   -0.000019773   -0.000232234
     31        1          -0.000125172    0.000356789    0.000054451
 -------------------------------------------------------------------
 Cartesian Forces:  Max     0.001831678 RMS     0.000456723
 Leave Link  716 at Mon Sep 14 19:05:11 2020, MaxMem=  2147483648 cpu:               0.1 elap:               0.1
 (Enter /prod/apps/gaussian/g16b1/l103.exe)

 GradGradGradGradGradGradGradGradGradGradGradGradGradGradGradGradGradGrad
 Berny optimization.
 FormGI is forming the generalized inverse of G from B-inverse, IUseBI=4.
 GSVD:  received Info=                   1 from GESDD.
 Internal  Forces:  Max     0.001120763 RMS     0.000306264
 Search for a local minimum.
 Step number   1 out of a maximum of  164
 All quantities printed in internal units (Hartrees-Bohrs-Radians)
 RMS Force = .30626D-03 SwitMx=.10000D-02 MixMth= 2
 Mixed Optimization -- En-DIIS/RFO-DIIS
 Second derivative matrix not updated -- first step.
 ITU=  0
     Eigenvalues ---    0.00744   0.00779   0.01227   0.01330   0.01804
     Eigenvalues ---    0.01822   0.01822   0.01877   0.01880   0.01955
     Eigenvalues ---    0.02048   0.02059   0.02074   0.02102   0.02115
     Eigenvalues ---    0.02127   0.02143   0.02147   0.02162   0.02167
     Eigenvalues ---    0.02263   0.02326   0.07226   0.07240   0.07755
     Eigenvalues ---    0.07796   0.09535   0.10987   0.14162   0.14536
     Eigenvalues ---    0.15999   0.16000   0.16000   0.16000   0.16000
     Eigenvalues ---    0.16000   0.16000   0.16000   0.16000   0.16000
     Eigenvalues ---    0.16000   0.16000   0.19782   0.20526   0.21077
     Eigenvalues ---    0.22000   0.22000   0.22531   0.23477   0.23805
     Eigenvalues ---    0.24980   0.24998   0.24999   0.25000   0.25000
     Eigenvalues ---    0.34234   0.34279   0.34707   0.34727   0.35015
     Eigenvalues ---    0.35060   0.35268   0.35368   0.35406   0.35464
     Eigenvalues ---    0.35494   0.35541   0.35656   0.35862   0.36209
     Eigenvalues ---    0.37300   0.39670   0.41487   0.41740   0.41974
     Eigenvalues ---    0.43300   0.44702   0.45322   0.45568   0.46331
     Eigenvalues ---    0.46950   0.47052   0.48668   0.51910   0.59946
     Eigenvalues ---    0.89996   0.90568
 RFO step:  Lambda=-5.55823482D-05 EMin= 7.43708358D-03
 Linear search not attempted -- first point.
 Iteration  1 RMS(Cart)=  0.00806506 RMS(Int)=  0.00001662
 Iteration  2 RMS(Cart)=  0.00003400 RMS(Int)=  0.00000109
 Iteration  3 RMS(Cart)=  0.00000000 RMS(Int)=  0.00000109
 ITry= 1 IFail=0 DXMaxC= 2.86D-02 DCOld= 1.00D+10 DXMaxT= 3.00D-01 DXLimC= 3.00D+00 Rises=F
 Variable       Old X    -DE/DX   Delta X   Delta X   Delta X     New X
                                 (Linear)    (Quad)   (Total)
    R1        2.76372  -0.00079   0.00000  -0.00087  -0.00087   2.76285
    R2        3.22242   0.00092   0.00000   0.00260   0.00260   3.22501
    R3        3.12955  -0.00057   0.00000  -0.00136  -0.00136   3.12819
    R4        2.76635  -0.00070   0.00000  -0.00078  -0.00078   2.76557
    R5        2.62963   0.00017   0.00000   0.00036   0.00036   2.62999
    R6        1.92324   0.00032   0.00000   0.00071   0.00071   1.92394
    R7        2.49357   0.00025   0.00000   0.00042   0.00042   2.49398
    R8        2.68747  -0.00057   0.00000  -0.00144  -0.00144   2.68603
    R9        2.65518  -0.00022   0.00000  -0.00037  -0.00037   2.65480
   R10        2.55987   0.00057   0.00000   0.00109   0.00109   2.56096
   R11        2.75397   0.00105   0.00000   0.00282   0.00282   2.75679
   R12        2.58429  -0.00082   0.00000  -0.00167  -0.00167   2.58262
   R13        2.65511  -0.00039   0.00000  -0.00088  -0.00088   2.65423
   R14        2.65218   0.00089   0.00000   0.00203   0.00203   2.65421
   R15        2.62918  -0.00000   0.00000  -0.00007  -0.00007   2.62912
   R16        2.04928  -0.00009   0.00000  -0.00024  -0.00024   2.04904
   R17        2.64214  -0.00031   0.00000  -0.00073  -0.00073   2.64141
   R18        2.05021  -0.00022   0.00000  -0.00063  -0.00063   2.04958
   R19        2.63805   0.00044   0.00000   0.00096   0.00096   2.63902
[...]
 Alpha virt. eigenvalues --    2.11238   2.12340   2.13420   2.13659   2.15307
 Alpha virt. eigenvalues --    2.16148   2.16958   2.17484   2.18119   2.18937
 Alpha virt. eigenvalues --    2.20121   2.22040   2.22948   2.23687   2.24092
 Alpha virt. eigenvalues --    2.25744   2.26034   2.27066   2.28384   2.28958
 Alpha virt. eigenvalues --    2.29033   2.29915   2.30747   2.31299   2.32154
 Alpha virt. eigenvalues --    2.32551   2.33860   2.34613   2.35745   2.35952
 Alpha virt. eigenvalues --    2.36959   2.37545   2.38238   2.39339   2.40417
 Alpha virt. eigenvalues --    2.41486   2.42770   2.44462   2.46599   2.46755
 Alpha virt. eigenvalues --    2.48537   2.49411   2.51012   2.52819   2.54695
 Alpha virt. eigenvalues --    2.55557   2.58896   2.61381   2.61973   2.63767
 Alpha virt. eigenvalues --    2.65975   2.67128   2.68455   2.70557   2.73709
 Alpha virt. eigenvalues --    2.76018   2.76958   2.78606   2.79569   2.79922
 Alpha virt. eigenvalues --    2.81121   2.81630   2.82630   2.83556   2.84400
 Alpha virt. eigenvalues --    2.86801   2.88388   2.89204   2.89874   2.91664
 Alpha virt. eigenvalues --    2.92673   2.94528   2.95992   2.97950   2.99896
 Alpha virt. eigenvalues --    3.01535   3.02931   3.05112   3.06811   3.11240
 Alpha virt. eigenvalues --    3.12860   3.13634   3.14774   3.16060   3.17421
 Alpha virt. eigenvalues --    3.18622   3.18983   3.23238   3.29996   3.32521
 Alpha virt. eigenvalues --    3.34356   3.37800   3.39846   3.40318   3.43298
 Alpha virt. eigenvalues --    3.46806   3.50856   3.53653   3.61984   3.66363
 Alpha virt. eigenvalues --    3.75585   3.76632   3.76806   3.77225   3.80474
 Alpha virt. eigenvalues --    3.80593   3.81931   3.84725   3.85316   3.88817
 Alpha virt. eigenvalues --    3.91786   3.92818   3.93581   3.97866   4.04232
 Alpha virt. eigenvalues --    4.06315   4.14437   4.31790   4.65421   4.89082
          Condensed to atoms (all electrons):
               1          2          3          4          5          6
     1  O    9.067086  -0.231788   0.087002   0.008553   0.032183  -0.001406
     2  S   -0.231788  14.314460   0.054606  -0.454355  -0.035204  -0.023215
     3  N    0.087002   0.054606   8.498789  -1.371740   0.023251  -0.090969
     4  C    0.008553  -0.454355  -1.371740  14.760628  -1.315489   0.717710
     5  N    0.032183  -0.035204   0.023251  -1.315489   9.505232  -1.253684
     6  O   -0.001406  -0.023215  -0.090969   0.717710  -1.253684  10.318768
     7  C    0.003549   0.116492   0.422640  -1.149374  -0.921949  -0.051277
     8  C    0.000631  -0.002892  -0.091037   0.147446   0.394699   0.198503
     9  C   -0.001016   0.002407   0.069450  -0.603877   0.363390  -0.129142
    10  C   -0.000049  -0.000777  -0.024104  -0.004528   0.048969   0.028080
    11  C    0.000015   0.000062   0.006191  -0.083386   0.014406  -0.040686
    12  C    0.000001   0.001359  -0.004830   0.227773  -0.084714  -0.026578
    13  C   -0.000095   0.011908   0.067092  -0.331096  -0.232919  -0.193710
    14  C    0.023222  -0.076643  -0.124761  -5.126695   0.739990  -0.264250
    15  N    0.085489  -0.250495   0.069662   0.189137  -0.058314  -0.004056
    16  C    0.038573  -0.241253   0.054420   0.006745   0.018103  -0.004928
    17  C    0.032932  -0.160400   0.005060  -0.092351   0.024126   0.008011
    18  O   -0.011497  -0.028517  -0.076549  -0.001944   0.017656   0.000104
    19  H   -0.005179  -0.082416   0.422310   0.048154  -0.011985   0.009588
    20  H   -0.000486   0.003159   0.006289   0.037544  -0.003927   0.007765
    21  H    0.000002  -0.000019  -0.000786   0.005828   0.000811   0.000852
    22  H   -0.000000   0.000011   0.000227  -0.003795   0.000969  -0.000543
    23  H   -0.000007  -0.000035  -0.000489   0.004957  -0.004849   0.005175
    24  H   -0.000124   0.001967   0.005908  -0.031376   0.010098  -0.117211
    25  H    0.002873  -0.010192  -0.050014   0.603217  -0.071707   0.000603
    26  H   -0.002524   0.140310  -0.012727   0.012543   0.001335   0.000095
    27  H   -0.000502  -0.092056   0.039111  -0.025554   0.003595  -0.000590
    28  H    0.003474  -0.021043  -0.073006   0.075394  -0.003049   0.000423
    29  H   -0.022828   0.157953  -0.019892   0.051941  -0.030580  -0.002338
    30  H    0.003506  -0.060485  -0.031852   0.085956  -0.001608  -0.006222
    31  H    0.005707  -0.054113   0.030144  -0.074088   0.027001   0.002644
               7          8          9         10         11         12
     1  O    0.003549   0.000631  -0.001016  -0.000049   0.000015   0.000001
     2  S    0.116492  -0.002892   0.002407  -0.000777   0.000062   0.001359
     3  N    0.422640  -0.091037   0.069450  -0.024104   0.006191  -0.004830
     4  C   -1.149374   0.147446  -0.603877  -0.004528  -0.083386   0.227773
     5  N   -0.921949   0.394699   0.363390   0.048969   0.014406  -0.084714
     6  O   -0.051277   0.198503  -0.129142   0.028080  -0.040686  -0.026578
     7  C   19.790080  -3.892579  -0.988543  -0.684836   0.396947  -0.423342
     8  C   -3.892579  19.525182  -7.254538   2.224669  -3.601341   1.210018
     9  C   -0.988543  -7.254538  22.082783  -6.713831   3.623281  -3.116539
    10  C   -0.684836   2.224669  -6.713831  13.963286  -3.192237   3.416075
    11  C    0.396947  -3.601341   3.623281  -3.192237   9.206546  -2.800418
    12  C   -0.423342   1.210018  -3.116539   3.416075  -2.800418  11.661946
    13  C   -0.320746  -5.424224  -0.082743  -3.185423   2.410403  -3.931302
    14  C   -7.258305   0.239541  -1.429648   0.682720  -0.312604  -0.057659
    15  N   -0.050174  -0.001756  -0.002769  -0.000100  -0.000079   0.000453
    16  C   -0.009660  -0.001243  -0.001481  -0.000036  -0.000047   0.000122
    17  C   -0.004028  -0.003910   0.002159   0.000642  -0.000073  -0.001090
    18  O    0.007021  -0.000026   0.000559   0.000004   0.000009  -0.000037
    19  H    0.038734  -0.006018  -0.001435  -0.004560   0.000089   0.001524
    20  H   -0.115533   0.868574  -1.279990   0.237217  -0.115241   0.082015
    21  H   -0.042893  -0.142715   0.953246  -1.009349   0.302002  -0.269101
    22  H   -0.014600   0.024975  -0.080446   0.258670  -0.524473   0.356402
    23  H    0.003087  -0.135008   0.084005  -0.224382   0.299585  -0.767443
    24  H    0.192357   0.275370  -0.079160   0.057674  -0.084845   0.328467
    25  H    0.930139  -0.041541  -0.025585   0.076682  -0.029286   0.008916
    26  H    0.002984   0.000102   0.000074   0.000050  -0.000004  -0.000026
    27  H   -0.001833   0.000220  -0.000106  -0.000021   0.000002   0.000016
    28  H   -0.010223  -0.001229  -0.000361   0.000009  -0.000048   0.000179
    29  H    0.000107   0.001237  -0.000474  -0.000113   0.000013   0.000447
    30  H    0.000948   0.003157  -0.000222  -0.000022  -0.000100  -0.000006
    31  H    0.005553  -0.001975   0.000442   0.000070  -0.000006  -0.000190
              13         14         15         16         17         18
     1  O   -0.000095   0.023222   0.085489   0.038573   0.032932  -0.011497
     2  S    0.011908  -0.076643  -0.250495  -0.241253  -0.160400  -0.028517
     3  N    0.067092  -0.124761   0.069662   0.054420   0.005060  -0.076549
     4  C   -0.331096  -5.126695   0.189137   0.006745  -0.092351  -0.001944
     5  N   -0.232919   0.739990  -0.058314   0.018103   0.024126   0.017656
     6  O   -0.193710  -0.264250  -0.004056  -0.004928   0.008011   0.000104
     7  C   -0.320746  -7.258305  -0.050174  -0.009660  -0.004028   0.007021
     8  C   -5.424224   0.239541  -0.001756  -0.001243  -0.003910  -0.000026
     9  C   -0.082743  -1.429648  -0.002769  -0.001481   0.002159   0.000559
    10  C   -3.185423   0.682720  -0.000100  -0.000036   0.000642   0.000004
    11  C    2.410403  -0.312604  -0.000079  -0.000047  -0.000073   0.000009
    12  C   -3.931302  -0.057659   0.000453   0.000122  -0.001090  -0.000037
    13  C   18.856207  -1.878803  -0.000080   0.000194  -0.003543  -0.000233
    14  C   -1.878803  20.755635  -0.028192  -0.027731   0.056108  -0.000437
    15  N   -0.000080  -0.028192   8.041983   0.274227   0.116330  -0.006933
    16  C    0.000194  -0.027731   0.274227   4.305187  -0.175250   0.036563
    17  C   -0.003543   0.056108   0.116330  -0.175250   4.324536   0.027206
    18  O   -0.000233  -0.000437  -0.006933   0.036563   0.027206   9.112901
    19  H    0.002774  -0.139712   0.004934  -0.002551  -0.001904   0.002494
    20  H   -0.106226   0.149632  -0.000176  -0.000178  -0.000666   0.000222
    21  H    0.109321   0.051938   0.000002   0.000003   0.000022  -0.000003
    22  H   -0.051054   0.000959  -0.000004  -0.000003  -0.000001   0.000000
    23  H    0.683296   0.002092   0.000021   0.000005  -0.000022  -0.000001
    24  H   -0.785970  -0.035833  -0.000735  -0.000173   0.000405   0.000024
    25  H   -0.009737  -1.687361  -0.001983   0.000491   0.003587  -0.001004
    26  H   -0.000115   0.001130  -0.124475   0.360479  -0.043630   0.000665
    27  H    0.000099   0.005745  -0.131520   0.405875   0.062632   0.004498
    28  H   -0.000422  -0.017667   0.176289   0.214752   0.006707   0.000910
    29  H    0.001133  -0.014684  -0.091886  -0.068866   0.378853  -0.003414
    30  H   -0.001951  -0.038667   0.139254   0.035473   0.137707   0.006108
    31  H   -0.000382   0.014408  -0.192635   0.054723   0.433155  -0.001547
              19         20         21         22         23         24
     1  O   -0.005179  -0.000486   0.000002  -0.000000  -0.000007  -0.000124
     2  S   -0.082416   0.003159  -0.000019   0.000011  -0.000035   0.001967
     3  N    0.422310   0.006289  -0.000786   0.000227  -0.000489   0.005908
     4  C    0.048154   0.037544   0.005828  -0.003795   0.004957  -0.031376
     5  N   -0.011985  -0.003927   0.000811   0.000969  -0.004849   0.010098
     6  O    0.009588   0.007765   0.000852  -0.000543   0.005175  -0.117211
     7  C    0.038734  -0.115533  -0.042893  -0.014600   0.003087   0.192357
     8  C   -0.006018   0.868574  -0.142715   0.024975  -0.135008   0.275370
     9  C   -0.001435  -1.279990   0.953246  -0.080446   0.084005  -0.079160
    10  C   -0.004560   0.237217  -1.009349   0.258670  -0.224382   0.057674
    11  C    0.000089  -0.115241   0.302002  -0.524473   0.299585  -0.084845
    12  C    0.001524   0.082015  -0.269101   0.356402  -0.767443   0.328467
    13  C    0.002774  -0.106226   0.109321  -0.051054   0.683296  -0.785970
    14  C   -0.139712   0.149632   0.051938   0.000959   0.002092  -0.035833
    15  N    0.004934  -0.000176   0.000002  -0.000004   0.000021  -0.000735
    16  C   -0.002551  -0.000178   0.000003  -0.000003   0.000005  -0.000173
    17  C   -0.001904  -0.000666   0.000022  -0.000001  -0.000022   0.000405
    18  O    0.002494   0.000222  -0.000003   0.000000  -0.000001   0.000024
    19  H    0.751684  -0.000541  -0.000106   0.000011   0.000004  -0.000091
    20  H   -0.000541   1.991602  -0.074087  -0.017571   0.009216  -0.012745
    21  H   -0.000106  -0.074087   1.664971  -0.051627  -0.020397   0.006659
    22  H    0.000011  -0.017571  -0.051627   1.602493  -0.057672  -0.010080
    23  H    0.000004   0.009216  -0.020397  -0.057672   1.647975  -0.089118
    24  H   -0.000091  -0.012745   0.006659  -0.010080  -0.089118   2.026390
    25  H    0.009314  -0.081705  -0.001883   0.000374   0.000634  -0.002372
    26  H   -0.001307   0.000021   0.000000  -0.000000  -0.000001   0.000031
    27  H   -0.000659  -0.000004  -0.000000  -0.000000  -0.000000  -0.000005
    28  H   -0.000035  -0.000075   0.000006  -0.000002   0.000006  -0.000090
    29  H    0.001962   0.000091  -0.000001  -0.000001   0.000012   0.000031
    30  H   -0.001303  -0.000211   0.000002  -0.000006   0.000032  -0.000884
    31  H   -0.001006  -0.000040   0.000001   0.000000  -0.000006   0.000138
              25         26         27         28         29         30
     1  O    0.002873  -0.002524  -0.000502   0.003474  -0.022828   0.003506
     2  S   -0.010192   0.140310  -0.092056  -0.021043   0.157953  -0.060485
     3  N   -0.050014  -0.012727   0.039111  -0.073006  -0.019892  -0.031852
     4  C    0.603217   0.012543  -0.025554   0.075394   0.051941   0.085956
     5  N   -0.071707   0.001335   0.003595  -0.003049  -0.030580  -0.001608
     6  O    0.000603   0.000095  -0.000590   0.000423  -0.002338  -0.006222
     7  C    0.930139   0.002984  -0.001833  -0.010223   0.000107   0.000948
     8  C   -0.041541   0.000102   0.000220  -0.001229   0.001237   0.003157
     9  C   -0.025585   0.000074  -0.000106  -0.000361  -0.000474  -0.000222
    10  C    0.076682   0.000050  -0.000021   0.000009  -0.000113  -0.000022
    11  C   -0.029286  -0.000004   0.000002  -0.000048   0.000013  -0.000100
    12  C    0.008916  -0.000026   0.000016   0.000179   0.000447  -0.000006
    13  C   -0.009737  -0.000115   0.000099  -0.000422   0.001133  -0.001951
    14  C   -1.687361   0.001130   0.005745  -0.017667  -0.014684  -0.038667
    15  N   -0.001983  -0.124475  -0.131520   0.176289  -0.091886   0.139254
    16  C    0.000491   0.360479   0.405875   0.214752  -0.068866   0.035473
    17  C    0.003587  -0.043630   0.062632   0.006707   0.378853   0.137707
    18  O   -0.001004   0.000665   0.004498   0.000910  -0.003414   0.006108
    19  H    0.009314  -0.001307  -0.000659  -0.000035   0.001962  -0.001303
    20  H   -0.081705   0.000021  -0.000004  -0.000075   0.000091  -0.000211
    21  H   -0.001883   0.000000  -0.000000   0.000006  -0.000001   0.000002
    22  H    0.000374  -0.000000  -0.000000  -0.000002  -0.000001  -0.000006
    23  H    0.000634  -0.000001  -0.000000   0.000006   0.000012   0.000032
    24  H   -0.002372   0.000031  -0.000005  -0.000090   0.000031  -0.000884
    25  H    1.961302   0.000190   0.000067   0.000083  -0.000685   0.002725
    26  H    0.000190   1.243433  -0.283820  -0.165005  -0.003820  -0.002505
    27  H    0.000067  -0.283820   1.343638  -0.175988   0.002913  -0.004247
    28  H    0.000083  -0.165005  -0.175988   1.023383  -0.004215   0.000378
    29  H   -0.000685  -0.003820   0.002913  -0.004215   1.278275  -0.146735
    30  H    0.002725  -0.002505  -0.004247   0.000378  -0.146735   1.093290
    31  H    0.000163   0.008599   0.012941  -0.011010  -0.328359  -0.208882
              31
     1  O    0.005707
     2  S   -0.054113
     3  N    0.030144
     4  C   -0.074088
     5  N    0.027001
     6  O    0.002644
     7  C    0.005553
     8  C   -0.001975
     9  C    0.000442
    10  C    0.000070
    11  C   -0.000006
    12  C   -0.000190
    13  C   -0.000382
    14  C    0.014408
    15  N   -0.192635
    16  C    0.054723
    17  C    0.433155
    18  O   -0.001547
    19  H   -0.001006
    20  H   -0.000040
    21  H    0.000001
    22  H    0.000000
    23  H   -0.000006
    24  H    0.000138
    25  H    0.000163
    26  H    0.008599
    27  H    0.012941
    28  H   -0.011010
    29  H   -0.328359
    30  H   -0.208882
    31  H    1.470082
 Mulliken charges:
               1
     1  O   -1.117298
     2  S    3.021202
     3  N   -0.889397
     4  C   -0.313877
     5  N   -0.195836
     6  O   -1.087517
     7  C    0.029256
     8  C    1.487708
     9  C    0.610112
    10  C    0.049553
    11  C    0.525321
    12  C    0.187560
    13  C    0.398344
    14  C    1.796532
    15  N   -1.151418
    16  C    0.727462
    17  C    0.866690
    18  O   -1.084801
    19  H   -0.032770
    20  H   -0.583944
    21  H   -0.482698
    22  H   -0.433212
    23  H   -0.440670
    24  H   -0.654708
    25  H   -0.586304
    26  H   -0.132084
    27  H   -0.164447
    28  H   -0.018524
    29  H   -0.136076
    30  H   -0.002627
    31  H   -0.191534
 Sum of Mulliken charges =  -0.00000
 Mulliken charges with hydrogens summed into heavy atoms:
               1
     1  O   -1.117298
     2  S    3.021202
     3  N   -0.922168
     4  C   -0.313877
     5  N   -0.195836
     6  O   -1.087517
     7  C    0.029256
     8  C    1.487708
     9  C    0.026168
    10  C   -0.433145
    11  C    0.092109
    12  C   -0.253110
    13  C   -0.256364
    14  C    1.210228
    15  N   -1.151418
    16  C    0.412407
    17  C    0.536454
    18  O   -1.084801
 Electronic spatial extent (au):  <R**2>=           7181.5944
 Charge=             -0.0000 electrons
 Dipole moment (field-independent basis, Debye):
    X=              4.2266    Y=             -0.6432    Z=              4.5296  Tot=              6.2286
 Quadrupole moment (field-independent basis, Debye-Ang):
   XX=            -99.9108   YY=           -105.8541   ZZ=           -120.9798
   XY=            -11.3272   XZ=            -14.6498   YZ=             -3.2027
 Traceless Quadrupole moment (field-independent basis, Debye-Ang):
   XX=              9.0041   YY=              3.0608   ZZ=            -12.0649
   XY=            -11.3272   XZ=            -14.6498   YZ=             -3.2027
 Octapole moment (field-independent basis, Debye-Ang**2):
  XXX=            102.9047  YYY=             -0.3940  ZZZ=              4.9756  XYY=              6.9944
  XXY=             54.7620  XXZ=             51.2552  XZZ=            -31.8469  YZZ=              1.0821
  YYZ=              4.3868  XYZ=             -7.7157
 Hexadecapole moment (field-independent basis, Debye-Ang**3):
 XXXX=          -7616.8991 YYYY=           -819.2874 ZZZZ=           -474.1276 XXXY=           -187.9753
 XXXZ=           -203.1871 YYYX=            -32.9174 YYYZ=            -25.9487 ZZZX=            -32.6791
 ZZZY=              5.2145 XXYY=          -1466.2788 XXZZ=          -1576.8076 YYZZ=           -224.1742
 XXYZ=            -59.1636 YYXZ=            -11.4461 ZZXY=              5.0087
 N-N= 1.445564897996D+03 E-N=-5.736599883028D+03  KE= 1.208040701794D+03
 Leave Link  601 at Mon Sep 14 20:01:26 2020, MaxMem=   262144000 cpu:               5.3 elap:               2.1
 (Enter /prod/apps/gaussian/g16b1/l9999.exe)
 1\1\GINC-PIRINEUS14\SP\RMP2-FC\Aug-CC-pVDZ\C11H13N3O3S1\UBAFAR01\14-Se
 p-2020\0\\#p mp2/aug-cc-pVDZ scf=(MaxCycle=2000,NoVarAcc,NoIncFock) ma
 xdisk=180GB geom=allcheck\\SM43_m0.n.10.pdb.xyz\\0,1\O,0,-2.7344823745
 ,0.1173780699,-1.8012837165\S,0,-3.0825410925,-0.5028156959,-0.5244500
 9\N,0,-1.6624611931,-0.9701293016,0.3008806153\C,0,-0.4162749874,-0.37
 22379787,0.1373550405\N,0,-0.2811738471,0.9186764845,-0.1021297508\O,0
 ,1.106706652,1.1267555311,-0.1602951922\C,0,1.7526712835,-0.0437524831
 ,0.063060211\C,0,3.2112747982,-0.0210227092,0.0484111993\C,0,3.9332207
 313,-1.1939296869,0.3223946159\C,0,5.3245905007,-1.1784644387,0.310056
 1246\C,0,6.0117600998,0.0048132698,0.0256840113\C,0,5.2989685964,1.174
 6209325,-0.2468115838\C,0,3.9060753042,1.1658753509,-0.2365613787\C,0,
 0.8345063294,-1.0370329045,0.2564628942\N,0,-3.8620173494,0.6439066675
 ,0.3824477008\C,0,-4.2273980618,0.2339247513,1.7465044023\C,0,-3.41771
 2929,2.0397087045,0.2554933686\O,0,-3.8893283114,-1.7223858249,-0.4749
 645545\H,0,-1.6452899034,-1.9774807976,0.447002599\H,0,3.4033808478,-2
 .1130800208,0.5464851426\H,0,5.8733349065,-2.0893185364,0.5234672218\H
 ,0,7.0963049401,0.0145251203,0.0170254333\H,0,5.8279231866,2.095349207
 1,-0.4682552565\H,0,3.3508673243,2.0718304292,-0.4488422948\H,0,1.0059
 997017,-2.0836872748,0.4462380596\H,0,-4.6303921786,-0.7773928448,1.72
 58168332\H,0,-5.0033779561,0.917052095,2.0956112398\H,0,-3.3717866075,
 0.2799693071,2.4301321149\H,0,-3.2220076219,2.2619577301,-0.7909470904
 \H,0,-2.5217307591,2.2450932865,0.8495186996\H,0,-4.2376100295,2.66829
 35604,0.6074933806\\Version=ES64L-G16RevB.01\State=1-A\HF=-1209.530397
 7\MP2=-1212.3136676\RMSD=5.724e-09\PG=C01 [X(C11H13N3O3S1)]\\@


 A successful marriage requires falling in love
 many times, always with the same person.
                           -- Mignon McLaughlin
 Job cpu time:       0 days  2 hours  7 minutes 49.7 seconds.
 Elapsed time:       0 days  0 hours 36 minutes  5.8 seconds.
 File lengths (MBytes):  RWF=  72479 Int=      0 D2E=      0 Chk=     24 Scr=      1
 Normal termination of Gaussian 16 at Mon Sep 14 20:01:32 2020.
