 Entering Gaussian System, Link 0=g16
 Initial command:
 /prod/apps/gaussian/g16b1/l1.exe "/tmp/ubafar01/1462016/Gau-119822.inp" -scrdir="/tmp/ubafar01/1462016/"
 Entering Link 1 = /prod/apps/gaussian/g16b1/l1.exe PID=    119823.
  
 Copyright (c) 1988-2017, Gaussian, Inc.  All Rights Reserved.
  
 This is part of the Gaussian(R) 16 program.  It is based on
 the Gaussian(R) 09 system (copyright 2009, Gaussian, Inc.),
 the Gaussian(R) 03 system (copyright 2003, Gaussian, Inc.),
 the Gaussian(R) 98 system (copyright 1998, Gaussian, Inc.),
 the Gaussian(R) 94 system (copyright 1995, Gaussian, Inc.),
 the Gaussian 92(TM) system (copyright 1992, Gaussian, Inc.),
 the Gaussian 90(TM) system (copyright 1990, Gaussian, Inc.),
 the Gaussian 88(TM) system (copyright 1988, Gaussian, Inc.),
 the Gaussian 86(TM) system (copyright 1986, Carnegie Mellon
 University), and the Gaussian 82(TM) system (copyright 1983,
 Carnegie Mellon University). Gaussian is a federally registered
 trademark of Gaussian, Inc.
  
 This software contains proprietary and confidential information,
 including trade secrets, belonging to Gaussian, Inc.
  
 This software is provided under written license and may be
 used, copied, transmitted, or stored only in accord with that
 written license.
  
 The following legend is applicable only to US Government
 contracts under FAR:
  
                    RESTRICTED RIGHTS LEGEND
  
 Use, reproduction and disclosure by the US Government is
 subject to restrictions as set forth in subparagraphs (a)
 and (c) of the Commercial Computer Software - Restricted
 Rights clause in FAR 52.227-19.
  
 Gaussian, Inc.
 340 Quinnipiac St., Bldg. 40, Wallingford CT 06492
  
  
 ---------------------------------------------------------------
 Warning -- This program may not be used in any manner that
 competes with the business of Gaussian, Inc. or will provide
 assistance to any competitor of Gaussian, Inc.  The licensee
 of this program is prohibited from giving any competitor of
 Gaussian, Inc. access to this program.  By using this program,
 the user acknowledges that Gaussian, Inc. is engaged in the
 business of creating and licensing software in the field of
 computational chemistry and represents and warrants to the
 licensee that it is not a competitor of Gaussian, Inc. and that
 it will not use this program in any manner prohibited above.
 ---------------------------------------------------------------
  

 Cite this work as:
 Gaussian 16, Revision B.01,
 M. J. Frisch, G. W. Trucks, H. B. Schlegel, G. E. Scuseria, 
 M. A. Robb, J. R. Cheeseman, G. Scalmani, V. Barone, 
 G. A. Petersson, H. Nakatsuji, X. Li, M. Caricato, A. V. Marenich, 
 J. Bloino, B. G. Janesko, R. Gomperts, B. Mennucci, H. P. Hratchian, 
 J. V. Ortiz, A. F. Izmaylov, J. L. Sonnenberg, D. Williams-Young, 
 F. Ding, F. Lipparini, F. Egidi, J. Goings, B. Peng, A. Petrone, 
 T. Henderson, D. Ranasinghe, V. G. Zakrzewski, J. Gao, N. Rega, 
 G. Zheng, W. Liang, M. Hada, M. Ehara, K. Toyota, R. Fukuda, 
 J. Hasegawa, M. Ishida, T. Nakajima, Y. Honda, O. Kitao, H. Nakai, 
 T. Vreven, K. Throssell, J. A. Montgomery, Jr., J. E. Peralta, 
 F. Ogliaro, M. J. Bearpark, J. J. Heyd, E. N. Brothers, K. N. Kudin, 
 V. N. Staroverov, T. A. Keith, R. Kobayashi, J. Normand, 
 K. Raghavachari, A. P. Rendell, J. C. Burant, S. S. Iyengar, 
 J. Tomasi, M. Cossi, J. M. Millam, M. Klene, C. Adamo, R. Cammi, 
 J. W. Ochterski, R. L. Martin, K. Morokuma, O. Farkas, 
 J. B. Foresman, and D. J. Fox, Gaussian, Inc., Wallingford CT, 2016.
 
 ******************************************
 Gaussian 16:  ES64L-G16RevB.01 20-Dec-2017
                28-Sep-2020 
 ******************************************
 %nproc=4
 Will use up to    4 processors via shared memory.
 %Chk=SM43_m3.b.6.pdb.xyz.mst.b.w.chk
 %mem=16GB
 ----------------------------------------------------------------------
 #p b3lyp/6-31G(d) opt freq NoSymm scf=(MaxCycle=2000,NoVarAcc,NoIncFoc
 k) scrf=(iefpcm,read,solvent=water)
 ----------------------------------------------------------------------
 1/18=20,19=15,26=3,38=1,40=2/1,3;
 2/9=110,12=2,15=1,17=6,18=5,40=1/2;
 3/5=1,6=6,7=1,11=2,25=1,30=1,70=2203,71=1,72=1,74=-5/1,2,3;
 4//1;
 5/5=100002,7=2000,38=1,53=1/2;
 6/7=2,8=2,9=2,10=2,28=1/1;
 7/30=1/1,2,3,16;
 1/18=20,19=15,26=3/3(2);
 2/9=110,15=1/2;
 99//99;
 2/9=110,15=1/2;
 3/5=1,6=6,7=1,11=2,25=1,30=1,70=2205,71=1,72=1,74=-5/1,2,3;
 4/5=5,16=3,69=1/1;
 5/5=100002,7=2000,38=1,53=1/2;
 7/30=1/1,2,3,16;
 1/18=20,19=15,26=3/3(-5);
 2/9=110,15=1/2;
 6/7=2,8=2,9=2,10=2,19=2,28=1/1;
 99/9=1/99;
 Leave Link    1 at Mon Sep 28 08:11:45 2020, MaxMem=  2147483648 cpu:               0.2 elap:               0.0
 (Enter /prod/apps/gaussian/g16b1/l101.exe)
 -------------------
 SM43_m3.b.6.pdb.xyz
 -------------------
 Symbolic Z-matrix:
 Charge =  2 Multiplicity = 1
 O                     3.63      0.331     2.382 
 S                     3.007    -0.008     1.124 
 N                     1.58      0.827     0.961 
 C                     0.378     0.334     0.505 
 N                     0.216    -0.783    -0.198 
 O                    -1.106    -0.951    -0.499 
 C                    -1.772     0.091     0.059 
 C                    -3.212     0.111    -0.098 
 C                    -3.937     1.237     0.33 
 C                    -5.32      1.262     0.187 
 C                    -5.985     0.17     -0.378 
 C                    -5.267    -0.95     -0.804 
 C                    -3.883    -0.985    -0.668 
 C                    -0.881     0.925     0.695 
 N                     4.047     0.867    -0.13 
 C                     5.475     0.418     0.012 
 C                     3.51      0.714    -1.522 
 O                     2.822    -1.353     0.623 
 H                     1.535     1.692     1.51 
 H                    -3.42      2.085     0.763 
 H                    -5.877     2.132     0.514 
 H                    -7.064     0.192    -0.485 
 H                    -5.785    -1.797    -1.238 
 H                    -3.32     -1.852    -0.992 
 H                    -1.09      1.826     1.245 
 H                     5.785     0.569     1.042 
 H                     6.065     1.04     -0.658 
 H                     5.548    -0.628    -0.276 
 H                     2.515     1.151    -1.561 
 H                     3.495    -0.342    -1.784 
 H                     4.183     1.262    -2.179 
 H                     3.993     1.867     0.136 
 H                     0.846    -1.449    -0.645 
 
 ITRead=  0  0  0  0  0  0  0  0  0  0  0  0  0  0  0  0  0  0  0  0
 ITRead=  0  0  0  0  0  0  0  0  0  0  0  0  0
 MicOpt= -1 -1 -1 -1 -1 -1 -1 -1 -1 -1 -1 -1 -1 -1 -1 -1 -1 -1 -1 -1
 MicOpt= -1 -1 -1 -1 -1 -1 -1 -1 -1 -1 -1 -1 -1
 NAtoms=     33 NQM=       33 NQMF=       0 NMMI=      0 NMMIF=      0
                NMic=       0 NMicF=      0.
                    Isotopes and Nuclear Properties:
 (Nuclear quadrupole moments (NQMom) in fm**2, nuclear magnetic moments (NMagM)
  in nuclear magnetons)

  Atom         1           2           3           4           5           6           7           8           9          10
 IAtWgt=          16          32          14          12          14          16          12          12          12          12
 AtmWgt=  15.9949146  31.9720718  14.0030740  12.0000000  14.0030740  15.9949146  12.0000000  12.0000000  12.0000000  12.0000000
 NucSpn=           0           0           2           0           2           0           0           0           0           0
 AtZEff=  -0.0000000  -0.0000000  -0.0000000  -0.0000000  -0.0000000  -0.0000000  -0.0000000  -0.0000000  -0.0000000  -0.0000000
 NQMom=    0.0000000   0.0000000   2.0440000   0.0000000   2.0440000   0.0000000   0.0000000   0.0000000   0.0000000   0.0000000
 NMagM=    0.0000000   0.0000000   0.4037610   0.0000000   0.4037610   0.0000000   0.0000000   0.0000000   0.0000000   0.0000000
 AtZNuc=   8.0000000  16.0000000   7.0000000   6.0000000   7.0000000   8.0000000   6.0000000   6.0000000   6.0000000   6.0000000

  Atom        11          12          13          14          15          16          17          18          19          20
 IAtWgt=          12          12          12          12          14          12          12          16           1           1
 AtmWgt=  12.0000000  12.0000000  12.0000000  12.0000000  14.0030740  12.0000000  12.0000000  15.9949146   1.0078250   1.0078250
 NucSpn=           0           0           0           0           2           0           0           0           1           1
 AtZEff=  -0.0000000  -0.0000000  -0.0000000  -0.0000000  -0.0000000  -0.0000000  -0.0000000  -0.0000000  -0.0000000  -0.0000000
 NQMom=    0.0000000   0.0000000   0.0000000   0.0000000   2.0440000   0.0000000   0.0000000   0.0000000   0.0000000   0.0000000
 NMagM=    0.0000000   0.0000000   0.0000000   0.0000000   0.4037610   0.0000000   0.0000000   0.0000000   2.7928460   2.7928460
 AtZNuc=   6.0000000   6.0000000   6.0000000   6.0000000   7.0000000   6.0000000   6.0000000   8.0000000   1.0000000   1.0000000

  Atom        21          22          23          24          25          26          27          28          29          30
 IAtWgt=           1           1           1           1           1           1           1           1           1           1
 AtmWgt=   1.0078250   1.0078250   1.0078250   1.0078250   1.0078250   1.0078250   1.0078250   1.0078250   1.0078250   1.0078250
 NucSpn=           1           1           1           1           1           1           1           1           1           1
 AtZEff=  -0.0000000  -0.0000000  -0.0000000  -0.0000000  -0.0000000  -0.0000000  -0.0000000  -0.0000000  -0.0000000  -0.0000000
 NQMom=    0.0000000   0.0000000   0.0000000   0.0000000   0.0000000   0.0000000   0.0000000   0.0000000   0.0000000   0.0000000
 NMagM=    2.7928460   2.7928460   2.7928460   2.7928460   2.7928460   2.7928460   2.7928460   2.7928460   2.7928460   2.7928460
 AtZNuc=   1.0000000   1.0000000   1.0000000   1.0000000   1.0000000   1.0000000   1.0000000   1.0000000   1.0000000   1.0000000

  Atom        31          32          33
 IAtWgt=           1           1           1
 AtmWgt=   1.0078250   1.0078250   1.0078250
 NucSpn=           1           1           1
 AtZEff=  -0.0000000  -0.0000000  -0.0000000
 NQMom=    0.0000000   0.0000000   0.0000000
 NMagM=    2.7928460   2.7928460   2.7928460
 AtZNuc=   1.0000000   1.0000000   1.0000000
 Leave Link  101 at Mon Sep 28 08:11:45 2020, MaxMem=  2147483648 cpu:               1.5 elap:               0.4
 (Enter /prod/apps/gaussian/g16b1/l103.exe)

 GradGradGradGradGradGradGradGradGradGradGradGradGradGradGradGradGradGrad
 Berny optimization.
 Initialization pass.
                           ----------------------------
                           !    Initial Parameters    !
                           ! (Angstroms and Degrees)  !
 --------------------------                            --------------------------
 ! Name  Definition              Value          Derivative Info.                !
 --------------------------------------------------------------------------------
 ! R1    R(1,2)                  1.4442         estimate D2E/DX2                !
 ! R2    R(2,3)                  1.6614         estimate D2E/DX2                !
 ! R3    R(2,15)                 1.8493         estimate D2E/DX2                !
 ! R4    R(2,18)                 1.4472         estimate D2E/DX2                !
 ! R5    R(3,4)                  1.3769         estimate D2E/DX2                !
 ! R6    R(3,19)                 1.0255         estimate D2E/DX2                !
 ! R7    R(4,5)                  1.3297         estimate D2E/DX2                !
 ! R8    R(4,14)                 1.4037         estimate D2E/DX2                !
 ! R9    R(5,6)                  1.3662         estimate D2E/DX2                !
 ! R10   R(5,33)                 1.0199         estimate D2E/DX2                !
 ! R11   R(6,7)                  1.3567         estimate D2E/DX2                !
 ! R12   R(7,8)                  1.4487         estimate D2E/DX2                !
 ! R13   R(7,14)                 1.3762         estimate D2E/DX2                !
 ! R14   R(8,9)                  1.4059         estimate D2E/DX2                !
 ! R15   R(8,13)                 1.4058         estimate D2E/DX2                !
 ! R16   R(9,10)                 1.3906         estimate D2E/DX2                !
 ! R17   R(9,20)                 1.0835         estimate D2E/DX2                !
 ! R18   R(10,11)                1.3978         estimate D2E/DX2                !
 ! R19   R(10,21)                1.0835         estimate D2E/DX2                !
 ! R20   R(11,12)                1.3969         estimate D2E/DX2                !
 ! R21   R(11,22)                1.0845         estimate D2E/DX2                !
 ! R22   R(12,13)                1.3911         estimate D2E/DX2                !
 ! R23   R(12,23)                1.0836         estimate D2E/DX2                !
 ! R24   R(13,24)                1.0833         estimate D2E/DX2                !
 ! R25   R(14,25)                1.0761         estimate D2E/DX2                !
 ! R26   R(15,16)                1.5036         estimate D2E/DX2                !
 ! R27   R(15,17)                1.4998         estimate D2E/DX2                !
 ! R28   R(15,32)                1.0362         estimate D2E/DX2                !
 ! R29   R(16,26)                1.0862         estimate D2E/DX2                !
 ! R30   R(16,27)                1.0881         estimate D2E/DX2                !
 ! R31   R(16,28)                1.0874         estimate D2E/DX2                !
 ! R32   R(17,29)                1.0874         estimate D2E/DX2                !
 ! R33   R(17,30)                1.0881         estimate D2E/DX2                !
 ! R34   R(17,31)                1.0885         estimate D2E/DX2                !
 ! A1    A(1,2,3)              109.7564         estimate D2E/DX2                !
 ! A2    A(1,2,15)             103.7106         estimate D2E/DX2                !
 ! A3    A(1,2,18)             125.0916         estimate D2E/DX2                !
 ! A4    A(3,2,15)             100.2947         estimate D2E/DX2                !
 ! A5    A(3,2,18)             108.8658         estimate D2E/DX2                !
 ! A6    A(15,2,18)            106.0751         estimate D2E/DX2                !
 ! A7    A(2,3,4)              127.0402         estimate D2E/DX2                !
 ! A8    A(2,3,19)             114.1486         estimate D2E/DX2                !
 ! A9    A(4,3,19)             116.1683         estimate D2E/DX2                !
 ! A10   A(3,4,5)              125.6074         estimate D2E/DX2                !
 ! A11   A(3,4,14)             125.973          estimate D2E/DX2                !
 ! A12   A(5,4,14)             108.4188         estimate D2E/DX2                !
 ! A13   A(4,5,6)              109.7347         estimate D2E/DX2                !
 ! A14   A(4,5,33)             134.8276         estimate D2E/DX2                !
 ! A15   A(6,5,33)             114.8881         estimate D2E/DX2                !
 ! A16   A(5,6,7)              106.855          estimate D2E/DX2                !
 ! A17   A(6,7,8)              116.9995         estimate D2E/DX2                !
 ! A18   A(6,7,14)             109.7363         estimate D2E/DX2                !
 ! A19   A(8,7,14)             133.2574         estimate D2E/DX2                !
 ! A20   A(7,8,9)              119.383          estimate D2E/DX2                !
 ! A21   A(7,8,13)             120.5054         estimate D2E/DX2                !
 ! A22   A(9,8,13)             120.1112         estimate D2E/DX2                !
 ! A23   A(8,9,10)             119.7319         estimate D2E/DX2                !
 ! A24   A(8,9,20)             120.161          estimate D2E/DX2                !
 ! A25   A(10,9,20)            120.1056         estimate D2E/DX2                !
 ! A26   A(9,10,11)            120.0437         estimate D2E/DX2                !
 ! A27   A(9,10,21)            119.6463         estimate D2E/DX2                !
 ! A28   A(11,10,21)           120.3099         estimate D2E/DX2                !
 ! A29   A(10,11,12)           120.3371         estimate D2E/DX2                !
 ! A30   A(10,11,22)           119.8249         estimate D2E/DX2                !
 ! A31   A(12,11,22)           119.838          estimate D2E/DX2                !
 ! A32   A(11,12,13)           120.1138         estimate D2E/DX2                !
 ! A33   A(11,12,23)           120.2091         estimate D2E/DX2                !
 ! A34   A(13,12,23)           119.6767         estimate D2E/DX2                !
 ! A35   A(8,13,12)            119.6621         estimate D2E/DX2                !
 ! A36   A(8,13,24)            119.8108         estimate D2E/DX2                !
 ! A37   A(12,13,24)           120.526          estimate D2E/DX2                !
 ! A38   A(4,14,7)             105.2471         estimate D2E/DX2                !
 ! A39   A(4,14,25)            126.5761         estimate D2E/DX2                !
 ! A40   A(7,14,25)            128.1605         estimate D2E/DX2                !
 ! A41   A(2,15,16)            109.194          estimate D2E/DX2                !
 ! A42   A(2,15,17)            112.3174         estimate D2E/DX2                !
 ! A43   A(2,15,32)            104.6702         estimate D2E/DX2                !
 ! A44   A(16,15,17)           113.4044         estimate D2E/DX2                !
 ! A45   A(16,15,32)           108.2661         estimate D2E/DX2                !
 ! A46   A(17,15,32)           108.545          estimate D2E/DX2                !
 ! A47   A(15,16,26)           108.6076         estimate D2E/DX2                !
 ! A48   A(15,16,27)           106.6255         estimate D2E/DX2                !
 ! A49   A(15,16,28)           109.0255         estimate D2E/DX2                !
 ! A50   A(26,16,27)           110.4684         estimate D2E/DX2                !
 ! A51   A(26,16,28)           111.4522         estimate D2E/DX2                !
 ! A52   A(27,16,28)           110.5124         estimate D2E/DX2                !
 ! A53   A(15,17,29)           108.6569         estimate D2E/DX2                !
 ! A54   A(15,17,30)           109.1117         estimate D2E/DX2                !
 ! A55   A(15,17,31)           106.7058         estimate D2E/DX2                !
 ! A56   A(29,17,30)           111.6386         estimate D2E/DX2                !
 ! A57   A(29,17,31)           109.9839         estimate D2E/DX2                !
 ! A58   A(30,17,31)           110.5955         estimate D2E/DX2                !
 ! D1    D(1,2,3,4)           -136.5669         estimate D2E/DX2                !
 ! D2    D(1,2,3,19)            24.1372         estimate D2E/DX2                !
 ! D3    D(15,2,3,4)           114.6977         estimate D2E/DX2                !
 ! D4    D(15,2,3,19)          -84.5983         estimate D2E/DX2                !
 ! D5    D(18,2,3,4)             3.6299         estimate D2E/DX2                !
 ! D6    D(18,2,3,19)          164.3339         estimate D2E/DX2                !
 ! D7    D(1,2,15,16)           56.9944         estimate D2E/DX2                !
 ! D8    D(1,2,15,17)         -176.3108         estimate D2E/DX2                !
 ! D9    D(1,2,15,32)          -58.7397         estimate D2E/DX2                !
 ! D10   D(3,2,15,16)          170.4441         estimate D2E/DX2                !
 ! D11   D(3,2,15,17)          -62.8611         estimate D2E/DX2                !
 ! D12   D(3,2,15,32)           54.7099         estimate D2E/DX2                !
 ! D13   D(18,2,15,16)         -76.3301         estimate D2E/DX2                !
 ! D14   D(18,2,15,17)          50.3648         estimate D2E/DX2                !
 ! D15   D(18,2,15,32)         167.9358         estimate D2E/DX2                !
 ! D16   D(2,3,4,5)            -18.2278         estimate D2E/DX2                !
 ! D17   D(2,3,4,14)           162.1409         estimate D2E/DX2                !
 ! D18   D(19,3,4,5)          -178.5966         estimate D2E/DX2                !
 ! D19   D(19,3,4,14)            1.7721         estimate D2E/DX2                !
 ! D20   D(3,4,5,6)           -178.9416         estimate D2E/DX2                !
 ! D21   D(3,4,5,33)            -8.1921         estimate D2E/DX2                !
 ! D22   D(14,4,5,6)             0.7438         estimate D2E/DX2                !
 ! D23   D(14,4,5,33)          171.4934         estimate D2E/DX2                !
 ! D24   D(3,4,14,7)           179.4309         estimate D2E/DX2                !
 ! D25   D(3,4,14,25)           -1.9416         estimate D2E/DX2                !
 ! D26   D(5,4,14,7)            -0.2531         estimate D2E/DX2                !
 ! D27   D(5,4,14,25)          178.3744         estimate D2E/DX2                !
 ! D28   D(4,5,6,7)             -0.9412         estimate D2E/DX2                !
 ! D29   D(33,5,6,7)          -173.7212         estimate D2E/DX2                !
 ! D30   D(5,6,7,8)           -178.397          estimate D2E/DX2                !
 ! D31   D(5,6,7,14)             0.7748         estimate D2E/DX2                !
 ! D32   D(6,7,8,9)           -173.0581         estimate D2E/DX2                !
 ! D33   D(6,7,8,13)             7.1724         estimate D2E/DX2                !
 ! D34   D(14,7,8,9)             8.0123         estimate D2E/DX2                !
 ! D35   D(14,7,8,13)         -171.7572         estimate D2E/DX2                !
 ! D36   D(6,7,14,4)            -0.3317         estimate D2E/DX2                !
 ! D37   D(6,7,14,25)         -178.9299         estimate D2E/DX2                !
 ! D38   D(8,7,14,4)           178.6551         estimate D2E/DX2                !
 ! D39   D(8,7,14,25)            0.0569         estimate D2E/DX2                !
 ! D40   D(7,8,9,10)          -179.7786         estimate D2E/DX2                !
 ! D41   D(7,8,9,20)             0.661          estimate D2E/DX2                !
 ! D42   D(13,8,9,10)           -0.0081         estimate D2E/DX2                !
 ! D43   D(13,8,9,20)         -179.5686         estimate D2E/DX2                !
 ! D44   D(7,8,13,12)          179.6645         estimate D2E/DX2                !
 ! D45   D(7,8,13,24)            0.0453         estimate D2E/DX2                !
 ! D46   D(9,8,13,12)           -0.1033         estimate D2E/DX2                !
 ! D47   D(9,8,13,24)         -179.7225         estimate D2E/DX2                !
 ! D48   D(8,9,10,11)            0.1165         estimate D2E/DX2                !
 ! D49   D(8,9,10,21)         -179.7768         estimate D2E/DX2                !
 ! D50   D(20,9,10,11)         179.6772         estimate D2E/DX2                !
 ! D51   D(20,9,10,21)          -0.2161         estimate D2E/DX2                !
 ! D52   D(9,10,11,12)          -0.1143         estimate D2E/DX2                !
 ! D53   D(9,10,11,22)         179.8096         estimate D2E/DX2                !
 ! D54   D(21,10,11,12)        179.7782         estimate D2E/DX2                !
 ! D55   D(21,10,11,22)         -0.2978         estimate D2E/DX2                !
 ! D56   D(10,11,12,13)          0.0019         estimate D2E/DX2                !
 ! D57   D(10,11,12,23)        179.7514         estimate D2E/DX2                !
 ! D58   D(22,11,12,13)       -179.922          estimate D2E/DX2                !
 ! D59   D(22,11,12,23)         -0.1725         estimate D2E/DX2                !
 ! D60   D(11,12,13,8)           0.1061         estimate D2E/DX2                !
 ! D61   D(11,12,13,24)        179.7226         estimate D2E/DX2                !
 ! D62   D(23,12,13,8)        -179.6447         estimate D2E/DX2                !
 ! D63   D(23,12,13,24)         -0.0283         estimate D2E/DX2                !
 ! D64   D(2,15,16,26)         -54.3506         estimate D2E/DX2                !
 ! D65   D(2,15,16,27)        -173.403          estimate D2E/DX2                !
 ! D66   D(2,15,16,28)          67.2701         estimate D2E/DX2                !
 ! D67   D(17,15,16,26)        179.5766         estimate D2E/DX2                !
 ! D68   D(17,15,16,27)         60.5243         estimate D2E/DX2                !
 ! D69   D(17,15,16,28)        -58.8027         estimate D2E/DX2                !
 ! D70   D(32,15,16,26)         59.0583         estimate D2E/DX2                !
 ! D71   D(32,15,16,27)        -59.994          estimate D2E/DX2                !
 ! D72   D(32,15,16,28)       -179.321          estimate D2E/DX2                !
 ! D73   D(2,15,17,29)          61.2487         estimate D2E/DX2                !
 ! D74   D(2,15,17,30)         -60.6827         estimate D2E/DX2                !
 ! D75   D(2,15,17,31)         179.7998         estimate D2E/DX2                !
 ! D76   D(16,15,17,29)       -174.3546         estimate D2E/DX2                !
 ! D77   D(16,15,17,30)         63.7139         estimate D2E/DX2                !
 ! D78   D(16,15,17,31)        -55.8036         estimate D2E/DX2                !
 ! D79   D(32,15,17,29)        -53.9943         estimate D2E/DX2                !
 ! D80   D(32,15,17,30)       -175.9257         estimate D2E/DX2                !
 ! D81   D(32,15,17,31)         64.5568         estimate D2E/DX2                !
 --------------------------------------------------------------------------------
 Trust Radius=3.00D-01 FncErr=1.00D-07 GrdErr=1.00D-06 EigMax=2.50D+02 EigMin=1.00D-04
 Number of steps in this run=    183 maximum allowed number of steps=    198.
 GradGradGradGradGradGradGradGradGradGradGradGradGradGradGradGradGradGrad

 Leave Link  103 at Mon Sep 28 08:11:45 2020, MaxMem=  2147483648 cpu:               0.1 elap:               0.0
 (Enter /prod/apps/gaussian/g16b1/l202.exe)
                          Input orientation:                          
 ---------------------------------------------------------------------
 Center     Atomic      Atomic             Coordinates (Angstroms)
 Number     Number       Type             X           Y           Z
 ---------------------------------------------------------------------
      1          8           0        3.630000    0.331000    2.382000
      2         16           0        3.007000   -0.008000    1.124000
      3          7           0        1.580000    0.827000    0.961000
      4          6           0        0.378000    0.334000    0.505000
      5          7           0        0.216000   -0.783000   -0.198000
      6          8           0       -1.106000   -0.951000   -0.499000
      7          6           0       -1.772000    0.091000    0.059000
      8          6           0       -3.212000    0.111000   -0.098000
      9          6           0       -3.937000    1.237000    0.330000
     10          6           0       -5.320000    1.262000    0.187000
     11          6           0       -5.985000    0.170000   -0.378000
     12          6           0       -5.267000   -0.950000   -0.804000
     13          6           0       -3.883000   -0.985000   -0.668000
     14          6           0       -0.881000    0.925000    0.695000
     15          7           0        4.047000    0.867000   -0.130000
     16          6           0        5.475000    0.418000    0.012000
     17          6           0        3.510000    0.714000   -1.522000
     18          8           0        2.822000   -1.353000    0.623000
     19          1           0        1.535000    1.692000    1.510000
     20          1           0       -3.420000    2.085000    0.763000
     21          1           0       -5.877000    2.132000    0.514000
     22          1           0       -7.064000    0.192000   -0.485000
     23          1           0       -5.785000   -1.797000   -1.238000
     24          1           0       -3.320000   -1.852000   -0.992000
     25          1           0       -1.090000    1.826000    1.245000
     26          1           0        5.785000    0.569000    1.042000
     27          1           0        6.065000    1.040000   -0.658000
     28          1           0        5.548000   -0.628000   -0.276000
     29          1           0        2.515000    1.151000   -1.561000
     30          1           0        3.495000   -0.342000   -1.784000
     31          1           0        4.183000    1.262000   -2.179000
     32          1           0        3.993000    1.867000    0.136000
     33          1           0        0.846000   -1.449000   -0.645000
 ---------------------------------------------------------------------
                    Distance matrix (angstroms):
                    1          2          3          4          5
     1  O    0.000000
     2  S    1.444166   0.000000
     3  N    2.543179   1.661362   0.000000
     4  C    3.754816   2.722456   1.376877   0.000000
     5  N    4.421854   3.184021   2.407463   1.329715   0.000000
     6  O    5.689761   4.521078   3.536592   2.204880   1.366202
     7  C    5.885196   4.897231   3.548409   2.209177   2.186794
     8  C    7.280918   6.339038   4.959577   3.647114   3.544068
     9  C    7.892467   7.099267   5.568083   4.411945   4.648289
    10  C    9.262143   8.475246   6.956889   5.781826   5.914182
    11  C   10.004586   9.118320   7.710629   6.426068   6.276385
    12  C    9.536675   8.547726   7.290704   5.935332   5.518914
    13  C    8.214592   7.185951   5.981752   4.612137   4.130800
    14  C    4.852621   4.021327   2.477273   1.403731   2.217684
    15  N    2.602178   1.849254   2.697771   3.761499   4.171772
    16  C    3.004745   2.740263   4.029753   5.121476   5.398480
    17  C    3.924577   2.788478   3.146897   3.750007   3.852846
    18  O    2.565697   1.447153   2.531641   2.972041   2.791089
    19  H    2.646078   2.281618   1.025500   2.047642   3.283695
    20  H    7.443130   6.768848   5.159629   4.190151   4.729634
    21  H    9.854749   9.158447   7.583514   6.508295   6.791820
    22  H   11.072518  10.200682   8.787086   7.508903   7.350605
    23  H   10.308977   9.277868   8.121835   6.749947   6.174285
    24  H    8.028192   6.921613   5.916185   4.549155   3.778425
    25  H    5.079980   4.490390   2.864883   2.220065   3.254960
    26  H    2.548778   2.838474   4.213686   5.438680   5.863383
    27  H    3.958978   3.691232   4.773024   5.847476   6.143755
    28  H    3.415167   2.966662   4.403660   5.316418   5.334823
    29  H    4.178860   2.965564   2.709185   3.082631   3.299019
    30  H    4.222169   2.967518   3.545252   3.925836   3.669021
    31  H    4.687781   3.729033   4.101760   4.747954   4.882978
    32  H    2.745101   2.337513   2.754050   3.943916   4.625990
    33  H    4.481270   3.142573   2.880654   2.172697   1.019934
                    6          7          8          9         10
     6  O    0.000000
     7  C    1.356718   0.000000
     8  C    2.392463   1.448671   0.000000
     9  C    3.672757   2.464545   1.405946   0.000000
    10  C    4.808925   3.738439   2.418613   1.390598   0.000000
    11  C    5.007587   4.236340   2.787725   2.415379   1.397825
    12  C    4.172163   3.747462   2.418095   2.799612   2.424424
    13  C    2.782345   2.478432   1.405830   2.436433   2.800893
    14  C    2.235092   1.376202   2.593262   3.093494   4.480664
    15  N    5.476741   5.873556   7.298331   8.005795   9.380682
    16  C    6.741279   7.254526   8.693119   9.452916  10.829358
    17  C    5.012605   5.548623   6.897584   7.691635   9.010543
    18  O    4.104835   4.848512   6.250783   7.244172   8.562738
    19  H    4.242218   3.950298   5.255400   5.616245   6.994730
    20  H    4.020514   2.680962   2.163622   1.083458   2.149210
    21  H    5.770052   4.606922   3.400178   2.144407   1.083549
    22  H    6.066664   5.320846   3.872239   3.396230   2.153606
    23  H    4.811952   4.620706   3.400058   3.883154   3.406513
    24  H    2.440624   2.697435   2.159692   3.416181   3.884204
    25  H    3.279256   2.209512   3.041013   3.047877   4.396631
    26  H    7.222947   7.635642   9.080494   9.770898  11.159404
    27  H    7.443964   7.926743   9.340202  10.052609  11.418473
    28  H    6.665566   7.362852   8.792918   9.685592  11.040828
    29  H    4.319478   4.703867   6.001708   6.723956   8.028390
    30  H    4.815735   5.596912   6.930487   7.886499   9.173979
    31  H    5.974386   6.468532   7.767972   8.498830   9.793108
    32  H    5.860388   6.032854   7.419590   7.957351   9.332770
    33  H    2.019808   3.117874   4.381800   5.571563   6.786848
                   11         12         13         14         15
    11  C    0.000000
    12  C    1.396925   0.000000
    13  C    2.415891   1.391106   0.000000
    14  C    5.269931   4.999962   3.810233   0.000000
    15  N   10.059241   9.513483   8.161143   4.996916   0.000000
    16  C   11.469316  10.859459   9.486990   6.412665   1.503645
    17  C    9.579128   8.962151   7.633634   4.923463   1.499814
    18  O    8.993597   8.223786   6.838065   4.348181   2.645002
    19  H    7.901356   7.655192   6.423763   2.662625   3.111329
    20  H    3.398284   3.883056   3.418630   2.792265   7.618206
    21  H    2.157956   3.407044   3.884437   5.142920  10.025006
    22  H    1.084516   2.152936   3.396701   6.337127  11.137144
    23  H    2.156082   1.083554   2.145192   5.932536  10.246599
    24  H    3.401133   2.154010   1.083344   4.062809   7.899917
    25  H    5.416409   5.417740   4.400243   1.076096   5.403617
    26  H   11.862061  11.307598   9.940284   6.684512   2.117317
    27  H   12.084610  11.506330  10.152016   7.077482   2.093093
    28  H   11.561025  10.832668   9.445892   6.684810   2.123521
    29  H    8.637815   8.096096   6.803995   4.083311   2.115524
    30  H    9.597363   8.837574   7.489579   5.186531   2.121815
    31  H   10.383848   9.802350   8.508377   5.832456   2.091153
    32  H   10.134322   9.724541   8.414969   4.995570   1.036181
    33  H    7.025312   6.135393   4.751765   3.227074   3.984405
                   16         17         18         19         20
    16  C    0.000000
    17  C    2.510378   0.000000
    18  O    3.247795   3.057263   0.000000
    19  H    4.403485   3.748351   3.422742   0.000000
    20  H    9.080964   7.424673   7.127553   5.026379   0.000000
    21  H   11.491636   9.709366   9.371750   7.491553   2.470032
    22  H   12.550881  10.637543  10.067159   8.953928   4.291817
    23  H   11.543670   9.632383   8.817080   8.561952   4.966603
    24  H    9.138542   7.315337   6.370352   6.510834   4.311612
    25  H    6.826564   5.482046   5.079042   2.641743   2.393388
    26  H    1.086186   3.430852   3.556545   4.420707   9.333173
    27  H    1.088064   2.716762   4.229002   5.064211   9.647616
    28  H    1.087377   2.739877   2.960558   4.967531   9.426819
    29  H    3.431212   1.087435   3.336783   3.268658   6.441860
    30  H    2.779139   1.088120   2.696052   4.339262   7.758528
    31  H    2.679940   1.088523   4.067155   4.561307   8.193797
    32  H    2.076367   2.076454   3.460753   2.821394   7.442662
    33  H    5.034380   3.541835   2.349812   3.870998   5.715801
                   21         22         23         24         25
    21  H    0.000000
    22  H    2.484063   0.000000
    23  H    4.302907   2.481727   0.000000
    24  H    4.967750   4.295640   2.477855   0.000000
    25  H    4.852151   6.430516   6.429187   4.848170   0.000000
    26  H   11.778115  12.944909  12.027521   9.638435   6.991916
    27  H   12.048959  13.157495  12.198667   9.826161   7.445350
    28  H   11.780167  12.640357  11.433674   8.980660   7.238688
    29  H    8.700210   9.686831   8.813911   6.587032   4.617931
    30  H    9.961720  10.651997   9.409226   7.025069   5.907393
    31  H   10.450490  11.424077  10.469192   8.209810   6.312401
    32  H    9.880790  11.200380  10.531954   8.281504   5.202735
    33  H    7.704906   8.080011   6.666552   4.199806   4.248037
                   26         27         28         29         30
    26  H    0.000000
    27  H    1.786125   0.000000
    28  H    1.796135   1.787579   0.000000
    29  H    4.219862   3.664728   3.743682   0.000000
    30  H    3.749706   3.127731   2.563332   1.799772   0.000000
    31  H    3.663536   2.429948   3.009441   1.782265   1.789465
    32  H    2.391005   2.368026   2.968635   2.361556   2.968852
    33  H    5.595714   5.782149   4.787380   3.222517   3.088684
                   31         32         33
    31  H    0.000000
    32  H    2.400281   0.000000
    33  H    4.564893   4.637826   0.000000
 Symmetry turned off by external request.
 Stoichiometry    C11H15N3O3S(2+)
 Framework group  C1[X(C11H15N3O3S)]
 Deg. of freedom    93
 Full point group                 C1      NOp   1
 Rotational constants (GHZ):           1.3658376           0.1428726           0.1399839
 Leave Link  202 at Mon Sep 28 08:11:45 2020, MaxMem=  2147483648 cpu:               0.1 elap:               0.0
 (Enter /prod/apps/gaussian/g16b1/l301.exe)
 Standard basis: 6-31G(d) (6D, 7F)
 Ernie: Thresh=  0.10000D-02 Tol=  0.10000D-05 Strict=F.
   304 basis functions,   588 primitive gaussians,   304 cartesian basis functions
    70 alpha electrons       70 beta electrons
       nuclear repulsion energy      1478.4770928787 Hartrees.
 IExCor=  402 DFT=T Ex+Corr=B3LYP ExCW=0 ScaHFX=  0.200000
 ScaDFX=  0.800000  0.720000  1.000000  0.810000 ScalE2=  1.000000  1.000000
 IRadAn=      5 IRanWt=     -1 IRanGd=            0 ICorTp=0 IEmpDi=  4
 NAtoms=   33 NActive=   33 NUniq=   33 SFac= 1.00D+00 NAtFMM=   60 NAOKFM=F Big=F
 Integral buffers will be    131072 words long.
 Raffenetti 2 integral format.
 Two-electron integral symmetry is turned off.
 Using the following non-standard input for PCM:
 MSTModel=DFT cav MSTcharged
 --- end of non-standard input.
 MST model for solvation energy: B3LYP parametrization.
 MST cavity parameters:
 ISph   IAn     Re0     Alpha   Atom Type   QCorr
 ------------------------------------------------
   1      8     1.40     1.25      O          F
   2     16     1.75     1.25      S          F
   3      7     1.50     1.25      NH         F
   4      6     1.50     1.25      C          F
   5      7     1.50     1.15      NH         T
   6      8     1.40     1.25      O          F
   7      6     1.50     1.25      C          F
   8      6     1.50     1.25      C          F
   9      6     1.50     1.25      CH         F
  10      6     1.50     1.25      CH         F
  11      6     1.50     1.25      CH         F
  12      6     1.50     1.25      CH         F
  13      6     1.50     1.25      CH         F
  14      6     1.50     1.25      CH         F
  15      7     1.50     1.15      NH         T
  16      6     1.50     1.25      CH3        F
  17      6     1.50     1.25      CH3        F
  18      8     1.40     1.25      O          F
  19      1     0.90     1.25      NH         F
  20      1     1.20     1.25      CH         F
  21      1     1.20     1.25      CH         F
  22      1     1.20     1.25      CH         F
  23      1     1.20     1.25      CH         F
  24      1     1.20     1.25      CH         F
  25      1     1.20     1.25      CH         F
  26      1     1.20     1.25      CH3        F
  27      1     1.20     1.25      CH3        F
  28      1     1.20     1.25      CH3        F
  29      1     1.20     1.25      CH3        F
  30      1     1.20     1.25      CH3        F
  31      1     1.20     1.25      CH3        F
  32      1     0.90     1.15      NH         T
  33      1     0.90     1.15      NH         T
 ------------------------------------------------------------------------------
 Polarizable Continuum Model (PCM)
 =================================
 Model                : PCM.
 Atomic radii         : MST.
 Polarization charges : Total charges.
 Charge compensation  : None.
 Solution method      : On-the-fly selection.
 Cavity type          : Scaled VdW (van der Waals Surface) (Alpha=1.250).
 Cavity algorithm     : GePol (No added spheres)
                        Default sphere list used, NSphG=   33.
                        Lebedev-Laikov grids with approx.  5.0 points / Ang**2.
                        Smoothing algorithm: York/Karplus (Gamma=1.0000).
                        Polarization charges: spherical gaussians, with
                                              point-specific exponents (IZeta= 3).
                        Self-potential: point-specific (ISelfS= 7).
                        Self-field    : sphere-specific E.n sum rule (ISelfD= 2).
 1st derivatives      : Analytical E(r).r(x)/FMM algorithm (CHGder, D1EAlg=3).
                        Cavity 1st derivative terms included.
 Solvent              : Water, Eps=  78.355300 Eps(inf)=   1.777849
 ------------------------------------------------------------------------------
 GePol: Number of generator spheres                  =      33
 GePol: Total number of spheres                      =      33
 GePol: Number of exposed spheres                    =      33 (100.00%)
 GePol: Number of points                             =    2413
 GePol: Average weight of points                     =       0.13
 GePol: Minimum weight of points                     =   0.14D-10
 GePol: Maximum weight of points                     =    0.22001
 GePol: Number of points with low weight             =     146
 GePol: Fraction of low-weight points (<1% of avg)   =       6.05%
 GePol: Cavity surface area                          =    312.621 Ang**2
 GePol: Cavity volume                                =    294.975 Ang**3
 PCM non-electrostatic energy =         0.0020423333 Hartrees.
 Nuclear repulsion after PCM non-electrostatic terms =     1478.4791352120 Hartrees.
 Leave Link  301 at Mon Sep 28 08:11:45 2020, MaxMem=  2147483648 cpu:               0.3 elap:               0.1
 (Enter /prod/apps/gaussian/g16b1/l302.exe)
 NPDir=0 NMtPBC=     1 NCelOv=     1 NCel=       1 NClECP=     1 NCelD=      1
         NCelK=      1 NCelE2=     1 NClLst=     1 CellRange=     0.0.
 One-electron integrals computed using PRISM.
 NBasis=   304 RedAO= T EigKep=  4.65D-04  NBF=   304
 NBsUse=   304 1.00D-06 EigRej= -1.00D+00 NBFU=   304
 Precomputing XC quadrature grid using
 IXCGrd= 4 IRadAn=           5 IRanWt=          -1 IRanGd=           0 AccXCQ= 0.00D+00.
 Generated NRdTot=       0 NPtTot=           0 NUsed=           0 NTot=          32
 NSgBfM=   302   302   302   302   302 MxSgAt=    33 MxSgA2=    33.
 Leave Link  302 at Mon Sep 28 08:11:46 2020, MaxMem=  2147483648 cpu:               1.7 elap:               0.4
 (Enter /prod/apps/gaussian/g16b1/l303.exe)
 DipDrv:  MaxL=1.
 Leave Link  303 at Mon Sep 28 08:11:46 2020, MaxMem=  2147483648 cpu:               0.1 elap:               0.1
 (Enter /prod/apps/gaussian/g16b1/l401.exe)
 ExpMin= 1.17D-01 ExpMax= 2.19D+04 ExpMxC= 3.30D+03 IAcc=3 IRadAn=         5 AccDes= 0.00D+00
 Harris functional with IExCor=  402 and IRadAn=       5 diagonalized for initial guess.
 HarFok:  IExCor=  402 AccDes= 0.00D+00 IRadAn=         5 IDoV= 1 UseB2=F ITyADJ=14
 ICtDFT=  3500011 ScaDFX=  1.000000  1.000000  1.000000  1.000000
 FoFCou: FMM=F IPFlag=           0 FMFlag=      100000 FMFlg1=           0
         NFxFlg=           0 DoJE=T BraDBF=F KetDBF=T FulRan=T
         wScrn=  0.000000 ICntrl=       500 IOpCl=  0 I1Cent=   200000004 NGrid=           0
         NMat0=    1 NMatS0=      1 NMatT0=    0 NMatD0=    1 NMtDS0=    0 NMtDT0=    0
 Symmetry not used in FoFCou.
 Harris En= -1215.80264413835    
 JPrj=0 DoOrth=F DoCkMO=F.
 Leave Link  401 at Mon Sep 28 08:11:48 2020, MaxMem=  2147483648 cpu:               8.1 elap:               2.0
 (Enter /prod/apps/gaussian/g16b1/l502.exe)
 Two-electron integral symmetry not used.
 Closed shell SCF:
 Using DIIS extrapolation, IDIIS=  1040.
 NGot=  2147483648 LenX=  2147294283 LenY=  2147201426
 Requested convergence on RMS density matrix=1.00D-08 within2000 cycles.
 Requested convergence on MAX density matrix=1.00D-06.
 Requested convergence on             energy=1.00D-06.
 No special actions if energy rises.

 Cycle   1  Pass 1  IDiag  1:
 FoFJK:  IHMeth= 1 ICntrl=       0 DoSepK=F KAlg= 0 I1Cent=           0 FoldK=F
 IRaf= 740000000 NMat=       1 IRICut=       1 DoRegI=T DoRafI=F ISym2E= 0 IDoP0=0 IntGTp=1.
 FoFCou: FMM=F IPFlag=           0 FMFlag=      100000 FMFlg1=           0
         NFxFlg=           0 DoJE=F BraDBF=F KetDBF=F FulRan=T
         wScrn=  0.000000 ICntrl=         0 IOpCl=  0 I1Cent=           0 NGrid=           0
         NMat0=    1 NMatS0=      1 NMatT0=    0 NMatD0=    1 NMtDS0=    0 NMtDT0=    0
 Symmetry not used in FoFCou.
 Inv3:  Mode=1 IEnd=    17467707.
 Iteration    1 A*A^-1 deviation from unit magnitude is 3.22D-15 for   1278.
 Iteration    1 A*A^-1 deviation from orthogonality  is 2.57D-15 for   2154    716.
 Iteration    1 A^-1*A deviation from unit magnitude is 3.22D-15 for   1278.
 Iteration    1 A^-1*A deviation from orthogonality  is 4.11D-15 for   2204   2182.
 E= -1215.32695978597    
 DIIS: error= 4.07D-02 at cycle   1 NSaved=   1.
 NSaved= 1 IEnMin= 1 EnMin= -1215.32695978597     IErMin= 1 ErrMin= 4.07D-02
 ErrMax= 4.07D-02  0.00D+00 EMaxC= 1.00D-01 BMatC= 6.18D-01 BMatP= 6.18D-01
 IDIUse=3 WtCom= 5.93D-01 WtEn= 4.07D-01
 Coeff-Com:  0.100D+01
 Coeff-En:   0.100D+01
 Coeff:      0.100D+01
 Gap=     0.343 Goal=   None    Shift=    0.000
 GapD=    0.343 DampG=1.000 DampE=0.500 DampFc=0.5000 IDamp=-1.
 Damping current iteration by 5.00D-01
 RMSDP=6.68D-03 MaxDP=6.80D-01              OVMax= 3.43D-01

 Cycle   2  Pass 1  IDiag  1:
 E= -1215.40941004721     Delta-E=       -0.082450261234 Rises=F Damp=T
 DIIS: error= 1.60D-02 at cycle   2 NSaved=   2.
 NSaved= 2 IEnMin= 2 EnMin= -1215.40941004721     IErMin= 2 ErrMin= 1.60D-02
 ErrMax= 1.60D-02  0.00D+00 EMaxC= 1.00D-01 BMatC= 1.31D-01 BMatP= 6.18D-01
 IDIUse=3 WtCom= 8.40D-01 WtEn= 1.60D-01
 Coeff-Com:  0.272D+00 0.728D+00
 Coeff-En:   0.429D+00 0.571D+00
 Coeff:      0.297D+00 0.703D+00
 Gap=     0.185 Goal=   None    Shift=    0.000
 RMSDP=1.96D-03 MaxDP=1.50D-01 DE=-8.25D-02 OVMax= 2.47D-01

 Cycle   3  Pass 1  IDiag  1:
 E= -1215.82620393423     Delta-E=       -0.416793887025 Rises=F Damp=F
 DIIS: error= 8.62D-03 at cycle   3 NSaved=   3.
 NSaved= 3 IEnMin= 3 EnMin= -1215.82620393423     IErMin= 3 ErrMin= 8.62D-03
 ErrMax= 8.62D-03  0.00D+00 EMaxC= 1.00D-01 BMatC= 5.22D-02 BMatP= 1.31D-01
 IDIUse=3 WtCom= 9.14D-01 WtEn= 8.62D-02
 Coeff-Com:  0.914D-01 0.390D+00 0.519D+00
 Coeff-En:   0.000D+00 0.000D+00 0.100D+01
 Coeff:      0.835D-01 0.356D+00 0.560D+00
 Gap=     0.174 Goal=   None    Shift=    0.000
 RMSDP=9.08D-04 MaxDP=3.33D-02 DE=-4.17D-01 OVMax= 5.17D-02

 Cycle   4  Pass 1  IDiag  1:
 E= -1215.86423869713     Delta-E=       -0.038034762896 Rises=F Damp=F
 DIIS: error= 2.65D-03 at cycle   4 NSaved=   4.
 NSaved= 4 IEnMin= 4 EnMin= -1215.86423869713     IErMin= 4 ErrMin= 2.65D-03
 ErrMax= 2.65D-03  0.00D+00 EMaxC= 1.00D-01 BMatC= 8.43D-03 BMatP= 5.22D-02
 IDIUse=3 WtCom= 9.74D-01 WtEn= 2.65D-02
 Coeff-Com:  0.459D-02 0.932D-01 0.305D+00 0.597D+00
 Coeff-En:   0.000D+00 0.000D+00 0.126D+00 0.874D+00
 Coeff:      0.447D-02 0.907D-01 0.300D+00 0.604D+00
 Gap=     0.170 Goal=   None    Shift=    0.000
 RMSDP=3.30D-04 MaxDP=1.39D-02 DE=-3.80D-02 OVMax= 2.97D-02

 Cycle   5  Pass 1  IDiag  1:
 E= -1215.87074266311     Delta-E=       -0.006503965985 Rises=F Damp=F
 DIIS: error= 9.54D-04 at cycle   5 NSaved=   5.
 NSaved= 5 IEnMin= 5 EnMin= -1215.87074266311     IErMin= 5 ErrMin= 9.54D-04
 ErrMax= 9.54D-04  0.00D+00 EMaxC= 1.00D-01 BMatC= 9.98D-04 BMatP= 8.43D-03
 IDIUse=3 WtCom= 9.90D-01 WtEn= 9.54D-03
 Coeff-Com: -0.636D-02 0.230D-01 0.127D+00 0.350D+00 0.506D+00
 Coeff-En:   0.000D+00 0.000D+00 0.000D+00 0.387D-01 0.961D+00
 Coeff:     -0.629D-02 0.228D-01 0.125D+00 0.347D+00 0.511D+00
 Gap=     0.171 Goal=   None    Shift=    0.000
 RMSDP=1.12D-04 MaxDP=6.02D-03 DE=-6.50D-03 OVMax= 1.28D-02

 Cycle   6  Pass 1  IDiag  1:
 E= -1215.87154352610     Delta-E=       -0.000800862992 Rises=F Damp=F
 DIIS: error= 3.13D-04 at cycle   6 NSaved=   6.
 NSaved= 6 IEnMin= 6 EnMin= -1215.87154352610     IErMin= 6 ErrMin= 3.13D-04
 ErrMax= 3.13D-04  0.00D+00 EMaxC= 1.00D-01 BMatC= 7.68D-05 BMatP= 9.98D-04
 IDIUse=3 WtCom= 9.97D-01 WtEn= 3.13D-03
 Coeff-Com: -0.398D-02 0.569D-02 0.383D-01 0.126D+00 0.276D+00 0.558D+00
 Coeff-En:   0.000D+00 0.000D+00 0.000D+00 0.000D+00 0.000D+00 0.100D+01
 Coeff:     -0.397D-02 0.567D-02 0.382D-01 0.125D+00 0.275D+00 0.559D+00
 Gap=     0.171 Goal=   None    Shift=    0.000
 RMSDP=3.01D-05 MaxDP=1.62D-03 DE=-8.01D-04 OVMax= 2.87D-03

 Cycle   7  Pass 1  IDiag  1:
 E= -1215.87160406358     Delta-E=       -0.000060537477 Rises=F Damp=F
 DIIS: error= 1.03D-04 at cycle   7 NSaved=   7.
 NSaved= 7 IEnMin= 7 EnMin= -1215.87160406358     IErMin= 7 ErrMin= 1.03D-04
 ErrMax= 1.03D-04  0.00D+00 EMaxC= 1.00D-01 BMatC= 7.97D-06 BMatP= 7.68D-05
 IDIUse=3 WtCom= 9.99D-01 WtEn= 1.03D-03
 Coeff-Com: -0.196D-02 0.135D-02 0.112D-01 0.425D-01 0.114D+00 0.324D+00
 Coeff-Com:  0.509D+00
 Coeff-En:   0.000D+00 0.000D+00 0.000D+00 0.000D+00 0.000D+00 0.413D-02
 Coeff-En:   0.996D+00
 Coeff:     -0.196D-02 0.135D-02 0.112D-01 0.424D-01 0.114D+00 0.323D+00
 Coeff:      0.510D+00
 Gap=     0.171 Goal=   None    Shift=    0.000
 RMSDP=8.38D-06 MaxDP=3.79D-04 DE=-6.05D-05 OVMax= 4.08D-04

 Cycle   8  Pass 1  IDiag  1:
 E= -1215.87161014557     Delta-E=       -0.000006081993 Rises=F Damp=F
 DIIS: error= 4.15D-05 at cycle   8 NSaved=   8.
 NSaved= 8 IEnMin= 8 EnMin= -1215.87161014557     IErMin= 8 ErrMin= 4.15D-05
 ErrMax= 4.15D-05  0.00D+00 EMaxC= 1.00D-01 BMatC= 4.92D-07 BMatP= 7.97D-06
 IDIUse=1 WtCom= 1.00D+00 WtEn= 0.00D+00
 Coeff-Com: -0.547D-03 0.902D-04 0.726D-03 0.531D-02 0.222D-01 0.100D+00
 Coeff-Com:  0.242D+00 0.630D+00
 Coeff:     -0.547D-03 0.902D-04 0.726D-03 0.531D-02 0.222D-01 0.100D+00
 Coeff:      0.242D+00 0.630D+00
 Gap=     0.171 Goal=   None    Shift=    0.000
 RMSDP=2.55D-06 MaxDP=1.21D-04 DE=-6.08D-06 OVMax= 1.47D-04

 Cycle   9  Pass 1  IDiag  1:
 E= -1215.87161049446     Delta-E=       -0.000000348887 Rises=F Damp=F
 DIIS: error= 1.17D-05 at cycle   9 NSaved=   9.
 NSaved= 9 IEnMin= 9 EnMin= -1215.87161049446     IErMin= 9 ErrMin= 1.17D-05
 ErrMax= 1.17D-05  0.00D+00 EMaxC= 1.00D-01 BMatC= 9.26D-08 BMatP= 4.92D-07
 IDIUse=1 WtCom= 1.00D+00 WtEn= 0.00D+00
 Coeff-Com: -0.101D-03-0.352D-04-0.810D-03-0.170D-02-0.213D-03 0.217D-01
 Coeff-Com:  0.764D-01 0.354D+00 0.551D+00
 Coeff:     -0.101D-03-0.352D-04-0.810D-03-0.170D-02-0.213D-03 0.217D-01
 Coeff:      0.764D-01 0.354D+00 0.551D+00
 Gap=     0.171 Goal=   None    Shift=    0.000
 RMSDP=1.05D-06 MaxDP=5.37D-05 DE=-3.49D-07 OVMax= 7.22D-05

 Cycle  10  Pass 1  IDiag  1:
 E= -1215.87161056081     Delta-E=       -0.000000066353 Rises=F Damp=F
 DIIS: error= 5.22D-06 at cycle  10 NSaved=  10.
 NSaved=10 IEnMin=10 EnMin= -1215.87161056081     IErMin=10 ErrMin= 5.22D-06
 ErrMax= 5.22D-06  0.00D+00 EMaxC= 1.00D-01 BMatC= 1.44D-08 BMatP= 9.26D-08
 IDIUse=1 WtCom= 1.00D+00 WtEn= 0.00D+00
 Coeff-Com: -0.150D-04-0.247D-04-0.575D-03-0.156D-02-0.248D-02 0.345D-02
 Coeff-Com:  0.216D-01 0.154D+00 0.344D+00 0.481D+00
 Coeff:     -0.150D-04-0.247D-04-0.575D-03-0.156D-02-0.248D-02 0.345D-02
 Coeff:      0.216D-01 0.154D+00 0.344D+00 0.481D+00
 Gap=     0.171 Goal=   None    Shift=    0.000
 RMSDP=3.55D-07 MaxDP=2.15D-05 DE=-6.64D-08 OVMax= 2.25D-05

 Cycle  11  Pass 1  IDiag  1:
 E= -1215.87161057148     Delta-E=       -0.000000010668 Rises=F Damp=F
 DIIS: error= 8.32D-07 at cycle  11 NSaved=  11.
 NSaved=11 IEnMin=11 EnMin= -1215.87161057148     IErMin=11 ErrMin= 8.32D-07
 ErrMax= 8.32D-07  0.00D+00 EMaxC= 1.00D-01 BMatC= 6.22D-10 BMatP= 1.44D-08
 IDIUse=1 WtCom= 1.00D+00 WtEn= 0.00D+00
 Coeff-Com:  0.180D-05-0.365D-05-0.191D-03-0.553D-03-0.122D-02-0.682D-03
 Coeff-Com:  0.971D-03 0.314D-01 0.986D-01 0.207D+00 0.664D+00
 Coeff:      0.180D-05-0.365D-05-0.191D-03-0.553D-03-0.122D-02-0.682D-03
 Coeff:      0.971D-03 0.314D-01 0.986D-01 0.207D+00 0.664D+00
 Gap=     0.171 Goal=   None    Shift=    0.000
 RMSDP=9.50D-08 MaxDP=3.66D-06 DE=-1.07D-08 OVMax= 6.34D-06

 Cycle  12  Pass 1  IDiag  1:
 E= -1215.87161057191     Delta-E=       -0.000000000430 Rises=F Damp=F
 DIIS: error= 4.66D-07 at cycle  12 NSaved=  12.
 NSaved=12 IEnMin=12 EnMin= -1215.87161057191     IErMin=12 ErrMin= 4.66D-07
 ErrMax= 4.66D-07  0.00D+00 EMaxC= 1.00D-01 BMatC= 1.44D-10 BMatP= 6.22D-10
 IDIUse=1 WtCom= 1.00D+00 WtEn= 0.00D+00
 Coeff-Com:  0.271D-05 0.273D-05-0.367D-04-0.113D-03-0.400D-03-0.808D-03
 Coeff-Com: -0.240D-02-0.232D-02 0.113D-01 0.522D-01 0.383D+00 0.560D+00
 Coeff:      0.271D-05 0.273D-05-0.367D-04-0.113D-03-0.400D-03-0.808D-03
 Coeff:     -0.240D-02-0.232D-02 0.113D-01 0.522D-01 0.383D+00 0.560D+00
 Gap=     0.171 Goal=   None    Shift=    0.000
 RMSDP=3.86D-08 MaxDP=1.88D-06 DE=-4.30D-10 OVMax= 2.52D-06

 Cycle  13  Pass 1  IDiag  1:
 E= -1215.87161057204     Delta-E=       -0.000000000129 Rises=F Damp=F
 DIIS: error= 1.03D-07 at cycle  13 NSaved=  13.
 NSaved=13 IEnMin=13 EnMin= -1215.87161057204     IErMin=13 ErrMin= 1.03D-07
 ErrMax= 1.03D-07  0.00D+00 EMaxC= 1.00D-01 BMatC= 3.82D-12 BMatP= 1.44D-10
 IDIUse=1 WtCom= 1.00D+00 WtEn= 0.00D+00
 Coeff-Com:  0.605D-06 0.112D-05-0.245D-05-0.683D-05-0.718D-04-0.216D-03
 Coeff-Com: -0.891D-03-0.270D-02-0.196D-02 0.559D-02 0.926D-01 0.202D+00
 Coeff-Com:  0.706D+00
 Coeff:      0.605D-06 0.112D-05-0.245D-05-0.683D-05-0.718D-04-0.216D-03
 Coeff:     -0.891D-03-0.270D-02-0.196D-02 0.559D-02 0.926D-01 0.202D+00
 Coeff:      0.706D+00
 Gap=     0.171 Goal=   None    Shift=    0.000
 RMSDP=9.15D-09 MaxDP=4.77D-07 DE=-1.29D-10 OVMax= 9.11D-07

 Error on total polarization charges =  0.01851
 SCF Done:  E(RB3LYP) =  -1215.87161057     A.U. after   13 cycles
            NFock= 13  Conv=0.91D-08     -V/T= 2.0078
 KE= 1.206455266550D+03 PE=-5.762071703378D+03 EE= 1.861265691044D+03
 Leave Link  502 at Mon Sep 28 08:12:47 2020, MaxMem=  2147483648 cpu:             235.0 elap:              58.8
 (Enter /prod/apps/gaussian/g16b1/l601.exe)
 Copying SCF densities to generalized density rwf, IOpCl= 0 IROHF=0.

 **********************************************************************

            Population analysis using the SCF Density.

 **********************************************************************

 Alpha  occ. eigenvalues --  -89.20797 -19.30626 -19.22971 -19.22703 -14.49707
 Alpha  occ. eigenvalues --  -14.49336 -14.45746 -10.36031 -10.32148 -10.26009
 Alpha  occ. eigenvalues --  -10.25930 -10.24410 -10.23375 -10.21755 -10.21643
 Alpha  occ. eigenvalues --  -10.21134 -10.20768 -10.20753  -8.23112  -6.19590
 Alpha  occ. eigenvalues --   -6.19557  -6.19459  -1.22950  -1.20375  -1.09247
 Alpha  occ. eigenvalues --   -1.03412  -1.02472  -0.94800  -0.88897  -0.86266
 Alpha  occ. eigenvalues --   -0.78507  -0.77318  -0.76899  -0.76320  -0.70771
 Alpha  occ. eigenvalues --   -0.70545  -0.67978  -0.64920  -0.62568  -0.61763
 Alpha  occ. eigenvalues --   -0.60871  -0.57249  -0.56957  -0.55684  -0.54821
 Alpha  occ. eigenvalues --   -0.54130  -0.52266  -0.50902  -0.50216  -0.49063
 Alpha  occ. eigenvalues --   -0.47182  -0.47016  -0.45845  -0.44937  -0.44503
 Alpha  occ. eigenvalues --   -0.43927  -0.43753  -0.43532  -0.42786  -0.41583
 Alpha  occ. eigenvalues --   -0.39974  -0.39544  -0.39058  -0.38254  -0.37269
 Alpha  occ. eigenvalues --   -0.36283  -0.34209  -0.31920  -0.27217  -0.26422
 Alpha virt. eigenvalues --   -0.09346  -0.05481  -0.02804  -0.01808   0.01112
 Alpha virt. eigenvalues --    0.01615   0.03227   0.04287   0.05020   0.05950
 Alpha virt. eigenvalues --    0.08236   0.08922   0.09692   0.09841   0.11703
 Alpha virt. eigenvalues --    0.12433   0.13016   0.13756   0.14192   0.14647
 Alpha virt. eigenvalues --    0.14787   0.15037   0.15601   0.16562   0.17266
 Alpha virt. eigenvalues --    0.18038   0.18692   0.20588   0.23198   0.23597
 Alpha virt. eigenvalues --    0.27326   0.28089   0.29074   0.29965   0.31294
 Alpha virt. eigenvalues --    0.34224   0.35037   0.37422   0.38969   0.41330
 Alpha virt. eigenvalues --    0.42818   0.43664   0.45388   0.46519   0.48360
 Alpha virt. eigenvalues --    0.49299   0.50574   0.51464   0.51633   0.51995
 Alpha virt. eigenvalues --    0.52817   0.53474   0.54524   0.55840   0.56321
 Alpha virt. eigenvalues --    0.56909   0.57080   0.57990   0.59504   0.60187
 Alpha virt. eigenvalues --    0.60315   0.61318   0.61747   0.62490   0.63586
 Alpha virt. eigenvalues --    0.64721   0.68057   0.68580   0.69462   0.71363
 Alpha virt. eigenvalues --    0.72168   0.73660   0.73856   0.75175   0.76189
 Alpha virt. eigenvalues --    0.77023   0.77567   0.78599   0.80173   0.81235
 Alpha virt. eigenvalues --    0.82586   0.83331   0.83488   0.84005   0.84887
 Alpha virt. eigenvalues --    0.85830   0.86170   0.86831   0.88309   0.89273
 Alpha virt. eigenvalues --    0.89871   0.90939   0.91345   0.92240   0.93084
 Alpha virt. eigenvalues --    0.93756   0.94202   0.95857   0.96316   0.97525
 Alpha virt. eigenvalues --    0.98768   0.99575   1.01222   1.02086   1.04126
 Alpha virt. eigenvalues --    1.06110   1.07854   1.08667   1.10030   1.11740
 Alpha virt. eigenvalues --    1.12924   1.14546   1.15242   1.16628   1.18421
 Alpha virt. eigenvalues --    1.19168   1.20956   1.23007   1.26513   1.27318
 Alpha virt. eigenvalues --    1.29363   1.30178   1.32342   1.34473   1.34943
 Alpha virt. eigenvalues --    1.36102   1.38905   1.41225   1.43477   1.44464
 Alpha virt. eigenvalues --    1.45376   1.46399   1.46900   1.47222   1.48818
 Alpha virt. eigenvalues --    1.50013   1.53286   1.54575   1.56873   1.64191
 Alpha virt. eigenvalues --    1.68272   1.70211   1.70513   1.72382   1.73831
 Alpha virt. eigenvalues --    1.75014   1.75824   1.76643   1.78349   1.79132
 Alpha virt. eigenvalues --    1.79632   1.81812   1.85529   1.86956   1.87616
 Alpha virt. eigenvalues --    1.88180   1.89465   1.90736   1.92085   1.93066
 Alpha virt. eigenvalues --    1.93434   1.96225   1.97641   1.98813   2.00100
 Alpha virt. eigenvalues --    2.00700   2.01754   2.04330   2.04955   2.06895
 Alpha virt. eigenvalues --    2.07452   2.10848   2.11942   2.12279   2.14326
 Alpha virt. eigenvalues --    2.16101   2.16961   2.18545   2.19442   2.20132
 Alpha virt. eigenvalues --    2.21705   2.23052   2.25421   2.26215   2.28775
 Alpha virt. eigenvalues --    2.29046   2.30229   2.31327   2.32053   2.39013
 Alpha virt. eigenvalues --    2.39947   2.45413   2.48568   2.49554   2.52715
 Alpha virt. eigenvalues --    2.52829   2.57146   2.57523   2.60187   2.63600
 Alpha virt. eigenvalues --    2.64126   2.65712   2.69120   2.72167   2.72891
 Alpha virt. eigenvalues --    2.73701   2.75985   2.77589   2.85516   2.88177
 Alpha virt. eigenvalues --    2.90046   2.98085   3.02512   3.10211   3.25882
 Alpha virt. eigenvalues --    3.41455   3.79805   3.81699   3.87422   3.90133
 Alpha virt. eigenvalues --    4.00798   4.05199   4.07483   4.09843   4.09958
 Alpha virt. eigenvalues --    4.11518   4.19727   4.22596   4.27920   4.30496
 Alpha virt. eigenvalues --    4.35484   4.38265   4.54698   4.72272
          Condensed to atoms (all electrons):
               1          2          3          4          5          6
     1  O    8.114267   0.466779  -0.049352  -0.000075   0.000024   0.000000
     2  S    0.466779  13.497063   0.156480  -0.009515  -0.005877   0.000251
     3  N   -0.049352   0.156480   7.361769   0.256221  -0.068716   0.004148
     4  C   -0.000075  -0.009515   0.256221   4.351927   0.308358  -0.034490
     5  N    0.000024  -0.005877  -0.068716   0.308358   6.701767   0.157950
     6  O    0.000000   0.000251   0.004148  -0.034490   0.157950   8.105824
     7  C   -0.000000  -0.000061   0.000243   0.008923  -0.097577   0.245507
     8  C   -0.000000  -0.000004  -0.000208   0.001266   0.004780  -0.031548
     9  C   -0.000000   0.000000   0.000004   0.000912  -0.000149   0.003077
    10  C   -0.000000   0.000000  -0.000000  -0.000011   0.000002  -0.000066
    11  C    0.000000  -0.000000   0.000000   0.000000  -0.000000   0.000003
    12  C   -0.000000  -0.000000  -0.000000   0.000006   0.000001   0.000196
    13  C    0.000000  -0.000000  -0.000000  -0.000553   0.000354  -0.008539
    14  C   -0.000043   0.000982  -0.048922   0.466011  -0.028679  -0.076443
    15  N   -0.047142   0.107513  -0.046098   0.000196   0.000002  -0.000000
    16  C   -0.001482  -0.014797   0.001580   0.000009  -0.000003   0.000000
    17  C    0.001120  -0.011005  -0.000843   0.000066   0.000090  -0.000002
    18  O   -0.033051   0.422040  -0.050638   0.004575  -0.001951   0.000124
    19  H    0.000624  -0.007013   0.288706  -0.012588   0.001907  -0.000021
    20  H   -0.000000  -0.000000  -0.000001   0.000129  -0.000009   0.000034
    21  H    0.000000  -0.000000  -0.000000   0.000000  -0.000000   0.000000
    22  H   -0.000000  -0.000000  -0.000000  -0.000000  -0.000000   0.000000
    23  H    0.000000  -0.000000   0.000000  -0.000000   0.000000  -0.000002
    24  H   -0.000000  -0.000000  -0.000000   0.000021  -0.000164   0.006857
    25  H   -0.000001  -0.000025  -0.002711  -0.025909   0.004213   0.002555
    26  H    0.007315  -0.001905   0.000011  -0.000001   0.000000   0.000000
    27  H    0.000036   0.001870  -0.000067  -0.000001   0.000000  -0.000000
    28  H   -0.000539  -0.001308   0.000004   0.000007  -0.000000  -0.000000
    29  H   -0.000005  -0.003897   0.004400   0.000496   0.000207  -0.000008
    30  H   -0.000004  -0.002570  -0.000183   0.000066   0.000046  -0.000000
    31  H   -0.000041   0.001742  -0.000038  -0.000017   0.000012  -0.000000
    32  H    0.000254  -0.004003   0.001670   0.000058  -0.000003   0.000000
    33  H    0.000012   0.000297  -0.000692  -0.023535   0.303625  -0.018768
               7          8          9         10         11         12
     1  O   -0.000000  -0.000000  -0.000000  -0.000000   0.000000  -0.000000
     2  S   -0.000061  -0.000004   0.000000   0.000000  -0.000000  -0.000000
     3  N    0.000243  -0.000208   0.000004  -0.000000   0.000000  -0.000000
     4  C    0.008923   0.001266   0.000912  -0.000011   0.000000   0.000006
     5  N   -0.097577   0.004780  -0.000149   0.000002  -0.000000   0.000001
     6  O    0.245507  -0.031548   0.003077  -0.000066   0.000003   0.000196
     7  C    4.683681   0.368733  -0.041117   0.006573   0.000929   0.004972
     8  C    0.368733   4.765731   0.533280  -0.011872  -0.032980  -0.009736
     9  C   -0.041117   0.533280   4.976988   0.520985  -0.039279  -0.040420
    10  C    0.006573  -0.011872   0.520985   4.872062   0.536879  -0.025248
    11  C    0.000929  -0.032980  -0.039279   0.536879   4.858728   0.535918
    12  C    0.004972  -0.009736  -0.040420  -0.025248   0.535918   4.873918
    13  C   -0.038470   0.472812  -0.074404  -0.041226  -0.037690   0.512907
    14  C    0.465567  -0.055779  -0.017154   0.000244   0.000014  -0.000226
    15  N    0.000001  -0.000000  -0.000000  -0.000000   0.000000  -0.000000
    16  C    0.000000   0.000000  -0.000000  -0.000000   0.000000   0.000000
    17  C   -0.000000   0.000000  -0.000000   0.000000   0.000000   0.000000
    18  O   -0.000034  -0.000000   0.000000   0.000000  -0.000000   0.000000
    19  H    0.000038  -0.000001  -0.000000   0.000000  -0.000000  -0.000000
    20  H   -0.011876  -0.038210   0.359369  -0.037713   0.004352   0.000158
    21  H   -0.000219   0.003259  -0.036596   0.364697  -0.039419   0.004219
    22  H    0.000002   0.000446   0.004862  -0.040854   0.365585  -0.040619
    23  H   -0.000179   0.003171   0.000744   0.004247  -0.039416   0.365219
    24  H   -0.011994  -0.042881   0.004805   0.000189   0.004324  -0.036793
    25  H   -0.022106  -0.003536   0.001104   0.000070  -0.000000   0.000001
    26  H   -0.000000  -0.000000   0.000000   0.000000  -0.000000   0.000000
    27  H    0.000000  -0.000000   0.000000  -0.000000   0.000000   0.000000
    28  H    0.000000   0.000000  -0.000000  -0.000000   0.000000  -0.000000
    29  H    0.000003   0.000000   0.000000  -0.000000  -0.000000  -0.000000
    30  H   -0.000000  -0.000000   0.000000   0.000000   0.000000   0.000000
    31  H   -0.000000  -0.000000   0.000000  -0.000000  -0.000000   0.000000
    32  H   -0.000000   0.000000  -0.000000  -0.000000   0.000000  -0.000000
    33  H    0.002471  -0.000004   0.000001  -0.000000   0.000000  -0.000000
              13         14         15         16         17         18
     1  O    0.000000  -0.000043  -0.047142  -0.001482   0.001120  -0.033051
     2  S   -0.000000   0.000982   0.107513  -0.014797  -0.011005   0.422040
     3  N   -0.000000  -0.048922  -0.046098   0.001580  -0.000843  -0.050638
     4  C   -0.000553   0.466011   0.000196   0.000009   0.000066   0.004575
     5  N    0.000354  -0.028679   0.000002  -0.000003   0.000090  -0.001951
     6  O   -0.008539  -0.076443  -0.000000   0.000000  -0.000002   0.000124
     7  C   -0.038470   0.465567   0.000001   0.000000  -0.000000  -0.000034
     8  C    0.472812  -0.055779  -0.000000   0.000000   0.000000  -0.000000
     9  C   -0.074404  -0.017154  -0.000000  -0.000000  -0.000000   0.000000
    10  C   -0.041226   0.000244  -0.000000  -0.000000   0.000000   0.000000
    11  C   -0.037690   0.000014   0.000000   0.000000   0.000000  -0.000000
    12  C    0.512907  -0.000226  -0.000000   0.000000   0.000000   0.000000
    13  C    5.020783   0.010757   0.000000  -0.000000   0.000000   0.000000
    14  C    0.010757   5.176242  -0.000042   0.000000   0.000034   0.000399
    15  N    0.000000  -0.000042   7.109142   0.209921   0.202768  -0.043754
    16  C   -0.000000   0.000000   0.209921   5.074940  -0.038456  -0.000847
    17  C    0.000000   0.000034   0.202768  -0.038456   5.077239   0.001747
    18  O    0.000000   0.000399  -0.043754  -0.000847   0.001747   8.177448
    19  H    0.000000  -0.002985   0.000529  -0.000002   0.000147   0.000691
    20  H    0.004982   0.005585  -0.000000  -0.000000   0.000000   0.000000
    21  H    0.000770  -0.000000  -0.000000   0.000000   0.000000  -0.000000
    22  H    0.004760  -0.000000   0.000000   0.000000   0.000000  -0.000000
    23  H   -0.036697   0.000001   0.000000  -0.000000  -0.000000   0.000000
    24  H    0.364422   0.000171  -0.000000   0.000000   0.000000   0.000000
    25  H   -0.000046   0.363723  -0.000000  -0.000000   0.000000   0.000001
    26  H   -0.000000   0.000000  -0.027572   0.375540   0.003415  -0.000287
    27  H    0.000000  -0.000000  -0.025843   0.378124  -0.002455  -0.000048
    28  H   -0.000000   0.000000  -0.032500   0.378801  -0.001908   0.003343
    29  H   -0.000000  -0.000103  -0.027438   0.003377   0.377370  -0.000681
    30  H   -0.000000   0.000003  -0.032236  -0.002139   0.379084   0.004775
    31  H    0.000000  -0.000001  -0.024826  -0.002292   0.374864   0.000068
    32  H    0.000000  -0.000003   0.277100  -0.018135  -0.019349   0.000676
    33  H    0.000002   0.003548  -0.000045   0.000002   0.000261   0.008043
              19         20         21         22         23         24
     1  O    0.000624  -0.000000   0.000000  -0.000000   0.000000  -0.000000
     2  S   -0.007013  -0.000000  -0.000000  -0.000000  -0.000000  -0.000000
     3  N    0.288706  -0.000001  -0.000000  -0.000000   0.000000  -0.000000
     4  C   -0.012588   0.000129   0.000000  -0.000000  -0.000000   0.000021
     5  N    0.001907  -0.000009  -0.000000  -0.000000   0.000000  -0.000164
     6  O   -0.000021   0.000034   0.000000   0.000000  -0.000002   0.006857
     7  C    0.000038  -0.011876  -0.000219   0.000002  -0.000179  -0.011994
     8  C   -0.000001  -0.038210   0.003259   0.000446   0.003171  -0.042881
     9  C   -0.000000   0.359369  -0.036596   0.004862   0.000744   0.004805
    10  C    0.000000  -0.037713   0.364697  -0.040854   0.004247   0.000189
    11  C   -0.000000   0.004352  -0.039419   0.365585  -0.039416   0.004324
    12  C   -0.000000   0.000158   0.004219  -0.040619   0.365219  -0.036793
    13  C    0.000000   0.004982   0.000770   0.004760  -0.036697   0.364422
    14  C   -0.002985   0.005585  -0.000000  -0.000000   0.000001   0.000171
    15  N    0.000529  -0.000000  -0.000000   0.000000   0.000000  -0.000000
    16  C   -0.000002  -0.000000   0.000000   0.000000  -0.000000   0.000000
    17  C    0.000147   0.000000   0.000000   0.000000  -0.000000   0.000000
    18  O    0.000691   0.000000  -0.000000  -0.000000   0.000000   0.000000
    19  H    0.238740   0.000000   0.000000   0.000000   0.000000   0.000000
    20  H    0.000000   0.536572  -0.004658  -0.000147   0.000014  -0.000125
    21  H    0.000000  -0.004658   0.542005  -0.005002  -0.000150   0.000014
    22  H    0.000000  -0.000147  -0.005002   0.545191  -0.005003  -0.000144
    23  H    0.000000   0.000014  -0.000150  -0.005003   0.541832  -0.004634
    24  H    0.000000  -0.000125   0.000014  -0.000144  -0.004634   0.534897
    25  H    0.001391   0.001735  -0.000002  -0.000000   0.000000  -0.000006
    26  H    0.000002   0.000000  -0.000000  -0.000000  -0.000000   0.000000
    27  H    0.000000   0.000000  -0.000000  -0.000000   0.000000   0.000000
    28  H   -0.000001  -0.000000   0.000000   0.000000  -0.000000   0.000000
    29  H    0.000046  -0.000000   0.000000   0.000000  -0.000000  -0.000000
    30  H   -0.000005  -0.000000   0.000000  -0.000000  -0.000000  -0.000000
    31  H   -0.000001  -0.000000   0.000000  -0.000000   0.000000  -0.000000
    32  H   -0.000013   0.000000   0.000000   0.000000   0.000000   0.000000
    33  H   -0.000046   0.000000   0.000000  -0.000000   0.000000   0.000006
              25         26         27         28         29         30
     1  O   -0.000001   0.007315   0.000036  -0.000539  -0.000005  -0.000004
     2  S   -0.000025  -0.001905   0.001870  -0.001308  -0.003897  -0.002570
     3  N   -0.002711   0.000011  -0.000067   0.000004   0.004400  -0.000183
     4  C   -0.025909  -0.000001  -0.000001   0.000007   0.000496   0.000066
     5  N    0.004213   0.000000   0.000000  -0.000000   0.000207   0.000046
     6  O    0.002555   0.000000  -0.000000  -0.000000  -0.000008  -0.000000
     7  C   -0.022106  -0.000000   0.000000   0.000000   0.000003  -0.000000
     8  C   -0.003536  -0.000000  -0.000000   0.000000   0.000000  -0.000000
     9  C    0.001104   0.000000   0.000000  -0.000000   0.000000   0.000000
    10  C    0.000070   0.000000  -0.000000  -0.000000  -0.000000   0.000000
    11  C   -0.000000  -0.000000   0.000000   0.000000  -0.000000   0.000000
    12  C    0.000001   0.000000   0.000000  -0.000000  -0.000000   0.000000
    13  C   -0.000046  -0.000000   0.000000  -0.000000  -0.000000  -0.000000
    14  C    0.363723   0.000000  -0.000000   0.000000  -0.000103   0.000003
    15  N   -0.000000  -0.027572  -0.025843  -0.032500  -0.027438  -0.032236
    16  C   -0.000000   0.375540   0.378124   0.378801   0.003377  -0.002139
    17  C    0.000000   0.003415  -0.002455  -0.001908   0.377370   0.379084
    18  O    0.000001  -0.000287  -0.000048   0.003343  -0.000681   0.004775
    19  H    0.001391   0.000002   0.000000  -0.000001   0.000046  -0.000005
    20  H    0.001735   0.000000   0.000000  -0.000000  -0.000000  -0.000000
    21  H   -0.000002  -0.000000  -0.000000   0.000000   0.000000   0.000000
    22  H   -0.000000  -0.000000  -0.000000   0.000000   0.000000  -0.000000
    23  H    0.000000  -0.000000   0.000000  -0.000000  -0.000000  -0.000000
    24  H   -0.000006   0.000000   0.000000   0.000000  -0.000000  -0.000000
    25  H    0.436324   0.000000  -0.000000   0.000000   0.000001   0.000000
    26  H    0.000000   0.445696  -0.018554  -0.022089  -0.000155  -0.000032
    27  H   -0.000000  -0.018554   0.444934  -0.021790  -0.000003  -0.000478
    28  H    0.000000  -0.022089  -0.021790   0.453688  -0.000001   0.003538
    29  H    0.000001  -0.000155  -0.000003  -0.000001   0.454263  -0.022058
    30  H    0.000000  -0.000032  -0.000478   0.003538  -0.022058   0.450183
    31  H   -0.000000  -0.000002   0.003174  -0.000560  -0.019652  -0.020449
    32  H    0.000000  -0.001939  -0.003237   0.002852  -0.002044   0.002769
    33  H   -0.000055  -0.000000  -0.000000   0.000000   0.000045   0.000257
              31         32         33
     1  O   -0.000041   0.000254   0.000012
     2  S    0.001742  -0.004003   0.000297
     3  N   -0.000038   0.001670  -0.000692
     4  C   -0.000017   0.000058  -0.023535
     5  N    0.000012  -0.000003   0.303625
     6  O   -0.000000   0.000000  -0.018768
     7  C   -0.000000  -0.000000   0.002471
     8  C   -0.000000   0.000000  -0.000004
     9  C    0.000000  -0.000000   0.000001
    10  C   -0.000000  -0.000000  -0.000000
    11  C   -0.000000   0.000000   0.000000
    12  C    0.000000  -0.000000  -0.000000
    13  C    0.000000   0.000000   0.000002
    14  C   -0.000001  -0.000003   0.003548
    15  N   -0.024826   0.277100  -0.000045
    16  C   -0.002292  -0.018135   0.000002
    17  C    0.374864  -0.019349   0.000261
    18  O    0.000068   0.000676   0.008043
    19  H   -0.000001  -0.000013  -0.000046
    20  H   -0.000000   0.000000   0.000000
    21  H    0.000000   0.000000   0.000000
    22  H   -0.000000   0.000000  -0.000000
    23  H    0.000000   0.000000   0.000000
    24  H   -0.000000   0.000000   0.000006
    25  H   -0.000000   0.000000  -0.000055
    26  H   -0.000002  -0.001939  -0.000000
    27  H    0.003174  -0.003237  -0.000000
    28  H   -0.000560   0.002852   0.000000
    29  H   -0.019652  -0.002044   0.000045
    30  H   -0.020449   0.002769   0.000257
    31  H    0.446395  -0.002415   0.000001
    32  H   -0.002415   0.251180  -0.000000
    33  H    0.000001  -0.000000   0.243178
 Mulliken charges:
               1
     1  O   -0.458694
     2  S    1.406963
     3  N   -0.806768
     4  C    0.707447
     5  N   -0.280207
     6  O   -0.356638
     7  C    0.435991
     8  C    0.073281
     9  C   -0.157011
    10  C   -0.148956
    11  C   -0.117947
    12  C   -0.144471
    13  C   -0.154922
    14  C   -0.262900
    15  N   -0.599676
    16  C   -0.344142
    17  C   -0.344188
    18  O   -0.492640
    19  H    0.489853
    20  H    0.179809
    21  H    0.171081
    22  H    0.170924
    23  H    0.170853
    24  H    0.181036
    25  H    0.243279
    26  H    0.240558
    27  H    0.244338
    28  H    0.238463
    29  H    0.235836
    30  H    0.239433
    31  H    0.244039
    32  H    0.514581
    33  H    0.481397
 Sum of Mulliken charges =   2.00000
 Mulliken charges with hydrogens summed into heavy atoms:
               1
     1  O   -0.458694
     2  S    1.406963
     3  N   -0.316915
     4  C    0.707447
     5  N    0.201190
     6  O   -0.356638
     7  C    0.435991
     8  C    0.073281
     9  C    0.022798
    10  C    0.022125
    11  C    0.052977
    12  C    0.026382
    13  C    0.026114
    14  C   -0.019621
    15  N   -0.085095
    16  C    0.379216
    17  C    0.375120
    18  O   -0.492640
 Electronic spatial extent (au):  <R**2>=           7493.4751
 Charge=              2.0000 electrons
 Dipole moment (field-independent basis, Debye):
    X=             14.4430    Y=              7.6075    Z=             -1.5216  Tot=             16.3948
 Quadrupole moment (field-independent basis, Debye-Ang):
   XX=             14.7831   YY=            -85.7758   ZZ=           -103.0076
   XY=             20.7437   XZ=            -10.1515   YZ=              9.8455
 Traceless Quadrupole moment (field-independent basis, Debye-Ang):
   XX=             72.7832   YY=            -27.7757   ZZ=            -45.0075
   XY=             20.7437   XZ=            -10.1515   YZ=              9.8455
 Octapole moment (field-independent basis, Debye-Ang**2):
  XXX=            229.6791  YYY=            -18.3353  ZZZ=            -70.8091  XYY=             23.2250
  XXY=             88.7160  XXZ=            -82.5001  XZZ=             23.1114  YZZ=             -7.4605
  YYZ=            -13.2864  XYZ=            -16.3734
 Hexadecapole moment (field-independent basis, Debye-Ang**3):
 XXXX=          -5046.4031 YYYY=           -485.9258 ZZZZ=           -645.6233 XXXY=            274.5209
 XXXZ=           -404.2300 YYYX=             -5.3182 YYYZ=            -14.7284 ZZZX=           -394.4144
 ZZZY=            -59.3563 XXYY=          -1262.5655 XXZZ=          -1541.5542 YYZZ=           -169.6272
 XXYZ=             43.4988 YYXZ=           -112.9233 ZZXY=              5.8488
 N-N= 1.478479135212D+03 E-N=-5.762071704444D+03  KE= 1.206455266550D+03
 No NMR shielding tensors so no spin-rotation constants.
 Leave Link  601 at Mon Sep 28 08:12:47 2020, MaxMem=  2147483648 cpu:               0.5 elap:               0.2
 (Enter /prod/apps/gaussian/g16b1/l701.exe)
 ... and contract with generalized density number  0.
 Compute integral first derivatives.
 D1PCM: PCM CHGder 1st derivatives, ID1Alg=3 FixD1E=F DoIter=F DoCFld=F I1PDM=0.
 GePol: Maximum number of non-zero 1st derivatives   =     173
 Leave Link  701 at Mon Sep 28 08:12:49 2020, MaxMem=  2147483648 cpu:               8.9 elap:               2.2
 (Enter /prod/apps/gaussian/g16b1/l702.exe)
 L702 exits ... SP integral derivatives will be done elsewhere.
 Leave Link  702 at Mon Sep 28 08:12:49 2020, MaxMem=  2147483648 cpu:               0.1 elap:               0.0
 (Enter /prod/apps/gaussian/g16b1/l703.exe)
 Integral derivatives from FoFJK, PRISM(SPDF).
 Compute integral first derivatives, UseDBF=F ICtDFT=           0.
 Calling FoFJK, ICntrl=      2127 FMM=F ISym2X=0 I1Cent= 0 IOpClX= 0 NMat=1 NMatS=1 NMatT=0.
 FoFJK:  IHMeth= 1 ICntrl=    2127 DoSepK=F KAlg= 0 I1Cent=           0 FoldK=F
 IRaf=         0 NMat=       1 IRICut=       1 DoRegI=T DoRafI=F ISym2E= 0 IDoP0=0 IntGTp=1.
 FoFCou: FMM=F IPFlag=           0 FMFlag=      100000 FMFlg1=         800
         NFxFlg=           0 DoJE=F BraDBF=F KetDBF=F FulRan=T
         wScrn=  0.000000 ICntrl=      2127 IOpCl=  0 I1Cent=           0 NGrid=           0
         NMat0=    1 NMatS0=      1 NMatT0=    0 NMatD0=    1 NMtDS0=    0 NMtDT0=    0
 Symmetry not used in FoFCou.
 Leave Link  703 at Mon Sep 28 08:13:02 2020, MaxMem=  2147483648 cpu:              51.4 elap:              12.9
 (Enter /prod/apps/gaussian/g16b1/l716.exe)
 Dipole        = 5.68229627D+00 2.99301998D+00-5.98638087D-01
 -------------------------------------------------------------------
 Center     Atomic                   Forces (Hartrees/Bohr)
 Number     Number              X              Y              Z
 -------------------------------------------------------------------
      1        8          -0.000095930   -0.000039981   -0.000208255
      2       16          -0.000126529   -0.000107816    0.000288381
      3        7           0.000166095   -0.000244850   -0.000161864
      4        6           0.000452766   -0.000341983    0.000072581
      5        7          -0.000773764    0.000559071    0.000225881
      6        8           0.000188300   -0.000028230   -0.000058423
      7        6          -0.000053868   -0.000076882   -0.000092856
      8        6          -0.000125379    0.000461737    0.000288536
      9        6          -0.000347817   -0.000665743   -0.000359686
     10        6           0.000898161   -0.000175468   -0.000016793
     11        6          -0.000611224    0.000407597    0.000160880
     12        6           0.000720288   -0.000179732    0.000087844
     13        6          -0.000152098    0.000061918   -0.000200794
     14        6          -0.000027756   -0.000095539   -0.000104531
     15        7           0.000353293   -0.000504728    0.000060581
     16        6          -0.000084405    0.000200405   -0.000432488
     17        6          -0.000211848   -0.000346890   -0.000154975
     18        8           0.000020389   -0.000001390   -0.000109469
     19        1          -0.000102774    0.000239351    0.000197809
     20        1           0.000072198    0.000229073    0.000174859
[...]
 Alpha virt. eigenvalues --    3.68730   3.72387   3.74570   3.83684   3.92913
 Alpha virt. eigenvalues --    4.08531   4.42642   4.68788
          Condensed to atoms (all electrons):
               1          2          3          4          5          6
     1  O    8.892817   0.018661  -0.080112   0.071882  -0.020695   0.002488
     2  S    0.018661  13.939678  -0.001571  -0.776952   0.218150  -0.124643
     3  N   -0.080112  -0.001571   9.119772  -1.461974   0.107054  -0.104404
     4  C    0.071882  -0.776952  -1.461974  15.860605  -1.299923   0.491180
     5  N   -0.020695   0.218150   0.107054  -1.299923   8.670214  -1.075345
     6  O    0.002488  -0.124643  -0.104404   0.491180  -1.075345  10.439151
     7  C    0.017859  -0.100542   0.381472  -1.304911  -0.790048  -0.066743
     8  C   -0.001128  -0.000408  -0.085006   0.384612   0.275515   0.247706
     9  C   -0.000033  -0.000113   0.056683  -0.539009   0.294217  -0.123433
    10  C   -0.000080   0.003092  -0.023802  -0.006545   0.029653   0.008070
    11  C    0.000012  -0.001115   0.005639  -0.100144   0.016594  -0.032192
    12  C   -0.000003   0.000735  -0.005824   0.261912  -0.044900  -0.032444
    13  C    0.000441  -0.012908   0.056356  -0.487146  -0.264965  -0.134053
    14  C   -0.028565   0.037458  -0.038070  -6.180198   0.366052  -0.043876
    15  N   -0.043811  -0.645693  -0.068319   0.259226  -0.004451   0.015417
    16  C    0.018470   0.140576  -0.039664  -0.037180  -0.008849  -0.003512
    17  C   -0.005655   0.060765   0.092471  -0.053720   0.012640   0.002912
    18  O    0.051147  -0.022715  -0.070923   0.149453  -0.011848  -0.017258
    19  H    0.027705   0.016747   0.175320   0.077023   0.013198  -0.007222
    20  H    0.000523   0.000099   0.010150   0.095734  -0.009746   0.010718
    21  H   -0.000010   0.000178  -0.000807   0.004448   0.000822   0.000062
    22  H    0.000001  -0.000030   0.000201  -0.003485   0.000629  -0.000251
    23  H   -0.000001   0.000026  -0.000566   0.005089  -0.003666   0.004708
    24  H    0.000021  -0.000985   0.007711  -0.021708  -0.035281  -0.126473
    25  H   -0.005377  -0.003906  -0.089496   0.626831  -0.075612   0.008512
    26  H   -0.004317  -0.000426   0.041525  -0.004666  -0.002682  -0.000298
    27  H   -0.005918   0.074450  -0.025276  -0.017818   0.000286  -0.000173
    28  H    0.010481  -0.039911   0.029926   0.005622  -0.003420   0.000038
    29  H    0.002854  -0.042655   0.028896   0.054298  -0.002894  -0.002450
    30  H   -0.000970   0.063201  -0.056559   0.026626  -0.009127  -0.002572
    31  H    0.000562  -0.004180   0.041364  -0.015451  -0.003654   0.000333
    32  H    0.036159   0.062960  -0.077681   0.006849   0.001837   0.001637
    33  H    0.001702   0.021500  -0.003715  -0.120895   0.636828  -0.259366
               7          8          9         10         11         12
     1  O    0.017859  -0.001128  -0.000033  -0.000080   0.000012  -0.000003
     2  S   -0.100542  -0.000408  -0.000113   0.003092  -0.001115   0.000735
     3  N    0.381472  -0.085006   0.056683  -0.023802   0.005639  -0.005824
     4  C   -1.304911   0.384612  -0.539009  -0.006545  -0.100144   0.261912
     5  N   -0.790048   0.275515   0.294217   0.029653   0.016594  -0.044900
     6  O   -0.066743   0.247706  -0.123433   0.008070  -0.032192  -0.032444
     7  C   19.901239  -4.277571  -1.055476  -0.660732   0.457376  -0.632543
     8  C   -4.277571  20.232658  -6.801726   1.651530  -3.538547   1.406108
     9  C   -1.055476  -6.801726  21.503140  -5.825676   3.229428  -2.878133
    10  C   -0.660732   1.651530  -5.825676  13.226799  -2.774302   3.123067
    11  C    0.457376  -3.538547   3.229428  -2.774302   8.847589  -2.609195
    12  C   -0.632543   1.406108  -2.878133   3.123067  -2.609195  11.260866
    13  C   -0.496281  -5.484177  -0.643356  -2.735926   2.375231  -3.852726
    14  C   -6.082356  -0.690913  -1.285904   0.419696  -0.264901  -0.058876
    15  N    0.002794   0.003140  -0.001973   0.000127  -0.000043  -0.000090
    16  C   -0.010700   0.000423  -0.000245   0.000032  -0.000017   0.000036
    17  C    0.022360  -0.004277   0.001270  -0.000066  -0.000036   0.000159
    18  O   -0.077329   0.008536  -0.001378   0.000004  -0.000031   0.000459
    19  H   -0.028953   0.003571  -0.002055  -0.002639  -0.000551   0.001873
    20  H   -0.101194   0.925670  -1.219107   0.154564  -0.134123   0.086887
    21  H   -0.041217  -0.136612   0.871227  -0.886059   0.273295  -0.256866
    22  H   -0.014025   0.037911  -0.092063   0.228829  -0.413752   0.319069
    23  H   -0.006397  -0.116909   0.083663  -0.213236   0.264036  -0.666724
    24  H    0.215679   0.321971  -0.118131   0.064236  -0.092810   0.310715
    25  H    0.750049   0.009436  -0.018433   0.066477  -0.025325   0.008189
    26  H   -0.001051  -0.000083   0.000063   0.000006  -0.000001  -0.000001
    27  H   -0.000815   0.000059  -0.000094   0.000001  -0.000003   0.000009
    28  H    0.000350   0.000016   0.000007  -0.000009   0.000003   0.000001
    29  H   -0.031430   0.004528  -0.001786  -0.000197  -0.000043   0.000459
    30  H   -0.007064   0.000212  -0.000191   0.000095  -0.000011  -0.000162
    31  H    0.007743  -0.000751   0.000437  -0.000027   0.000007   0.000003
    32  H   -0.000962  -0.000953   0.000461   0.000086   0.000029  -0.000093
    33  H    0.121821  -0.022846   0.011256  -0.000106  -0.000404  -0.001789
              13         14         15         16         17         18
     1  O    0.000441  -0.028565  -0.043811   0.018470  -0.005655   0.051147
     2  S   -0.012908   0.037458  -0.645693   0.140576   0.060765  -0.022715
     3  N    0.056356  -0.038070  -0.068319  -0.039664   0.092471  -0.070923
     4  C   -0.487146  -6.180198   0.259226  -0.037180  -0.053720   0.149453
     5  N   -0.264965   0.366052  -0.004451  -0.008849   0.012640  -0.011848
     6  O   -0.134053  -0.043876   0.015417  -0.003512   0.002912  -0.017258
     7  C   -0.496281  -6.082356   0.002794  -0.010700   0.022360  -0.077329
     8  C   -5.484177  -0.690913   0.003140   0.000423  -0.004277   0.008536
     9  C   -0.643356  -1.285904  -0.001973  -0.000245   0.001270  -0.001378
    10  C   -2.735926   0.419696   0.000127   0.000032  -0.000066   0.000004
    11  C    2.375231  -0.264901  -0.000043  -0.000017  -0.000036  -0.000031
    12  C   -3.852726  -0.058876  -0.000090   0.000036   0.000159   0.000459
    13  C   18.941413  -1.408313  -0.001862  -0.000276  -0.000330  -0.000941
    14  C   -1.408313  21.290093  -0.113595  -0.007816  -0.021692   0.010704
    15  N   -0.001862  -0.113595   8.894048  -0.079077  -0.028229   0.017446
    16  C   -0.000276  -0.007816  -0.079077   4.179995  -0.031112  -0.020053
    17  C   -0.000330  -0.021692  -0.028229  -0.031112   4.055676   0.018072
    18  O   -0.000941   0.010704   0.017446  -0.020053   0.018072   8.930480
    19  H   -0.005164  -0.097762  -0.051598   0.011571   0.000866   0.010077
    20  H   -0.124013   0.108504  -0.000531   0.000010   0.000404  -0.000192
    21  H    0.115227   0.039741   0.000000   0.000002  -0.000005   0.000012
    22  H   -0.061609   0.002908  -0.000003  -0.000001  -0.000000  -0.000002
    23  H    0.621749   0.000132   0.000006   0.000003   0.000008   0.000024
    24  H   -0.765095  -0.008235  -0.000209  -0.000161   0.000038  -0.001171
    25  H   -0.003250  -1.570260   0.003231  -0.001479   0.001377   0.000031
    26  H   -0.000027   0.004040  -0.005898   0.362783  -0.014386   0.006445
    27  H   -0.000017  -0.001236  -0.223774   0.453256   0.033798  -0.011718
    28  H    0.000066   0.001447  -0.075472   0.287616   0.024388   0.021076
    29  H   -0.000717   0.016710  -0.072556  -0.043617   0.310944   0.027742
    30  H    0.000025   0.006848  -0.141596   0.024836   0.278888  -0.002427
    31  H    0.000083  -0.002388  -0.122966   0.026613   0.420735  -0.001050
    32  H    0.000110  -0.004278   0.251926  -0.008580  -0.005415   0.003988
    33  H   -0.017388  -0.149337  -0.007353   0.004844  -0.005098   0.004013
              19         20         21         22         23         24
     1  O    0.027705   0.000523  -0.000010   0.000001  -0.000001   0.000021
     2  S    0.016747   0.000099   0.000178  -0.000030   0.000026  -0.000985
     3  N    0.175320   0.010150  -0.000807   0.000201  -0.000566   0.007711
     4  C    0.077023   0.095734   0.004448  -0.003485   0.005089  -0.021708
     5  N    0.013198  -0.009746   0.000822   0.000629  -0.003666  -0.035281
     6  O   -0.007222   0.010718   0.000062  -0.000251   0.004708  -0.126473
     7  C   -0.028953  -0.101194  -0.041217  -0.014025  -0.006397   0.215679
     8  C    0.003571   0.925670  -0.136612   0.037911  -0.116909   0.321971
     9  C   -0.002055  -1.219107   0.871227  -0.092063   0.083663  -0.118131
    10  C   -0.002639   0.154564  -0.886059   0.228829  -0.213236   0.064236
    11  C   -0.000551  -0.134123   0.273295  -0.413752   0.264036  -0.092810
    12  C    0.001873   0.086887  -0.256866   0.319069  -0.666724   0.310715
    13  C   -0.005164  -0.124013   0.115227  -0.061609   0.621749  -0.765095
    14  C   -0.097762   0.108504   0.039741   0.002908   0.000132  -0.008235
    15  N   -0.051598  -0.000531   0.000000  -0.000003   0.000006  -0.000209
    16  C    0.011571   0.000010   0.000002  -0.000001   0.000003  -0.000161
    17  C    0.000866   0.000404  -0.000005  -0.000000   0.000008   0.000038
    18  O    0.010077  -0.000192   0.000012  -0.000002   0.000024  -0.001171
    19  H    0.830533  -0.000290   0.000048  -0.000010   0.000010  -0.000512
    20  H   -0.000290   1.951750  -0.070199  -0.016787   0.008743  -0.015245
    21  H    0.000048  -0.070199   1.603888  -0.056491  -0.019353   0.007102
    22  H   -0.000010  -0.016787  -0.056491   1.533892  -0.062362  -0.011120
    23  H    0.000010   0.008743  -0.019353  -0.062362   1.597661  -0.086490
    24  H   -0.000512  -0.015245   0.007102  -0.011120  -0.086490   2.015192
    25  H    0.022390  -0.081831  -0.002776   0.000278   0.000823  -0.003109
    26  H   -0.001283   0.000027   0.000000  -0.000000  -0.000000  -0.000003
    27  H    0.001895  -0.000023   0.000000  -0.000000   0.000000  -0.000014
    28  H    0.000684   0.000024  -0.000000   0.000000  -0.000000   0.000007
    29  H   -0.007759  -0.000317   0.000018  -0.000004   0.000004  -0.000230
    30  H    0.002474  -0.000075   0.000001  -0.000000  -0.000012   0.000183
    31  H    0.002585   0.000177  -0.000003   0.000001  -0.000000   0.000070
    32  H    0.021646  -0.000217  -0.000000   0.000001  -0.000001   0.000018
    33  H    0.006556   0.000634  -0.000038  -0.000004   0.000141  -0.001459
              25         26         27         28         29         30
     1  O   -0.005377  -0.004317  -0.005918   0.010481   0.002854  -0.000970
     2  S   -0.003906  -0.000426   0.074450  -0.039911  -0.042655   0.063201
     3  N   -0.089496   0.041525  -0.025276   0.029926   0.028896  -0.056559
     4  C    0.626831  -0.004666  -0.017818   0.005622   0.054298   0.026626
     5  N   -0.075612  -0.002682   0.000286  -0.003420  -0.002894  -0.009127
     6  O    0.008512  -0.000298  -0.000173   0.000038  -0.002450  -0.002572
     7  C    0.750049  -0.001051  -0.000815   0.000350  -0.031430  -0.007064
     8  C    0.009436  -0.000083   0.000059   0.000016   0.004528   0.000212
     9  C   -0.018433   0.000063  -0.000094   0.000007  -0.001786  -0.000191
    10  C    0.066477   0.000006   0.000001  -0.000009  -0.000197   0.000095
    11  C   -0.025325  -0.000001  -0.000003   0.000003  -0.000043  -0.000011
    12  C    0.008189  -0.000001   0.000009   0.000001   0.000459  -0.000162
    13  C   -0.003250  -0.000027  -0.000017   0.000066  -0.000717   0.000025
    14  C   -1.570260   0.004040  -0.001236   0.001447   0.016710   0.006848
    15  N    0.003231  -0.005898  -0.223774  -0.075472  -0.072556  -0.141596
    16  C   -0.001479   0.362783   0.453256   0.287616  -0.043617   0.024836
    17  C    0.001377  -0.014386   0.033798   0.024388   0.310944   0.278888
    18  O    0.000031   0.006445  -0.011718   0.021076   0.027742  -0.002427
    19  H    0.022390  -0.001283   0.001895   0.000684  -0.007759   0.002474
    20  H   -0.081831   0.000027  -0.000023   0.000024  -0.000317  -0.000075
    21  H   -0.002776   0.000000   0.000000  -0.000000   0.000018   0.000001
    22  H    0.000278  -0.000000  -0.000000   0.000000  -0.000004  -0.000000
    23  H    0.000823  -0.000000   0.000000  -0.000000   0.000004  -0.000012
    24  H   -0.003109  -0.000003  -0.000014   0.000007  -0.000230   0.000183
    25  H    1.926400  -0.000185   0.000009  -0.000290  -0.000916   0.000143
    26  H   -0.000185   1.110068  -0.253548  -0.149686  -0.006297  -0.000774
    27  H    0.000009  -0.253548   1.246556  -0.181030   0.004485   0.007743
    28  H   -0.000290  -0.149686  -0.181030   1.091666   0.006945  -0.006305
    29  H   -0.000916  -0.006297   0.004485   0.006945   1.412809  -0.213463
    30  H    0.000143  -0.000774   0.007743  -0.006305  -0.213463   1.261782
    31  H   -0.001249   0.010071   0.001106  -0.002818  -0.308123  -0.197736
    32  H    0.001362  -0.017484  -0.010092   0.018513  -0.024983   0.029398
    33  H    0.002395   0.000294   0.000551  -0.000308   0.001741  -0.000983
              31         32         33
     1  O    0.000562   0.036159   0.001702
     2  S   -0.004180   0.062960   0.021500
     3  N    0.041364  -0.077681  -0.003715
     4  C   -0.015451   0.006849  -0.120895
     5  N   -0.003654   0.001837   0.636828
     6  O    0.000333   0.001637  -0.259366
     7  C    0.007743  -0.000962   0.121821
     8  C   -0.000751  -0.000953  -0.022846
     9  C    0.000437   0.000461   0.011256
    10  C   -0.000027   0.000086  -0.000106
    11  C    0.000007   0.000029  -0.000404
    12  C    0.000003  -0.000093  -0.001789
    13  C    0.000083   0.000110  -0.017388
    14  C   -0.002388  -0.004278  -0.149337
    15  N   -0.122966   0.251926  -0.007353
    16  C    0.026613  -0.008580   0.004844
    17  C    0.420735  -0.005415  -0.005098
    18  O   -0.001050   0.003988   0.004013
    19  H    0.002585   0.021646   0.006556
    20  H    0.000177  -0.000217   0.000634
    21  H   -0.000003  -0.000000  -0.000038
    22  H    0.000001   0.000001  -0.000004
    23  H   -0.000000  -0.000001   0.000141
    24  H    0.000070   0.000018  -0.001459
    25  H   -0.001249   0.001362   0.002395
    26  H    0.010071  -0.017484   0.000294
    27  H    0.001106  -0.010092   0.000551
    28  H   -0.002818   0.018513  -0.000308
    29  H   -0.308123  -0.024983   0.001741
    30  H   -0.197736   0.029398  -0.000983
    31  H    1.282437  -0.027196  -0.000492
    32  H   -0.027196   0.538343  -0.000484
    33  H   -0.000492  -0.000484   0.710932
 Mulliken charges:
               1
     1  O   -0.957111
     2  S    3.120478
     3  N   -0.920771
     4  C    0.050334
     5  N    0.023419
     6  O   -1.076224
     7  C   -0.090403
     8  C    1.648304
     9  C    0.556462
    10  C    0.153038
    11  C    0.518309
    12  C    0.259822
    13  C    0.389842
    14  C    1.754238
    15  N   -0.758262
    16  C    0.781273
    17  C    0.832255
    18  O   -1.020669
    19  H   -0.020974
    20  H   -0.580723
    21  H   -0.445637
    22  H   -0.391719
    23  H   -0.411110
    24  H   -0.654501
    25  H   -0.544441
    26  H   -0.072225
    27  H   -0.092657
    28  H   -0.039625
    29  H   -0.111999
    30  H   -0.062429
    31  H   -0.106243
    32  H    0.203095
    33  H    0.066855
 Sum of Mulliken charges =   2.00000
 Mulliken charges with hydrogens summed into heavy atoms:
               1
     1  O   -0.957111
     2  S    3.120478
     3  N   -0.941745
     4  C    0.050334
     5  N    0.090274
     6  O   -1.076224
     7  C   -0.090403
     8  C    1.648304
     9  C   -0.024261
    10  C   -0.292599
    11  C    0.126590
    12  C   -0.151289
    13  C   -0.264659
    14  C    1.209797
    15  N   -0.555167
    16  C    0.576766
    17  C    0.551584
    18  O   -1.020669
 Electronic spatial extent (au):  <R**2>=           7440.7123
 Charge=              2.0000 electrons
 Dipole moment (field-independent basis, Debye):
    X=             -9.0342    Y=              0.4662    Z=              6.6275  Tot=             11.2142
 Quadrupole moment (field-independent basis, Debye-Ang):
   XX=             44.2354   YY=            -87.9608   ZZ=           -103.0965
   XY=              5.7604   XZ=            -24.3784   YZ=              4.6155
 Traceless Quadrupole moment (field-independent basis, Debye-Ang):
   XX=             93.1760   YY=            -39.0202   ZZ=            -54.1559
   XY=              5.7604   XZ=            -24.3784   YZ=              4.6155
 Octapole moment (field-independent basis, Debye-Ang**2):
  XXX=            -73.9682  YYY=             -1.6929  ZZZ=             15.9725  XYY=             -7.8976
  XXY=            -26.3634  XXZ=            114.2921  XZZ=            -68.4652  YZZ=             -6.8264
  YYZ=             10.8580  XYZ=             23.2510
 Hexadecapole moment (field-independent basis, Debye-Ang**3):
 XXXX=          -3781.6127 YYYY=           -556.4896 ZZZZ=           -432.2141 XXXY=            129.9568
 XXXZ=           -383.7793 YYYX=             10.0811 YYYZ=             33.4278 ZZZX=            -92.4236
 ZZZY=            -16.6566 XXYY=          -1332.9607 XXZZ=          -1436.5843 YYZZ=           -177.1040
 XXYZ=             93.7177 YYXZ=            -30.1606 ZZXY=             18.3791
 N-N= 1.478483648140D+03 E-N=-5.762986655991D+03  KE= 1.208708369433D+03
 Leave Link  601 at Mon Sep 28 09:04:04 2020, MaxMem=   262144000 cpu:               1.4 elap:               0.6
 (Enter /prod/apps/gaussian/g16b1/l9999.exe)
 1\1\GINC-PIRINEUS34\SP\RMP2-FC\Aug-CC-pVDZ\C11H15N3O3S1(2+)\UBAFAR01\2
 8-Sep-2020\0\\#p mp2/aug-cc-pVDZ scf=(MaxCycle=2000,NoVarAcc,NoIncFock
 ) maxdisk=120GB geom=allcheck\\SM43_m3.b.6.pdb.xyz\\2,1\O,0,3.62997640
 14,0.3312989816,2.3819264058\S,0,3.0069986312,-0.0083082606,1.12427460
 06\N,0,1.5803861412,0.8268362828,0.9609422213\C,0,0.3784200886,0.33350
 87292,0.505417789\N,0,0.2155518978,-0.7828574589,-0.1979664446\O,0,-1.
 1059547474,-0.9507115471,-0.4992968441\C,0,-1.7718822976,0.0913277157,
 0.0587760374\C,0,-3.2118647686,0.111310976,-0.0978591178\C,0,-3.936973
 5235,1.2366455079,0.3296791747\C,0,-5.3194967931,1.2618179888,0.186940
 0765\C,0,-5.9853906731,0.1701740129,-0.3776640235\C,0,-5.2665745118,-0
 .95021709,-0.803477907\C,0,-3.8828213412,-0.9848982338,-0.6681771136\C
 ,0,-0.880737944,0.9250918236,0.694940897\N,0,4.0472797775,0.8667583539
 ,-0.1299774262\C,0,5.4749678213,0.4179865988,0.0116407241\C,0,3.509900
 7302,0.7137546698,-1.5221924494\O,0,2.8221034517,-1.3532164545,0.62300
 30247\H,0,1.5345788426,1.6921917281,1.510106297\H,0,-3.4204539946,2.08
 53038865,0.7630548226\H,0,-5.8773940587,2.1316212433,0.5142540732\H,0,
 -7.0642035259,0.1923363224,-0.4854421956\H,0,-5.7851814025,-1.79701198
 97,-1.2380916689\H,0,-3.3203182365,-1.8524589456,-0.991884662\H,0,-1.0
 89988266,1.8262691401,1.2450926368\H,0,5.7845640331,0.5691816349,1.042
 111873\H,0,6.0651636567,1.0399483726,-0.6578448733\H,0,5.5482631442,-0
 .6283640406,-0.2760227974\H,0,2.5152944312,1.1513523414,-1.5610605152\
 H,0,3.4951509979,-0.3417316868,-1.7842002347\H,0,4.1830219641,1.261659
 5907,-2.1792542555\H,0,3.9924860681,1.8673856991,0.1364150532\H,0,0.84
 61280059,-1.4489858923,-0.6451631779\\Version=ES64L-G16RevB.01\State=1
 -A\HF=-1210.1151184\MP2=-1212.8808265\RMSD=9.725e-09\PG=C01 [X(C11H15N
 3O3S1)]\\@


 MY DESCRIPTION OF EXPERIENCE IS NOT WHAT HAPPENS
 TO A MAN.  EXPERIENCE IS WHAT A MAN DOES WITH WHAT
 HAPPENS TO HIM.
                         - CHUCK KNOX, SEATTLE SEAHAWKS, 1985
 Job cpu time:       0 days  2 hours 15 minutes 15.1 seconds.
 Elapsed time:       0 days  0 hours 37 minutes 46.8 seconds.
 File lengths (MBytes):  RWF=  78986 Int=      0 D2E=      0 Chk=     25 Scr=      1
 Normal termination of Gaussian 16 at Mon Sep 28 09:04:06 2020.
