 Entering Gaussian System, Link 0=g16
 Initial command:
 /prod/apps/gaussian/g16b1/l1.exe "/tmp/ubafar01/1460346/Gau-96798.inp" -scrdir="/tmp/ubafar01/1460346/"
 Entering Link 1 = /prod/apps/gaussian/g16b1/l1.exe PID=     96799.
  
 Copyright (c) 1988-2017, Gaussian, Inc.  All Rights Reserved.
  
 This is part of the Gaussian(R) 16 program.  It is based on
 the Gaussian(R) 09 system (copyright 2009, Gaussian, Inc.),
 the Gaussian(R) 03 system (copyright 2003, Gaussian, Inc.),
 the Gaussian(R) 98 system (copyright 1998, Gaussian, Inc.),
 the Gaussian(R) 94 system (copyright 1995, Gaussian, Inc.),
 the Gaussian 92(TM) system (copyright 1992, Gaussian, Inc.),
 the Gaussian 90(TM) system (copyright 1990, Gaussian, Inc.),
 the Gaussian 88(TM) system (copyright 1988, Gaussian, Inc.),
 the Gaussian 86(TM) system (copyright 1986, Carnegie Mellon
 University), and the Gaussian 82(TM) system (copyright 1983,
 Carnegie Mellon University). Gaussian is a federally registered
 trademark of Gaussian, Inc.
  
 This software contains proprietary and confidential information,
 including trade secrets, belonging to Gaussian, Inc.
  
 This software is provided under written license and may be
 used, copied, transmitted, or stored only in accord with that
 written license.
  
 The following legend is applicable only to US Government
 contracts under FAR:
  
                    RESTRICTED RIGHTS LEGEND
  
 Use, reproduction and disclosure by the US Government is
 subject to restrictions as set forth in subparagraphs (a)
 and (c) of the Commercial Computer Software - Restricted
 Rights clause in FAR 52.227-19.
  
 Gaussian, Inc.
 340 Quinnipiac St., Bldg. 40, Wallingford CT 06492
  
  
 ---------------------------------------------------------------
 Warning -- This program may not be used in any manner that
 competes with the business of Gaussian, Inc. or will provide
 assistance to any competitor of Gaussian, Inc.  The licensee
 of this program is prohibited from giving any competitor of
 Gaussian, Inc. access to this program.  By using this program,
 the user acknowledges that Gaussian, Inc. is engaged in the
 business of creating and licensing software in the field of
 computational chemistry and represents and warrants to the
 licensee that it is not a competitor of Gaussian, Inc. and that
 it will not use this program in any manner prohibited above.
 ---------------------------------------------------------------
  

 Cite this work as:
 Gaussian 16, Revision B.01,
 M. J. Frisch, G. W. Trucks, H. B. Schlegel, G. E. Scuseria, 
 M. A. Robb, J. R. Cheeseman, G. Scalmani, V. Barone, 
 G. A. Petersson, H. Nakatsuji, X. Li, M. Caricato, A. V. Marenich, 
 J. Bloino, B. G. Janesko, R. Gomperts, B. Mennucci, H. P. Hratchian, 
 J. V. Ortiz, A. F. Izmaylov, J. L. Sonnenberg, D. Williams-Young, 
 F. Ding, F. Lipparini, F. Egidi, J. Goings, B. Peng, A. Petrone, 
 T. Henderson, D. Ranasinghe, V. G. Zakrzewski, J. Gao, N. Rega, 
 G. Zheng, W. Liang, M. Hada, M. Ehara, K. Toyota, R. Fukuda, 
 J. Hasegawa, M. Ishida, T. Nakajima, Y. Honda, O. Kitao, H. Nakai, 
 T. Vreven, K. Throssell, J. A. Montgomery, Jr., J. E. Peralta, 
 F. Ogliaro, M. J. Bearpark, J. J. Heyd, E. N. Brothers, K. N. Kudin, 
 V. N. Staroverov, T. A. Keith, R. Kobayashi, J. Normand, 
 K. Raghavachari, A. P. Rendell, J. C. Burant, S. S. Iyengar, 
 J. Tomasi, M. Cossi, J. M. Millam, M. Klene, C. Adamo, R. Cammi, 
 J. W. Ochterski, R. L. Martin, K. Morokuma, O. Farkas, 
 J. B. Foresman, and D. J. Fox, Gaussian, Inc., Wallingford CT, 2016.
 
 ******************************************
 Gaussian 16:  ES64L-G16RevB.01 20-Dec-2017
                22-Sep-2020 
 ******************************************
 %nproc=4
 Will use up to    4 processors via shared memory.
 %Chk=SM38_m0.n.8.pdb.xyz.mst.n.w.chk
 %mem=16GB
 ----------------------------------------------------------------------
 #p b3lyp/6-31G(d) opt freq NoSymm scf=(MaxCycle=2000,NoVarAcc,NoIncFoc
 k) scrf=(iefpcm,read,solvent=water)
 ----------------------------------------------------------------------
 1/18=20,19=15,26=3,38=1,40=2/1,3;
 2/9=110,12=2,15=1,17=6,18=5,40=1/2;
 3/5=1,6=6,7=1,11=2,25=1,30=1,70=2203,71=1,72=1,74=-5/1,2,3;
 4//1;
 5/5=100002,7=2000,38=1,53=1/2;
 6/7=2,8=2,9=2,10=2,28=1/1;
 7/30=1/1,2,3,16;
 1/18=20,19=15,26=3/3(2);
 2/9=110,15=1/2;
 99//99;
 2/9=110,15=1/2;
 3/5=1,6=6,7=1,11=2,25=1,30=1,70=2205,71=1,72=1,74=-5/1,2,3;
 4/5=5,16=3,69=1/1;
 5/5=100002,7=2000,38=1,53=1/2;
 7/30=1/1,2,3,16;
 1/18=20,19=15,26=3/3(-5);
 2/9=110,15=1/2;
 6/7=2,8=2,9=2,10=2,19=2,28=1/1;
 99/9=1/99;
 Leave Link    1 at Tue Sep 22 01:46:05 2020, MaxMem=  2147483648 cpu:               0.1 elap:               0.0
 (Enter /prod/apps/gaussian/g16b1/l101.exe)
 -------------------
 SM38_m0.n.8.pdb.xyz
 -------------------
 Symbolic Z-matrix:
 Charge =  0 Multiplicity = 1
 C                     1.959     2.34     -0.58 
 S                     0.326     2.09      0.105 
 N                    -0.18      0.693    -0.704 
 C                    -1.106    -0.221    -0.009 
 C                    -1.961    -0.996    -1.066 
 S                    -3.479    -0.608    -0.131 
 C                    -2.304     0.484     0.724 
 O                    -4.506     0.097    -0.92 
 O                    -3.902    -1.741     0.719 
 C                    -0.379    -1.186     0.943 
 C                     0.657    -2.127     0.299 
 C                     2.05     -1.567     0.097 
 C                     2.794    -1.075     1.18 
 C                     4.097    -0.609     1.002 
 C                     4.685    -0.63     -0.266 
 C                     3.957    -1.12     -1.352 
 C                     2.652    -1.584    -1.167 
 O                     0.427     1.751     1.534 
 O                    -0.513     3.243    -0.276 
 H                     2.58      1.483    -0.322 
 H                     2.349     3.255    -0.131 
 H                     1.873     2.456    -1.661 
 H                    -0.514     0.974    -1.627 
 H                    -1.765    -2.064    -1.159 
 H                    -2.006    -0.532    -2.052 
 H                    -2.332     0.4       1.81 
 H                    -2.458     1.514     0.407 
 H                    -1.157    -1.796     1.414 
 H                     0.081    -0.596     1.738 
 H                     0.281    -2.5      -0.66 
 H                     0.733    -3.006     0.949 
 H                     2.35     -1.06      2.171 
 H                     4.656    -0.234     1.854 
 H                     5.699    -0.269    -0.404 
 H                     4.402    -1.142    -2.341 
 H                     2.089    -1.965    -2.015 
 
 ITRead=  0  0  0  0  0  0  0  0  0  0  0  0  0  0  0  0  0  0  0  0
 ITRead=  0  0  0  0  0  0  0  0  0  0  0  0  0  0  0  0
 MicOpt= -1 -1 -1 -1 -1 -1 -1 -1 -1 -1 -1 -1 -1 -1 -1 -1 -1 -1 -1 -1
 MicOpt= -1 -1 -1 -1 -1 -1 -1 -1 -1 -1 -1 -1 -1 -1 -1 -1
 NAtoms=     36 NQM=       36 NQMF=       0 NMMI=      0 NMMIF=      0
                NMic=       0 NMicF=      0.
                    Isotopes and Nuclear Properties:
 (Nuclear quadrupole moments (NQMom) in fm**2, nuclear magnetic moments (NMagM)
  in nuclear magnetons)

  Atom         1           2           3           4           5           6           7           8           9          10
 IAtWgt=          12          32          14          12          12          32          12          16          16          12
 AtmWgt=  12.0000000  31.9720718  14.0030740  12.0000000  12.0000000  31.9720718  12.0000000  15.9949146  15.9949146  12.0000000
 NucSpn=           0           0           2           0           0           0           0           0           0           0
 AtZEff=  -0.0000000  -0.0000000  -0.0000000  -0.0000000  -0.0000000  -0.0000000  -0.0000000  -0.0000000  -0.0000000  -0.0000000
 NQMom=    0.0000000   0.0000000   2.0440000   0.0000000   0.0000000   0.0000000   0.0000000   0.0000000   0.0000000   0.0000000
 NMagM=    0.0000000   0.0000000   0.4037610   0.0000000   0.0000000   0.0000000   0.0000000   0.0000000   0.0000000   0.0000000
 AtZNuc=   6.0000000  16.0000000   7.0000000   6.0000000   6.0000000  16.0000000   6.0000000   8.0000000   8.0000000   6.0000000

  Atom        11          12          13          14          15          16          17          18          19          20
 IAtWgt=          12          12          12          12          12          12          12          16          16           1
 AtmWgt=  12.0000000  12.0000000  12.0000000  12.0000000  12.0000000  12.0000000  12.0000000  15.9949146  15.9949146   1.0078250
 NucSpn=           0           0           0           0           0           0           0           0           0           1
 AtZEff=  -0.0000000  -0.0000000  -0.0000000  -0.0000000  -0.0000000  -0.0000000  -0.0000000  -0.0000000  -0.0000000  -0.0000000
 NQMom=    0.0000000   0.0000000   0.0000000   0.0000000   0.0000000   0.0000000   0.0000000   0.0000000   0.0000000   0.0000000
 NMagM=    0.0000000   0.0000000   0.0000000   0.0000000   0.0000000   0.0000000   0.0000000   0.0000000   0.0000000   2.7928460
 AtZNuc=   6.0000000   6.0000000   6.0000000   6.0000000   6.0000000   6.0000000   6.0000000   8.0000000   8.0000000   1.0000000

  Atom        21          22          23          24          25          26          27          28          29          30
 IAtWgt=           1           1           1           1           1           1           1           1           1           1
 AtmWgt=   1.0078250   1.0078250   1.0078250   1.0078250   1.0078250   1.0078250   1.0078250   1.0078250   1.0078250   1.0078250
 NucSpn=           1           1           1           1           1           1           1           1           1           1
 AtZEff=  -0.0000000  -0.0000000  -0.0000000  -0.0000000  -0.0000000  -0.0000000  -0.0000000  -0.0000000  -0.0000000  -0.0000000
 NQMom=    0.0000000   0.0000000   0.0000000   0.0000000   0.0000000   0.0000000   0.0000000   0.0000000   0.0000000   0.0000000
 NMagM=    2.7928460   2.7928460   2.7928460   2.7928460   2.7928460   2.7928460   2.7928460   2.7928460   2.7928460   2.7928460
 AtZNuc=   1.0000000   1.0000000   1.0000000   1.0000000   1.0000000   1.0000000   1.0000000   1.0000000   1.0000000   1.0000000

  Atom        31          32          33          34          35          36
 IAtWgt=           1           1           1           1           1           1
 AtmWgt=   1.0078250   1.0078250   1.0078250   1.0078250   1.0078250   1.0078250
 NucSpn=           1           1           1           1           1           1
 AtZEff=  -0.0000000  -0.0000000  -0.0000000  -0.0000000  -0.0000000  -0.0000000
 NQMom=    0.0000000   0.0000000   0.0000000   0.0000000   0.0000000   0.0000000
 NMagM=    2.7928460   2.7928460   2.7928460   2.7928460   2.7928460   2.7928460
 AtZNuc=   1.0000000   1.0000000   1.0000000   1.0000000   1.0000000   1.0000000
 Leave Link  101 at Tue Sep 22 01:46:05 2020, MaxMem=  2147483648 cpu:               1.3 elap:               0.3
 (Enter /prod/apps/gaussian/g16b1/l103.exe)

 GradGradGradGradGradGradGradGradGradGradGradGradGradGradGradGradGradGrad
 Berny optimization.
 Initialization pass.
                           ----------------------------
                           !    Initial Parameters    !
                           ! (Angstroms and Degrees)  !
 --------------------------                            --------------------------
 ! Name  Definition              Value          Derivative Info.                !
 --------------------------------------------------------------------------------
 ! R1    R(1,2)                  1.7884         estimate D2E/DX2                !
 ! R2    R(1,20)                 1.0893         estimate D2E/DX2                !
 ! R3    R(1,21)                 1.0913         estimate D2E/DX2                !
 ! R4    R(1,22)                 1.0906         estimate D2E/DX2                !
 ! R5    R(2,3)                  1.6918         estimate D2E/DX2                !
 ! R6    R(2,18)                 1.4721         estimate D2E/DX2                !
 ! R7    R(2,19)                 1.476          estimate D2E/DX2                !
 ! R8    R(3,4)                  1.4751         estimate D2E/DX2                !
 ! R9    R(3,23)                 1.021          estimate D2E/DX2                !
 ! R10   R(4,5)                  1.5649         estimate D2E/DX2                !
 ! R11   R(4,7)                  1.5715         estimate D2E/DX2                !
 ! R12   R(4,10)                 1.5382         estimate D2E/DX2                !
 ! R13   R(5,6)                  1.8246         estimate D2E/DX2                !
 ! R14   R(5,24)                 1.0898         estimate D2E/DX2                !
 ! R15   R(5,25)                 1.0906         estimate D2E/DX2                !
 ! R16   R(6,7)                  1.8177         estimate D2E/DX2                !
 ! R17   R(6,8)                  1.4745         estimate D2E/DX2                !
 ! R18   R(6,9)                  1.4782         estimate D2E/DX2                !
 ! R19   R(7,26)                 1.0896         estimate D2E/DX2                !
 ! R20   R(7,27)                 1.0886         estimate D2E/DX2                !
 ! R21   R(10,11)                1.5406         estimate D2E/DX2                !
 ! R22   R(10,28)                1.0951         estimate D2E/DX2                !
 ! R23   R(10,29)                1.0917         estimate D2E/DX2                !
 ! R24   R(11,12)                1.5149         estimate D2E/DX2                !
 ! R25   R(11,30)                1.0955         estimate D2E/DX2                !
 ! R26   R(11,31)                1.0959         estimate D2E/DX2                !
 ! R27   R(12,13)                1.403          estimate D2E/DX2                !
 ! R28   R(12,17)                1.4001         estimate D2E/DX2                !
 ! R29   R(13,14)                1.3952         estimate D2E/DX2                !
 ! R30   R(13,32)                1.086          estimate D2E/DX2                !
 ! R31   R(14,15)                1.3979         estimate D2E/DX2                !
 ! R32   R(14,33)                1.0858         estimate D2E/DX2                !
 ! R33   R(15,16)                1.3962         estimate D2E/DX2                !
 ! R34   R(15,34)                1.0852         estimate D2E/DX2                !
 ! R35   R(16,17)                1.3973         estimate D2E/DX2                !
 ! R36   R(16,35)                1.0847         estimate D2E/DX2                !
 ! R37   R(17,36)                1.0868         estimate D2E/DX2                !
 ! A1    A(2,1,20)             108.6535         estimate D2E/DX2                !
 ! A2    A(2,1,21)             106.6147         estimate D2E/DX2                !
 ! A3    A(2,1,22)             108.8151         estimate D2E/DX2                !
 ! A4    A(20,1,21)            111.0051         estimate D2E/DX2                !
 ! A5    A(20,1,22)            111.3084         estimate D2E/DX2                !
 ! A6    A(21,1,22)            110.2927         estimate D2E/DX2                !
 ! A7    A(1,2,3)              101.8515         estimate D2E/DX2                !
 ! A8    A(1,2,18)             109.9588         estimate D2E/DX2                !
 ! A9    A(1,2,19)             108.1177         estimate D2E/DX2                !
 ! A10   A(3,2,18)             107.1306         estimate D2E/DX2                !
 ! A11   A(3,2,19)             110.5858         estimate D2E/DX2                !
 ! A12   A(18,2,19)            117.9993         estimate D2E/DX2                !
 ! A13   A(2,3,4)              118.3015         estimate D2E/DX2                !
 ! A14   A(2,3,23)             107.6302         estimate D2E/DX2                !
 ! A15   A(4,3,23)             113.0234         estimate D2E/DX2                !
 ! A16   A(3,4,5)              109.3662         estimate D2E/DX2                !
 ! A17   A(3,4,7)              114.8571         estimate D2E/DX2                !
 ! A18   A(3,4,10)             112.5586         estimate D2E/DX2                !
 ! A19   A(5,4,7)               96.9335         estimate D2E/DX2                !
 ! A20   A(5,4,10)             111.4427         estimate D2E/DX2                !
 ! A21   A(7,4,10)             110.6753         estimate D2E/DX2                !
 ! A22   A(4,5,6)               90.1785         estimate D2E/DX2                !
 ! A23   A(4,5,24)             116.4046         estimate D2E/DX2                !
 ! A24   A(4,5,25)             114.9916         estimate D2E/DX2                !
 ! A25   A(6,5,24)             113.6879         estimate D2E/DX2                !
 ! A26   A(6,5,25)             109.7843         estimate D2E/DX2                !
 ! A27   A(24,5,25)            110.3157         estimate D2E/DX2                !
 ! A28   A(5,6,7)               80.2698         estimate D2E/DX2                !
 ! A29   A(5,6,8)              114.0121         estimate D2E/DX2                !
 ! A30   A(5,6,9)              111.7002         estimate D2E/DX2                !
 ! A31   A(7,6,8)              114.4989         estimate D2E/DX2                !
 ! A32   A(7,6,9)              112.0218         estimate D2E/DX2                !
 ! A33   A(8,6,9)              118.3486         estimate D2E/DX2                !
 ! A34   A(4,7,6)               90.2221         estimate D2E/DX2                !
 ! A35   A(4,7,26)             116.7375         estimate D2E/DX2                !
 ! A36   A(4,7,27)             113.3585         estimate D2E/DX2                !
 ! A37   A(6,7,26)             113.9468         estimate D2E/DX2                !
 ! A38   A(6,7,27)             109.8762         estimate D2E/DX2                !
 ! A39   A(26,7,27)            111.0717         estimate D2E/DX2                !
 ! A40   A(4,10,11)            116.2506         estimate D2E/DX2                !
 ! A41   A(4,10,28)            106.2526         estimate D2E/DX2                !
 ! A42   A(4,10,29)            108.108          estimate D2E/DX2                !
 ! A43   A(11,10,28)           108.4997         estimate D2E/DX2                !
 ! A44   A(11,10,29)           110.5589         estimate D2E/DX2                !
 ! A45   A(28,10,29)           106.6902         estimate D2E/DX2                !
 ! A46   A(10,11,12)           116.6349         estimate D2E/DX2                !
 ! A47   A(10,11,30)           110.0648         estimate D2E/DX2                !
 ! A48   A(10,11,31)           106.7752         estimate D2E/DX2                !
 ! A49   A(12,11,30)           108.9496         estimate D2E/DX2                !
 ! A50   A(12,11,31)           108.1697         estimate D2E/DX2                !
 ! A51   A(30,11,31)           105.6598         estimate D2E/DX2                !
 ! A52   A(11,12,13)           120.9521         estimate D2E/DX2                !
 ! A53   A(11,12,17)           120.7475         estimate D2E/DX2                !
 ! A54   A(13,12,17)           118.2362         estimate D2E/DX2                !
 ! A55   A(12,13,14)           120.9223         estimate D2E/DX2                !
 ! A56   A(12,13,32)           119.4992         estimate D2E/DX2                !
 ! A57   A(14,13,32)           119.5782         estimate D2E/DX2                !
 ! A58   A(13,14,15)           120.235          estimate D2E/DX2                !
 ! A59   A(13,14,33)           119.7378         estimate D2E/DX2                !
 ! A60   A(15,14,33)           120.0264         estimate D2E/DX2                !
 ! A61   A(14,15,16)           119.439          estimate D2E/DX2                !
 ! A62   A(14,15,34)           120.2266         estimate D2E/DX2                !
 ! A63   A(16,15,34)           120.3345         estimate D2E/DX2                !
 ! A64   A(15,16,17)           120.0334         estimate D2E/DX2                !
 ! A65   A(15,16,35)           120.1577         estimate D2E/DX2                !
 ! A66   A(17,16,35)           119.809          estimate D2E/DX2                !
 ! A67   A(12,17,16)           121.1336         estimate D2E/DX2                !
 ! A68   A(12,17,36)           119.072          estimate D2E/DX2                !
 ! A69   A(16,17,36)           119.7944         estimate D2E/DX2                !
 ! D1    D(20,1,2,3)           -62.2631         estimate D2E/DX2                !
 ! D2    D(20,1,2,18)           51.0906         estimate D2E/DX2                !
 ! D3    D(20,1,2,19)         -178.7934         estimate D2E/DX2                !
 ! D4    D(21,1,2,3)           178.0316         estimate D2E/DX2                !
 ! D5    D(21,1,2,18)          -68.6147         estimate D2E/DX2                !
 ! D6    D(21,1,2,19)           61.5013         estimate D2E/DX2                !
 ! D7    D(22,1,2,3)            59.0829         estimate D2E/DX2                !
 ! D8    D(22,1,2,18)          172.4365         estimate D2E/DX2                !
 ! D9    D(22,1,2,19)          -57.4474         estimate D2E/DX2                !
 ! D10   D(1,2,3,4)            149.5593         estimate D2E/DX2                !
 ! D11   D(1,2,3,23)           -80.8557         estimate D2E/DX2                !
 ! D12   D(18,2,3,4)            34.1138         estimate D2E/DX2                !
 ! D13   D(18,2,3,23)          163.6989         estimate D2E/DX2                !
 ! D14   D(19,2,3,4)           -95.7176         estimate D2E/DX2                !
 ! D15   D(19,2,3,23)           33.8675         estimate D2E/DX2                !
 ! D16   D(2,3,4,5)            152.7015         estimate D2E/DX2                !
 ! D17   D(2,3,4,7)             45.012          estimate D2E/DX2                !
 ! D18   D(2,3,4,10)           -82.8535         estimate D2E/DX2                !
 ! D19   D(23,3,4,5)            25.6458         estimate D2E/DX2                !
 ! D20   D(23,3,4,7)           -82.0438         estimate D2E/DX2                !
 ! D21   D(23,3,4,10)          150.0908         estimate D2E/DX2                !
 ! D22   D(3,4,5,6)           -131.9719         estimate D2E/DX2                !
 ! D23   D(3,4,5,24)           111.2782         estimate D2E/DX2                !
 ! D24   D(3,4,5,25)           -19.9537         estimate D2E/DX2                !
 ! D25   D(7,4,5,6)            -12.5265         estimate D2E/DX2                !
 ! D26   D(7,4,5,24)          -129.2764         estimate D2E/DX2                !
 ! D27   D(7,4,5,25)            99.4916         estimate D2E/DX2                !
 ! D28   D(10,4,5,6)           102.9336         estimate D2E/DX2                !
 ! D29   D(10,4,5,24)          -13.8163         estimate D2E/DX2                !
 ! D30   D(10,4,5,25)         -145.0483         estimate D2E/DX2                !
 ! D31   D(3,4,7,6)            127.693          estimate D2E/DX2                !
 ! D32   D(3,4,7,26)          -115.1494         estimate D2E/DX2                !
 ! D33   D(3,4,7,27)            15.8529         estimate D2E/DX2                !
 ! D34   D(5,4,7,6)             12.5745         estimate D2E/DX2                !
 ! D35   D(5,4,7,26)           129.7322         estimate D2E/DX2                !
 ! D36   D(5,4,7,27)           -99.2656         estimate D2E/DX2                !
 ! D37   D(10,4,7,6)          -103.4978         estimate D2E/DX2                !
 ! D38   D(10,4,7,26)           13.6599         estimate D2E/DX2                !
 ! D39   D(10,4,7,27)          144.6621         estimate D2E/DX2                !
 ! D40   D(3,4,10,11)          -60.3044         estimate D2E/DX2                !
 ! D41   D(3,4,10,28)          178.8798         estimate D2E/DX2                !
 ! D42   D(3,4,10,29)           64.6706         estimate D2E/DX2                !
 ! D43   D(5,4,10,11)           62.9897         estimate D2E/DX2                !
 ! D44   D(5,4,10,28)          -57.826          estimate D2E/DX2                !
 ! D45   D(5,4,10,29)         -172.0353         estimate D2E/DX2                !
 ! D46   D(7,4,10,11)          169.6585         estimate D2E/DX2                !
 ! D47   D(7,4,10,28)           48.8427         estimate D2E/DX2                !
 ! D48   D(7,4,10,29)          -65.3665         estimate D2E/DX2                !
 ! D49   D(4,5,6,7)             10.8859         estimate D2E/DX2                !
 ! D50   D(4,5,6,8)            123.4799         estimate D2E/DX2                !
 ! D51   D(4,5,6,9)            -99.0648         estimate D2E/DX2                !
 ! D52   D(24,5,6,7)           130.0288         estimate D2E/DX2                !
 ! D53   D(24,5,6,8)          -117.3771         estimate D2E/DX2                !
 ! D54   D(24,5,6,9)            20.0782         estimate D2E/DX2                !
 ! D55   D(25,5,6,7)          -105.8648         estimate D2E/DX2                !
 ! D56   D(25,5,6,8)             6.7292         estimate D2E/DX2                !
 ! D57   D(25,5,6,9)           144.1845         estimate D2E/DX2                !
 ! D58   D(5,6,7,4)            -10.8398         estimate D2E/DX2                !
 ! D59   D(5,6,7,26)          -130.4439         estimate D2E/DX2                !
 ! D60   D(5,6,7,27)           104.1845         estimate D2E/DX2                !
 ! D61   D(8,6,7,4)           -122.8997         estimate D2E/DX2                !
 ! D62   D(8,6,7,26)           117.4962         estimate D2E/DX2                !
 ! D63   D(8,6,7,27)            -7.8754         estimate D2E/DX2                !
 ! D64   D(9,6,7,4)             98.7518         estimate D2E/DX2                !
 ! D65   D(9,6,7,26)           -20.8523         estimate D2E/DX2                !
 ! D66   D(9,6,7,27)          -146.2238         estimate D2E/DX2                !
 ! D67   D(4,10,11,12)          84.4081         estimate D2E/DX2                !
 ! D68   D(4,10,11,30)         -40.3383         estimate D2E/DX2                !
 ! D69   D(4,10,11,31)        -154.5584         estimate D2E/DX2                !
 ! D70   D(28,10,11,12)       -155.9839         estimate D2E/DX2                !
 ! D71   D(28,10,11,30)         79.2697         estimate D2E/DX2                !
 ! D72   D(28,10,11,31)        -34.9503         estimate D2E/DX2                !
 ! D73   D(29,10,11,12)        -39.3084         estimate D2E/DX2                !
 ! D74   D(29,10,11,30)       -164.0548         estimate D2E/DX2                !
 ! D75   D(29,10,11,31)         81.7251         estimate D2E/DX2                !
 ! D76   D(10,11,12,13)         57.5935         estimate D2E/DX2                !
 ! D77   D(10,11,12,17)       -125.3721         estimate D2E/DX2                !
 ! D78   D(30,11,12,13)       -177.0965         estimate D2E/DX2                !
 ! D79   D(30,11,12,17)         -0.062          estimate D2E/DX2                !
 ! D80   D(31,11,12,13)        -62.6997         estimate D2E/DX2                !
 ! D81   D(31,11,12,17)        114.3348         estimate D2E/DX2                !
 ! D82   D(11,12,13,14)        177.4029         estimate D2E/DX2                !
 ! D83   D(11,12,13,32)         -2.3947         estimate D2E/DX2                !
 ! D84   D(17,12,13,14)          0.2957         estimate D2E/DX2                !
 ! D85   D(17,12,13,32)       -179.5018         estimate D2E/DX2                !
 ! D86   D(11,12,17,16)       -177.3475         estimate D2E/DX2                !
 ! D87   D(11,12,17,36)          2.7107         estimate D2E/DX2                !
 ! D88   D(13,12,17,16)         -0.2342         estimate D2E/DX2                !
 ! D89   D(13,12,17,36)        179.824          estimate D2E/DX2                !
 ! D90   D(12,13,14,15)         -0.209          estimate D2E/DX2                !
 ! D91   D(12,13,14,33)       -179.8903         estimate D2E/DX2                !
 ! D92   D(32,13,14,15)        179.5884         estimate D2E/DX2                !
 ! D93   D(32,13,14,33)         -0.0929         estimate D2E/DX2                !
 ! D94   D(13,14,15,16)          0.0526         estimate D2E/DX2                !
 ! D95   D(13,14,15,34)       -179.9021         estimate D2E/DX2                !
 ! D96   D(33,14,15,16)        179.733          estimate D2E/DX2                !
 ! D97   D(33,14,15,34)         -0.2217         estimate D2E/DX2                !
 ! D98   D(14,15,16,17)          0.0088         estimate D2E/DX2                !
 ! D99   D(14,15,16,35)       -179.9775         estimate D2E/DX2                !
 ! D100  D(34,15,16,17)        179.9634         estimate D2E/DX2                !
 ! D101  D(34,15,16,35)         -0.0229         estimate D2E/DX2                !
 ! D102  D(15,16,17,12)          0.0851         estimate D2E/DX2                !
 ! D103  D(15,16,17,36)       -179.9735         estimate D2E/DX2                !
 ! D104  D(35,16,17,12)       -179.9285         estimate D2E/DX2                !
 ! D105  D(35,16,17,36)          0.0129         estimate D2E/DX2                !
 --------------------------------------------------------------------------------
 Trust Radius=3.00D-01 FncErr=1.00D-07 GrdErr=1.00D-06 EigMax=2.50D+02 EigMin=1.00D-04
 Number of steps in this run=    216 maximum allowed number of steps=    216.
 GradGradGradGradGradGradGradGradGradGradGradGradGradGradGradGradGradGrad

 Leave Link  103 at Tue Sep 22 01:46:05 2020, MaxMem=  2147483648 cpu:               0.1 elap:               0.0
 (Enter /prod/apps/gaussian/g16b1/l202.exe)
                          Input orientation:                          
 ---------------------------------------------------------------------
 Center     Atomic      Atomic             Coordinates (Angstroms)
 Number     Number       Type             X           Y           Z
 ---------------------------------------------------------------------
      1          6           0        1.959000    2.340000   -0.580000
      2         16           0        0.326000    2.090000    0.105000
      3          7           0       -0.180000    0.693000   -0.704000
      4          6           0       -1.106000   -0.221000   -0.009000
      5          6           0       -1.961000   -0.996000   -1.066000
      6         16           0       -3.479000   -0.608000   -0.131000
      7          6           0       -2.304000    0.484000    0.724000
      8          8           0       -4.506000    0.097000   -0.920000
      9          8           0       -3.902000   -1.741000    0.719000
     10          6           0       -0.379000   -1.186000    0.943000
     11          6           0        0.657000   -2.127000    0.299000
     12          6           0        2.050000   -1.567000    0.097000
     13          6           0        2.794000   -1.075000    1.180000
     14          6           0        4.097000   -0.609000    1.002000
     15          6           0        4.685000   -0.630000   -0.266000
     16          6           0        3.957000   -1.120000   -1.352000
     17          6           0        2.652000   -1.584000   -1.167000
     18          8           0        0.427000    1.751000    1.534000
     19          8           0       -0.513000    3.243000   -0.276000
     20          1           0        2.580000    1.483000   -0.322000
     21          1           0        2.349000    3.255000   -0.131000
     22          1           0        1.873000    2.456000   -1.661000
     23          1           0       -0.514000    0.974000   -1.627000
     24          1           0       -1.765000   -2.064000   -1.159000
     25          1           0       -2.006000   -0.532000   -2.052000
     26          1           0       -2.332000    0.400000    1.810000
     27          1           0       -2.458000    1.514000    0.407000
     28          1           0       -1.157000   -1.796000    1.414000
     29          1           0        0.081000   -0.596000    1.738000
     30          1           0        0.281000   -2.500000   -0.660000
     31          1           0        0.733000   -3.006000    0.949000
     32          1           0        2.350000   -1.060000    2.171000
     33          1           0        4.656000   -0.234000    1.854000
     34          1           0        5.699000   -0.269000   -0.404000
     35          1           0        4.402000   -1.142000   -2.341000
     36          1           0        2.089000   -1.965000   -2.015000
 ---------------------------------------------------------------------
                    Distance matrix (angstroms):
                    1          2          3          4          5
     1  C    0.000000
     2  S    1.788411   0.000000
     3  N    2.702463   1.691782   0.000000
     4  C    4.034723   2.721092   1.475092   0.000000
     5  C    5.170251   4.015595   2.481074   1.564896   0.000000
     6  S    6.201947   4.670431   3.592260   2.407443   1.824580
     7  C    4.828905   3.143135   2.567925   1.571470   2.347797
     8  O    6.851487   5.326434   4.372202   3.534267   2.773624
     9  O    7.259014   5.738427   4.669322   3.264659   2.740206
    10  C    4.496493   3.454192   2.506562   1.538200   2.564158
    11  C    4.735180   4.234417   3.107890   2.614549   3.161694
    12  C    3.966265   4.043005   3.274462   3.432679   4.215060
    13  C    3.931545   4.154982   3.939538   4.165698   5.259352
    14  C    3.971192   4.723309   4.785224   5.314497   6.412937
    15  C    4.043584   5.151400   5.060672   5.811111   6.703974
    16  C    4.069347   5.060742   4.563074   5.314680   5.926204
    17  C    4.027728   4.530622   3.663239   4.161886   4.651421
    18  O    2.676367   1.472129   2.548815   2.935936   4.473092
    19  O    2.649266   1.475971   2.607024   3.524519   4.548618
    20  H    1.089336   2.373035   2.896139   4.072859   5.226821
    21  H    1.091296   2.346370   3.645273   4.902498   6.125465
    22  H    1.090602   2.376115   2.870336   4.332421   5.193254
    23  H    3.012954   2.225057   1.021002   2.096763   2.507874
    24  H    5.796433   4.819304   3.212522   2.270117   1.089811
    25  H    5.112376   4.118951   2.579148   2.254012   1.090650
    26  H    5.280945   3.581632   3.322220   2.279798   3.218359
    27  H    4.600688   2.858957   2.664141   2.238568   2.952429
    28  H    5.549053   4.360478   3.411096   2.123242   2.727053
    29  H    4.185702   3.152984   2.773627   2.145135   3.491730
    30  H    5.123249   4.653531   3.226408   2.746163   2.730095
    31  H    5.693912   5.181428   4.153141   3.472162   3.918923
    32  H    4.391000   4.276381   4.211833   4.171362   5.391381
    33  H    4.452375   5.216213   5.548837   6.055707   7.272670
    34  H    4.563492   5.890084   5.964737   6.816623   7.722847
    35  H    4.603661   5.748262   5.200165   6.051820   6.491125
    36  H    4.539730   4.903631   3.732566   4.156152   4.271073
                    6          7          8          9         10
     6  S    0.000000
     7  C    1.817722   0.000000
     8  O    1.474542   2.775123   0.000000
     9  O    1.478214   2.739389   2.535622   0.000000
    10  C    3.331300   2.557828   4.706271   3.573476   0.000000
    11  C    4.427048   3.970575   5.752278   4.594549   1.540621
    12  C    5.616183   4.853560   6.839907   5.986941   2.600177
    13  C    6.425522   5.350516   7.685934   6.744812   3.183774
    14  C    7.660252   6.499595   8.843310   8.083657   4.513423
    15  C    8.165146   7.146133   9.242874   8.714420   5.235925
    16  C    7.552952   6.788425   8.560963   8.150985   4.906351
    17  C    6.294047   5.693368   7.356883   6.821771   3.714494
    18  O    4.857360   3.117651   5.752593   5.621257   3.102400
    19  O    4.862960   3.437988   5.124071   6.108650   4.595646
    20  H    6.412507   5.093680   7.244998   7.313972   4.180845
    21  H    6.992021   5.482689   7.588578   8.047206   5.321460
    22  H    6.353967   5.198494   6.841462   7.525280   5.011635
    23  H    3.678582   2.995230   4.147896   4.934925   3.359870
    24  H    2.472755   3.213801   3.498589   2.863212   2.666512
    25  H    2.421930   2.971066   2.815504   3.568604   3.470572
    26  H    2.469647   1.089604   3.502997   2.870377   2.661070
    27  H    2.415527   1.088625   2.821900   3.574564   3.449571
    28  H    3.031510   2.643881   4.499645   2.832150   1.095091
    29  H    4.020809   2.807636   5.346567   4.267748   1.091662
    30  H    4.242299   4.183532   5.452282   4.469364   2.175271
    31  H    4.965657   4.631856   6.369371   4.810026   2.132834
    32  H    6.283371   5.112481   7.609052   6.454422   2.995213
    33  H    8.382024   7.087596   9.578459   8.763483   5.204561
    34  H    9.188315   8.117106  10.224590   9.777889   6.292645
    35  H    8.202403   7.550400   9.105319   8.870108   5.800392
    36  H    6.032705   5.726969   6.996063   6.589159   3.930347
                   11         12         13         14         15
    11  C    0.000000
    12  C    1.514877   0.000000
    13  C    2.539613   1.403029   0.000000
    14  C    3.825197   2.434543   1.395224   0.000000
    15  C    4.334169   2.820100   2.421739   1.397859   0.000000
    16  C    3.824899   2.436403   2.786686   2.412890   1.396238
    17  C    2.534567   1.400139   2.405754   2.782663   2.419712
    18  O    4.076397   3.963360   3.703280   4.395626   5.199974
    19  O    5.525977   5.462984   5.630392   6.141929   6.482240
    20  H    4.137109   3.123934   2.974082   2.903572   2.983107
    21  H    5.658064   4.836638   4.545948   4.389725   4.535234
    22  H    5.130706   4.393907   4.624660   4.629468   4.401905
    23  H    3.833656   4.000369   4.797970   5.538849   5.608452
    24  H    2.827688   4.047069   5.218575   6.414826   6.667556
    25  H    3.893943   4.705376   5.812114   6.824914   6.925957
    26  H    4.195589   5.099547   5.371071   6.557666   7.389788
    27  H    4.792887   5.469070   5.906264   6.915864   7.488132
    28  H    2.154851   3.474447   4.023058   5.402150   6.189582
    29  H    2.178637   2.740927   2.810903   4.082906   5.021353
    30  H    1.095530   2.138434   3.425112   4.571650   4.800766
    31  H    1.095864   2.128641   2.833698   4.130970   4.768638
    32  H    2.740278   2.156044   1.086021   2.149877   3.402366
    33  H    4.689720   3.413967   2.151418   1.085822   2.156863
    34  H    5.419238   3.905254   3.405542   2.158435   1.085155
    35  H    4.686667   3.414143   3.871381   3.398936   2.155889
    36  H    2.726071   2.149528   3.390745   3.869508   3.403005
                   16         17         18         19         20
    16  C    0.000000
    17  C    1.397335   0.000000
    18  O    5.388185   4.834072   0.000000
    19  O    6.338331   5.840465   2.527007   0.000000
    20  H    3.119718   3.182090   2.855165   3.558984   0.000000
    21  H    4.818416   4.957926   2.954374   2.865696   1.797172
    22  H    4.150459   4.143969   3.577145   2.868900   1.799861
    23  H    4.944725   4.096159   3.388382   2.640750   3.396313
    24  H    5.802557   4.443012   5.158618   5.523716   5.671050
    25  H    6.032670   4.856634   4.898058   4.431010   5.299483
    26  H    7.201400   6.135067   3.084389   3.967721   5.463154
    27  H    7.154318   6.179578   3.106368   2.690531   5.090564
    28  H    5.853266   4.605973   3.886472   5.353724   5.265995
    29  H    4.984581   4.003150   2.381122   4.375723   3.848486
    30  H    3.987009   2.591861   4.786016   5.810331   4.611283
    31  H    4.387000   3.190940   4.802594   6.488693   5.017766
    32  H    3.872671   3.392348   3.464884   5.718425   3.568585
    33  H    3.398828   3.868457   4.682635   6.583691   3.463068
    34  H    2.158117   3.405232   5.969106   7.137189   3.578322
    35  H    1.084726   2.153170   6.259848   6.902874   3.779771
    36  H    2.154766   1.086846   5.400583   6.076001   3.872471
                   21         22         23         24         25
    21  H    0.000000
    22  H    1.790496   0.000000
    23  H    3.954459   2.809849   0.000000
    24  H    6.802466   5.823869   3.318655   0.000000
    25  H    6.082568   4.911992   2.162111   1.789568   0.000000
    26  H    5.816379   5.827264   3.930340   3.899711   3.986219
    27  H    5.140795   4.890966   2.864942   3.966697   3.230650
    28  H    6.339689   6.059375   4.163416   2.657408   3.785717
    29  H    4.844294   4.907053   3.760605   3.735686   4.327097
    30  H    6.138118   5.300792   3.692667   2.150631   3.322809
    31  H    6.555759   6.159963   4.902161   3.401622   4.756974
    32  H    4.890647   5.222452   5.173438   5.387963   6.089930
    33  H    4.629859   5.228424   6.348663   7.325047   7.728382
    34  H    4.869867   4.862504   6.453073   7.713841   7.883660
    35  H    5.332215   4.450151   5.399473   6.346582   6.443453
    36  H    5.555669   4.440407   3.945108   3.949159   4.338650
                   26         27         28         29         30
    26  H    0.000000
    27  H    1.795907   0.000000
    28  H    2.521876   3.696316   0.000000
    29  H    2.611469   3.559520   1.754315   0.000000
    30  H    4.619380   4.975219   2.620102   3.068488   0.000000
    31  H    4.662229   5.559375   2.291817   2.618344   1.746202
    32  H    4.917626   5.731844   3.662485   2.356087   3.790636
    33  H    7.016839   7.467149   6.035264   4.590765   5.531327
    34  H    8.357411   8.388889   7.255452   6.021380   5.864949
    35  H    8.059486   7.852735   6.740195   5.967193   4.653232
    36  H    6.306274   6.216489   4.724735   4.471156   2.321877
                   31         32         33         34         35
    31  H    0.000000
    32  H    2.809785   0.000000
    33  H    4.888040   2.469899   0.000000
    34  H    5.829488   4.297919   2.487496   0.000000
    35  H    5.268791   4.957376   4.299652   2.489238   0.000000
    36  H    3.421654   4.290658   4.955301   4.301609   2.476605
                   36
    36  H    0.000000
 Symmetry turned off by external request.
 Stoichiometry    C12H17NO4S2
 Framework group  C1[X(C12H17NO4S2)]
 Deg. of freedom   102
 Full point group                 C1      NOp   1
 Rotational constants (GHZ):           0.5391207           0.2144936           0.1760112
 Leave Link  202 at Tue Sep 22 01:46:05 2020, MaxMem=  2147483648 cpu:               0.0 elap:               0.0
 (Enter /prod/apps/gaussian/g16b1/l301.exe)
 Standard basis: 6-31G(d) (6D, 7F)
 Ernie: Thresh=  0.10000D-02 Tol=  0.10000D-05 Strict=F.
   327 basis functions,   648 primitive gaussians,   327 cartesian basis functions
    80 alpha electrons       80 beta electrons
       nuclear repulsion energy      1892.9977987114 Hartrees.
 IExCor=  402 DFT=T Ex+Corr=B3LYP ExCW=0 ScaHFX=  0.200000
 ScaDFX=  0.800000  0.720000  1.000000  0.810000 ScalE2=  1.000000  1.000000
 IRadAn=      5 IRanWt=     -1 IRanGd=            0 ICorTp=0 IEmpDi=  4
 NAtoms=   36 NActive=   36 NUniq=   36 SFac= 1.00D+00 NAtFMM=   60 NAOKFM=F Big=F
 Integral buffers will be    131072 words long.
 Raffenetti 2 integral format.
 Two-electron integral symmetry is turned off.
 Using the following non-standard input for PCM:
 MSTModel=DFT cav
 --- end of non-standard input.
 MST model for solvation energy: B3LYP parametrization.
 MST cavity parameters:
 ISph   IAn     Re0     Alpha   Atom Type   QCorr
 ------------------------------------------------
   1      6     1.50     1.25      CH3        F
   2     16     1.75     1.25      S          F
   3      7     1.50     1.25      NH         F
   4      6     1.50     1.25      C          F
   5      6     1.50     1.25      CH2        F
   6     16     1.75     1.25      S          F
   7      6     1.50     1.25      CH2        F
   8      8     1.40     1.25      O          F
   9      8     1.40     1.25      O          F
  10      6     1.50     1.25      CH2        F
  11      6     1.50     1.25      CH2        F
  12      6     1.50     1.25      C          F
  13      6     1.50     1.25      CH         F
  14      6     1.50     1.25      CH         F
  15      6     1.50     1.25      CH         F
  16      6     1.50     1.25      CH         F
  17      6     1.50     1.25      CH         F
  18      8     1.40     1.25      O          F
  19      8     1.40     1.25      O          F
  20      1     1.20     1.25      CH3        F
  21      1     1.20     1.25      CH3        F
  22      1     1.20     1.25      CH3        F
  23      1     0.90     1.25      NH         F
  24      1     1.20     1.25      CH2        F
  25      1     1.20     1.25      CH2        F
  26      1     1.20     1.25      CH2        F
  27      1     1.20     1.25      CH2        F
  28      1     1.20     1.25      CH2        F
  29      1     1.20     1.25      CH2        F
  30      1     1.20     1.25      CH2        F
  31      1     1.20     1.25      CH2        F
  32      1     1.20     1.25      CH         F
  33      1     1.20     1.25      CH         F
  34      1     1.20     1.25      CH         F
  35      1     1.20     1.25      CH         F
  36      1     1.20     1.25      CH         F
 ------------------------------------------------------------------------------
 Polarizable Continuum Model (PCM)
 =================================
 Model                : PCM.
 Atomic radii         : MST.
 Polarization charges : Total charges.
 Charge compensation  : None.
 Solution method      : On-the-fly selection.
 Cavity type          : Scaled VdW (van der Waals Surface) (Alpha=1.250).
 Cavity algorithm     : GePol (No added spheres)
                        Default sphere list used, NSphG=   36.
                        Lebedev-Laikov grids with approx.  5.0 points / Ang**2.
                        Smoothing algorithm: York/Karplus (Gamma=1.0000).
                        Polarization charges: spherical gaussians, with
                                              point-specific exponents (IZeta= 3).
                        Self-potential: point-specific (ISelfS= 7).
                        Self-field    : sphere-specific E.n sum rule (ISelfD= 2).
 1st derivatives      : Analytical E(r).r(x)/FMM algorithm (CHGder, D1EAlg=3).
                        Cavity 1st derivative terms included.
 Solvent              : Water, Eps=  78.355300 Eps(inf)=   1.777849
 ------------------------------------------------------------------------------
 GePol: Number of generator spheres                  =      36
 GePol: Total number of spheres                      =      36
 GePol: Number of exposed spheres                    =      36 (100.00%)
 GePol: Number of points                             =    2508
 GePol: Average weight of points                     =       0.13
 GePol: Minimum weight of points                     =   0.43D-10
 GePol: Maximum weight of points                     =    0.22001
 GePol: Number of points with low weight             =     184
 GePol: Fraction of low-weight points (<1% of avg)   =       7.34%
 GePol: Cavity surface area                          =    333.235 Ang**2
 GePol: Cavity volume                                =    335.515 Ang**3
 PCM non-electrostatic energy =         0.0030672515 Hartrees.
 Nuclear repulsion after PCM non-electrostatic terms =     1893.0008659629 Hartrees.
 Leave Link  301 at Tue Sep 22 01:46:05 2020, MaxMem=  2147483648 cpu:               0.3 elap:               0.1
 (Enter /prod/apps/gaussian/g16b1/l302.exe)
 NPDir=0 NMtPBC=     1 NCelOv=     1 NCel=       1 NClECP=     1 NCelD=      1
         NCelK=      1 NCelE2=     1 NClLst=     1 CellRange=     0.0.
 One-electron integrals computed using PRISM.
 NBasis=   327 RedAO= T EigKep=  4.71D-04  NBF=   327
 NBsUse=   327 1.00D-06 EigRej= -1.00D+00 NBFU=   327
 Precomputing XC quadrature grid using
 IXCGrd= 4 IRadAn=           5 IRanWt=          -1 IRanGd=           0 AccXCQ= 0.00D+00.
 Generated NRdTot=       0 NPtTot=           0 NUsed=           0 NTot=          32
 NSgBfM=   325   325   325   325   325 MxSgAt=    36 MxSgA2=    36.
 Leave Link  302 at Tue Sep 22 01:46:06 2020, MaxMem=  2147483648 cpu:               1.8 elap:               0.5
 (Enter /prod/apps/gaussian/g16b1/l303.exe)
 DipDrv:  MaxL=1.
 Leave Link  303 at Tue Sep 22 01:46:06 2020, MaxMem=  2147483648 cpu:               0.2 elap:               0.1
 (Enter /prod/apps/gaussian/g16b1/l401.exe)
 ExpMin= 1.17D-01 ExpMax= 2.19D+04 ExpMxC= 3.30D+03 IAcc=3 IRadAn=         5 AccDes= 0.00D+00
 Harris functional with IExCor=  402 and IRadAn=       5 diagonalized for initial guess.
 HarFok:  IExCor=  402 AccDes= 0.00D+00 IRadAn=         5 IDoV= 1 UseB2=F ITyADJ=14
 ICtDFT=  3500011 ScaDFX=  1.000000  1.000000  1.000000  1.000000
 FoFCou: FMM=F IPFlag=           0 FMFlag=      100000 FMFlg1=           0
         NFxFlg=           0 DoJE=T BraDBF=F KetDBF=T FulRan=T
         wScrn=  0.000000 ICntrl=       500 IOpCl=  0 I1Cent=   200000004 NGrid=           0
         NMat0=    1 NMatS0=      1 NMatT0=    0 NMatD0=    1 NMtDS0=    0 NMtDT0=    0
 Symmetry not used in FoFCou.
 Harris En= -1619.48751336185    
 JPrj=0 DoOrth=F DoCkMO=F.
 Leave Link  401 at Tue Sep 22 01:46:09 2020, MaxMem=  2147483648 cpu:              11.3 elap:               2.8
 (Enter /prod/apps/gaussian/g16b1/l502.exe)
 Two-electron integral symmetry not used.
 Closed shell SCF:
 Using DIIS extrapolation, IDIIS=  1040.
 NGot=  2147483648 LenX=  2147264911 LenY=  2147157541
 Requested convergence on RMS density matrix=1.00D-08 within2000 cycles.
 Requested convergence on MAX density matrix=1.00D-06.
 Requested convergence on             energy=1.00D-06.
 No special actions if energy rises.

 Cycle   1  Pass 1  IDiag  1:
 FoFJK:  IHMeth= 1 ICntrl=       0 DoSepK=F KAlg= 0 I1Cent=           0 FoldK=F
 IRaf= 840000000 NMat=       1 IRICut=       1 DoRegI=T DoRafI=F ISym2E= 0 IDoP0=0 IntGTp=1.
 FoFCou: FMM=F IPFlag=           0 FMFlag=      100000 FMFlg1=           0
         NFxFlg=           0 DoJE=F BraDBF=F KetDBF=F FulRan=T
         wScrn=  0.000000 ICntrl=         0 IOpCl=  0 I1Cent=           0 NGrid=           0
         NMat0=    1 NMatS0=      1 NMatT0=    0 NMatD0=    1 NMtDS0=    0 NMtDT0=    0
 Symmetry not used in FoFCou.
 Inv3:  Mode=1 IEnd=    18870192.
 Iteration    1 A*A^-1 deviation from unit magnitude is 3.11D-15 for     93.
 Iteration    1 A*A^-1 deviation from orthogonality  is 2.14D-15 for   2009    594.
 Iteration    1 A^-1*A deviation from unit magnitude is 3.55D-15 for    450.
 Iteration    1 A^-1*A deviation from orthogonality  is 1.76D-14 for   2299   2283.
 E= -1618.65377145525    
 DIIS: error= 3.86D-02 at cycle   1 NSaved=   1.
 NSaved= 1 IEnMin= 1 EnMin= -1618.65377145525     IErMin= 1 ErrMin= 3.86D-02
 ErrMax= 3.86D-02  0.00D+00 EMaxC= 1.00D-01 BMatC= 9.08D-01 BMatP= 9.08D-01
 IDIUse=3 WtCom= 6.14D-01 WtEn= 3.86D-01
 Coeff-Com:  0.100D+01
 Coeff-En:   0.100D+01
 Coeff:      0.100D+01
 Gap=     0.317 Goal=   None    Shift=    0.000
 GapD=    0.317 DampG=1.000 DampE=0.500 DampFc=0.5000 IDamp=-1.
 Damping current iteration by 5.00D-01
 RMSDP=6.86D-03 MaxDP=5.44D-01              OVMax= 2.21D-01

 Cycle   2  Pass 1  IDiag  1:
 E= -1618.87191660005     Delta-E=       -0.218145144790 Rises=F Damp=T
 DIIS: error= 1.41D-02 at cycle   2 NSaved=   2.
 NSaved= 2 IEnMin= 2 EnMin= -1618.87191660005     IErMin= 2 ErrMin= 1.41D-02
 ErrMax= 1.41D-02  0.00D+00 EMaxC= 1.00D-01 BMatC= 1.10D-01 BMatP= 9.08D-01
 IDIUse=3 WtCom= 8.59D-01 WtEn= 1.41D-01
 Coeff-Com:  0.210D+00 0.790D+00
 Coeff-En:   0.338D+00 0.662D+00
 Coeff:      0.228D+00 0.772D+00
 Gap=     0.266 Goal=   None    Shift=    0.000
 RMSDP=1.77D-03 MaxDP=1.05D-01 DE=-2.18D-01 OVMax= 1.73D-01

 Cycle   3  Pass 1  IDiag  1:
 E= -1619.36182096852     Delta-E=       -0.489904368471 Rises=F Damp=F
 DIIS: error= 8.37D-03 at cycle   3 NSaved=   3.
 NSaved= 3 IEnMin= 3 EnMin= -1619.36182096852     IErMin= 3 ErrMin= 8.37D-03
 ErrMax= 8.37D-03  0.00D+00 EMaxC= 1.00D-01 BMatC= 5.89D-02 BMatP= 1.10D-01
 IDIUse=3 WtCom= 9.16D-01 WtEn= 8.37D-02
 Coeff-Com:  0.765D-01 0.435D+00 0.489D+00
 Coeff-En:   0.000D+00 0.000D+00 0.100D+01
 Coeff:      0.701D-01 0.398D+00 0.532D+00
 Gap=     0.238 Goal=   None    Shift=    0.000
 RMSDP=9.87D-04 MaxDP=2.77D-02 DE=-4.90D-01 OVMax= 5.97D-02

 Cycle   4  Pass 1  IDiag  1:
 E= -1619.40977674264     Delta-E=       -0.047955774126 Rises=F Damp=F
 DIIS: error= 2.67D-03 at cycle   4 NSaved=   4.
 NSaved= 4 IEnMin= 4 EnMin= -1619.40977674264     IErMin= 4 ErrMin= 2.67D-03
 ErrMax= 2.67D-03  0.00D+00 EMaxC= 1.00D-01 BMatC= 6.75D-03 BMatP= 5.89D-02
 IDIUse=3 WtCom= 9.73D-01 WtEn= 2.67D-02
 Coeff-Com:  0.310D-02 0.670D-01 0.268D+00 0.662D+00
 Coeff-En:   0.000D+00 0.000D+00 0.783D-01 0.922D+00
 Coeff:      0.302D-02 0.652D-01 0.263D+00 0.669D+00
 Gap=     0.236 Goal=   None    Shift=    0.000
 RMSDP=3.03D-04 MaxDP=1.19D-02 DE=-4.80D-02 OVMax= 2.04D-02

 Cycle   5  Pass 1  IDiag  1:
 E= -1619.41539326864     Delta-E=       -0.005616526000 Rises=F Damp=F
 DIIS: error= 6.32D-04 at cycle   5 NSaved=   5.
 NSaved= 5 IEnMin= 5 EnMin= -1619.41539326864     IErMin= 5 ErrMin= 6.32D-04
 ErrMax= 6.32D-04  0.00D+00 EMaxC= 1.00D-01 BMatC= 5.15D-04 BMatP= 6.75D-03
 IDIUse=3 WtCom= 9.94D-01 WtEn= 6.32D-03
 Coeff-Com: -0.220D-02 0.145D-01 0.111D+00 0.351D+00 0.526D+00
 Coeff-En:   0.000D+00 0.000D+00 0.000D+00 0.000D+00 0.100D+01
 Coeff:     -0.218D-02 0.144D-01 0.110D+00 0.348D+00 0.529D+00
 Gap=     0.236 Goal=   None    Shift=    0.000
 RMSDP=8.72D-05 MaxDP=4.74D-03 DE=-5.62D-03 OVMax= 4.82D-03

 Cycle   6  Pass 1  IDiag  1:
 E= -1619.41583671952     Delta-E=       -0.000443450876 Rises=F Damp=F
 DIIS: error= 2.12D-04 at cycle   6 NSaved=   6.
 NSaved= 6 IEnMin= 6 EnMin= -1619.41583671952     IErMin= 6 ErrMin= 2.12D-04
 ErrMax= 2.12D-04  0.00D+00 EMaxC= 1.00D-01 BMatC= 3.92D-05 BMatP= 5.15D-04
 IDIUse=3 WtCom= 9.98D-01 WtEn= 2.12D-03
 Coeff-Com: -0.135D-02 0.258D-02 0.367D-01 0.127D+00 0.279D+00 0.556D+00
 Coeff-En:   0.000D+00 0.000D+00 0.000D+00 0.000D+00 0.000D+00 0.100D+01
 Coeff:     -0.135D-02 0.258D-02 0.366D-01 0.127D+00 0.279D+00 0.557D+00
 Gap=     0.236 Goal=   None    Shift=    0.000
 RMSDP=2.17D-05 MaxDP=1.14D-03 DE=-4.43D-04 OVMax= 1.27D-03

 Cycle   7  Pass 1  IDiag  1:
 E= -1619.41586548246     Delta-E=       -0.000028762941 Rises=F Damp=F
 DIIS: error= 9.86D-05 at cycle   7 NSaved=   7.
 NSaved= 7 IEnMin= 7 EnMin= -1619.41586548246     IErMin= 7 ErrMin= 9.86D-05
 ErrMax= 9.86D-05  0.00D+00 EMaxC= 1.00D-01 BMatC= 4.80D-06 BMatP= 3.92D-05
 IDIUse=1 WtCom= 1.00D+00 WtEn= 0.00D+00
 Coeff-Com: -0.599D-03 0.124D-03 0.110D-01 0.408D-01 0.115D+00 0.325D+00
 Coeff-Com:  0.510D+00
 Coeff:     -0.599D-03 0.124D-03 0.110D-01 0.408D-01 0.115D+00 0.325D+00
 Coeff:      0.510D+00
 Gap=     0.236 Goal=   None    Shift=    0.000
 RMSDP=7.48D-06 MaxDP=4.25D-04 DE=-2.88D-05 OVMax= 4.45D-04

 Cycle   8  Pass 1  IDiag  1:
 E= -1619.41586902597     Delta-E=       -0.000003543514 Rises=F Damp=F
 DIIS: error= 2.38D-05 at cycle   8 NSaved=   8.
 NSaved= 8 IEnMin= 8 EnMin= -1619.41586902597     IErMin= 8 ErrMin= 2.38D-05
 ErrMax= 2.38D-05  0.00D+00 EMaxC= 1.00D-01 BMatC= 4.19D-07 BMatP= 4.80D-06
 IDIUse=1 WtCom= 1.00D+00 WtEn= 0.00D+00
 Coeff-Com: -0.193D-03-0.210D-03 0.205D-02 0.866D-02 0.337D-01 0.121D+00
 Coeff-Com:  0.283D+00 0.553D+00
 Coeff:     -0.193D-03-0.210D-03 0.205D-02 0.866D-02 0.337D-01 0.121D+00
 Coeff:      0.283D+00 0.553D+00
 Gap=     0.236 Goal=   None    Shift=    0.000
 RMSDP=2.32D-06 MaxDP=1.20D-04 DE=-3.54D-06 OVMax= 1.16D-04

 Cycle   9  Pass 1  IDiag  1:
 E= -1619.41586932751     Delta-E=       -0.000000301533 Rises=F Damp=F
 DIIS: error= 6.88D-06 at cycle   9 NSaved=   9.
 NSaved= 9 IEnMin= 9 EnMin= -1619.41586932751     IErMin= 9 ErrMin= 6.88D-06
 ErrMax= 6.88D-06  0.00D+00 EMaxC= 1.00D-01 BMatC= 4.15D-08 BMatP= 4.19D-07
 IDIUse=1 WtCom= 1.00D+00 WtEn= 0.00D+00
 Coeff-Com: -0.278D-04-0.107D-03-0.365D-03-0.797D-03 0.275D-02 0.203D-01
 Coeff-Com:  0.801D-01 0.291D+00 0.607D+00
 Coeff:     -0.278D-04-0.107D-03-0.365D-03-0.797D-03 0.275D-02 0.203D-01
 Coeff:      0.801D-01 0.291D+00 0.607D+00
 Gap=     0.236 Goal=   None    Shift=    0.000
 RMSDP=6.68D-07 MaxDP=3.84D-05 DE=-3.02D-07 OVMax= 2.83D-05

 Cycle  10  Pass 1  IDiag  1:
 E= -1619.41586936175     Delta-E=       -0.000000034238 Rises=F Damp=F
 DIIS: error= 2.13D-06 at cycle  10 NSaved=  10.
 NSaved=10 IEnMin=10 EnMin= -1619.41586936175     IErMin=10 ErrMin= 2.13D-06
 ErrMax= 2.13D-06  0.00D+00 EMaxC= 1.00D-01 BMatC= 1.64D-09 BMatP= 4.15D-08
 IDIUse=1 WtCom= 1.00D+00 WtEn= 0.00D+00
 Coeff-Com: -0.803D-05-0.301D-04-0.251D-03-0.688D-03-0.464D-04 0.443D-02
 Coeff-Com:  0.256D-01 0.112D+00 0.275D+00 0.584D+00
 Coeff:     -0.803D-05-0.301D-04-0.251D-03-0.688D-03-0.464D-04 0.443D-02
 Coeff:      0.256D-01 0.112D+00 0.275D+00 0.584D+00
 Gap=     0.236 Goal=   None    Shift=    0.000
 RMSDP=1.60D-07 MaxDP=8.71D-06 DE=-3.42D-08 OVMax= 7.41D-06

 Cycle  11  Pass 1  IDiag  1:
 E= -1619.41586936282     Delta-E=       -0.000000001074 Rises=F Damp=F
 DIIS: error= 7.81D-07 at cycle  11 NSaved=  11.
 NSaved=11 IEnMin=11 EnMin= -1619.41586936282     IErMin=11 ErrMin= 7.81D-07
 ErrMax= 7.81D-07  0.00D+00 EMaxC= 1.00D-01 BMatC= 3.66D-10 BMatP= 1.64D-09
 IDIUse=1 WtCom= 1.00D+00 WtEn= 0.00D+00
 Coeff-Com: -0.238D-05-0.127D-05-0.110D-03-0.313D-03-0.441D-03-0.247D-03
 Coeff-Com:  0.412D-02 0.262D-01 0.769D-01 0.342D+00 0.552D+00
 Coeff:     -0.238D-05-0.127D-05-0.110D-03-0.313D-03-0.441D-03-0.247D-03
 Coeff:      0.412D-02 0.262D-01 0.769D-01 0.342D+00 0.552D+00
 Gap=     0.236 Goal=   None    Shift=    0.000
 RMSDP=6.35D-08 MaxDP=3.33D-06 DE=-1.07D-09 OVMax= 3.25D-06

 Cycle  12  Pass 1  IDiag  1:
 E= -1619.41586936307     Delta-E=       -0.000000000253 Rises=F Damp=F
 DIIS: error= 3.28D-07 at cycle  12 NSaved=  12.
 NSaved=12 IEnMin=12 EnMin= -1619.41586936307     IErMin=12 ErrMin= 3.28D-07
 ErrMax= 3.28D-07  0.00D+00 EMaxC= 1.00D-01 BMatC= 3.92D-11 BMatP= 3.66D-10
 IDIUse=1 WtCom= 1.00D+00 WtEn= 0.00D+00
 Coeff-Com: -0.999D-06 0.281D-05-0.430D-04-0.119D-03-0.273D-03-0.659D-03
 Coeff-Com: -0.347D-03 0.348D-02 0.154D-01 0.135D+00 0.317D+00 0.530D+00
 Coeff:     -0.999D-06 0.281D-05-0.430D-04-0.119D-03-0.273D-03-0.659D-03
 Coeff:     -0.347D-03 0.348D-02 0.154D-01 0.135D+00 0.317D+00 0.530D+00
 Gap=     0.236 Goal=   None    Shift=    0.000
 RMSDP=2.12D-08 MaxDP=8.83D-07 DE=-2.53D-10 OVMax= 1.12D-06

 Cycle  13  Pass 1  IDiag  1:
 E= -1619.41586936310     Delta-E=       -0.000000000031 Rises=F Damp=F
 DIIS: error= 8.45D-08 at cycle  13 NSaved=  13.
 NSaved=13 IEnMin=13 EnMin= -1619.41586936310     IErMin=13 ErrMin= 8.45D-08
 ErrMax= 8.45D-08  0.00D+00 EMaxC= 1.00D-01 BMatC= 2.54D-12 BMatP= 3.92D-11
 IDIUse=1 WtCom= 1.00D+00 WtEn= 0.00D+00
 Coeff-Com: -0.393D-06 0.181D-05-0.124D-04-0.331D-04-0.101D-03-0.319D-03
 Coeff-Com: -0.562D-03-0.673D-03 0.394D-03 0.352D-01 0.106D+00 0.268D+00
 Coeff-Com:  0.592D+00
 Coeff:     -0.393D-06 0.181D-05-0.124D-04-0.331D-04-0.101D-03-0.319D-03
 Coeff:     -0.562D-03-0.673D-03 0.394D-03 0.352D-01 0.106D+00 0.268D+00
 Coeff:      0.592D+00
 Gap=     0.236 Goal=   None    Shift=    0.000
 RMSDP=5.60D-09 MaxDP=2.86D-07 DE=-3.14D-11 OVMax= 3.34D-07

 Error on total polarization charges =  0.01794
 SCF Done:  E(RB3LYP) =  -1619.41586936     A.U. after   13 cycles
            NFock= 13  Conv=0.56D-08     -V/T= 2.0066
 KE= 1.608806059722D+03 PE=-7.591943219343D+03 EE= 2.470720424296D+03
 Leave Link  502 at Tue Sep 22 01:47:42 2020, MaxMem=  2147483648 cpu:             374.4 elap:              93.7
 (Enter /prod/apps/gaussian/g16b1/l601.exe)
 Copying SCF densities to generalized density rwf, IOpCl= 0 IROHF=0.

 **********************************************************************

            Population analysis using the SCF Density.

 **********************************************************************

 Alpha  occ. eigenvalues --  -89.12383 -89.09910 -19.15706 -19.15554 -19.15502
 Alpha  occ. eigenvalues --  -19.15383 -14.37400 -10.27532 -10.23226 -10.22738
 Alpha  occ. eigenvalues --  -10.22180 -10.19696 -10.19381 -10.19074 -10.19008
 Alpha  occ. eigenvalues --  -10.18960 -10.18819 -10.18703 -10.18684  -8.14978
 Alpha  occ. eigenvalues --   -8.12985  -6.11475  -6.11411  -6.11241  -6.09435
 Alpha  occ. eigenvalues --   -6.09337  -6.09235  -1.12054  -1.10802  -1.00904
 Alpha  occ. eigenvalues --   -1.00539  -0.94653  -0.85958  -0.85470  -0.79084
 Alpha  occ. eigenvalues --   -0.77590  -0.74306  -0.73670  -0.72563  -0.67661
 Alpha  occ. eigenvalues --   -0.63960  -0.60735  -0.60100  -0.58397  -0.56653
 Alpha  occ. eigenvalues --   -0.54144  -0.52386  -0.51090  -0.50859  -0.49329
 Alpha  occ. eigenvalues --   -0.48547  -0.47627  -0.46505  -0.45794  -0.45463
 Alpha  occ. eigenvalues --   -0.44893  -0.44162  -0.43906  -0.43374  -0.42372
 Alpha  occ. eigenvalues --   -0.41815  -0.41268  -0.39102  -0.38342  -0.37368
 Alpha  occ. eigenvalues --   -0.36551  -0.35528  -0.35129  -0.34004  -0.33535
 Alpha  occ. eigenvalues --   -0.33111  -0.32847  -0.32673  -0.31691  -0.31185
 Alpha  occ. eigenvalues --   -0.30728  -0.29862  -0.27783  -0.25153  -0.24030
 Alpha virt. eigenvalues --   -0.00402  -0.00054   0.03127   0.03546   0.04718
 Alpha virt. eigenvalues --    0.05583   0.07534   0.08064   0.08396   0.09666
 Alpha virt. eigenvalues --    0.10038   0.10627   0.11397   0.11970   0.12721
 Alpha virt. eigenvalues --    0.13383   0.13792   0.15097   0.15562   0.15976
 Alpha virt. eigenvalues --    0.16427   0.16660   0.17540   0.17864   0.18444
 Alpha virt. eigenvalues --    0.20257   0.20533   0.21982   0.22282   0.23878
 Alpha virt. eigenvalues --    0.25188   0.26831   0.28458   0.29456   0.30830
 Alpha virt. eigenvalues --    0.32935   0.34139   0.34460   0.35450   0.35738
 Alpha virt. eigenvalues --    0.36354   0.40453   0.41210   0.43693   0.44495
 Alpha virt. eigenvalues --    0.46049   0.47135   0.48167   0.49226   0.50414
 Alpha virt. eigenvalues --    0.51097   0.53650   0.54331   0.54499   0.54933
 Alpha virt. eigenvalues --    0.56650   0.56978   0.58923   0.59299   0.59417
 Alpha virt. eigenvalues --    0.59639   0.60684   0.61436   0.61619   0.62984
 Alpha virt. eigenvalues --    0.63722   0.64536   0.65376   0.67291   0.67808
 Alpha virt. eigenvalues --    0.68276   0.70753   0.71418   0.72798   0.73036
 Alpha virt. eigenvalues --    0.75983   0.76535   0.78544   0.79128   0.79758
 Alpha virt. eigenvalues --    0.80879   0.81075   0.81572   0.82864   0.83613
 Alpha virt. eigenvalues --    0.83930   0.84364   0.84524   0.85058   0.86103
 Alpha virt. eigenvalues --    0.86711   0.87460   0.88288   0.88740   0.89602
 Alpha virt. eigenvalues --    0.89855   0.91017   0.92856   0.92997   0.93585
 Alpha virt. eigenvalues --    0.94266   0.95283   0.96330   0.96945   0.97792
 Alpha virt. eigenvalues --    1.00181   1.00823   1.01263   1.01882   1.04638
 Alpha virt. eigenvalues --    1.04878   1.05302   1.06545   1.08679   1.09881
 Alpha virt. eigenvalues --    1.10141   1.10578   1.12156   1.13713   1.15657
 Alpha virt. eigenvalues --    1.16357   1.16475   1.17437   1.17861   1.20222
 Alpha virt. eigenvalues --    1.21471   1.22167   1.25782   1.27536   1.28269
 Alpha virt. eigenvalues --    1.28833   1.31273   1.35182   1.38236   1.41878
 Alpha virt. eigenvalues --    1.43055   1.44014   1.44466   1.46625   1.48272
 Alpha virt. eigenvalues --    1.49331   1.51420   1.52030   1.52625   1.54336
 Alpha virt. eigenvalues --    1.60753   1.62150   1.66515   1.69421   1.70893
 Alpha virt. eigenvalues --    1.72629   1.73766   1.74816   1.75999   1.78141
 Alpha virt. eigenvalues --    1.78687   1.78767   1.79507   1.79608   1.80348
 Alpha virt. eigenvalues --    1.81109   1.81863   1.82393   1.83586   1.85745
 Alpha virt. eigenvalues --    1.85769   1.88453   1.88974   1.89451   1.90998
 Alpha virt. eigenvalues --    1.91747   1.92375   1.94678   1.98124   1.99224
 Alpha virt. eigenvalues --    2.00415   2.01592   2.03465   2.03997   2.04787
 Alpha virt. eigenvalues --    2.06023   2.06990   2.08316   2.10444   2.12687
 Alpha virt. eigenvalues --    2.13817   2.14321   2.14452   2.15956   2.17627
 Alpha virt. eigenvalues --    2.18009   2.18621   2.20255   2.21370   2.22437
 Alpha virt. eigenvalues --    2.25946   2.26492   2.27052   2.29400   2.30827
 Alpha virt. eigenvalues --    2.31364   2.31703   2.34001   2.38815   2.39107
 Alpha virt. eigenvalues --    2.41486   2.42069   2.47942   2.52020   2.55857
 Alpha virt. eigenvalues --    2.58396   2.59511   2.64346   2.67962   2.70655
 Alpha virt. eigenvalues --    2.71786   2.72614   2.74309   2.74843   2.75770
 Alpha virt. eigenvalues --    2.76284   2.79361   2.80791   2.81428   2.84159
 Alpha virt. eigenvalues --    2.89552   3.06116   3.40899   3.76731   3.79566
 Alpha virt. eigenvalues --    3.87183   3.94197   3.96024   4.04218   4.07162
 Alpha virt. eigenvalues --    4.12476   4.13632   4.15848   4.23761   4.24036
 Alpha virt. eigenvalues --    4.27664   4.33267   4.35131   4.44283   4.53585
 Alpha virt. eigenvalues --    4.70031   4.75880
          Condensed to atoms (all electrons):
               1          2          3          4          5          6
     1  C    5.544657   0.233251  -0.056527   0.002764  -0.000121   0.000012
     2  S    0.233251  13.644991   0.130767  -0.018644   0.000631   0.000156
     3  N   -0.056527   0.130767   7.345243   0.271862  -0.036688   0.002646
     4  C    0.002764  -0.018644   0.271862   4.831009   0.339799  -0.095063
     5  C   -0.000121   0.000631  -0.036688   0.339799   5.698662   0.144328
     6  S    0.000012   0.000156   0.002646  -0.095063   0.144328  13.866387
     7  C   -0.000165  -0.005633  -0.056834   0.347421  -0.181751   0.137449
     8  O   -0.000000  -0.000066  -0.000148   0.002647  -0.045937   0.432877
     9  O   -0.000000   0.000001  -0.000037   0.001245  -0.046226   0.411364
    10  C   -0.000155  -0.003197  -0.066102   0.366849  -0.052222   0.007469
    11  C    0.000068  -0.000394   0.001195  -0.032593  -0.007966  -0.000210
    12  C   -0.000178   0.001161   0.001287  -0.005125  -0.000195  -0.000015
    13  C   -0.001826   0.002828  -0.000713  -0.000618  -0.000006   0.000001
    14  C   -0.001740  -0.000017  -0.000048  -0.000010   0.000000   0.000000
    15  C   -0.001055  -0.000067   0.000037   0.000002   0.000000  -0.000000
    16  C    0.000014  -0.000237  -0.000118  -0.000005   0.000001   0.000000
    17  C    0.000430  -0.000074   0.001579   0.000556   0.000051   0.000001
    18  O   -0.055612   0.412742  -0.050403   0.006256   0.000165   0.000346
    19  O   -0.061555   0.425230  -0.053521  -0.002012  -0.000175  -0.000133
    20  H    0.334948  -0.005943  -0.000139  -0.000070   0.000004   0.000000
    21  H    0.354610  -0.016082   0.002570  -0.000047   0.000001  -0.000000
    22  H    0.342786  -0.003834  -0.000204  -0.000011  -0.000009  -0.000001
    23  H   -0.000450  -0.003942   0.292997  -0.024877  -0.006241   0.000506
    24  H    0.000001  -0.000005   0.001508  -0.025053   0.345163  -0.010240
    25  H   -0.000001   0.000088  -0.005088  -0.022570   0.334275  -0.003511
    26  H    0.000002  -0.000251   0.001870  -0.026016   0.008947  -0.011133
    27  H    0.000059   0.004970  -0.006637  -0.024205   0.003543  -0.003850
    28  H    0.000000   0.000315   0.004673  -0.035556  -0.006385   0.008096
    29  H   -0.000086   0.001289  -0.003736  -0.029426   0.004875  -0.000253
    30  H    0.000002  -0.000047   0.000101  -0.007683   0.002674   0.000067
    31  H   -0.000001   0.000033   0.000049   0.004496   0.000198  -0.000023
    32  H    0.000001   0.000092  -0.000003   0.000113  -0.000000  -0.000001
    33  H    0.000000   0.000003  -0.000000   0.000000   0.000000   0.000000
    34  H   -0.000003   0.000000   0.000000  -0.000000   0.000000  -0.000000
    35  H   -0.000005  -0.000001  -0.000002   0.000000  -0.000000  -0.000000
    36  H   -0.000007   0.000019   0.000214  -0.000031   0.000043   0.000001
               7          8          9         10         11         12
     1  C   -0.000165  -0.000000  -0.000000  -0.000155   0.000068  -0.000178
     2  S   -0.005633  -0.000066   0.000001  -0.003197  -0.000394   0.001161
     3  N   -0.056834  -0.000148  -0.000037  -0.066102   0.001195   0.001287
     4  C    0.347421   0.002647   0.001245   0.366849  -0.032593  -0.005125
     5  C   -0.181751  -0.045937  -0.046226  -0.052222  -0.007966  -0.000195
     6  S    0.137449   0.432877   0.411364   0.007469  -0.000210  -0.000015
     7  C    5.723080  -0.045714  -0.044456  -0.060596   0.004169   0.000013
     8  O   -0.045714   8.255443  -0.045121  -0.000073   0.000000   0.000000
     9  O   -0.044456  -0.045121   8.292460  -0.002473   0.000000  -0.000001
    10  C   -0.060596  -0.000073  -0.002473   5.145140   0.331909  -0.029284
    11  C    0.004169   0.000000   0.000000   0.331909   5.168874   0.356835
    12  C    0.000013   0.000000  -0.000001  -0.029284   0.356835   4.628167
    13  C   -0.000016  -0.000000   0.000000  -0.004691  -0.066568   0.536905
    14  C   -0.000000   0.000000   0.000000   0.000201   0.006197  -0.020010
    15  C    0.000000   0.000000  -0.000000   0.000004   0.000296  -0.034297
    16  C   -0.000000  -0.000000   0.000000  -0.000172   0.007282  -0.022595
    17  C   -0.000004   0.000000   0.000000   0.000892  -0.050340   0.548655
    18  O    0.004166  -0.000000  -0.000000  -0.007468  -0.000057  -0.000469
    19  O   -0.003512   0.000001  -0.000000  -0.000057   0.000001  -0.000001
    20  H    0.000004  -0.000000   0.000000  -0.000001  -0.000088   0.000350
    21  H    0.000007   0.000000   0.000000  -0.000004   0.000000   0.000025
    22  H   -0.000003   0.000000   0.000000   0.000013  -0.000005  -0.000003
    23  H    0.000977  -0.000052  -0.000001   0.003968  -0.000167   0.000138
    24  H    0.008586   0.000674   0.000129  -0.006142   0.001115   0.000175
    25  H    0.003915   0.000407   0.001103   0.003659  -0.000028  -0.000007
    26  H    0.346317   0.000697  -0.000509  -0.003092   0.000139  -0.000004
    27  H    0.325919   0.000593   0.001065   0.003489  -0.000098   0.000001
    28  H   -0.004418   0.000020   0.005508   0.356764  -0.027975   0.003279
    29  H   -0.005333   0.000001   0.000057   0.365934  -0.036706  -0.006604
    30  H    0.000208   0.000001  -0.000003  -0.039367   0.362682  -0.034989
    31  H   -0.000135  -0.000000  -0.000002  -0.033594   0.362837  -0.030046
    32  H    0.000002   0.000000  -0.000000   0.001297  -0.008980  -0.044753
    33  H    0.000000  -0.000000   0.000000   0.000001  -0.000173   0.003507
    34  H    0.000000   0.000000  -0.000000   0.000000   0.000007   0.000624
    35  H    0.000000  -0.000000   0.000000   0.000001  -0.000170   0.003676
    36  H    0.000001   0.000000   0.000000   0.000159  -0.011387  -0.041252
              13         14         15         16         17         18
     1  C   -0.001826  -0.001740  -0.001055   0.000014   0.000430  -0.055612
     2  S    0.002828  -0.000017  -0.000067  -0.000237  -0.000074   0.412742
     3  N   -0.000713  -0.000048   0.000037  -0.000118   0.001579  -0.050403
     4  C   -0.000618  -0.000010   0.000002  -0.000005   0.000556   0.006256
     5  C   -0.000006   0.000000   0.000000   0.000001   0.000051   0.000165
     6  S    0.000001   0.000000  -0.000000   0.000000   0.000001   0.000346
     7  C   -0.000016  -0.000000   0.000000  -0.000000  -0.000004   0.004166
     8  O   -0.000000   0.000000   0.000000  -0.000000   0.000000  -0.000000
     9  O    0.000000   0.000000  -0.000000   0.000000   0.000000  -0.000000
    10  C   -0.004691   0.000201   0.000004  -0.000172   0.000892  -0.007468
    11  C   -0.066568   0.006197   0.000296   0.007282  -0.050340  -0.000057
    12  C    0.536905  -0.020010  -0.034297  -0.022595   0.548655  -0.000469
    13  C    5.007320   0.519202  -0.039012  -0.047421  -0.042467   0.000684
    14  C    0.519202   4.897319   0.540124  -0.029875  -0.046517  -0.000139
    15  C   -0.039012   0.540124   4.889426   0.544800  -0.038301   0.000004
    16  C   -0.047421  -0.029875   0.544800   4.904871   0.511826   0.000001
    17  C   -0.042467  -0.046517  -0.038301   0.511826   4.998286  -0.000010
    18  O    0.000684  -0.000139   0.000004   0.000001  -0.000010   8.312410
    19  O    0.000000  -0.000000  -0.000000  -0.000000   0.000000  -0.045275
    20  H    0.002594   0.005419   0.003626   0.001170  -0.000132  -0.000436
    21  H   -0.000016  -0.000052   0.000003   0.000013   0.000029  -0.000443
    22  H    0.000049   0.000018   0.000021  -0.000017  -0.000025   0.001556
    23  H    0.000014  -0.000001  -0.000001  -0.000001   0.000087   0.001269
    24  H    0.000003  -0.000000   0.000000  -0.000000  -0.000036   0.000001
    25  H    0.000000  -0.000000  -0.000000   0.000000  -0.000001   0.000001
    26  H   -0.000001   0.000000  -0.000000   0.000000   0.000000  -0.000112
    27  H    0.000001   0.000000  -0.000000   0.000000   0.000000  -0.002905
    28  H    0.000204   0.000001   0.000000   0.000002  -0.000095   0.000185
    29  H    0.003010  -0.000119  -0.000001  -0.000000   0.000237   0.010044
    30  H    0.004697  -0.000166   0.000000   0.000228  -0.004434  -0.000009
    31  H   -0.005126  -0.000053   0.000037  -0.000252   0.001182  -0.000003
    32  H    0.358854  -0.043631   0.004679   0.000289   0.006012   0.000127
    33  H   -0.039244   0.361475  -0.042174   0.004529   0.000760  -0.000002
    34  H    0.004638  -0.042120   0.363356  -0.042257   0.004560   0.000000
    35  H    0.000718   0.004540  -0.042611   0.360856  -0.038426   0.000000
    36  H    0.006441   0.000263   0.004738  -0.046378   0.357654   0.000000
              19         20         21         22         23         24
     1  C   -0.061555   0.334948   0.354610   0.342786  -0.000450   0.000001
     2  S    0.425230  -0.005943  -0.016082  -0.003834  -0.003942  -0.000005
     3  N   -0.053521  -0.000139   0.002570  -0.000204   0.292997   0.001508
     4  C   -0.002012  -0.000070  -0.000047  -0.000011  -0.024877  -0.025053
     5  C   -0.000175   0.000004   0.000001  -0.000009  -0.006241   0.345163
     6  S   -0.000133   0.000000  -0.000000  -0.000001   0.000506  -0.010240
     7  C   -0.003512   0.000004   0.000007  -0.000003   0.000977   0.008586
     8  O    0.000001  -0.000000   0.000000   0.000000  -0.000052   0.000674
     9  O   -0.000000   0.000000   0.000000   0.000000  -0.000001   0.000129
    10  C   -0.000057  -0.000001  -0.000004   0.000013   0.003968  -0.006142
    11  C    0.000001  -0.000088   0.000000  -0.000005  -0.000167   0.001115
    12  C   -0.000001   0.000350   0.000025  -0.000003   0.000138   0.000175
    13  C    0.000000   0.002594  -0.000016   0.000049   0.000014   0.000003
    14  C   -0.000000   0.005419  -0.000052   0.000018  -0.000001  -0.000000
    15  C   -0.000000   0.003626   0.000003   0.000021  -0.000001   0.000000
    16  C   -0.000000   0.001170   0.000013  -0.000017  -0.000001  -0.000000
    17  C    0.000000  -0.000132   0.000029  -0.000025   0.000087  -0.000036
    18  O   -0.045275  -0.000436  -0.000443   0.001556   0.001269   0.000001
    19  O    8.299426   0.001700   0.000297  -0.000668   0.001189   0.000000
    20  H    0.001700   0.459448  -0.017273  -0.019787   0.000033   0.000000
    21  H    0.000297  -0.017273   0.463657  -0.018408  -0.000046  -0.000000
    22  H   -0.000668  -0.019787  -0.018408   0.468926   0.000092   0.000000
    23  H    0.001189   0.000033  -0.000046   0.000092   0.318343  -0.000023
    24  H    0.000000   0.000000  -0.000000   0.000000  -0.000023   0.455317
    25  H   -0.000022  -0.000000   0.000000  -0.000001   0.005494  -0.016199
    26  H   -0.000030  -0.000000  -0.000000  -0.000000  -0.000131  -0.000249
    27  H    0.010768  -0.000006   0.000002   0.000006   0.000645  -0.000226
    28  H    0.000001   0.000000   0.000000  -0.000000  -0.000101  -0.000179
    29  H   -0.000001   0.000007   0.000002  -0.000004  -0.000087   0.000202
    30  H    0.000000  -0.000003   0.000000   0.000000  -0.000097   0.006028
    31  H    0.000000   0.000001   0.000000   0.000000   0.000006  -0.000277
    32  H    0.000000  -0.000016   0.000000   0.000000  -0.000000   0.000001
    33  H   -0.000000   0.000005   0.000000   0.000000   0.000000   0.000000
    34  H    0.000000   0.000005   0.000000   0.000000  -0.000000   0.000000
    35  H   -0.000000   0.000010  -0.000000   0.000002   0.000000  -0.000000
    36  H    0.000000   0.000000   0.000000   0.000002   0.000013   0.000012
              25         26         27         28         29         30
     1  C   -0.000001   0.000002   0.000059   0.000000  -0.000086   0.000002
     2  S    0.000088  -0.000251   0.004970   0.000315   0.001289  -0.000047
     3  N   -0.005088   0.001870  -0.006637   0.004673  -0.003736   0.000101
     4  C   -0.022570  -0.026016  -0.024205  -0.035556  -0.029426  -0.007683
     5  C    0.334275   0.008947   0.003543  -0.006385   0.004875   0.002674
     6  S   -0.003511  -0.011133  -0.003850   0.008096  -0.000253   0.000067
     7  C    0.003915   0.346317   0.325919  -0.004418  -0.005333   0.000208
     8  O    0.000407   0.000697   0.000593   0.000020   0.000001   0.000001
     9  O    0.001103  -0.000509   0.001065   0.005508   0.000057  -0.000003
    10  C    0.003659  -0.003092   0.003489   0.356764   0.365934  -0.039367
    11  C   -0.000028   0.000139  -0.000098  -0.027975  -0.036706   0.362682
    12  C   -0.000007  -0.000004   0.000001   0.003279  -0.006604  -0.034989
    13  C    0.000000  -0.000001   0.000001   0.000204   0.003010   0.004697
    14  C   -0.000000   0.000000   0.000000   0.000001  -0.000119  -0.000166
    15  C   -0.000000  -0.000000  -0.000000   0.000000  -0.000001   0.000000
    16  C    0.000000   0.000000   0.000000   0.000002  -0.000000   0.000228
    17  C   -0.000001   0.000000   0.000000  -0.000095   0.000237  -0.004434
    18  O    0.000001  -0.000112  -0.002905   0.000185   0.010044  -0.000009
    19  O   -0.000022  -0.000030   0.010768   0.000001  -0.000001   0.000000
    20  H   -0.000000  -0.000000  -0.000006   0.000000   0.000007  -0.000003
    21  H    0.000000  -0.000000   0.000002   0.000000   0.000002   0.000000
    22  H   -0.000001  -0.000000   0.000006  -0.000000  -0.000004   0.000000
    23  H    0.005494  -0.000131   0.000645  -0.000101  -0.000087  -0.000097
    24  H   -0.016199  -0.000249  -0.000226  -0.000179   0.000202   0.006028
    25  H    0.464259  -0.000229  -0.000055   0.000091  -0.000109  -0.000316
    26  H   -0.000229   0.460797  -0.016148  -0.000342   0.002847   0.000012
    27  H   -0.000055  -0.016148   0.468012   0.000209  -0.000040  -0.000001
    28  H    0.000091  -0.000342   0.000209   0.566861  -0.027424  -0.000088
    29  H   -0.000109   0.002847  -0.000040  -0.027424   0.523488   0.004247
    30  H   -0.000316   0.000012  -0.000001  -0.000088   0.004247   0.573002
    31  H    0.000004  -0.000015   0.000002  -0.006815   0.000003  -0.032263
    32  H   -0.000000   0.000000  -0.000000  -0.000181   0.003761   0.000031
    33  H    0.000000   0.000000  -0.000000  -0.000000   0.000007   0.000003
    34  H   -0.000000   0.000000   0.000000   0.000000  -0.000000  -0.000000
    35  H    0.000000   0.000000  -0.000000  -0.000000   0.000000  -0.000010
    36  H    0.000002  -0.000000  -0.000000  -0.000009   0.000012   0.007544
              31         32         33         34         35         36
     1  C   -0.000001   0.000001   0.000000  -0.000003  -0.000005  -0.000007
     2  S    0.000033   0.000092   0.000003   0.000000  -0.000001   0.000019
     3  N    0.000049  -0.000003  -0.000000   0.000000  -0.000002   0.000214
     4  C    0.004496   0.000113   0.000000  -0.000000   0.000000  -0.000031
     5  C    0.000198  -0.000000   0.000000   0.000000  -0.000000   0.000043
     6  S   -0.000023  -0.000001   0.000000  -0.000000  -0.000000   0.000001
     7  C   -0.000135   0.000002   0.000000   0.000000   0.000000   0.000001
     8  O   -0.000000   0.000000  -0.000000   0.000000  -0.000000   0.000000
     9  O   -0.000002  -0.000000   0.000000  -0.000000   0.000000   0.000000
    10  C   -0.033594   0.001297   0.000001   0.000000   0.000001   0.000159
    11  C    0.362837  -0.008980  -0.000173   0.000007  -0.000170  -0.011387
[...]
 RotChk:  IX=0 Diff= 1.14D-15
 Largest Abelian subgroup         C1      NOp   1
 Largest concise Abelian subgroup C1      NOp   1
                         Standard orientation:                         
 ---------------------------------------------------------------------
 Center     Atomic      Atomic             Coordinates (Angstroms)
 Number     Number       Type             X           Y           Z
 ---------------------------------------------------------------------
      1          6           0        1.942287    2.347857   -0.594169
      2         16           0        0.312297    2.088906    0.094712
      3          7           0       -0.185225    0.685224   -0.706761
      4          6           0       -1.102772   -0.232949   -0.005888
      5          6           0       -1.953740   -1.019415   -1.057467
      6         16           0       -3.473443   -0.637765   -0.121971
      7          6           0       -2.305594    0.467195    0.726150
      8          8           0       -4.506988    0.056122   -0.913420
      9          8           0       -3.887037   -1.768735    0.734439
     10          6           0       -0.368185   -1.187387    0.950236
     11          6           0        0.674224   -2.123855    0.308608
     12          6           0        2.062953   -1.554644    0.101907
     13          6           0        2.804507   -1.051664    1.181250
     14          6           0        4.104187   -0.576725    0.999250
     15          6           0        4.690039   -0.599172   -0.269531
     16          6           0        3.964061   -1.100640   -1.351763
     17          6           0        2.663271   -1.573397   -1.163170
     18          8           0        0.418683    1.758443    1.525290
     19          8           0       -0.536136    3.233878   -0.289812
     20          1           0        2.569485    1.497013   -0.333683
     21          1           0        2.325946    3.267805   -0.150749
     22          1           0        1.853758    2.458022   -1.675565
     23          1           0       -0.522439    0.959098   -1.630397
     24          1           0       -1.750627   -2.085881   -1.145061
     25          1           0       -2.003517   -0.560710   -2.045462
     26          1           0       -2.331181    0.388278    1.812369
     27          1           0       -2.467126    1.494799    0.404024
     28          1           0       -1.140191   -1.800946    1.425173
     29          1           0        0.089463   -0.589900    1.741219
     30          1           0        0.299312   -2.504305   -0.647235
     31          1           0        0.758046   -2.998982    0.963705
     32          1           0        2.361784   -1.035026    2.173084
     33          1           0        4.661317   -0.193375    1.848400
     34          1           0        5.701164   -0.231959   -0.411128
     35          1           0        4.408168   -1.124272   -2.341983
     36          1           0        2.101942   -1.963388   -2.007686
 ---------------------------------------------------------------------
 Rotational constants (GHZ):           0.5392195           0.2144858           0.1760197
 Leave Link  202 at Tue Sep 22 02:17:15 2020, MaxMem=   262144000 cpu:               0.1 elap:               0.0
 (Enter /prod/apps/gaussian/g16b1/l301.exe)
 Standard basis: Aug-CC-pVDZ (5D, 7F)
 Ernie: Thresh=  0.10000D-02 Tol=  0.10000D-05 Strict=F.
 Ernie:  54 primitive shells out of 650 were deleted.
 There are   636 symmetry adapted cartesian basis functions of A   symmetry.
 There are   598 symmetry adapted basis functions of A   symmetry.
   598 basis functions,  1080 primitive gaussians,   636 cartesian basis functions
    80 alpha electrons       80 beta electrons
       nuclear repulsion energy      1893.0142351637 Hartrees.
 IExCor=    0 DFT=F Ex=HF Corr=None ExCW=0 ScaHFX=  1.000000
 ScaDFX=  1.000000  1.000000  1.000000  1.000000 ScalE2=  1.000000  1.000000
 IRadAn=      5 IRanWt=     -1 IRanGd=            0 ICorTp=0 IEmpDi=  4
 NAtoms=   36 NActive=   36 NUniq=   36 SFac= 1.00D+00 NAtFMM=   60 NAOKFM=F Big=F
 Integral buffers will be    131072 words long.
 Raffenetti 1 integral format.
 Two-electron integral symmetry is turned on.
 Leave Link  301 at Tue Sep 22 02:17:15 2020, MaxMem=   262144000 cpu:               0.2 elap:               0.1
 (Enter /prod/apps/gaussian/g16b1/l302.exe)
 NPDir=0 NMtPBC=     1 NCelOv=     1 NCel=       1 NClECP=     1 NCelD=      1
         NCelK=      1 NCelE2=     1 NClLst=     1 CellRange=     0.0.
 One-electron integrals computed using PRISM.
 One-electron integral symmetry used in STVInt
 NBasis=   598 RedAO= T EigKep=  1.77D-06  NBF=   598
 NBsUse=   598 1.00D-06 EigRej= -1.00D+00 NBFU=   598
 Leave Link  302 at Tue Sep 22 02:17:16 2020, MaxMem=   262144000 cpu:               1.8 elap:               0.5
 (Enter /prod/apps/gaussian/g16b1/l303.exe)
 DipDrv:  MaxL=1.
 Leave Link  303 at Tue Sep 22 02:17:16 2020, MaxMem=   262144000 cpu:               0.4 elap:               0.1
 (Enter /prod/apps/gaussian/g16b1/l401.exe)
 ExpMin= 2.97D-02 ExpMax= 1.11D+05 ExpMxC= 1.07D+03 IAcc=3 IRadAn=         5 AccDes= 0.00D+00
 Harris functional with IExCor=  205 and IRadAn=       5 diagonalized for initial guess.
 HarFok:  IExCor=  205 AccDes= 0.00D+00 IRadAn=         5 IDoV= 1 UseB2=F ITyADJ=14
 ICtDFT=  3500011 ScaDFX=  1.000000  1.000000  1.000000  1.000000
 FoFCou: FMM=F IPFlag=           0 FMFlag=      100000 FMFlg1=           0
         NFxFlg=           0 DoJE=T BraDBF=F KetDBF=T FulRan=T
         wScrn=  0.000000 ICntrl=       500 IOpCl=  0 I1Cent=   200000004 NGrid=           0
         NMat0=    1 NMatS0=      1 NMatT0=    0 NMatD0=    1 NMtDS0=    0 NMtDT0=    0
 Petite list used in FoFCou.
 Harris En= -1613.59133779287    
 JPrj=0 DoOrth=F DoCkMO=F.
 Leave Link  401 at Tue Sep 22 02:17:20 2020, MaxMem=   262144000 cpu:              16.9 elap:               4.3
 (Enter /prod/apps/gaussian/g16b1/l502.exe)
 Integral symmetry usage will be decided dynamically.
 Closed shell SCF:
 Using DIIS extrapolation, IDIIS=  1040.
 NGot=   262144000 LenX=   261325236 LenY=   260920104
 Requested convergence on RMS density matrix=1.00D-08 within2000 cycles.
 Requested convergence on MAX density matrix=1.00D-06.
 Requested convergence on             energy=1.00D-06.
 No special actions if energy rises.

 Cycle   1  Pass 1  IDiag  1:
 FoFJK:  IHMeth= 1 ICntrl=       0 DoSepK=F KAlg= 0 I1Cent=           0 FoldK=F
 IRaf= 950000000 NMat=       1 IRICut=       1 DoRegI=T DoRafI=F ISym2E= 0 IDoP0=0 IntGTp=1.
 FoFCou: FMM=F IPFlag=           0 FMFlag=      100000 FMFlg1=           0
         NFxFlg=           0 DoJE=F BraDBF=F KetDBF=F FulRan=T
         wScrn=  0.000000 ICntrl=         0 IOpCl=  0 I1Cent=           0 NGrid=           0
         NMat0=    1 NMatS0=      1 NMatT0=    0 NMatD0=    1 NMtDS0=    0 NMtDT0=    0
 Symmetry not used in FoFCou.
 E= -1612.28020212035    
 DIIS: error= 1.87D-02 at cycle   1 NSaved=   1.
 NSaved= 1 IEnMin= 1 EnMin= -1612.28020212035     IErMin= 1 ErrMin= 1.87D-02
 ErrMax= 1.87D-02  0.00D+00 EMaxC= 1.00D-01 BMatC= 1.32D+00 BMatP= 1.32D+00
 IDIUse=3 WtCom= 8.13D-01 WtEn= 1.87D-01
 Coeff-Com:  0.100D+01
 Coeff-En:   0.100D+01
 Coeff:      0.100D+01
 Gap=     0.631 Goal=   None    Shift=    0.000
 GapD=    0.631 DampG=2.000 DampE=0.500 DampFc=1.0000 IDamp=-1.
 RMSDP=4.59D-02 MaxDP=3.66D+00              OVMax= 1.48D-01

 Cycle   2  Pass 1  IDiag  1:
 E= -1612.94432062186     Delta-E=       -0.664118501516 Rises=F Damp=F
 DIIS: error= 1.19D-02 at cycle   2 NSaved=   2.
 NSaved= 2 IEnMin= 2 EnMin= -1612.94432062186     IErMin= 2 ErrMin= 1.19D-02
 ErrMax= 1.19D-02  0.00D+00 EMaxC= 1.00D-01 BMatC= 3.10D-01 BMatP= 1.32D+00
 IDIUse=3 WtCom= 8.81D-01 WtEn= 1.19D-01
 Coeff-Com:  0.294D+00 0.706D+00
 Coeff-En:   0.000D+00 0.100D+01
 Coeff:      0.259D+00 0.741D+00
 Gap=     0.373 Goal=   None    Shift=    0.000
 RMSDP=5.58D-03 MaxDP=1.12D+00 DE=-6.64D-01 OVMax= 6.60D-02

 Cycle   3  Pass 1  IDiag  1:
 E= -1613.16922442533     Delta-E=       -0.224903803462 Rises=F Damp=F
 DIIS: error= 3.59D-03 at cycle   3 NSaved=   3.
 NSaved= 3 IEnMin= 3 EnMin= -1613.16922442533     IErMin= 3 ErrMin= 3.59D-03
 ErrMax= 3.59D-03  0.00D+00 EMaxC= 1.00D-01 BMatC= 2.71D-02 BMatP= 3.10D-01
 IDIUse=3 WtCom= 9.64D-01 WtEn= 3.59D-02
 Coeff-Com: -0.404D-02 0.207D+00 0.797D+00
 Coeff-En:   0.000D+00 0.000D+00 0.100D+01
 Coeff:     -0.389D-02 0.199D+00 0.805D+00
 Gap=     0.368 Goal=   None    Shift=    0.000
 RMSDP=1.61D-03 MaxDP=3.09D-01 DE=-2.25D-01 OVMax= 1.99D-02

 Cycle   4  Pass 1  IDiag  1:
 E= -1613.18858187717     Delta-E=       -0.019357451840 Rises=F Damp=F
 DIIS: error= 5.03D-04 at cycle   4 NSaved=   4.
 NSaved= 4 IEnMin= 4 EnMin= -1613.18858187717     IErMin= 4 ErrMin= 5.03D-04
 ErrMax= 5.03D-04  0.00D+00 EMaxC= 1.00D-01 BMatC= 1.22D-03 BMatP= 2.71D-02
 IDIUse=3 WtCom= 9.95D-01 WtEn= 5.03D-03
 Coeff-Com: -0.148D-01 0.201D-01 0.221D+00 0.773D+00
 Coeff-En:   0.000D+00 0.000D+00 0.000D+00 0.100D+01
 Coeff:     -0.148D-01 0.200D-01 0.220D+00 0.775D+00
 Gap=     0.360 Goal=   None    Shift=    0.000
 RMSDP=4.03D-04 MaxDP=3.01D-02 DE=-1.94D-02 OVMax= 7.36D-03

 Cycle   5  Pass 1  IDiag  1:
 E= -1613.18987689061     Delta-E=       -0.001295013442 Rises=F Damp=F
 DIIS: error= 2.35D-04 at cycle   5 NSaved=   5.
 NSaved= 5 IEnMin= 5 EnMin= -1613.18987689061     IErMin= 5 ErrMin= 2.35D-04
 ErrMax= 2.35D-04  0.00D+00 EMaxC= 1.00D-01 BMatC= 7.33D-05 BMatP= 1.22D-03
 IDIUse=3 WtCom= 9.98D-01 WtEn= 2.35D-03
 Coeff-Com: -0.220D-03-0.117D-01-0.508D-01 0.567D-01 0.101D+01
 Coeff-En:   0.000D+00 0.000D+00 0.000D+00 0.000D+00 0.100D+01
 Coeff:     -0.219D-03-0.116D-01-0.507D-01 0.566D-01 0.101D+01
 Gap=     0.361 Goal=   None    Shift=    0.000
 RMSDP=1.46D-04 MaxDP=1.28D-02 DE=-1.30D-03 OVMax= 2.29D-03

 Cycle   6  Pass 1  IDiag  1:
 E= -1613.18999053718     Delta-E=       -0.000113646569 Rises=F Damp=F
 DIIS: error= 5.06D-05 at cycle   6 NSaved=   6.
 NSaved= 6 IEnMin= 6 EnMin= -1613.18999053718     IErMin= 6 ErrMin= 5.06D-05
 ErrMax= 5.06D-05  0.00D+00 EMaxC= 1.00D-01 BMatC= 9.31D-06 BMatP= 7.33D-05
 IDIUse=1 WtCom= 1.00D+00 WtEn= 0.00D+00
 Coeff-Com:  0.150D-02-0.538D-02-0.384D-01-0.638D-01 0.230D+00 0.876D+00
 Coeff:      0.150D-02-0.538D-02-0.384D-01-0.638D-01 0.230D+00 0.876D+00
 Gap=     0.361 Goal=   None    Shift=    0.000
 RMSDP=3.52D-05 MaxDP=2.07D-03 DE=-1.14D-04 OVMax= 8.30D-04

 Cycle   7  Pass 1  IDiag  1:
 E= -1613.19000599895     Delta-E=       -0.000015461770 Rises=F Damp=F
 DIIS: error= 1.72D-05 at cycle   7 NSaved=   7.
 NSaved= 7 IEnMin= 7 EnMin= -1613.19000599895     IErMin= 7 ErrMin= 1.72D-05
 ErrMax= 1.72D-05  0.00D+00 EMaxC= 1.00D-01 BMatC= 7.86D-07 BMatP= 9.31D-06
 IDIUse=1 WtCom= 1.00D+00 WtEn= 0.00D+00
 Coeff-Com:  0.251D-03 0.247D-03-0.100D-02-0.126D-01-0.613D-01 0.103D+00
 Coeff-Com:  0.971D+00
 Coeff:      0.251D-03 0.247D-03-0.100D-02-0.126D-01-0.613D-01 0.103D+00
 Coeff:      0.971D+00
 Gap=     0.361 Goal=   None    Shift=    0.000
 RMSDP=1.17D-05 MaxDP=1.26D-03 DE=-1.55D-05 OVMax= 2.98D-04

 Cycle   8  Pass 1  IDiag  1:
 E= -1613.19000776569     Delta-E=       -0.000001766748 Rises=F Damp=F
 DIIS: error= 6.53D-06 at cycle   8 NSaved=   8.
 NSaved= 8 IEnMin= 8 EnMin= -1613.19000776569     IErMin= 8 ErrMin= 6.53D-06
 ErrMax= 6.53D-06  0.00D+00 EMaxC= 1.00D-01 BMatC= 1.20D-07 BMatP= 7.86D-07
 IDIUse=1 WtCom= 1.00D+00 WtEn= 0.00D+00
 Coeff-Com: -0.167D-03 0.748D-03 0.506D-02 0.761D-02-0.356D-01-0.112D+00
 Coeff-Com:  0.611D-01 0.107D+01
 Coeff:     -0.167D-03 0.748D-03 0.506D-02 0.761D-02-0.356D-01-0.112D+00
 Coeff:      0.611D-01 0.107D+01
 Gap=     0.361 Goal=   None    Shift=    0.000
 RMSDP=5.44D-06 MaxDP=9.16D-04 DE=-1.77D-06 OVMax= 1.30D-04

 Cycle   9  Pass 1  IDiag  1:
 E= -1613.19000806737     Delta-E=       -0.000000301672 Rises=F Damp=F
 DIIS: error= 2.70D-06 at cycle   9 NSaved=   9.
 NSaved= 9 IEnMin= 9 EnMin= -1613.19000806737     IErMin= 9 ErrMin= 2.70D-06
 ErrMax= 2.70D-06  0.00D+00 EMaxC= 1.00D-01 BMatC= 1.76D-08 BMatP= 1.20D-07
 IDIUse=1 WtCom= 1.00D+00 WtEn= 0.00D+00
 Coeff-Com: -0.691D-04 0.142D-03 0.122D-02 0.330D-02 0.106D-02-0.363D-01
 Coeff-Com: -0.125D+00 0.228D+00 0.928D+00
 Coeff:     -0.691D-04 0.142D-03 0.122D-02 0.330D-02 0.106D-02-0.363D-01
 Coeff:     -0.125D+00 0.228D+00 0.928D+00
 Gap=     0.361 Goal=   None    Shift=    0.000
 RMSDP=2.27D-06 MaxDP=3.73D-04 DE=-3.02D-07 OVMax= 4.23D-05

 Cycle  10  Pass 1  IDiag  1:
 E= -1613.19000810339     Delta-E=       -0.000000036028 Rises=F Damp=F
 DIIS: error= 7.25D-07 at cycle  10 NSaved=  10.
 NSaved=10 IEnMin=10 EnMin= -1613.19000810339     IErMin=10 ErrMin= 7.25D-07
 ErrMax= 7.25D-07  0.00D+00 EMaxC= 1.00D-01 BMatC= 1.72D-09 BMatP= 1.76D-08
 IDIUse=1 WtCom= 1.00D+00 WtEn= 0.00D+00
 Coeff-Com:  0.416D-05-0.459D-04-0.310D-03-0.287D-03 0.372D-02 0.659D-02
 Coeff-Com: -0.256D-01-0.794D-01 0.154D+00 0.942D+00
 Coeff:      0.416D-05-0.459D-04-0.310D-03-0.287D-03 0.372D-02 0.659D-02
 Coeff:     -0.256D-01-0.794D-01 0.154D+00 0.942D+00
 Gap=     0.361 Goal=   None    Shift=    0.000
 RMSDP=7.85D-07 MaxDP=1.06D-04 DE=-3.60D-08 OVMax= 1.46D-05

 Cycle  11  Pass 1  IDiag  1:
 E= -1613.19000810680     Delta-E=       -0.000000003409 Rises=F Damp=F
 DIIS: error= 2.42D-07 at cycle  11 NSaved=  11.
 NSaved=11 IEnMin=11 EnMin= -1613.19000810680     IErMin=11 ErrMin= 2.42D-07
 ErrMax= 2.42D-07  0.00D+00 EMaxC= 1.00D-01 BMatC= 2.08D-10 BMatP= 1.72D-09
 IDIUse=1 WtCom= 1.00D+00 WtEn= 0.00D+00
 Coeff-Com:  0.881D-05-0.216D-04-0.198D-03-0.491D-03 0.424D-03 0.567D-02
 Coeff-Com:  0.116D-01-0.415D-01-0.883D-01 0.151D+00 0.962D+00
 Coeff:      0.881D-05-0.216D-04-0.198D-03-0.491D-03 0.424D-03 0.567D-02
 Coeff:      0.116D-01-0.415D-01-0.883D-01 0.151D+00 0.962D+00
 Gap=     0.361 Goal=   None    Shift=    0.000
 RMSDP=2.83D-07 MaxDP=2.24D-05 DE=-3.41D-09 OVMax= 6.53D-06

 Cycle  12  Pass 1  IDiag  1:
 E= -1613.19000810725     Delta-E=       -0.000000000446 Rises=F Damp=F
 DIIS: error= 9.16D-08 at cycle  12 NSaved=  12.
 NSaved=12 IEnMin=12 EnMin= -1613.19000810725     IErMin=12 ErrMin= 9.16D-08
 ErrMax= 9.16D-08  0.00D+00 EMaxC= 1.00D-01 BMatC= 2.41D-11 BMatP= 2.08D-10
 IDIUse=1 WtCom= 1.00D+00 WtEn= 0.00D+00
 Coeff-Com:  0.718D-06 0.262D-05 0.711D-05-0.353D-04-0.312D-03-0.533D-04
 Coeff-Com:  0.389D-02 0.380D-02-0.274D-01-0.814D-01 0.123D+00 0.979D+00
 Coeff:      0.718D-06 0.262D-05 0.711D-05-0.353D-04-0.312D-03-0.533D-04
 Coeff:      0.389D-02 0.380D-02-0.274D-01-0.814D-01 0.123D+00 0.979D+00
 Gap=     0.361 Goal=   None    Shift=    0.000
 RMSDP=7.88D-08 MaxDP=6.09D-06 DE=-4.46D-10 OVMax= 3.49D-06

 Cycle  13  Pass 1  IDiag  1:
 E= -1613.19000810733     Delta-E=       -0.000000000080 Rises=F Damp=F
 DIIS: error= 6.24D-08 at cycle  13 NSaved=  13.
 NSaved=13 IEnMin=13 EnMin= -1613.19000810733     IErMin=13 ErrMin= 6.24D-08
 ErrMax= 6.24D-08  0.00D+00 EMaxC= 1.00D-01 BMatC= 4.47D-12 BMatP= 2.41D-11
 IDIUse=1 WtCom= 1.00D+00 WtEn= 0.00D+00
 Coeff-Com: -0.122D-05 0.400D-05 0.327D-04 0.702D-04-0.124D-03-0.934D-03
 Coeff-Com: -0.106D-02 0.752D-02 0.773D-02-0.403D-01-0.121D+00 0.199D+00
 Coeff-Com:  0.949D+00
 Coeff:     -0.122D-05 0.400D-05 0.327D-04 0.702D-04-0.124D-03-0.934D-03
 Coeff:     -0.106D-02 0.752D-02 0.773D-02-0.403D-01-0.121D+00 0.199D+00
 Coeff:      0.949D+00
 Gap=     0.361 Goal=   None    Shift=    0.000
 RMSDP=3.77D-08 MaxDP=1.94D-06 DE=-8.00D-11 OVMax= 1.97D-06

 Cycle  14  Pass 1  IDiag  1:
 E= -1613.19000810731     Delta-E=        0.000000000020 Rises=F Damp=F
 DIIS: error= 2.71D-08 at cycle  14 NSaved=  14.
 NSaved=14 IEnMin=13 EnMin= -1613.19000810733     IErMin=14 ErrMin= 2.71D-08
 ErrMax= 2.71D-08  0.00D+00 EMaxC= 1.00D-01 BMatC= 6.85D-13 BMatP= 4.47D-12
 IDIUse=1 WtCom= 1.00D+00 WtEn= 0.00D+00
 Coeff-Com: -0.198D-06-0.125D-06 0.170D-05 0.100D-04 0.330D-04-0.596D-04
 Coeff-Com: -0.612D-03 0.807D-05 0.443D-02 0.971D-02-0.275D-01-0.133D+00
 Coeff-Com:  0.680D-01 0.108D+01
 Coeff:     -0.198D-06-0.125D-06 0.170D-05 0.100D-04 0.330D-04-0.596D-04
 Coeff:     -0.612D-03 0.807D-05 0.443D-02 0.971D-02-0.275D-01-0.133D+00
 Coeff:      0.680D-01 0.108D+01
 Gap=     0.361 Goal=   None    Shift=    0.000
 RMSDP=1.86D-08 MaxDP=1.71D-06 DE= 2.00D-11 OVMax= 1.16D-06

 Cycle  15  Pass 1  IDiag  1:
 E= -1613.19000810736     Delta-E=       -0.000000000046 Rises=F Damp=F
 DIIS: error= 1.41D-08 at cycle  15 NSaved=  15.
 NSaved=15 IEnMin=15 EnMin= -1613.19000810736     IErMin=15 ErrMin= 1.41D-08
 ErrMax= 1.41D-08  0.00D+00 EMaxC= 1.00D-01 BMatC= 1.37D-13 BMatP= 6.85D-13
 IDIUse=1 WtCom= 1.00D+00 WtEn= 0.00D+00
 Coeff-Com:  0.257D-06-0.838D-06-0.662D-05-0.147D-04 0.239D-04 0.192D-03
 Coeff-Com:  0.247D-03-0.155D-02-0.178D-02 0.794D-02 0.248D-01-0.328D-01
 Coeff-Com: -0.184D+00-0.387D-01 0.123D+01
 Coeff:      0.257D-06-0.838D-06-0.662D-05-0.147D-04 0.239D-04 0.192D-03
 Coeff:      0.247D-03-0.155D-02-0.178D-02 0.794D-02 0.248D-01-0.328D-01
 Coeff:     -0.184D+00-0.387D-01 0.123D+01
 Gap=     0.361 Goal=   None    Shift=    0.000
 RMSDP=1.07D-08 MaxDP=5.94D-07 DE=-4.59D-11 OVMax= 7.40D-07

 Cycle  16  Pass 1  IDiag  1:
 E= -1613.19000810738     Delta-E=       -0.000000000023 Rises=F Damp=F
 DIIS: error= 5.96D-09 at cycle  16 NSaved=  16.
 NSaved=16 IEnMin=16 EnMin= -1613.19000810738     IErMin=16 ErrMin= 5.96D-09
 ErrMax= 5.96D-09  0.00D+00 EMaxC= 1.00D-01 BMatC= 2.30D-14 BMatP= 1.37D-13
 IDIUse=1 WtCom= 1.00D+00 WtEn= 0.00D+00
 Coeff-Com:  0.275D-07 0.455D-07-0.153D-06-0.170D-05-0.808D-05 0.918D-05
 Coeff-Com:  0.127D-03 0.677D-05-0.893D-03-0.195D-02 0.514D-02 0.265D-01
 Coeff-Com: -0.156D-01-0.214D+00 0.144D-01 0.119D+01
 Coeff:      0.275D-07 0.455D-07-0.153D-06-0.170D-05-0.808D-05 0.918D-05
 Coeff:      0.127D-03 0.677D-05-0.893D-03-0.195D-02 0.514D-02 0.265D-01
 Coeff:     -0.156D-01-0.214D+00 0.144D-01 0.119D+01
 Gap=     0.361 Goal=   None    Shift=    0.000
 RMSDP=5.83D-09 MaxDP=5.18D-07 DE=-2.32D-11 OVMax= 3.44D-07

 SCF Done:  E(RHF) =  -1613.19000811     A.U. after   16 cycles
            NFock= 16  Conv=0.58D-08     -V/T= 2.0010
 KE= 1.611525666119D+03 PE=-7.590756896570D+03 EE= 2.473026987180D+03
 Leave Link  502 at Tue Sep 22 02:38:17 2020, MaxMem=   262144000 cpu:            5025.3 elap:            1256.4
 (Enter /prod/apps/gaussian/g16b1/l801.exe)
 ExpMin= 2.97D-02 ExpMax= 1.11D+05 ExpMxC= 1.07D+03 IAcc=3 IRadAn=         5 AccDes= 0.00D+00
 HarFok:  IExCor=  205 AccDes= 0.00D+00 IRadAn=         5 IDoV=-2 UseB2=F ITyADJ=14
 ICtDFT= 12500011 ScaDFX=  1.000000  1.000000  1.000000  1.000000
 GSVD:  LWork=        -945 too small for GESVD, short by        4050 words or        4050 for optimal perf.
 Largest valence mixing into a core orbital is  3.56D-04
 Largest core mixing into a valence orbital is  9.49D-05
 Range of M.O.s used for correlation:    28   598
 NBasis=   598 NAE=    80 NBE=    80 NFC=    27 NFV=     0
 NROrb=    571 NOA=    53 NOB=    53 NVA=   518 NVB=   518

 **** Warning!!: The largest alpha MO coefficient is  0.10400960D+03

 Leave Link  801 at Tue Sep 22 02:38:17 2020, MaxMem=   262144000 cpu:               1.1 elap:               0.3
 (Enter /prod/apps/gaussian/g16b1/l906.exe)
 FulOut=F Deriv=F AODrv=F NAtomX=    36
   MMem=           3  MDisk=          53 MDiskD=          53
  W3Min=    17460744 MinDsk=    17709706 NBas6D=         636
 NBas2D=      203415    NTT=      202566    LW2=     2000000
    MDV=   259538004 MDiskM=        5624 NBas2p=      188132
 Disk-based method using OVN memory for 53 occupieds at a time.
 Estimated scratch disk usage= 15754107704 words.
 IMap=   1   2   3   4   5   6   7   8   9  10  11  12  13  14  15  16  17  18  19  20
 IMap=  21  22  23  24  25  26  27  28  29  30  31  32  33  34  35  36  37  38  39  40
 IMap=  41  42  43  44  45  46  47  48  49  50  51  52  53
 Actual    scratch disk usage= 15535447352 words.
 JobTyp=1 Pass  1:  I=   1 to  53 NPSUse=  4 ParTrn=T ParDer=T DoDerP=F.
Erroneous write. Write -1 instead of 7358464.
fd = 4
orig len = 8384512 left = 7358464
g_write
