 Entering Gaussian System, Link 0=g16
 Initial command:
 /prod/apps/gaussian/g16b1/l1.exe "/tmp/ubafar01/1459134/Gau-19005.inp" -scrdir="/tmp/ubafar01/1459134/"
 Entering Link 1 = /prod/apps/gaussian/g16b1/l1.exe PID=     19006.
  
 Copyright (c) 1988-2017, Gaussian, Inc.  All Rights Reserved.
  
 This is part of the Gaussian(R) 16 program.  It is based on
 the Gaussian(R) 09 system (copyright 2009, Gaussian, Inc.),
 the Gaussian(R) 03 system (copyright 2003, Gaussian, Inc.),
 the Gaussian(R) 98 system (copyright 1998, Gaussian, Inc.),
 the Gaussian(R) 94 system (copyright 1995, Gaussian, Inc.),
 the Gaussian 92(TM) system (copyright 1992, Gaussian, Inc.),
 the Gaussian 90(TM) system (copyright 1990, Gaussian, Inc.),
 the Gaussian 88(TM) system (copyright 1988, Gaussian, Inc.),
 the Gaussian 86(TM) system (copyright 1986, Carnegie Mellon
 University), and the Gaussian 82(TM) system (copyright 1983,
 Carnegie Mellon University). Gaussian is a federally registered
 trademark of Gaussian, Inc.
  
 This software contains proprietary and confidential information,
 including trade secrets, belonging to Gaussian, Inc.
  
 This software is provided under written license and may be
 used, copied, transmitted, or stored only in accord with that
 written license.
  
 The following legend is applicable only to US Government
 contracts under FAR:
  
                    RESTRICTED RIGHTS LEGEND
  
 Use, reproduction and disclosure by the US Government is
 subject to restrictions as set forth in subparagraphs (a)
 and (c) of the Commercial Computer Software - Restricted
 Rights clause in FAR 52.227-19.
  
 Gaussian, Inc.
 340 Quinnipiac St., Bldg. 40, Wallingford CT 06492
  
  
 ---------------------------------------------------------------
 Warning -- This program may not be used in any manner that
 competes with the business of Gaussian, Inc. or will provide
 assistance to any competitor of Gaussian, Inc.  The licensee
 of this program is prohibited from giving any competitor of
 Gaussian, Inc. access to this program.  By using this program,
 the user acknowledges that Gaussian, Inc. is engaged in the
 business of creating and licensing software in the field of
 computational chemistry and represents and warrants to the
 licensee that it is not a competitor of Gaussian, Inc. and that
 it will not use this program in any manner prohibited above.
 ---------------------------------------------------------------
  

 Cite this work as:
 Gaussian 16, Revision B.01,
 M. J. Frisch, G. W. Trucks, H. B. Schlegel, G. E. Scuseria, 
 M. A. Robb, J. R. Cheeseman, G. Scalmani, V. Barone, 
 G. A. Petersson, H. Nakatsuji, X. Li, M. Caricato, A. V. Marenich, 
 J. Bloino, B. G. Janesko, R. Gomperts, B. Mennucci, H. P. Hratchian, 
 J. V. Ortiz, A. F. Izmaylov, J. L. Sonnenberg, D. Williams-Young, 
 F. Ding, F. Lipparini, F. Egidi, J. Goings, B. Peng, A. Petrone, 
 T. Henderson, D. Ranasinghe, V. G. Zakrzewski, J. Gao, N. Rega, 
 G. Zheng, W. Liang, M. Hada, M. Ehara, K. Toyota, R. Fukuda, 
 J. Hasegawa, M. Ishida, T. Nakajima, Y. Honda, O. Kitao, H. Nakai, 
 T. Vreven, K. Throssell, J. A. Montgomery, Jr., J. E. Peralta, 
 F. Ogliaro, M. J. Bearpark, J. J. Heyd, E. N. Brothers, K. N. Kudin, 
 V. N. Staroverov, T. A. Keith, R. Kobayashi, J. Normand, 
 K. Raghavachari, A. P. Rendell, J. C. Burant, S. S. Iyengar, 
 J. Tomasi, M. Cossi, J. M. Millam, M. Klene, C. Adamo, R. Cammi, 
 J. W. Ochterski, R. L. Martin, K. Morokuma, O. Farkas, 
 J. B. Foresman, and D. J. Fox, Gaussian, Inc., Wallingford CT, 2016.
 
 ******************************************
 Gaussian 16:  ES64L-G16RevB.01 20-Dec-2017
                15-Sep-2020 
 ******************************************
 %nproc=4
 Will use up to    4 processors via shared memory.
 %Chk=SM38_m0.n.13.pdb.xyz.mst.n.w.chk
 %mem=16GB
 ----------------------------------------------------------------------
 #p b3lyp/6-31G(d) opt freq NoSymm scf=(MaxCycle=2000,NoVarAcc,NoIncFoc
 k) scrf=(iefpcm,read,solvent=water) MaxDisk=20GB
 ----------------------------------------------------------------------
 1/18=20,19=15,26=3,38=1,40=2/1,3;
 2/9=110,12=2,15=1,17=6,18=5,40=1/2;
 3/5=1,6=6,7=1,11=2,25=1,30=1,70=2203,71=1,72=1,74=-5/1,2,3;
 4//1;
 5/5=100002,7=2000,38=1,53=1/2;
 6/7=2,8=2,9=2,10=2,28=1/1;
 7/30=1/1,2,3,16;
 1/18=20,19=15,26=3/3(2);
 2/9=110,15=1/2;
 99//99;
 2/9=110,15=1/2;
 3/5=1,6=6,7=1,11=2,25=1,30=1,70=2205,71=1,72=1,74=-5/1,2,3;
 4/5=5,16=3,69=1/1;
 5/5=100002,7=2000,38=1,53=1/2;
 7/30=1/1,2,3,16;
 1/18=20,19=15,26=3/3(-5);
 2/9=110,15=1/2;
 6/7=2,8=2,9=2,10=2,19=2,28=1/1;
 99/9=1/99;
 Leave Link    1 at Tue Sep 15 07:25:06 2020, MaxMem=  2147483648 cpu:               0.2 elap:               0.0
 (Enter /prod/apps/gaussian/g16b1/l101.exe)
 --------------------
 SM38_m0.n.13.pdb.xyz
 --------------------
 Symbolic Z-matrix:
 Charge =  0 Multiplicity = 1
 C                     0.443     3.329    -0.468 
 S                     1.817     2.305     0.076 
 N                     1.752     0.835    -0.725 
 C                     0.907    -0.307    -0.308 
 C                     1.454    -0.905     1.029 
 S                     2.41     -2.141     0.094 
 C                     1.33     -1.498    -1.23 
 O                     3.819    -1.741    -0.093 
 O                     2.13     -3.538     0.472 
 C                    -0.595     0.022    -0.315 
 C                    -1.557    -1.123     0.051 
 C                    -2.998    -0.658     0.053 
 C                    -3.757    -0.668    -1.125 
 C                    -5.078    -0.216    -1.128 
 C                    -5.661     0.254     0.051 
 C                    -4.914     0.268     1.231 
 C                    -3.594    -0.184     1.229 
 O                     3.047     2.957    -0.394 
 O                     1.649     2.023     1.51 
 H                     0.511     3.457    -1.548 
 H                     0.549     4.289     0.037 
 H                    -0.493     2.85     -0.191 
 H                     1.774     0.983    -1.735 
 H                     0.689    -1.417     1.611 
 H                     2.041    -0.234     1.649 
 H                     0.524    -2.207    -1.422 
 H                     1.852    -1.248    -2.152 
 H                    -0.848     0.4      -1.311 
 H                    -0.757     0.843     0.39 
 H                    -1.305    -1.514     1.041 
 H                    -1.445    -1.947    -0.66 
 H                    -3.313    -1.04     -2.044 
 H                    -5.652    -0.237    -2.049 
 H                    -6.689     0.603     0.051 
 H                    -5.361     0.627     2.153 
 H                    -3.019    -0.177     2.151 
 
 ITRead=  0  0  0  0  0  0  0  0  0  0  0  0  0  0  0  0  0  0  0  0
 ITRead=  0  0  0  0  0  0  0  0  0  0  0  0  0  0  0  0
 MicOpt= -1 -1 -1 -1 -1 -1 -1 -1 -1 -1 -1 -1 -1 -1 -1 -1 -1 -1 -1 -1
 MicOpt= -1 -1 -1 -1 -1 -1 -1 -1 -1 -1 -1 -1 -1 -1 -1 -1
 NAtoms=     36 NQM=       36 NQMF=       0 NMMI=      0 NMMIF=      0
                NMic=       0 NMicF=      0.
                    Isotopes and Nuclear Properties:
 (Nuclear quadrupole moments (NQMom) in fm**2, nuclear magnetic moments (NMagM)
  in nuclear magnetons)

  Atom         1           2           3           4           5           6           7           8           9          10
 IAtWgt=          12          32          14          12          12          32          12          16          16          12
 AtmWgt=  12.0000000  31.9720718  14.0030740  12.0000000  12.0000000  31.9720718  12.0000000  15.9949146  15.9949146  12.0000000
 NucSpn=           0           0           2           0           0           0           0           0           0           0
 AtZEff=  -0.0000000  -0.0000000  -0.0000000  -0.0000000  -0.0000000  -0.0000000  -0.0000000  -0.0000000  -0.0000000  -0.0000000
 NQMom=    0.0000000   0.0000000   2.0440000   0.0000000   0.0000000   0.0000000   0.0000000   0.0000000   0.0000000   0.0000000
 NMagM=    0.0000000   0.0000000   0.4037610   0.0000000   0.0000000   0.0000000   0.0000000   0.0000000   0.0000000   0.0000000
 AtZNuc=   6.0000000  16.0000000   7.0000000   6.0000000   6.0000000  16.0000000   6.0000000   8.0000000   8.0000000   6.0000000

  Atom        11          12          13          14          15          16          17          18          19          20
 IAtWgt=          12          12          12          12          12          12          12          16          16           1
 AtmWgt=  12.0000000  12.0000000  12.0000000  12.0000000  12.0000000  12.0000000  12.0000000  15.9949146  15.9949146   1.0078250
 NucSpn=           0           0           0           0           0           0           0           0           0           1
 AtZEff=  -0.0000000  -0.0000000  -0.0000000  -0.0000000  -0.0000000  -0.0000000  -0.0000000  -0.0000000  -0.0000000  -0.0000000
 NQMom=    0.0000000   0.0000000   0.0000000   0.0000000   0.0000000   0.0000000   0.0000000   0.0000000   0.0000000   0.0000000
 NMagM=    0.0000000   0.0000000   0.0000000   0.0000000   0.0000000   0.0000000   0.0000000   0.0000000   0.0000000   2.7928460
 AtZNuc=   6.0000000   6.0000000   6.0000000   6.0000000   6.0000000   6.0000000   6.0000000   8.0000000   8.0000000   1.0000000

  Atom        21          22          23          24          25          26          27          28          29          30
 IAtWgt=           1           1           1           1           1           1           1           1           1           1
 AtmWgt=   1.0078250   1.0078250   1.0078250   1.0078250   1.0078250   1.0078250   1.0078250   1.0078250   1.0078250   1.0078250
 NucSpn=           1           1           1           1           1           1           1           1           1           1
 AtZEff=  -0.0000000  -0.0000000  -0.0000000  -0.0000000  -0.0000000  -0.0000000  -0.0000000  -0.0000000  -0.0000000  -0.0000000
 NQMom=    0.0000000   0.0000000   0.0000000   0.0000000   0.0000000   0.0000000   0.0000000   0.0000000   0.0000000   0.0000000
 NMagM=    2.7928460   2.7928460   2.7928460   2.7928460   2.7928460   2.7928460   2.7928460   2.7928460   2.7928460   2.7928460
 AtZNuc=   1.0000000   1.0000000   1.0000000   1.0000000   1.0000000   1.0000000   1.0000000   1.0000000   1.0000000   1.0000000

  Atom        31          32          33          34          35          36
 IAtWgt=           1           1           1           1           1           1
 AtmWgt=   1.0078250   1.0078250   1.0078250   1.0078250   1.0078250   1.0078250
 NucSpn=           1           1           1           1           1           1
 AtZEff=  -0.0000000  -0.0000000  -0.0000000  -0.0000000  -0.0000000  -0.0000000
 NQMom=    0.0000000   0.0000000   0.0000000   0.0000000   0.0000000   0.0000000
 NMagM=    2.7928460   2.7928460   2.7928460   2.7928460   2.7928460   2.7928460
 AtZNuc=   1.0000000   1.0000000   1.0000000   1.0000000   1.0000000   1.0000000
 Leave Link  101 at Tue Sep 15 07:25:06 2020, MaxMem=  2147483648 cpu:               1.3 elap:               0.3
 (Enter /prod/apps/gaussian/g16b1/l103.exe)

 GradGradGradGradGradGradGradGradGradGradGradGradGradGradGradGradGradGrad
 Berny optimization.
 Initialization pass.
                           ----------------------------
                           !    Initial Parameters    !
                           ! (Angstroms and Degrees)  !
 --------------------------                            --------------------------
 ! Name  Definition              Value          Derivative Info.                !
 --------------------------------------------------------------------------------
 ! R1    R(1,2)                  1.7979         estimate D2E/DX2                !
 ! R2    R(1,20)                 1.0897         estimate D2E/DX2                !
 ! R3    R(1,21)                 1.0899         estimate D2E/DX2                !
 ! R4    R(1,22)                 1.0873         estimate D2E/DX2                !
 ! R5    R(2,3)                  1.6753         estimate D2E/DX2                !
 ! R6    R(2,18)                 1.4693         estimate D2E/DX2                !
 ! R7    R(2,19)                 1.4711         estimate D2E/DX2                !
 ! R8    R(3,4)                  1.4806         estimate D2E/DX2                !
 ! R9    R(3,23)                 1.021          estimate D2E/DX2                !
 ! R10   R(4,5)                  1.5635         estimate D2E/DX2                !
 ! R11   R(4,7)                  1.5644         estimate D2E/DX2                !
 ! R12   R(4,10)                 1.5376         estimate D2E/DX2                !
 ! R13   R(5,6)                  1.8209         estimate D2E/DX2                !
 ! R14   R(5,24)                 1.0891         estimate D2E/DX2                !
 ! R15   R(5,25)                 1.0859         estimate D2E/DX2                !
 ! R16   R(6,7)                  1.8256         estimate D2E/DX2                !
 ! R17   R(6,8)                  1.4766         estimate D2E/DX2                !
 ! R18   R(6,9)                  1.4741         estimate D2E/DX2                !
 ! R19   R(7,26)                 1.0905         estimate D2E/DX2                !
 ! R20   R(7,27)                 1.0886         estimate D2E/DX2                !
 ! R21   R(10,11)                1.5396         estimate D2E/DX2                !
 ! R22   R(10,28)                1.0949         estimate D2E/DX2                !
 ! R23   R(10,29)                1.0942         estimate D2E/DX2                !
 ! R24   R(11,12)                1.5142         estimate D2E/DX2                !
 ! R25   R(11,30)                1.0938         estimate D2E/DX2                !
 ! R26   R(11,31)                1.0941         estimate D2E/DX2                !
 ! R27   R(12,13)                1.4014         estimate D2E/DX2                !
 ! R28   R(12,17)                1.401          estimate D2E/DX2                !
 ! R29   R(13,14)                1.3962         estimate D2E/DX2                !
 ! R30   R(13,32)                1.0863         estimate D2E/DX2                !
 ! R31   R(14,15)                1.3967         estimate D2E/DX2                !
 ! R32   R(14,33)                1.0854         estimate D2E/DX2                !
 ! R33   R(15,16)                1.3966         estimate D2E/DX2                !
 ! R34   R(15,34)                1.0856         estimate D2E/DX2                !
 ! R35   R(16,17)                1.3952         estimate D2E/DX2                !
 ! R36   R(16,35)                1.0857         estimate D2E/DX2                !
 ! R37   R(17,36)                1.0866         estimate D2E/DX2                !
 ! A1    A(2,1,20)             108.6086         estimate D2E/DX2                !
 ! A2    A(2,1,21)             106.6876         estimate D2E/DX2                !
 ! A3    A(2,1,22)             109.2617         estimate D2E/DX2                !
 ! A4    A(20,1,21)            110.4688         estimate D2E/DX2                !
 ! A5    A(20,1,22)            110.9748         estimate D2E/DX2                !
 ! A6    A(21,1,22)            110.7146         estimate D2E/DX2                !
 ! A7    A(1,2,3)              108.9919         estimate D2E/DX2                !
 ! A8    A(1,2,18)             106.8717         estimate D2E/DX2                !
 ! A9    A(1,2,19)             108.4728         estimate D2E/DX2                !
 ! A10   A(3,2,18)             105.5987         estimate D2E/DX2                !
 ! A11   A(3,2,19)             107.0634         estimate D2E/DX2                !
 ! A12   A(18,2,19)            119.5033         estimate D2E/DX2                !
 ! A13   A(2,3,4)              124.352          estimate D2E/DX2                !
 ! A14   A(2,3,23)             110.1775         estimate D2E/DX2                !
 ! A15   A(4,3,23)             113.7478         estimate D2E/DX2                !
 ! A16   A(3,4,5)              109.6454         estimate D2E/DX2                !
 ! A17   A(3,4,7)              105.4799         estimate D2E/DX2                !
 ! A18   A(3,4,10)             113.0282         estimate D2E/DX2                !
 ! A19   A(5,4,7)               96.7884         estimate D2E/DX2                !
 ! A20   A(5,4,10)             115.3086         estimate D2E/DX2                !
 ! A21   A(7,4,10)             115.108          estimate D2E/DX2                !
 ! A22   A(4,5,6)               90.2408         estimate D2E/DX2                !
 ! A23   A(4,5,24)             113.02           estimate D2E/DX2                !
 ! A24   A(4,5,25)             116.1697         estimate D2E/DX2                !
 ! A25   A(6,5,24)             108.9091         estimate D2E/DX2                !
 ! A26   A(6,5,25)             115.3907         estimate D2E/DX2                !
 ! A27   A(24,5,25)            111.4128         estimate D2E/DX2                !
 ! A28   A(5,6,7)               79.7895         estimate D2E/DX2                !
 ! A29   A(5,6,8)              112.4656         estimate D2E/DX2                !
 ! A30   A(5,6,9)              114.3232         estimate D2E/DX2                !
 ! A31   A(7,6,8)              112.1636         estimate D2E/DX2                !
 ! A32   A(7,6,9)              114.0416         estimate D2E/DX2                !
 ! A33   A(8,6,9)              118.0647         estimate D2E/DX2                !
 ! A34   A(4,7,6)               90.0386         estimate D2E/DX2                !
 ! A35   A(4,7,26)             113.5084         estimate D2E/DX2                !
 ! A36   A(4,7,27)             116.9986         estimate D2E/DX2                !
 ! A37   A(6,7,26)             109.6299         estimate D2E/DX2                !
 ! A38   A(6,7,27)             114.2965         estimate D2E/DX2                !
 ! A39   A(26,7,27)            110.7692         estimate D2E/DX2                !
 ! A40   A(4,10,11)            116.7531         estimate D2E/DX2                !
 ! A41   A(4,10,28)            107.6809         estimate D2E/DX2                !
 ! A42   A(4,10,29)            107.5915         estimate D2E/DX2                !
 ! A43   A(11,10,28)           109.184          estimate D2E/DX2                !
 ! A44   A(11,10,29)           108.1996         estimate D2E/DX2                !
 ! A45   A(28,10,29)           107.0281         estimate D2E/DX2                !
 ! A46   A(10,11,12)           111.5038         estimate D2E/DX2                !
 ! A47   A(10,11,30)           109.6968         estimate D2E/DX2                !
 ! A48   A(10,11,31)           109.9776         estimate D2E/DX2                !
 ! A49   A(12,11,30)           109.137          estimate D2E/DX2                !
 ! A50   A(12,11,31)           109.2425         estimate D2E/DX2                !
 ! A51   A(30,11,31)           107.1794         estimate D2E/DX2                !
 ! A52   A(11,12,13)           120.8061         estimate D2E/DX2                !
 ! A53   A(11,12,17)           120.6541         estimate D2E/DX2                !
 ! A54   A(13,12,17)           118.5288         estimate D2E/DX2                !
 ! A55   A(12,13,14)           120.7929         estimate D2E/DX2                !
 ! A56   A(12,13,32)           119.4857         estimate D2E/DX2                !
 ! A57   A(14,13,32)           119.7194         estimate D2E/DX2                !
 ! A58   A(13,14,15)           120.1358         estimate D2E/DX2                !
 ! A59   A(13,14,33)           119.7293         estimate D2E/DX2                !
 ! A60   A(15,14,33)           120.1339         estimate D2E/DX2                !
 ! A61   A(14,15,16)           119.5581         estimate D2E/DX2                !
 ! A62   A(14,15,34)           120.2269         estimate D2E/DX2                !
 ! A63   A(16,15,34)           120.2147         estimate D2E/DX2                !
 ! A64   A(15,16,17)           120.1027         estimate D2E/DX2                !
 ! A65   A(15,16,35)           120.0393         estimate D2E/DX2                !
 ! A66   A(17,16,35)           119.8575         estimate D2E/DX2                !
 ! A67   A(12,17,16)           120.8817         estimate D2E/DX2                !
 ! A68   A(12,17,36)           119.2939         estimate D2E/DX2                !
 ! A69   A(16,17,36)           119.8228         estimate D2E/DX2                !
 ! D1    D(20,1,2,3)           -58.1998         estimate D2E/DX2                !
 ! D2    D(20,1,2,18)           55.4754         estimate D2E/DX2                !
 ! D3    D(20,1,2,19)         -174.4414         estimate D2E/DX2                !
 ! D4    D(21,1,2,3)          -177.2875         estimate D2E/DX2                !
 ! D5    D(21,1,2,18)          -63.6123         estimate D2E/DX2                !
 ! D6    D(21,1,2,19)           66.471          estimate D2E/DX2                !
 ! D7    D(22,1,2,3)            62.9823         estimate D2E/DX2                !
 ! D8    D(22,1,2,18)          176.6575         estimate D2E/DX2                !
 ! D9    D(22,1,2,19)          -53.2593         estimate D2E/DX2                !
 ! D10   D(1,2,3,4)            -82.9904         estimate D2E/DX2                !
 ! D11   D(1,2,3,23)            57.4399         estimate D2E/DX2                !
 ! D12   D(18,2,3,4)           162.5053         estimate D2E/DX2                !
 ! D13   D(18,2,3,23)          -57.0644         estimate D2E/DX2                !
 ! D14   D(19,2,3,4)            34.1496         estimate D2E/DX2                !
 ! D15   D(19,2,3,23)          174.5799         estimate D2E/DX2                !
 ! D16   D(2,3,4,5)            -69.166          estimate D2E/DX2                !
 ! D17   D(2,3,4,7)           -172.4099         estimate D2E/DX2                !
 ! D18   D(2,3,4,10)            60.9962         estimate D2E/DX2                !
 ! D19   D(23,3,4,5)           151.6198         estimate D2E/DX2                !
 ! D20   D(23,3,4,7)            48.3759         estimate D2E/DX2                !
 ! D21   D(23,3,4,10)          -78.2181         estimate D2E/DX2                !
 ! D22   D(3,4,5,6)            -94.7439         estimate D2E/DX2                !
 ! D23   D(3,4,5,24)           154.5303         estimate D2E/DX2                !
 ! D24   D(3,4,5,25)            23.9305         estimate D2E/DX2                !
 ! D25   D(7,4,5,6)             14.3969         estimate D2E/DX2                !
 ! D26   D(7,4,5,24)           -96.3289         estimate D2E/DX2                !
 ! D27   D(7,4,5,25)           133.0714         estimate D2E/DX2                !
 ! D28   D(10,4,5,6)           136.3336         estimate D2E/DX2                !
 ! D29   D(10,4,5,24)           25.6078         estimate D2E/DX2                !
 ! D30   D(10,4,5,25)         -104.992          estimate D2E/DX2                !
 ! D31   D(3,4,7,6)             98.2399         estimate D2E/DX2                !
 ! D32   D(3,4,7,26)          -150.2513         estimate D2E/DX2                !
 ! D33   D(3,4,7,27)           -19.2846         estimate D2E/DX2                !
 ! D34   D(5,4,7,6)            -14.3593         estimate D2E/DX2                !
 ! D35   D(5,4,7,26)            97.1495         estimate D2E/DX2                !
 ! D36   D(5,4,7,27)          -131.8838         estimate D2E/DX2                !
 ! D37   D(10,4,7,6)          -136.447          estimate D2E/DX2                !
 ! D38   D(10,4,7,26)          -24.9382         estimate D2E/DX2                !
 ! D39   D(10,4,7,27)          106.0285         estimate D2E/DX2                !
 ! D40   D(3,4,10,11)          177.6388         estimate D2E/DX2                !
 ! D41   D(3,4,10,28)           54.4817         estimate D2E/DX2                !
 ! D42   D(3,4,10,29)          -60.5745         estimate D2E/DX2                !
 ! D43   D(5,4,10,11)          -55.1255         estimate D2E/DX2                !
 ! D44   D(5,4,10,28)         -178.2826         estimate D2E/DX2                !
 ! D45   D(5,4,10,29)           66.6611         estimate D2E/DX2                !
 ! D46   D(7,4,10,11)           56.343          estimate D2E/DX2                !
 ! D47   D(7,4,10,28)          -66.8141         estimate D2E/DX2                !
 ! D48   D(7,4,10,29)          178.1297         estimate D2E/DX2                !
 ! D49   D(4,5,6,7)            -12.4144         estimate D2E/DX2                !
 ! D50   D(4,5,6,8)             97.4822         estimate D2E/DX2                !
 ! D51   D(4,5,6,9)           -124.3068         estimate D2E/DX2                !
 ! D52   D(24,5,6,7)           102.0926         estimate D2E/DX2                !
 ! D53   D(24,5,6,8)          -148.0109         estimate D2E/DX2                !
 ! D54   D(24,5,6,9)            -9.7998         estimate D2E/DX2                !
 ! D55   D(25,5,6,7)          -131.7672         estimate D2E/DX2                !
 ! D56   D(25,5,6,8)           -21.8707         estimate D2E/DX2                !
 ! D57   D(25,5,6,9)           116.3404         estimate D2E/DX2                !
 ! D58   D(5,6,7,4)             12.4062         estimate D2E/DX2                !
 ! D59   D(5,6,7,26)          -102.6645         estimate D2E/DX2                !
 ! D60   D(5,6,7,27)           132.2997         estimate D2E/DX2                !
 ! D61   D(8,6,7,4)            -97.8296         estimate D2E/DX2                !
 ! D62   D(8,6,7,26)           147.0997         estimate D2E/DX2                !
 ! D63   D(8,6,7,27)            22.0639         estimate D2E/DX2                !
 ! D64   D(9,6,7,4)            124.6108         estimate D2E/DX2                !
 ! D65   D(9,6,7,26)             9.5401         estimate D2E/DX2                !
 ! D66   D(9,6,7,27)          -115.4957         estimate D2E/DX2                !
 ! D67   D(4,10,11,12)         178.0591         estimate D2E/DX2                !
 ! D68   D(4,10,11,30)          57.042          estimate D2E/DX2                !
 ! D69   D(4,10,11,31)         -60.6            estimate D2E/DX2                !
 ! D70   D(28,10,11,12)        -59.5622         estimate D2E/DX2                !
 ! D71   D(28,10,11,30)        179.4207         estimate D2E/DX2                !
 ! D72   D(28,10,11,31)         61.7787         estimate D2E/DX2                !
 ! D73   D(29,10,11,12)         56.5913         estimate D2E/DX2                !
 ! D74   D(29,10,11,30)        -64.4259         estimate D2E/DX2                !
 ! D75   D(29,10,11,31)        177.9321         estimate D2E/DX2                !
 ! D76   D(10,11,12,13)         86.8553         estimate D2E/DX2                !
 ! D77   D(10,11,12,17)        -91.9219         estimate D2E/DX2                !
 ! D78   D(30,11,12,13)       -151.8015         estimate D2E/DX2                !
 ! D79   D(30,11,12,17)         29.4213         estimate D2E/DX2                !
 ! D80   D(31,11,12,13)        -34.9121         estimate D2E/DX2                !
 ! D81   D(31,11,12,17)        146.3108         estimate D2E/DX2                !
 ! D82   D(11,12,13,14)       -178.8078         estimate D2E/DX2                !
 ! D83   D(11,12,13,32)          1.7038         estimate D2E/DX2                !
 ! D84   D(17,12,13,14)         -0.0051         estimate D2E/DX2                !
 ! D85   D(17,12,13,32)       -179.4935         estimate D2E/DX2                !
 ! D86   D(11,12,17,16)        178.8453         estimate D2E/DX2                !
 ! D87   D(11,12,17,36)         -1.6067         estimate D2E/DX2                !
 ! D88   D(13,12,17,16)          0.0407         estimate D2E/DX2                !
 ! D89   D(13,12,17,36)        179.5887         estimate D2E/DX2                !
 ! D90   D(12,13,14,15)         -0.005          estimate D2E/DX2                !
 ! D91   D(12,13,14,33)       -179.6331         estimate D2E/DX2                !
 ! D92   D(32,13,14,15)        179.4822         estimate D2E/DX2                !
 ! D93   D(32,13,14,33)         -0.1459         estimate D2E/DX2                !
 ! D94   D(13,14,15,16)         -0.0199         estimate D2E/DX2                !
 ! D95   D(13,14,15,34)       -179.8147         estimate D2E/DX2                !
 ! D96   D(33,14,15,16)        179.6066         estimate D2E/DX2                !
 ! D97   D(33,14,15,34)         -0.1882         estimate D2E/DX2                !
 ! D98   D(14,15,16,17)          0.0551         estimate D2E/DX2                !
 ! D99   D(14,15,16,35)       -179.6906         estimate D2E/DX2                !
 ! D100  D(34,15,16,17)        179.85           estimate D2E/DX2                !
 ! D101  D(34,15,16,35)          0.1042         estimate D2E/DX2                !
 ! D102  D(15,16,17,12)         -0.0662         estimate D2E/DX2                !
 ! D103  D(15,16,17,36)       -179.6118         estimate D2E/DX2                !
 ! D104  D(35,16,17,12)        179.68           estimate D2E/DX2                !
 ! D105  D(35,16,17,36)          0.1344         estimate D2E/DX2                !
 --------------------------------------------------------------------------------
 Trust Radius=3.00D-01 FncErr=1.00D-07 GrdErr=1.00D-06 EigMax=2.50D+02 EigMin=1.00D-04
 Number of steps in this run=    216 maximum allowed number of steps=    216.
 GradGradGradGradGradGradGradGradGradGradGradGradGradGradGradGradGradGrad

 Leave Link  103 at Tue Sep 15 07:25:06 2020, MaxMem=  2147483648 cpu:               0.0 elap:               0.0
 (Enter /prod/apps/gaussian/g16b1/l202.exe)
                          Input orientation:                          
 ---------------------------------------------------------------------
 Center     Atomic      Atomic             Coordinates (Angstroms)
 Number     Number       Type             X           Y           Z
 ---------------------------------------------------------------------
      1          6           0        0.443000    3.329000   -0.468000
      2         16           0        1.817000    2.305000    0.076000
      3          7           0        1.752000    0.835000   -0.725000
      4          6           0        0.907000   -0.307000   -0.308000
      5          6           0        1.454000   -0.905000    1.029000
      6         16           0        2.410000   -2.141000    0.094000
      7          6           0        1.330000   -1.498000   -1.230000
      8          8           0        3.819000   -1.741000   -0.093000
      9          8           0        2.130000   -3.538000    0.472000
     10          6           0       -0.595000    0.022000   -0.315000
     11          6           0       -1.557000   -1.123000    0.051000
     12          6           0       -2.998000   -0.658000    0.053000
     13          6           0       -3.757000   -0.668000   -1.125000
     14          6           0       -5.078000   -0.216000   -1.128000
     15          6           0       -5.661000    0.254000    0.051000
     16          6           0       -4.914000    0.268000    1.231000
     17          6           0       -3.594000   -0.184000    1.229000
     18          8           0        3.047000    2.957000   -0.394000
     19          8           0        1.649000    2.023000    1.510000
     20          1           0        0.511000    3.457000   -1.548000
     21          1           0        0.549000    4.289000    0.037000
     22          1           0       -0.493000    2.850000   -0.191000
     23          1           0        1.774000    0.983000   -1.735000
     24          1           0        0.689000   -1.417000    1.611000
     25          1           0        2.041000   -0.234000    1.649000
     26          1           0        0.524000   -2.207000   -1.422000
     27          1           0        1.852000   -1.248000   -2.152000
     28          1           0       -0.848000    0.400000   -1.311000
     29          1           0       -0.757000    0.843000    0.390000
     30          1           0       -1.305000   -1.514000    1.041000
     31          1           0       -1.445000   -1.947000   -0.660000
     32          1           0       -3.313000   -1.040000   -2.044000
     33          1           0       -5.652000   -0.237000   -2.049000
     34          1           0       -6.689000    0.603000    0.051000
     35          1           0       -5.361000    0.627000    2.153000
     36          1           0       -3.019000   -0.177000    2.151000
 ---------------------------------------------------------------------
                    Distance matrix (angstroms):
                    1          2          3          4          5
     1  C    0.000000
     2  S    1.797884   0.000000
     3  N    2.828350   1.675329   0.000000
     4  C    3.668977   2.792508   1.480567   0.000000
     5  C    4.603247   3.368097   2.488558   1.563452   0.000000
     6  S    5.840020   4.485408   3.155994   2.405030   1.820949
     7  C    4.966623   4.050384   2.424046   1.564447   2.338826
     8  O    6.102696   4.517375   3.362691   3.253049   2.747909
     9  O    7.133390   5.864762   4.549596   3.541679   2.774872
    10  C    3.469453   3.344057   2.517435   1.537626   2.619936
    11  C    4.908122   4.809957   3.922425   2.620312   3.173347
    12  C    5.292267   5.653682   5.039527   3.937327   4.564416
    13  C    5.835037   6.430444   5.724342   4.748758   5.643616
    14  C    6.594245   7.439495   6.922132   6.041598   6.913349
    15  C    6.854473   7.754206   7.476116   6.601684   7.274819
    16  C    6.399513   7.126693   6.970149   6.048404   6.478283
    17  C    5.614120   6.066585   5.782404   4.757783   5.103150
    18  O    2.631478   1.469321   2.507882   3.903933   4.413346
    19  O    2.659428   1.471089   2.533215   3.047062   2.973646
    20  H    1.089683   2.381201   3.015343   3.982727   5.153370
    21  H    1.089890   2.354910   3.736037   4.622814   5.364767
    22  H    1.087321   2.388392   3.063561   3.455479   4.402185
    23  H    2.980028   2.242600   1.021023   2.110004   3.362535
    24  H    5.187222   4.181135   3.414435   2.227596   1.089079
    25  H    4.441876   2.995167   2.619572   2.262992   1.085914
    26  H    5.618182   4.926865   3.353738   2.235550   2.927030
    27  H    5.076423   4.193926   2.526899   2.275707   3.224099
    28  H    3.310041   3.557389   2.700485   2.141467   3.532397
    29  H    2.890737   2.976830   2.745609   2.139766   2.890043
    30  H    5.365374   5.026218   4.240496   2.858250   2.825439
    31  H    5.606923   5.409422   4.238462   2.888842   3.513216
    32  H    5.973230   6.480766   5.559641   4.621621   5.673257
    33  H    7.236362   8.170884   7.597459   6.786491   7.772744
    34  H    7.652834   8.674645   8.479769   7.658733   8.339005
    35  H    6.917865   7.658544   7.675996   6.798287   7.074929
    36  H    5.580022   5.818320   5.661975   4.634335   4.668683
                    6          7          8          9         10
     6  S    0.000000
     7  C    1.825603   0.000000
     8  O    1.476567   2.747169   0.000000
     9  O    1.474074   2.774600   2.530050   0.000000
    10  C    3.725034   2.617871   4.758240   4.551768   0.000000
    11  C    4.095761   3.180622   5.413320   4.427577   1.539618
    12  C    5.607801   4.591653   6.904035   5.896299   2.524328
    13  C    6.456592   5.155336   7.720889   6.741222   3.336232
    14  C    7.827455   6.535778   9.085893   8.096354   4.562335
    15  C    8.418962   7.320147   9.688713   8.675032   5.084500
    16  C    7.793396   6.939943   9.058385   8.042366   4.593952
    17  C    6.416081   5.658538   7.689246   6.677315   3.379404
    18  O    5.160767   4.847062   4.770512   6.616334   4.678101
    19  O    4.463527   4.472896   4.631005   5.677458   3.517124
    20  H    6.135142   5.032287   6.330805   7.458658   3.813496
    21  H    6.694137   5.975334   6.860809   7.996919   4.431696
    22  H    5.780892   4.827831   6.299224   6.937308   2.832554
    23  H    3.675475   2.570510   3.781318   5.043513   2.924394
    24  H    2.405682   2.913541   3.578476   2.805787   2.725592
    25  H    2.488139   3.223640   2.909793   3.508513   3.297170
    26  H    2.420663   1.090496   3.583353   2.817452   2.728745
    27  H    2.480590   1.088608   2.889917   3.493817   3.312896
    28  H    4.364089   2.890095   5.277148   5.249325   1.094947
    29  H    4.361394   3.529908   5.277321   5.247347   1.094217
    30  H    3.884735   3.478638   5.252891   4.027352   2.168440
    31  H    3.932833   2.868297   5.298455   4.073491   2.172208
    32  H    6.207735   4.736012   7.427195   6.495884   3.391874
    33  H    8.556489   7.142073   9.787124   8.821086   5.352297
    34  H    9.503851   8.388058  10.767225   9.751917   6.132565
    35  H    8.502338   7.792932   9.742912   8.734304   5.401093
    36  H    6.128832   5.664804   7.364773   6.373975   3.463601
                   11         12         13         14         15
    11  C    0.000000
    12  C    1.514170   0.000000
    13  C    2.535745   1.401380   0.000000
    14  C    3.822320   2.432391   1.396193   0.000000
    15  C    4.328850   2.814839   2.420388   1.396721   0.000000
    16  C    3.820567   2.432327   2.786661   2.413718   1.396641
    17  C    2.533530   1.401024   2.408763   2.785450   2.419094
    18  O    6.167758   7.057624   7.743991   8.753417   9.128718
    19  O    4.722757   5.559246   6.588592   7.564701   7.661210
    20  H    5.273502   5.639992   5.950662   6.701063   7.135096
    21  H    5.807338   6.087222   6.668113   7.301738   7.405776
    22  H    4.120120   4.317479   4.889006   5.594689   5.788437
    23  H    4.326730   5.353672   5.804297   6.982546   7.681176
    24  H    2.750373   4.073992   5.273861   6.496369   6.748951
    25  H    4.036029   5.302689   6.442068   7.641480   7.881152
    26  H    2.770441   4.120620   4.558913   5.952556   6.817659
    27  H    4.060802   5.360282   5.731667   7.080854   7.972100
    28  H    2.162696   2.757238   3.104432   4.278533   5.004131
    29  H    2.149436   2.718207   3.684881   4.700728   4.950864
    30  H    1.093840   2.138955   3.379286   4.541464   4.804234
    31  H    1.094094   2.140490   2.682799   4.051429   4.808802
    32  H    2.734858   2.154660   1.086315   2.152500   3.402435
    33  H    4.686579   3.411651   2.151874   1.085430   2.156655
    34  H    5.414471   3.900462   3.405149   2.157805   1.085627
    35  H    4.685224   3.412476   3.872354   3.399367   2.155814
    36  H    2.728069   2.152535   3.393803   3.872059   3.402341
                   16         17         18         19         20
    16  C    0.000000
    17  C    1.395245   0.000000
    18  O    8.558555   7.523489   0.000000
    19  O    6.799326   5.695512   2.540074   0.000000
    20  H    6.879185   6.149767   2.830726   3.564094   0.000000
    21  H    6.887557   6.212330   2.863562   2.917959   1.790501
    22  H    5.313572   4.564839   3.547430   2.857533   1.793855
    23  H    7.351036   6.242004   2.704716   3.409875   2.784028
    24  H    5.863210   4.473288   5.358364   3.572870   5.810924
    25  H    6.985610   5.650852   3.920251   2.295002   5.117147
    26  H    6.537268   5.298892   5.838596   5.268316   5.665416
    27  H    7.715031   6.497859   4.711753   4.914356   4.929515
    28  H    4.797035   3.785918   4.748701   4.102094   3.353848
    29  H    4.280018   3.131648   4.421998   2.904417   3.492372
    30  H    4.029455   2.654009   6.402263   4.632110   5.891657
    31  H    4.529467   3.360758   6.655677   5.481116   5.815298
    32  H    3.872943   3.394735   7.690781   6.828933   5.923850
    33  H    3.399716   3.870847   9.413462   8.430817   7.202722
    34  H    2.157603   3.403833  10.026417   8.582967   7.908357
    35  H    1.085714   2.152623   9.089036   7.176515   7.495778
    36  H    2.153010   1.086627   7.286655   5.200106   6.272915
                   21         22         23         24         25
    21  H    0.000000
    22  H    1.791220   0.000000
    23  H    3.945915   3.317968   0.000000
    24  H    5.920770   4.780336   4.258279   0.000000
    25  H    5.028135   4.395203   3.606083   1.796896   0.000000
    26  H    6.657877   5.303103   3.440432   3.138537   3.952855
    27  H    6.094908   5.112548   2.270976   3.942245   3.938466
    28  H    4.346612   2.717154   2.719292   3.768546   4.184480
    29  H    3.702048   2.106017   3.307746   2.947772   3.251740
    30  H    6.174151   4.606698   4.839569   2.076137   3.633701
    31  H    6.584037   4.912990   4.483580   3.161059   4.518633
    32  H    6.902452   5.149574   5.483209   5.432970   6.553869
    33  H    7.955405   6.292616   7.532096   7.415948   8.535658
    34  H    8.122526   6.595301   8.657746   7.806977   8.914431
    35  H    7.267448   5.842387   8.133358   6.408916   7.468932
    36  H    6.094651   4.585670   6.278491   3.946956   5.085160
                   26         27         28         29         30
    26  H    0.000000
    27  H    1.793367   0.000000
    28  H    2.948076   3.273100   0.000000
    29  H    3.771844   4.200110   1.760094   0.000000
    30  H    3.145133   4.498072   3.066618   2.505904   0.000000
    31  H    2.127253   3.685766   2.507712   3.059403   1.760821
    32  H    4.058490   5.170315   2.947391   4.000398   3.711329
    33  H    6.512834   7.572499   4.901921   5.574598   5.484090
    34  H    7.879924   9.012663   6.001128   5.946524   5.869348
    35  H    7.446167   8.606743   5.693680   4.934738   4.719275
    36  H    5.425871   6.587070   4.126938   3.042723   2.440792
                   31         32         33         34         35
    31  H    0.000000
    32  H    2.495502   0.000000
    33  H    4.748923   2.473005   0.000000
    34  H    5.874313   4.299517   2.488166   0.000000
    35  H    5.465666   4.958629   4.299765   2.486476   0.000000
    36  H    3.675880   4.292928   4.957448   4.299686   2.476163
                   36
    36  H    0.000000
 Symmetry turned off by external request.
 Stoichiometry    C12H17NO4S2
 Framework group  C1[X(C12H17NO4S2)]
 Deg. of freedom   102
 Full point group                 C1      NOp   1
 Rotational constants (GHZ):           0.4114077           0.1889469           0.1435968
 Leave Link  202 at Tue Sep 15 07:25:06 2020, MaxMem=  2147483648 cpu:               0.0 elap:               0.0
 (Enter /prod/apps/gaussian/g16b1/l301.exe)
 Standard basis: 6-31G(d) (6D, 7F)
 Ernie: Thresh=  0.10000D-02 Tol=  0.10000D-05 Strict=F.
   327 basis functions,   648 primitive gaussians,   327 cartesian basis functions
    80 alpha electrons       80 beta electrons
       nuclear repulsion energy      1821.3762388562 Hartrees.
 IExCor=  402 DFT=T Ex+Corr=B3LYP ExCW=0 ScaHFX=  0.200000
 ScaDFX=  0.800000  0.720000  1.000000  0.810000 ScalE2=  1.000000  1.000000
 IRadAn=      5 IRanWt=     -1 IRanGd=            0 ICorTp=0 IEmpDi=  4
 NAtoms=   36 NActive=   36 NUniq=   36 SFac= 1.00D+00 NAtFMM=   60 NAOKFM=F Big=F
 Integral buffers will be    131072 words long.
 Raffenetti 2 integral format.
 Two-electron integral symmetry is turned off.
 Using the following non-standard input for PCM:
 MSTModel=DFT cav
 --- end of non-standard input.
 MST model for solvation energy: B3LYP parametrization.
 MST cavity parameters:
 ISph   IAn     Re0     Alpha   Atom Type   QCorr
 ------------------------------------------------
   1      6     1.50     1.25      CH3        F
   2     16     1.75     1.25      S          F
   3      7     1.50     1.25      NH         F
   4      6     1.50     1.25      C          F
   5      6     1.50     1.25      CH2        F
   6     16     1.75     1.25      S          F
   7      6     1.50     1.25      CH2        F
   8      8     1.40     1.25      O          F
   9      8     1.40     1.25      O          F
  10      6     1.50     1.25      CH2        F
  11      6     1.50     1.25      CH2        F
  12      6     1.50     1.25      C          F
  13      6     1.50     1.25      CH         F
  14      6     1.50     1.25      CH         F
  15      6     1.50     1.25      CH         F
  16      6     1.50     1.25      CH         F
  17      6     1.50     1.25      CH         F
  18      8     1.40     1.25      O          F
  19      8     1.40     1.25      O          F
  20      1     1.20     1.25      CH3        F
  21      1     1.20     1.25      CH3        F
  22      1     1.20     1.25      CH3        F
  23      1     0.90     1.25      NH         F
  24      1     1.20     1.25      CH2        F
  25      1     1.20     1.25      CH2        F
  26      1     1.20     1.25      CH2        F
  27      1     1.20     1.25      CH2        F
  28      1     1.20     1.25      CH2        F
  29      1     1.20     1.25      CH2        F
  30      1     1.20     1.25      CH2        F
  31      1     1.20     1.25      CH2        F
  32      1     1.20     1.25      CH         F
  33      1     1.20     1.25      CH         F
  34      1     1.20     1.25      CH         F
  35      1     1.20     1.25      CH         F
  36      1     1.20     1.25      CH         F
 ------------------------------------------------------------------------------
 Polarizable Continuum Model (PCM)
 =================================
 Model                : PCM.
 Atomic radii         : MST.
 Polarization charges : Total charges.
 Charge compensation  : None.
 Solution method      : On-the-fly selection.
 Cavity type          : Scaled VdW (van der Waals Surface) (Alpha=1.250).
 Cavity algorithm     : GePol (No added spheres)
                        Default sphere list used, NSphG=   36.
                        Lebedev-Laikov grids with approx.  5.0 points / Ang**2.
                        Smoothing algorithm: York/Karplus (Gamma=1.0000).
                        Polarization charges: spherical gaussians, with
                                              point-specific exponents (IZeta= 3).
                        Self-potential: point-specific (ISelfS= 7).
                        Self-field    : sphere-specific E.n sum rule (ISelfD= 2).
 1st derivatives      : Analytical E(r).r(x)/FMM algorithm (CHGder, D1EAlg=3).
                        Cavity 1st derivative terms included.
 Solvent              : Water, Eps=  78.355300 Eps(inf)=   1.777849
 ------------------------------------------------------------------------------
 GePol: Number of generator spheres                  =      36
 GePol: Total number of spheres                      =      36
 GePol: Number of exposed spheres                    =      36 (100.00%)
 GePol: Number of points                             =    2564
 GePol: Average weight of points                     =       0.13
 GePol: Minimum weight of points                     =   0.88D-10
 GePol: Maximum weight of points                     =    0.22001
 GePol: Number of points with low weight             =     186
 GePol: Fraction of low-weight points (<1% of avg)   =       7.25%
 GePol: Cavity surface area                          =    343.672 Ang**2
 GePol: Cavity volume                                =    336.668 Ang**3
 PCM non-electrostatic energy =         0.0030366945 Hartrees.
 Nuclear repulsion after PCM non-electrostatic terms =     1821.3792755507 Hartrees.
 Leave Link  301 at Tue Sep 15 07:25:06 2020, MaxMem=  2147483648 cpu:               0.3 elap:               0.1
 (Enter /prod/apps/gaussian/g16b1/l302.exe)
 NPDir=0 NMtPBC=     1 NCelOv=     1 NCel=       1 NClECP=     1 NCelD=      1
         NCelK=      1 NCelE2=     1 NClLst=     1 CellRange=     0.0.
 One-electron integrals computed using PRISM.
 NBasis=   327 RedAO= T EigKep=  4.67D-04  NBF=   327
 NBsUse=   327 1.00D-06 EigRej= -1.00D+00 NBFU=   327
 Precomputing XC quadrature grid using
 IXCGrd= 4 IRadAn=           5 IRanWt=          -1 IRanGd=           0 AccXCQ= 0.00D+00.
 Generated NRdTot=       0 NPtTot=           0 NUsed=           0 NTot=          32
 NSgBfM=   326   326   326   326   326 MxSgAt=    36 MxSgA2=    36.
 Leave Link  302 at Tue Sep 15 07:25:07 2020, MaxMem=  2147483648 cpu:               1.8 elap:               0.5
 (Enter /prod/apps/gaussian/g16b1/l303.exe)
 DipDrv:  MaxL=1.
 Leave Link  303 at Tue Sep 15 07:25:07 2020, MaxMem=  2147483648 cpu:               0.1 elap:               0.1
 (Enter /prod/apps/gaussian/g16b1/l401.exe)
 ExpMin= 1.17D-01 ExpMax= 2.19D+04 ExpMxC= 3.30D+03 IAcc=3 IRadAn=         5 AccDes= 0.00D+00
 Harris functional with IExCor=  402 and IRadAn=       5 diagonalized for initial guess.
 HarFok:  IExCor=  402 AccDes= 0.00D+00 IRadAn=         5 IDoV= 1 UseB2=F ITyADJ=14
 ICtDFT=  3500011 ScaDFX=  1.000000  1.000000  1.000000  1.000000
 FoFCou: FMM=F IPFlag=           0 FMFlag=      100000 FMFlg1=           0
         NFxFlg=           0 DoJE=T BraDBF=F KetDBF=T FulRan=T
         wScrn=  0.000000 ICntrl=       500 IOpCl=  0 I1Cent=   200000004 NGrid=           0
         NMat0=    1 NMatS0=      1 NMatT0=    0 NMatD0=    1 NMtDS0=    0 NMtDT0=    0
 Symmetry not used in FoFCou.
 Harris En= -1619.48957112103    
 JPrj=0 DoOrth=F DoCkMO=F.
 Leave Link  401 at Tue Sep 15 07:25:09 2020, MaxMem=  2147483648 cpu:              10.2 elap:               2.6
 (Enter /prod/apps/gaussian/g16b1/l502.exe)
 Two-electron integral symmetry not used.
 Closed shell SCF:
 Using DIIS extrapolation, IDIIS=  1040.
 NGot=  2147483648 LenX=  2147264911 LenY=  2147157541
 Requested convergence on RMS density matrix=1.00D-08 within2000 cycles.
 Requested convergence on MAX density matrix=1.00D-06.
 Requested convergence on             energy=1.00D-06.
 No special actions if energy rises.

 Cycle   1  Pass 1  IDiag  1:
 FoFJK:  IHMeth= 1 ICntrl=       0 DoSepK=F KAlg= 0 I1Cent=           0 FoldK=F
 IRaf= 800000000 NMat=       1 IRICut=       1 DoRegI=T DoRafI=F ISym2E= 0 IDoP0=0 IntGTp=1.
 FoFCou: FMM=F IPFlag=           0 FMFlag=      100000 FMFlg1=           0
         NFxFlg=           0 DoJE=F BraDBF=F KetDBF=F FulRan=T
         wScrn=  0.000000 ICntrl=         0 IOpCl=  0 I1Cent=           0 NGrid=           0
         NMat0=    1 NMatS0=      1 NMatT0=    0 NMatD0=    1 NMtDS0=    0 NMtDT0=    0
 Symmetry not used in FoFCou.
 Inv3:  Mode=1 IEnd=    19722288.
 Iteration    1 A*A^-1 deviation from unit magnitude is 3.11D-15 for    990.
 Iteration    1 A*A^-1 deviation from orthogonality  is 2.89D-15 for   2348    488.
 Iteration    1 A^-1*A deviation from unit magnitude is 3.11D-15 for   1535.
 Iteration    1 A^-1*A deviation from orthogonality  is 1.62D-14 for   2351   2348.
 E= -1618.65474016111    
 DIIS: error= 3.69D-02 at cycle   1 NSaved=   1.
 NSaved= 1 IEnMin= 1 EnMin= -1618.65474016111     IErMin= 1 ErrMin= 3.69D-02
 ErrMax= 3.69D-02  0.00D+00 EMaxC= 1.00D-01 BMatC= 9.09D-01 BMatP= 9.09D-01
 IDIUse=3 WtCom= 6.31D-01 WtEn= 3.69D-01
 Coeff-Com:  0.100D+01
 Coeff-En:   0.100D+01
 Coeff:      0.100D+01
 Gap=     0.345 Goal=   None    Shift=    0.000
 GapD=    0.345 DampG=1.000 DampE=0.500 DampFc=0.5000 IDamp=-1.
 Damping current iteration by 5.00D-01
 RMSDP=6.94D-03 MaxDP=5.42D-01              OVMax= 2.21D-01

 Cycle   2  Pass 1  IDiag  1:
 E= -1618.86922483610     Delta-E=       -0.214484674995 Rises=F Damp=T
 DIIS: error= 1.40D-02 at cycle   2 NSaved=   2.
 NSaved= 2 IEnMin= 2 EnMin= -1618.86922483610     IErMin= 2 ErrMin= 1.40D-02
 ErrMax= 1.40D-02  0.00D+00 EMaxC= 1.00D-01 BMatC= 1.13D-01 BMatP= 9.09D-01
 IDIUse=3 WtCom= 8.60D-01 WtEn= 1.40D-01
 Coeff-Com:  0.213D+00 0.787D+00
 Coeff-En:   0.343D+00 0.657D+00
 Coeff:      0.231D+00 0.769D+00
 Gap=     0.273 Goal=   None    Shift=    0.000
 RMSDP=1.83D-03 MaxDP=1.11D-01 DE=-2.14D-01 OVMax= 1.68D-01

 Cycle   3  Pass 1  IDiag  1:
 E= -1619.36314478647     Delta-E=       -0.493919950369 Rises=F Damp=F
 DIIS: error= 9.83D-03 at cycle   3 NSaved=   3.
 NSaved= 3 IEnMin= 3 EnMin= -1619.36314478647     IErMin= 3 ErrMin= 9.83D-03
 ErrMax= 9.83D-03  0.00D+00 EMaxC= 1.00D-01 BMatC= 5.98D-02 BMatP= 1.13D-01
 IDIUse=3 WtCom= 9.02D-01 WtEn= 9.83D-02
 Coeff-Com:  0.777D-01 0.434D+00 0.489D+00
 Coeff-En:   0.000D+00 0.000D+00 0.100D+01
 Coeff:      0.700D-01 0.391D+00 0.539D+00
 Gap=     0.242 Goal=   None    Shift=    0.000
 RMSDP=1.01D-03 MaxDP=2.77D-02 DE=-4.94D-01 OVMax= 6.01D-02

 Cycle   4  Pass 1  IDiag  1:
 E= -1619.41128752054     Delta-E=       -0.048142734071 Rises=F Damp=F
 DIIS: error= 2.96D-03 at cycle   4 NSaved=   4.
 NSaved= 4 IEnMin= 4 EnMin= -1619.41128752054     IErMin= 4 ErrMin= 2.96D-03
 ErrMax= 2.96D-03  0.00D+00 EMaxC= 1.00D-01 BMatC= 7.45D-03 BMatP= 5.98D-02
 IDIUse=3 WtCom= 9.70D-01 WtEn= 2.96D-02
 Coeff-Com:  0.389D-02 0.647D-01 0.275D+00 0.656D+00
 Coeff-En:   0.000D+00 0.000D+00 0.914D-01 0.909D+00
 Coeff:      0.377D-02 0.628D-01 0.269D+00 0.664D+00
 Gap=     0.241 Goal=   None    Shift=    0.000
 RMSDP=3.15D-04 MaxDP=1.16D-02 DE=-4.81D-02 OVMax= 2.19D-02

 Cycle   5  Pass 1  IDiag  1:
 E= -1619.41747378779     Delta-E=       -0.006186267246 Rises=F Damp=F
 DIIS: error= 8.43D-04 at cycle   5 NSaved=   5.
 NSaved= 5 IEnMin= 5 EnMin= -1619.41747378779     IErMin= 5 ErrMin= 8.43D-04
 ErrMax= 8.43D-04  0.00D+00 EMaxC= 1.00D-01 BMatC= 5.12D-04 BMatP= 7.45D-03
 IDIUse=3 WtCom= 9.92D-01 WtEn= 8.43D-03
 Coeff-Com: -0.183D-02 0.134D-01 0.114D+00 0.346D+00 0.528D+00
 Coeff-En:   0.000D+00 0.000D+00 0.000D+00 0.000D+00 0.100D+01
 Coeff:     -0.182D-02 0.133D-01 0.113D+00 0.343D+00 0.532D+00
 Gap=     0.241 Goal=   None    Shift=    0.000
 RMSDP=8.95D-05 MaxDP=5.01D-03 DE=-6.19D-03 OVMax= 5.04D-03

 Cycle   6  Pass 1  IDiag  1:
 E= -1619.41792165207     Delta-E=       -0.000447864279 Rises=F Damp=F
 DIIS: error= 2.64D-04 at cycle   6 NSaved=   6.
 NSaved= 6 IEnMin= 6 EnMin= -1619.41792165207     IErMin= 6 ErrMin= 2.64D-04
 ErrMax= 2.64D-04  0.00D+00 EMaxC= 1.00D-01 BMatC= 3.82D-05 BMatP= 5.12D-04
 IDIUse=3 WtCom= 9.97D-01 WtEn= 2.64D-03
 Coeff-Com: -0.120D-02 0.226D-02 0.378D-01 0.125D+00 0.279D+00 0.556D+00
 Coeff-En:   0.000D+00 0.000D+00 0.000D+00 0.000D+00 0.000D+00 0.100D+01
 Coeff:     -0.119D-02 0.226D-02 0.377D-01 0.125D+00 0.279D+00 0.558D+00
 Gap=     0.241 Goal=   None    Shift=    0.000
 RMSDP=2.21D-05 MaxDP=1.07D-03 DE=-4.48D-04 OVMax= 1.13D-03

 Cycle   7  Pass 1  IDiag  1:
 E= -1619.41795089181     Delta-E=       -0.000029239736 Rises=F Damp=F
 DIIS: error= 9.71D-05 at cycle   7 NSaved=   7.
 NSaved= 7 IEnMin= 7 EnMin= -1619.41795089181     IErMin= 7 ErrMin= 9.71D-05
 ErrMax= 9.71D-05  0.00D+00 EMaxC= 1.00D-01 BMatC= 4.15D-06 BMatP= 3.82D-05
 IDIUse=1 WtCom= 1.00D+00 WtEn= 0.00D+00
 Coeff-Com: -0.506D-03-0.532D-04 0.100D-01 0.357D-01 0.106D+00 0.313D+00
 Coeff-Com:  0.536D+00
 Coeff:     -0.506D-03-0.532D-04 0.100D-01 0.357D-01 0.106D+00 0.313D+00
 Coeff:      0.536D+00
 Gap=     0.241 Goal=   None    Shift=    0.000
 RMSDP=6.94D-06 MaxDP=4.16D-04 DE=-2.92D-05 OVMax= 4.29D-04

 Cycle   8  Pass 1  IDiag  1:
 E= -1619.41795400723     Delta-E=       -0.000003115422 Rises=F Damp=F
 DIIS: error= 2.53D-05 at cycle   8 NSaved=   8.
 NSaved= 8 IEnMin= 8 EnMin= -1619.41795400723     IErMin= 8 ErrMin= 2.53D-05
 ErrMax= 2.53D-05  0.00D+00 EMaxC= 1.00D-01 BMatC= 3.65D-07 BMatP= 4.15D-06
 IDIUse=1 WtCom= 1.00D+00 WtEn= 0.00D+00
 Coeff-Com: -0.171D-03-0.232D-03 0.188D-02 0.770D-02 0.321D-01 0.120D+00
 Coeff-Com:  0.292D+00 0.547D+00
 Coeff:     -0.171D-03-0.232D-03 0.188D-02 0.770D-02 0.321D-01 0.120D+00
 Coeff:      0.292D+00 0.547D+00
 Gap=     0.241 Goal=   None    Shift=    0.000
 RMSDP=2.22D-06 MaxDP=9.18D-05 DE=-3.12D-06 OVMax= 1.24D-04

 Cycle   9  Pass 1  IDiag  1:
 E= -1619.41795425952     Delta-E=       -0.000000252290 Rises=F Damp=F
 DIIS: error= 7.69D-06 at cycle   9 NSaved=   9.
 NSaved= 9 IEnMin= 9 EnMin= -1619.41795425952     IErMin= 9 ErrMin= 7.69D-06
 ErrMax= 7.69D-06  0.00D+00 EMaxC= 1.00D-01 BMatC= 4.94D-08 BMatP= 3.65D-07
 IDIUse=1 WtCom= 1.00D+00 WtEn= 0.00D+00
 Coeff-Com: -0.309D-04-0.111D-03-0.358D-03-0.692D-03 0.333D-02 0.234D-01
 Coeff-Com:  0.887D-01 0.313D+00 0.573D+00
 Coeff:     -0.309D-04-0.111D-03-0.358D-03-0.692D-03 0.333D-02 0.234D-01
 Coeff:      0.887D-01 0.313D+00 0.573D+00
 Gap=     0.241 Goal=   None    Shift=    0.000
 RMSDP=6.99D-07 MaxDP=2.86D-05 DE=-2.52D-07 OVMax= 3.37D-05

 Cycle  10  Pass 1  IDiag  1:
 E= -1619.41795429886     Delta-E=       -0.000000039344 Rises=F Damp=F
 DIIS: error= 2.29D-06 at cycle  10 NSaved=  10.
 NSaved=10 IEnMin=10 EnMin= -1619.41795429886     IErMin=10 ErrMin= 2.29D-06
 ErrMax= 2.29D-06  0.00D+00 EMaxC= 1.00D-01 BMatC= 2.10D-09 BMatP= 4.94D-08
 IDIUse=1 WtCom= 1.00D+00 WtEn= 0.00D+00
 Coeff-Com: -0.959D-05-0.323D-04-0.263D-03-0.679D-03 0.139D-03 0.558D-02
 Coeff-Com:  0.294D-01 0.127D+00 0.276D+00 0.563D+00
 Coeff:     -0.959D-05-0.323D-04-0.263D-03-0.679D-03 0.139D-03 0.558D-02
 Coeff:      0.294D-01 0.127D+00 0.276D+00 0.563D+00
 Gap=     0.241 Goal=   None    Shift=    0.000
 RMSDP=1.78D-07 MaxDP=9.72D-06 DE=-3.93D-08 OVMax= 8.46D-06

 Cycle  11  Pass 1  IDiag  1:
 E= -1619.41795430032     Delta-E=       -0.000000001461 Rises=F Damp=F
 DIIS: error= 7.87D-07 at cycle  11 NSaved=  11.
 NSaved=11 IEnMin=11 EnMin= -1619.41795430032     IErMin=11 ErrMin= 7.87D-07
 ErrMax= 7.87D-07  0.00D+00 EMaxC= 1.00D-01 BMatC= 3.87D-10 BMatP= 2.10D-09
 IDIUse=1 WtCom= 1.00D+00 WtEn= 0.00D+00
 Coeff-Com: -0.261D-05-0.417D-06-0.114D-03-0.312D-03-0.433D-03-0.213D-03
 Coeff-Com:  0.436D-02 0.287D-01 0.744D-01 0.321D+00 0.573D+00
 Coeff:     -0.261D-05-0.417D-06-0.114D-03-0.312D-03-0.433D-03-0.213D-03
 Coeff:      0.436D-02 0.287D-01 0.744D-01 0.321D+00 0.573D+00
 Gap=     0.241 Goal=   None    Shift=    0.000
 RMSDP=6.58D-08 MaxDP=3.52D-06 DE=-1.46D-09 OVMax= 3.72D-06

 Cycle  12  Pass 1  IDiag  1:
 E= -1619.41795430057     Delta-E=       -0.000000000251 Rises=F Damp=F
 DIIS: error= 3.30D-07 at cycle  12 NSaved=  12.
 NSaved=12 IEnMin=12 EnMin= -1619.41795430057     IErMin=12 ErrMin= 3.30D-07
 ErrMax= 3.30D-07  0.00D+00 EMaxC= 1.00D-01 BMatC= 4.60D-11 BMatP= 3.87D-10
 IDIUse=1 WtCom= 1.00D+00 WtEn= 0.00D+00
 Coeff-Com: -0.115D-05 0.316D-05-0.473D-04-0.128D-03-0.288D-03-0.695D-03
 Coeff-Com: -0.239D-03 0.509D-02 0.176D-01 0.135D+00 0.336D+00 0.508D+00
 Coeff:     -0.115D-05 0.316D-05-0.473D-04-0.128D-03-0.288D-03-0.695D-03
 Coeff:     -0.239D-03 0.509D-02 0.176D-01 0.135D+00 0.336D+00 0.508D+00
 Gap=     0.241 Goal=   None    Shift=    0.000
 RMSDP=2.26D-08 MaxDP=9.85D-07 DE=-2.51D-10 OVMax= 1.23D-06

 Cycle  13  Pass 1  IDiag  1:
 E= -1619.41795430064     Delta-E=       -0.000000000069 Rises=F Damp=F
 DIIS: error= 6.20D-08 at cycle  13 NSaved=  13.
 NSaved=13 IEnMin=13 EnMin= -1619.41795430064     IErMin=13 ErrMin= 6.20D-08
 ErrMax= 6.20D-08  0.00D+00 EMaxC= 1.00D-01 BMatC= 2.65D-12 BMatP= 4.60D-11
 IDIUse=1 WtCom= 1.00D+00 WtEn= 0.00D+00
 Coeff-Com: -0.420D-06 0.186D-05-0.122D-04-0.316D-04-0.100D-03-0.335D-03
 Coeff-Com: -0.607D-03-0.641D-03 0.283D-03 0.294D-01 0.994D-01 0.245D+00
 Coeff-Com:  0.628D+00
 Coeff:     -0.420D-06 0.186D-05-0.122D-04-0.316D-04-0.100D-03-0.335D-03
 Coeff:     -0.607D-03-0.641D-03 0.283D-03 0.294D-01 0.994D-01 0.245D+00
 Coeff:      0.628D+00
 Gap=     0.241 Goal=   None    Shift=    0.000
 RMSDP=5.82D-09 MaxDP=2.41D-07 DE=-6.87D-11 OVMax= 3.14D-07

 Error on total polarization charges =  0.01929
 SCF Done:  E(RB3LYP) =  -1619.41795430     A.U. after   13 cycles
            NFock= 13  Conv=0.58D-08     -V/T= 2.0066
 KE= 1.608794301412D+03 PE=-7.448299377928D+03 EE= 2.398707846664D+03
 Leave Link  502 at Tue Sep 15 07:26:32 2020, MaxMem=  2147483648 cpu:             329.8 elap:              82.5
 (Enter /prod/apps/gaussian/g16b1/l601.exe)
 Copying SCF densities to generalized density rwf, IOpCl= 0 IROHF=0.

 **********************************************************************

            Population analysis using the SCF Density.

 **********************************************************************

 Alpha  occ. eigenvalues --  -89.12575 -89.09685 -19.15554 -19.15459 -19.15287
 Alpha  occ. eigenvalues --  -19.15276 -14.37633 -10.27734 -10.23126 -10.22511
 Alpha  occ. eigenvalues --  -10.22246 -10.20125 -10.19869 -10.19496 -10.19029
 Alpha  occ. eigenvalues --  -10.19014 -10.18886 -10.18859 -10.18845  -8.15083
 Alpha  occ. eigenvalues --   -8.12755  -6.11586  -6.11519  -6.11363  -6.09205
 Alpha  occ. eigenvalues --   -6.09104  -6.09007  -1.12188  -1.10633  -1.01133
 Alpha  occ. eigenvalues --   -1.00334  -0.94800  -0.85973  -0.85371  -0.79496
 Alpha  occ. eigenvalues --   -0.77287  -0.74379  -0.74000  -0.72347  -0.68203
 Alpha  occ. eigenvalues --   -0.63689  -0.60936  -0.60463  -0.58486  -0.57127
 Alpha  occ. eigenvalues --   -0.54458  -0.52357  -0.50982  -0.50355  -0.49751
 Alpha  occ. eigenvalues --   -0.48810  -0.48140  -0.46928  -0.46165  -0.45314
 Alpha  occ. eigenvalues --   -0.44502  -0.43813  -0.43690  -0.43351  -0.42711
 Alpha  occ. eigenvalues --   -0.41790  -0.41255  -0.40252  -0.38521  -0.37840
 Alpha  occ. eigenvalues --   -0.35779  -0.35534  -0.34745  -0.34032  -0.33587
 Alpha  occ. eigenvalues --   -0.33400  -0.33004  -0.32487  -0.31449  -0.31369
 Alpha  occ. eigenvalues --   -0.30757  -0.29510  -0.28260  -0.25230  -0.24427
 Alpha virt. eigenvalues --   -0.00347  -0.00287   0.03317   0.03894   0.05229
 Alpha virt. eigenvalues --    0.06245   0.06860   0.07987   0.08405   0.09477
 Alpha virt. eigenvalues --    0.09632   0.10514   0.10715   0.11154   0.12209
 Alpha virt. eigenvalues --    0.13770   0.14301   0.14603   0.15322   0.15767
 Alpha virt. eigenvalues --    0.16523   0.17262   0.17906   0.18886   0.19628
 Alpha virt. eigenvalues --    0.19983   0.21317   0.21894   0.23217   0.23941
 Alpha virt. eigenvalues --    0.24305   0.26732   0.28694   0.29023   0.30798
 Alpha virt. eigenvalues --    0.33151   0.33617   0.34131   0.34458   0.35446
 Alpha virt. eigenvalues --    0.36345   0.36729   0.42060   0.43233   0.43898
 Alpha virt. eigenvalues --    0.45792   0.46226   0.48449   0.50123   0.50977
 Alpha virt. eigenvalues --    0.51557   0.52907   0.53975   0.54493   0.54783
 Alpha virt. eigenvalues --    0.55349   0.56135   0.57325   0.59026   0.59228
 Alpha virt. eigenvalues --    0.59553   0.60206   0.60473   0.61379   0.61470
 Alpha virt. eigenvalues --    0.62869   0.63305   0.64973   0.66882   0.67907
 Alpha virt. eigenvalues --    0.68179   0.68647   0.69891   0.72000   0.73373
 Alpha virt. eigenvalues --    0.75639   0.76044   0.77895   0.79064   0.80058
 Alpha virt. eigenvalues --    0.80722   0.81575   0.82198   0.82832   0.83429
 Alpha virt. eigenvalues --    0.83774   0.84438   0.84764   0.86258   0.86804
 Alpha virt. eigenvalues --    0.87085   0.88149   0.88676   0.89096   0.89832
 Alpha virt. eigenvalues --    0.91152   0.91201   0.91998   0.92373   0.93934
 Alpha virt. eigenvalues --    0.94715   0.95924   0.96157   0.96794   0.98493
 Alpha virt. eigenvalues --    0.99781   1.00656   1.01159   1.01571   1.02208
 Alpha virt. eigenvalues --    1.03115   1.03821   1.05715   1.06806   1.08406
 Alpha virt. eigenvalues --    1.10532   1.11510   1.12645   1.13109   1.15146
 Alpha virt. eigenvalues --    1.16461   1.16993   1.17971   1.18715   1.19082
 Alpha virt. eigenvalues --    1.20008   1.23045   1.24745   1.25948   1.27417
 Alpha virt. eigenvalues --    1.30632   1.34643   1.36979   1.38373   1.38983
 Alpha virt. eigenvalues --    1.40943   1.42664   1.44861   1.46440   1.47557
 Alpha virt. eigenvalues --    1.48290   1.49196   1.50770   1.51290   1.58788
 Alpha virt. eigenvalues --    1.60317   1.62824   1.65491   1.67589   1.69088
 Alpha virt. eigenvalues --    1.71743   1.72755   1.73914   1.75051   1.76953
 Alpha virt. eigenvalues --    1.78497   1.79141   1.79626   1.80106   1.80192
 Alpha virt. eigenvalues --    1.81111   1.81694   1.82052   1.83804   1.84461
 Alpha virt. eigenvalues --    1.84910   1.86350   1.88998   1.89243   1.91747
 Alpha virt. eigenvalues --    1.93055   1.94983   1.95659   1.97789   1.98522
 Alpha virt. eigenvalues --    1.99042   2.01798   2.02487   2.03106   2.03898
 Alpha virt. eigenvalues --    2.05665   2.06333   2.06883   2.08914   2.09208
 Alpha virt. eigenvalues --    2.11405   2.13148   2.14139   2.14781   2.15745
 Alpha virt. eigenvalues --    2.16440   2.17479   2.20931   2.21492   2.22956
 Alpha virt. eigenvalues --    2.23825   2.26371   2.27379   2.27898   2.30040
 Alpha virt. eigenvalues --    2.30320   2.30888   2.31955   2.34920   2.37106
 Alpha virt. eigenvalues --    2.40074   2.41345   2.47455   2.54799   2.55993
 Alpha virt. eigenvalues --    2.57746   2.58478   2.66079   2.67811   2.70154
 Alpha virt. eigenvalues --    2.71672   2.72348   2.73313   2.74337   2.74691
 Alpha virt. eigenvalues --    2.76800   2.78015   2.79746   2.80949   2.90906
 Alpha virt. eigenvalues --    2.93957   3.04978   3.40962   3.74209   3.78545
 Alpha virt. eigenvalues --    3.87048   3.94001   3.96072   3.98947   4.04480
 Alpha virt. eigenvalues --    4.09020   4.11494   4.15173   4.19492   4.22801
 Alpha virt. eigenvalues --    4.23718   4.33016   4.34166   4.41171   4.50461
 Alpha virt. eigenvalues --    4.70218   4.73424
          Condensed to atoms (all electrons):
               1          2          3          4          5          6
     1  C    5.551048   0.230693  -0.057523  -0.003167  -0.000336   0.000028
     2  S    0.230693  13.613480   0.140699  -0.001259  -0.005125   0.001210
     3  N   -0.057523   0.140699   7.416331   0.186455  -0.060336   0.010329
     4  C   -0.003167  -0.001259   0.186455   4.912470   0.350689  -0.106340
     5  C   -0.000336  -0.005125  -0.060336   0.350689   5.687342   0.149748
     6  S    0.000028   0.001210   0.010329  -0.106340   0.149748  13.872215
     7  C   -0.000190   0.000509  -0.047415   0.338508  -0.186072   0.141945
     8  O   -0.000000   0.000437   0.000051  -0.000174  -0.044286   0.422465
     9  O   -0.000000  -0.000001  -0.000050   0.002836  -0.046332   0.430847
    10  C   -0.000136  -0.004448  -0.050051   0.359703  -0.044388   0.002438
    11  C    0.000150   0.000015   0.003825  -0.027049  -0.006189  -0.000143
    12  C   -0.000002  -0.000041  -0.000084   0.003749   0.000103  -0.000003
    13  C   -0.000002  -0.000001  -0.000003   0.000094  -0.000005   0.000001
    14  C   -0.000000   0.000000  -0.000000   0.000002  -0.000000  -0.000000
    15  C    0.000000   0.000000   0.000000  -0.000000   0.000000   0.000000
    16  C    0.000000  -0.000000  -0.000000   0.000002  -0.000000  -0.000000
    17  C   -0.000002  -0.000015  -0.000002   0.000076   0.000002   0.000001
    18  O   -0.063804   0.461563  -0.057719   0.002284  -0.000072   0.000008
    19  O   -0.054816   0.408261  -0.052334   0.004481  -0.006440  -0.000327
    20  H    0.344771  -0.007155  -0.000022   0.000245   0.000000   0.000001
    21  H    0.350661  -0.011415   0.002183  -0.000026   0.000007  -0.000000
    22  H    0.337496  -0.009571  -0.001055  -0.000284   0.000010  -0.000003
    23  H   -0.000080  -0.005233   0.292095  -0.022014   0.004394  -0.000491
    24  H    0.000006  -0.000112   0.003458  -0.028760   0.333757  -0.006302
    25  H    0.000118  -0.000070  -0.003705  -0.019654   0.338721  -0.008949
    26  H    0.000003   0.000003   0.003207  -0.026774   0.004866  -0.005039
    27  H   -0.000003   0.000095  -0.004385  -0.021893   0.008585  -0.009957
    28  H   -0.000048  -0.001025  -0.000816  -0.033715   0.005172  -0.000099
    29  H   -0.005444   0.010028  -0.005330  -0.032659  -0.006300  -0.000149
    30  H   -0.000000  -0.000011   0.000006  -0.005243   0.001299  -0.000074
    31  H   -0.000003   0.000017  -0.000012  -0.004721  -0.000253  -0.000119
    32  H   -0.000000   0.000000   0.000001  -0.000054   0.000000   0.000000
    33  H    0.000000   0.000000   0.000000  -0.000000  -0.000000  -0.000000
    34  H   -0.000000   0.000000  -0.000000   0.000000   0.000000  -0.000000
    35  H   -0.000000  -0.000000   0.000000  -0.000000  -0.000000  -0.000000
    36  H   -0.000000  -0.000001   0.000000  -0.000045  -0.000004   0.000000
               7          8          9         10         11         12
     1  C   -0.000190  -0.000000  -0.000000  -0.000136   0.000150  -0.000002
     2  S    0.000509   0.000437  -0.000001  -0.004448   0.000015  -0.000041
     3  N   -0.047415   0.000051  -0.000050  -0.050051   0.003825  -0.000084
     4  C    0.338508  -0.000174   0.002836   0.359703  -0.027049   0.003749
     5  C   -0.186072  -0.044286  -0.046332  -0.044388  -0.006189   0.000103
     6  S    0.141945   0.422465   0.430847   0.002438  -0.000143  -0.000003
     7  C    5.695577  -0.045062  -0.046136  -0.040707  -0.005767   0.000114
     8  O   -0.045062   8.278219  -0.046953  -0.000080  -0.000002   0.000000
     9  O   -0.046136  -0.046953   8.263374  -0.000193   0.000015  -0.000000
    10  C   -0.040707  -0.000080  -0.000193   5.117290   0.341797  -0.037692
    11  C   -0.005767  -0.000002   0.000015   0.341797   5.177937   0.351268
    12  C    0.000114   0.000000  -0.000000  -0.037692   0.351268   4.654826
    13  C    0.000002  -0.000000   0.000000  -0.003702  -0.058968   0.545051
    14  C   -0.000000  -0.000000  -0.000000  -0.000015   0.006476  -0.021499
    15  C    0.000000   0.000000   0.000000   0.000016   0.000360  -0.034302
    16  C   -0.000000  -0.000000  -0.000000  -0.000064   0.006670  -0.022316
    17  C   -0.000005  -0.000000   0.000000  -0.004590  -0.056369   0.547681
    18  O   -0.000086  -0.000002  -0.000000  -0.000123   0.000000  -0.000000
    19  O    0.000129  -0.000001  -0.000000  -0.004548  -0.000018   0.000001
    20  H   -0.000005  -0.000000   0.000000  -0.000107  -0.000004   0.000000
    21  H    0.000002   0.000000   0.000000   0.000084   0.000000  -0.000000
    22  H    0.000018   0.000000   0.000000   0.002037  -0.000158   0.000047
    23  H   -0.006037  -0.000009   0.000001   0.000077  -0.000079   0.000001
    24  H    0.005096   0.001166   0.001003  -0.006342   0.001635   0.000004
    25  H    0.008094  -0.000390   0.000546   0.001072   0.000107  -0.000001
    26  H    0.334644   0.001127   0.000819  -0.006043   0.001859   0.000008
    27  H    0.344837  -0.000170   0.000652   0.000869   0.000078  -0.000001
    28  H   -0.005806   0.000001   0.000002   0.370082  -0.035080  -0.002005
    29  H    0.005077   0.000001   0.000001   0.364358  -0.036546  -0.000820
    30  H   -0.000321   0.000001  -0.000020  -0.037238   0.360711  -0.028184
    31  H    0.001402   0.000001  -0.000014  -0.037203   0.360830  -0.027049
    32  H   -0.000002   0.000000   0.000000   0.000224  -0.008975  -0.044973
    33  H   -0.000000  -0.000000  -0.000000  -0.000001  -0.000174   0.003653
    34  H    0.000000   0.000000   0.000000   0.000000   0.000006   0.000622
    35  H   -0.000000  -0.000000  -0.000000  -0.000001  -0.000175   0.003677
    36  H    0.000000   0.000000   0.000000   0.000166  -0.009369  -0.044493
              13         14         15         16         17         18
     1  C   -0.000002  -0.000000   0.000000   0.000000  -0.000002  -0.063804
     2  S   -0.000001   0.000000   0.000000  -0.000000  -0.000015   0.461563
     3  N   -0.000003  -0.000000   0.000000  -0.000000  -0.000002  -0.057719
     4  C    0.000094   0.000002  -0.000000   0.000002   0.000076   0.002284
     5  C   -0.000005  -0.000000   0.000000  -0.000000   0.000002  -0.000072
     6  S    0.000001  -0.000000   0.000000  -0.000000   0.000001   0.000008
     7  C    0.000002  -0.000000   0.000000  -0.000000  -0.000005  -0.000086
     8  O   -0.000000  -0.000000   0.000000  -0.000000  -0.000000  -0.000002
     9  O    0.000000  -0.000000   0.000000  -0.000000   0.000000  -0.000000
    10  C   -0.003702  -0.000015   0.000016  -0.000064  -0.004590  -0.000123
    11  C   -0.058968   0.006476   0.000360   0.006670  -0.056369   0.000000
    12  C    0.545051  -0.021499  -0.034302  -0.022316   0.547681  -0.000000
    13  C    4.980697   0.519307  -0.038368  -0.046659  -0.040197  -0.000000
    14  C    0.519307   4.897959   0.544377  -0.028857  -0.046626  -0.000000
    15  C   -0.038368   0.544377   4.884037   0.544599  -0.038407   0.000000
    16  C   -0.046659  -0.028857   0.544599   4.899490   0.518362  -0.000000
    17  C   -0.040197  -0.046626  -0.038407   0.518362   4.977954  -0.000000
    18  O   -0.000000  -0.000000   0.000000  -0.000000  -0.000000   8.263721
    19  O   -0.000000  -0.000000   0.000000  -0.000000  -0.000000  -0.043572
    20  H    0.000000  -0.000000  -0.000000  -0.000000   0.000000  -0.000339
    21  H   -0.000000  -0.000000   0.000000  -0.000000  -0.000000  -0.000255
    22  H    0.000014   0.000000  -0.000000  -0.000000   0.000020   0.001989
    23  H   -0.000000  -0.000000  -0.000000   0.000000   0.000000  -0.000101
    24  H    0.000000  -0.000000   0.000000  -0.000000  -0.000004  -0.000001
    25  H    0.000000  -0.000000  -0.000000   0.000000   0.000000  -0.000253
    26  H   -0.000002  -0.000000   0.000000  -0.000000   0.000000   0.000000
    27  H    0.000000   0.000000  -0.000000  -0.000000   0.000000  -0.000008
    28  H    0.003783  -0.000136  -0.000004  -0.000002  -0.000038   0.000002
    29  H   -0.000076  -0.000019  -0.000006  -0.000148   0.003955   0.000010
    30  H    0.003914  -0.000199   0.000009   0.000140  -0.004246   0.000000
    31  H   -0.004281   0.000095   0.000013  -0.000209   0.003626  -0.000000
    32  H    0.360203  -0.044701   0.004745   0.000270   0.005951   0.000000
    33  H   -0.038823   0.360870  -0.042235   0.004490   0.000763   0.000000
    34  H    0.004587  -0.042148   0.363260  -0.042171   0.004592  -0.000000
    35  H    0.000759   0.004490  -0.042339   0.360767  -0.038601   0.000000
    36  H    0.006004   0.000270   0.004740  -0.044859   0.359935   0.000000
              19         20         21         22         23         24
     1  C   -0.054816   0.344771   0.350661   0.337496  -0.000080   0.000006
     2  S    0.408261  -0.007155  -0.011415  -0.009571  -0.005233  -0.000112
     3  N   -0.052334  -0.000022   0.002183  -0.001055   0.292095   0.003458
     4  C    0.004481   0.000245  -0.000026  -0.000284  -0.022014  -0.028760
     5  C   -0.006440   0.000000   0.000007   0.000010   0.004394   0.333757
     6  S   -0.000327   0.000001  -0.000000  -0.000003  -0.000491  -0.006302
     7  C    0.000129  -0.000005   0.000002   0.000018  -0.006037   0.005096
     8  O   -0.000001  -0.000000   0.000000   0.000000  -0.000009   0.001166
     9  O   -0.000000   0.000000   0.000000   0.000000   0.000001   0.001003
    10  C   -0.004548  -0.000107   0.000084   0.002037   0.000077  -0.006342
    11  C   -0.000018  -0.000004   0.000000  -0.000158  -0.000079   0.001635
    12  C    0.000001   0.000000  -0.000000   0.000047   0.000001   0.000004
    13  C   -0.000000   0.000000  -0.000000   0.000014  -0.000000   0.000000
    14  C   -0.000000  -0.000000  -0.000000   0.000000  -0.000000  -0.000000
    15  C    0.000000  -0.000000   0.000000  -0.000000  -0.000000   0.000000
    16  C   -0.000000  -0.000000  -0.000000  -0.000000   0.000000  -0.000000
    17  C   -0.000000   0.000000  -0.000000   0.000020   0.000000  -0.000004
    18  O   -0.043572  -0.000339  -0.000255   0.001989  -0.000101  -0.000001
    19  O    8.316368   0.001756  -0.000318  -0.000813   0.001297   0.000026
    20  H    0.001756   0.470895  -0.018279  -0.021196   0.000052  -0.000000
    21  H   -0.000318  -0.018279   0.461196  -0.018591   0.000024  -0.000000
    22  H   -0.000813  -0.021196  -0.018591   0.479810   0.000061   0.000005
    23  H    0.001297   0.000052   0.000024   0.000061   0.312093  -0.000079
    24  H    0.000026  -0.000000  -0.000000   0.000005  -0.000079   0.473874
    25  H    0.013983  -0.000005   0.000001   0.000005   0.000045  -0.012802
    26  H    0.000001   0.000000  -0.000000   0.000000   0.000078  -0.000015
    27  H    0.000004  -0.000001  -0.000000   0.000000   0.004204  -0.000208
    28  H    0.000076   0.000124   0.000033   0.000495   0.002158   0.000123
    29  H    0.003407   0.000074   0.000107   0.005353  -0.000260   0.000497
    30  H    0.000003   0.000000   0.000000   0.000004   0.000004   0.006566
    31  H   -0.000001   0.000000   0.000000   0.000003  -0.000006   0.000044
    32  H    0.000000   0.000000   0.000000  -0.000000  -0.000000   0.000000
    33  H   -0.000000  -0.000000   0.000000  -0.000000  -0.000000   0.000000
    34  H    0.000000   0.000000   0.000000   0.000000   0.000000  -0.000000
    35  H   -0.000000  -0.000000   0.000000  -0.000000  -0.000000  -0.000000
    36  H    0.000000   0.000000   0.000000  -0.000001  -0.000000   0.000045
              25         26         27         28         29         30
     1  C    0.000118   0.000003  -0.000003  -0.000048  -0.005444  -0.000000
     2  S   -0.000070   0.000003   0.000095  -0.001025   0.010028  -0.000011
     3  N   -0.003705   0.003207  -0.004385  -0.000816  -0.005330   0.000006
     4  C   -0.019654  -0.026774  -0.021893  -0.033715  -0.032659  -0.005243
     5  C    0.338721   0.004866   0.008585   0.005172  -0.006300   0.001299
     6  S   -0.008949  -0.005039  -0.009957  -0.000099  -0.000149  -0.000074
     7  C    0.008094   0.334644   0.344837  -0.005806   0.005077  -0.000321
     8  O   -0.000390   0.001127  -0.000170   0.000001   0.000001   0.000001
     9  O    0.000546   0.000819   0.000652   0.000002   0.000001  -0.000020
    10  C    0.001072  -0.006043   0.000869   0.370082   0.364358  -0.037238
    11  C    0.000107   0.001859   0.000078  -0.035080  -0.036546   0.360711
    12  C   -0.000001   0.000008  -0.000001  -0.002005  -0.000820  -0.028184
    13  C    0.000000  -0.000002   0.000000   0.003783  -0.000076   0.003914
    14  C   -0.000000  -0.000000   0.000000  -0.000136  -0.000019  -0.000199
    15  C   -0.000000   0.000000  -0.000000  -0.000004  -0.000006   0.000009
    16  C    0.000000  -0.000000  -0.000000  -0.000002  -0.000148   0.000140
    17  C    0.000000   0.000000   0.000000  -0.000038   0.003955  -0.004246
    18  O   -0.000253   0.000000  -0.000008   0.000002   0.000010   0.000000
    19  O    0.013983   0.000001   0.000004   0.000076   0.003407   0.000003
    20  H   -0.000005   0.000000  -0.000001   0.000124   0.000074   0.000000
    21  H    0.000001  -0.000000  -0.000000   0.000033   0.000107   0.000000
    22  H    0.000005   0.000000   0.000000   0.000495   0.005353   0.000004
    23  H    0.000045   0.000078   0.004204   0.002158  -0.000260   0.000004
    24  H   -0.012802  -0.000015  -0.000208   0.000123   0.000497   0.006566
    25  H    0.436079  -0.000193  -0.000280  -0.000075   0.000242  -0.000007
    26  H   -0.000193   0.464388  -0.014415   0.000504   0.000159   0.000074
    27  H   -0.000280  -0.014415   0.454534   0.000344  -0.000070  -0.000002
    28  H   -0.000075   0.000504   0.000344   0.556712  -0.036357   0.005265
    29  H    0.000242   0.000159  -0.000070  -0.036357   0.554632  -0.004707
    30  H   -0.000007   0.000074  -0.000002   0.005265  -0.004707   0.564348
    31  H   -0.000002   0.005950  -0.000003  -0.004956   0.005229  -0.034250
    32  H   -0.000000   0.000034   0.000000   0.000806   0.000049   0.000064
    33  H    0.000000  -0.000000  -0.000000   0.000003   0.000000   0.000003
    34  H   -0.000000  -0.000000  -0.000000  -0.000000  -0.000000  -0.000000
    35  H   -0.000000   0.000000   0.000000   0.000000   0.000003  -0.000006
    36  H    0.000000   0.000000  -0.000000   0.000026   0.000675   0.005250
              31         32         33         34         35         36
     1  C   -0.000003  -0.000000   0.000000  -0.000000  -0.000000  -0.000000
     2  S    0.000017   0.000000   0.000000   0.000000  -0.000000  -0.000001
     3  N   -0.000012   0.000001   0.000000  -0.000000   0.000000   0.000000
     4  C   -0.004721  -0.000054  -0.000000   0.000000  -0.000000  -0.000045
     5  C   -0.000253   0.000000  -0.000000   0.000000  -0.000000  -0.000004
     6  S   -0.000119   0.000000  -0.000000  -0.000000  -0.000000   0.000000
     7  C    0.001402  -0.000002  -0.000000   0.000000  -0.000000   0.000000
     8  O    0.000001   0.000000  -0.000000   0.000000  -0.000000   0.000000
     9  O   -0.000014   0.000000  -0.000000   0.000000  -0.000000   0.000000
    10  C   -0.037203   0.000224  -0.000001   0.000000  -0.000001   0.000166
    11  C    0.360830  -0.008975  -0.000174   0.000006  -0.000175  -0.009369
[...]
    33  H   -0.000133   0.000257  -0.000373   0.005022   0.000021   0.000209
    34  H    0.000185  -0.000178   0.000018   0.001009  -0.000382  -0.000023
    35  H   -0.000168   0.000414  -0.000364   0.000665   0.000668   0.000174
    36  H    0.001060  -0.007405  -0.002320   0.067404  -0.010180  -0.000473
               7          8          9         10         11         12
     1  C    0.011618  -0.000919  -0.000364  -0.159083  -0.067665   0.015765
     2  S   -0.461349   0.019213   0.003410   1.123369  -0.007411  -0.034676
     3  N   -0.190476   0.009261   0.042296   2.408704  -0.007304  -0.275143
     4  C   -2.507007   0.265200   0.000768 -14.280645  -2.702045   3.721906
     5  C   -0.228961   0.042039   0.075566   1.001772  -0.060682  -0.250002
     6  S    1.014548  -0.375318  -0.293561  -0.171588  -0.263111   0.124660
     7  C   10.515545  -0.017227   0.032871  -2.326672  -0.476659   0.135560
     8  O   -0.017227   9.260120   0.055238  -0.046687  -0.000501  -0.000783
     9  O    0.032871   0.055238   9.250092  -0.017143   0.041614  -0.025175
    10  C   -2.326672  -0.046687  -0.017143  19.999622   0.625978  -2.233876
    11  C   -0.476659  -0.000501   0.041614   0.625978  14.627134  -4.773734
    12  C    0.135560  -0.000783  -0.025175  -2.233876  -4.773734  18.951298
    13  C   -0.158095   0.000253   0.003513  -0.322366   0.120473  -6.971729
    14  C   -0.026416   0.000007  -0.000053   0.061906  -0.694639   3.303561
    15  C    0.006069  -0.000001   0.000103  -0.079810   0.272633  -3.902968
    16  C   -0.017494  -0.000016  -0.000201   0.110415  -0.580517   3.208261
    17  C    0.092650  -0.000403   0.000874  -0.415784   0.259663  -7.237323
    18  O    0.017106   0.001858   0.000184  -0.110536   0.004584   0.002350
    19  O   -0.074988   0.000379  -0.000862   0.102263   0.014670  -0.009368
    20  H   -0.001760  -0.000310  -0.000131  -0.100232  -0.009739   0.013050
    21  H    0.001396   0.000434   0.000126   0.024986  -0.002555   0.001471
    22  H    0.003725  -0.002329  -0.001391   0.109099  -0.013795   0.001158
    23  H   -0.112258   0.003755   0.002581  -0.015167   0.054430  -0.009893
    24  H   -0.411898   0.012832   0.046473   0.333693   0.192734  -0.060981
    25  H    0.185195   0.008661  -0.006152   0.154906  -0.023553  -0.024880
    26  H    0.132667   0.000248   0.024813  -0.160055   0.136380  -0.003593
    27  H    0.193312  -0.001626  -0.005449   0.126342  -0.043025  -0.002484
    28  H    0.058471   0.003338   0.002979  -0.266180   0.087597  -0.222911
    29  H   -0.119237   0.009913   0.011326   0.718434   0.081202  -0.325527
    30  H    0.265011  -0.001926  -0.010092  -0.161173  -0.420343  -0.027687
    31  H   -0.061432   0.001882   0.001113   0.131119  -0.851051   0.255106
    32  H    0.006367   0.000052   0.000528   0.061350  -0.271134   0.892597
    33  H   -0.000903  -0.000003  -0.000033   0.007689   0.008183  -0.156996
    34  H    0.000206   0.000000   0.000004  -0.008353   0.003643   0.088698
    35  H   -0.001407  -0.000000  -0.000029   0.008870   0.006067  -0.142891
    36  H    0.015996  -0.000045   0.000381   0.018807  -0.169450   0.802732
              13         14         15         16         17         18
     1  C    0.007401  -0.007601   0.001411  -0.010361  -0.005702  -0.041307
     2  S    0.006952   0.003167  -0.003939   0.005959  -0.026321  -0.143634
     3  N    0.009921  -0.012951   0.002842  -0.001597   0.046846  -0.074716
     4  C   -0.329681   0.201780  -0.045238   0.106620  -0.522029   0.227164
     5  C    0.005734  -0.005182  -0.005599   0.018837  -0.021613   0.009618
     6  S   -0.024129  -0.000331  -0.000248   0.002174   0.003689  -0.003015
     7  C   -0.158095  -0.026416   0.006069  -0.017494   0.092650   0.017106
     8  O    0.000253   0.000007  -0.000001  -0.000016  -0.000403   0.001858
     9  O    0.003513  -0.000053   0.000103  -0.000201   0.000874   0.000184
    10  C   -0.322366   0.061906  -0.079810   0.110415  -0.415784  -0.110536
    11  C    0.120473  -0.694639   0.272633  -0.580517   0.259663   0.004584
    12  C   -6.971729   3.303561  -3.902968   3.208261  -7.237323   0.002350
    13  C   17.490113  -4.699763   3.499875  -4.094995   1.596512  -0.000470
    14  C   -4.699763  11.742035  -3.443463   3.961302  -4.154885  -0.000013
    15  C    3.499875  -3.443463   9.128580  -3.435002   3.524325   0.000037
    16  C   -4.094995   3.961302  -3.435002  11.436735  -4.575309  -0.000014
    17  C    1.596512  -4.154885   3.524325  -4.575309  17.457856   0.000013
    18  O   -0.000470  -0.000013   0.000037  -0.000014   0.000013   9.170558
    19  O    0.002803   0.000470  -0.000236  -0.000547  -0.001515   0.024037
    20  H   -0.001832   0.001669  -0.000725   0.000477  -0.007986   0.031707
    21  H    0.002248  -0.000421  -0.000162  -0.002070  -0.001049   0.000580
    22  H   -0.011614   0.014034  -0.000903   0.009182   0.023060  -0.002733
    23  H    0.001966   0.000274  -0.000716   0.002051   0.002157   0.014709
    24  H    0.036622   0.007097  -0.002926   0.000487  -0.028648  -0.000278
    25  H   -0.006704  -0.001589  -0.000107   0.003773   0.002736  -0.005645
    26  H   -0.024150  -0.008998   0.001633   0.000052   0.050580   0.000067
    27  H   -0.007756  -0.000115  -0.000106  -0.000547  -0.002570   0.000192
    28  H    0.055327  -0.024146   0.022908  -0.051109   0.086357  -0.001566
    29  H    0.139308  -0.082394   0.037138  -0.041237  -0.018442   0.010492
    30  H   -0.337817  -0.083039   0.007041   0.130930   0.330147   0.000481
    31  H    0.217269   0.149188  -0.006188  -0.057485  -0.401324  -0.000244
    32  H   -1.316695   0.427321  -0.161581   0.139598  -0.104305   0.000069
    33  H    0.684519  -0.826196   0.336420  -0.261574   0.136920  -0.000004
    34  H   -0.122778   0.353577  -0.588071   0.356942  -0.123792   0.000002
    35  H    0.119771  -0.228973   0.310279  -0.753322   0.626379  -0.000001
    36  H   -0.128289   0.130647  -0.162604   0.416367  -1.257194   0.000083
              19         20         21         22         23         24
     1  C   -0.012969   0.293482   0.288354   0.402900  -0.045219  -0.007766
     2  S   -0.165073  -0.025336   0.042654  -0.115527  -0.165861   0.061706
     3  N   -0.002199  -0.082146  -0.018205   0.053036   0.293510   0.172543
     4  C   -0.114840   0.180046   0.007551  -0.176821   0.079721  -0.338308
     5  C    0.071701  -0.015375  -0.009680   0.056517   0.046300   0.210693
     6  S    0.008464   0.002725  -0.002471   0.017224  -0.014754  -0.216328
     7  C   -0.074988  -0.001760   0.001396   0.003725  -0.112258  -0.411898
     8  O    0.000379  -0.000310   0.000434  -0.002329   0.003755   0.012832
     9  O   -0.000862  -0.000131   0.000126  -0.001391   0.002581   0.046473
    10  C    0.102263  -0.100232   0.024986   0.109099  -0.015167   0.333693
    11  C    0.014670  -0.009739  -0.002555  -0.013795   0.054430   0.192734
    12  C   -0.009368   0.013050   0.001471   0.001158  -0.009893  -0.060981
    13  C    0.002803  -0.001832   0.002248  -0.011614   0.001966   0.036622
    14  C    0.000470   0.001669  -0.000421   0.014034   0.000274   0.007097
    15  C   -0.000236  -0.000725  -0.000162  -0.000903  -0.000716  -0.002926
    16  C   -0.000547   0.000477  -0.002070   0.009182   0.002051   0.000487
    17  C   -0.001515  -0.007986  -0.001049   0.023060   0.002157  -0.028648
    18  O    0.024037   0.031707   0.000580  -0.002733   0.014709  -0.000278
    19  O    9.276043   0.009775  -0.000273   0.038162   0.009242   0.017033
    20  H    0.009775   0.830741  -0.100307  -0.069141   0.012837  -0.003264
    21  H   -0.000273  -0.100307   0.919413  -0.167791  -0.007440  -0.000170
    22  H    0.038162  -0.069141  -0.167791   1.040050   0.002261   0.007045
    23  H    0.009242   0.012837  -0.007440   0.002261   0.936940   0.008247
    24  H    0.017033  -0.003264  -0.000170   0.007045   0.008247   1.558100
    25  H    0.009398   0.002256   0.000493  -0.005770  -0.000233  -0.231673
    26  H   -0.001120  -0.001937  -0.000659   0.006755   0.013441  -0.011054
    27  H   -0.000470   0.001398   0.000783  -0.003227  -0.005810  -0.005943
    28  H   -0.002440   0.000313   0.004745  -0.020894  -0.001559  -0.005067
    29  H    0.034671  -0.003067   0.003907  -0.107617   0.004236   0.047457
    30  H   -0.008688   0.000127  -0.000106   0.001943  -0.005219  -0.159014
    31  H    0.001965   0.000458   0.000503  -0.002380  -0.000354   0.026970
    32  H    0.000043  -0.000623  -0.000261   0.003075   0.000133   0.000826
    33  H    0.000014   0.000114   0.000023  -0.000262  -0.000023  -0.000190
    34  H   -0.000011  -0.000002   0.000025  -0.000724   0.000001  -0.000108
    35  H    0.000069   0.000087   0.000053  -0.001192   0.000003   0.001187
    36  H   -0.000311  -0.000170  -0.000432   0.002502  -0.000280  -0.008817
              25         26         27         28         29         30
     1  C   -0.001029  -0.002496   0.003335   0.002122  -0.046058  -0.002636
     2  S    0.017768  -0.005878  -0.024256   0.004734  -0.013828  -0.026079
     3  N    0.038154   0.066896  -0.015786  -0.100608   0.146727  -0.027699
     4  C   -0.338791   0.129079  -0.202388  -0.022073  -0.929089   0.069802
     5  C    0.282691  -0.113933   0.164080   0.070281  -0.053781  -0.069081
     6  S   -0.006123  -0.076260   0.026442  -0.014801  -0.068836   0.078502
     7  C    0.185195   0.132667   0.193312   0.058471  -0.119237   0.265011
     8  O    0.008661   0.000248  -0.001626   0.003338   0.009913  -0.001926
     9  O   -0.006152   0.024813  -0.005449   0.002979   0.011326  -0.010092
    10  C    0.154906  -0.160055   0.126342  -0.266180   0.718434  -0.161173
    11  C   -0.023553   0.136380  -0.043025   0.087597   0.081202  -0.420343
    12  C   -0.024880  -0.003593  -0.002484  -0.222911  -0.325527  -0.027687
    13  C   -0.006704  -0.024150  -0.007756   0.055327   0.139308  -0.337817
    14  C   -0.001589  -0.008998  -0.000115  -0.024146  -0.082394  -0.083039
    15  C   -0.000107   0.001633  -0.000106   0.022908   0.037138   0.007041
    16  C    0.003773   0.000052  -0.000547  -0.051109  -0.041237   0.130930
    17  C    0.002736   0.050580  -0.002570   0.086357  -0.018442   0.330147
    18  O   -0.005645   0.000067   0.000192  -0.001566   0.010492   0.000481
    19  O    0.009398  -0.001120  -0.000470  -0.002440   0.034671  -0.008688
    20  H    0.002256  -0.001937   0.001398   0.000313  -0.003067   0.000127
    21  H    0.000493  -0.000659   0.000783   0.004745   0.003907  -0.000106
    22  H   -0.005770   0.006755  -0.003227  -0.020894  -0.107617   0.001943
    23  H   -0.000233   0.013441  -0.005810  -0.001559   0.004236  -0.005219
    24  H   -0.231673  -0.011054  -0.005943  -0.005067   0.047457  -0.159014
    25  H    1.150024   0.002859   0.017630   0.011572  -0.012622   0.027109
    26  H    0.002859   1.411376  -0.267232   0.014503  -0.028950   0.021640
    27  H    0.017630  -0.267232   1.314966   0.003894   0.007805   0.008140
    28  H    0.011572   0.014503   0.003894   1.899585  -0.399599   0.072210
    29  H   -0.012622  -0.028950   0.007805  -0.399599   2.218339  -0.196718
    30  H    0.027109   0.021640   0.008140   0.072210  -0.196718   2.031513
    31  H   -0.000252  -0.131617   0.026043  -0.119922   0.108989  -0.248239
    32  H   -0.000544   0.003590   0.000149  -0.021206  -0.005334   0.011728
    33  H    0.000011   0.000622  -0.000039  -0.000806   0.001836   0.001082
    34  H   -0.000023   0.000098  -0.000014   0.000132   0.001263   0.000749
    35  H   -0.000103  -0.000544   0.000026   0.000350   0.003048  -0.003204
    36  H   -0.000085   0.003180  -0.000554   0.005539  -0.016855  -0.014629
              31         32         33         34         35         36
     1  C    0.003855  -0.001187  -0.000133   0.000185  -0.000168   0.001060
     2  S    0.013338  -0.002143   0.000257  -0.000178   0.000414  -0.007405
     3  N    0.020821   0.000837  -0.000373   0.000018  -0.000364  -0.002320
     4  C    0.182073   0.063954   0.005022   0.001009   0.000665   0.067404
     5  C    0.042912   0.000566   0.000021  -0.000382   0.000668  -0.010180
     6  S    0.015820  -0.001916   0.000209  -0.000023   0.000174  -0.000473
     7  C   -0.061432   0.006367  -0.000903   0.000206  -0.001407   0.015996
     8  O    0.001882   0.000052  -0.000003   0.000000  -0.000000  -0.000045
     9  O    0.001113   0.000528  -0.000033   0.000004  -0.000029   0.000381
    10  C    0.131119   0.061350   0.007689  -0.008353   0.008870   0.018807
    11  C   -0.851051  -0.271134   0.008183   0.003643   0.006067  -0.169450
    12  C    0.255106   0.892597  -0.156996   0.088698  -0.142891   0.802732
    13  C    0.217269  -1.316695   0.684519  -0.122778   0.119771  -0.128289
    14  C    0.149188   0.427321  -0.826196   0.353577  -0.228973   0.130647
    15  C   -0.006188  -0.161581   0.336420  -0.588071   0.310279  -0.162604
    16  C   -0.057485   0.139598  -0.261574   0.356942  -0.753322   0.416367
    17  C   -0.401324  -0.104305   0.136920  -0.123792   0.626379  -1.257194
    18  O   -0.000244   0.000069  -0.000004   0.000002  -0.000001   0.000083
    19  O    0.001965   0.000043   0.000014  -0.000011   0.000069  -0.000311
    20  H    0.000458  -0.000623   0.000114  -0.000002   0.000087  -0.000170
    21  H    0.000503  -0.000261   0.000023   0.000025   0.000053  -0.000432
    22  H   -0.002380   0.003075  -0.000262  -0.000724  -0.001192   0.002502
    23  H   -0.000354   0.000133  -0.000023   0.000001   0.000003  -0.000280
    24  H    0.026970   0.000826  -0.000190  -0.000108   0.001187  -0.008817
    25  H   -0.000252  -0.000544   0.000011  -0.000023  -0.000103  -0.000085
    26  H   -0.131617   0.003590   0.000622   0.000098  -0.000544   0.003180
    27  H    0.026043   0.000149  -0.000039  -0.000014   0.000026  -0.000554
    28  H   -0.119922  -0.021206  -0.000806   0.000132   0.000350   0.005539
    29  H    0.108989  -0.005334   0.001836   0.001263   0.003048  -0.016855
    30  H   -0.248239   0.011728   0.001082   0.000749  -0.003204  -0.014629
    31  H    2.037478  -0.035946  -0.001955   0.000501   0.001849   0.001375
    32  H   -0.035946   2.112014  -0.082657  -0.015979   0.009858  -0.023147
    33  H   -0.001955  -0.082657   1.676434  -0.051494  -0.019217   0.010228
    34  H    0.000501  -0.015979  -0.051494   1.610791  -0.053379  -0.015675
    35  H    0.001849   0.009858  -0.019217  -0.053379   1.677691  -0.088454
    36  H    0.001375  -0.023147   0.010228  -0.015675  -0.088454   2.121519
 Mulliken charges:
               1
     1  C    0.157592
     2  S    2.755453
     3  N   -1.284493
     4  C    0.686124
     5  C    0.189569
     6  S    2.882444
     7  C    0.505926
     8  O   -1.246587
     9  O   -1.236216
    10  C   -0.253973
    11  C    0.901926
    12  C    1.174446
    13  C    0.558286
    14  C   -0.056866
    15  C    0.689298
    16  C   -0.026763
    17  C    0.665432
    18  O   -1.131713
    19  O   -1.225293
    20  H    0.042825
    21  H    0.014308
    22  H   -0.087616
    23  H   -0.104008
    24  H   -0.249314
    25  H   -0.249360
    26  H   -0.182002
    27  H   -0.305139
    28  H   -0.132070
    29  H   -0.116900
    30  H   -0.254764
    31  H   -0.322241
    32  H   -0.689997
    33  H   -0.466747
    34  H   -0.436857
    35  H   -0.474260
    36  H   -0.690451
 Sum of Mulliken charges =  -0.00000
 Mulliken charges with hydrogens summed into heavy atoms:
               1
     1  C    0.127108
     2  S    2.755453
     3  N   -1.388501
     4  C    0.686124
     5  C   -0.309105
     6  S    2.882444
     7  C    0.018786
     8  O   -1.246587
     9  O   -1.236216
    10  C   -0.502942
    11  C    0.324921
    12  C    1.174446
    13  C   -0.131711
    14  C   -0.523613
    15  C    0.252442
    16  C   -0.501023
    17  C   -0.025019
    18  O   -1.131713
    19  O   -1.225293
 Electronic spatial extent (au):  <R**2>=           7367.0706
 Charge=             -0.0000 electrons
 Dipole moment (field-independent basis, Debye):
    X=             -9.5605    Y=              3.0155    Z=             -3.8205  Tot=             10.7281
 Quadrupole moment (field-independent basis, Debye-Ang):
   XX=           -159.6531   YY=           -146.4083   ZZ=           -119.0612
   XY=             -1.0948   XZ=             -3.6498   YZ=              0.5826
 Traceless Quadrupole moment (field-independent basis, Debye-Ang):
   XX=            -17.9456   YY=             -4.7008   ZZ=             22.6463
   XY=             -1.0948   XZ=             -3.6498   YZ=              0.5826
 Octapole moment (field-independent basis, Debye-Ang**2):
  XXX=           -146.3979  YYY=             98.3935  ZZZ=            -13.5585  XYY=            -52.0658
  XXY=             24.1927  XXZ=             -1.6422  XZZ=             10.0083  YZZ=            -10.0214
  YYZ=            -24.0649  XYZ=             -5.6100
 Hexadecapole moment (field-independent basis, Debye-Ang**3):
 XXXX=          -6659.5200 YYYY=          -2810.0083 ZZZZ=           -615.8722 XXXY=           -130.9608
 XXXZ=             69.9509 YYYX=             57.3122 YYYZ=             47.6837 ZZZX=            -25.2706
 ZZZY=            -16.7212 XXYY=          -1883.0491 XXZZ=          -1113.1651 YYZZ=           -550.0891
 XXYZ=             69.1434 YYXZ=            -20.9770 ZZXY=            -23.9546
 N-N= 1.821389145384D+03 E-N=-7.447088913619D+03  KE= 1.611513836287D+03
 Leave Link  601 at Tue Sep 15 08:33:22 2020, MaxMem=   262144000 cpu:               0.8 elap:               0.3
 (Enter /prod/apps/gaussian/g16b1/l9999.exe)
 1\1\GINC-PIRINEUS12\SP\RMP2-FC\Aug-CC-pVDZ\C12H17N1O4S2\UBAFAR01\15-Se
 p-2020\0\\#p mp2/aug-cc-pVDZ scf=(MaxCycle=2000,NoVarAcc,NoIncFock) ma
 xdisk=180GB geom=allcheck\\SM38_m0.n.13.pdb.xyz\\0,1\C,0,0.4328290468,
 3.3258410813,-0.4323479017\S,0,1.816575942,2.3019134094,0.0859454763\N
 ,0,1.7409501622,0.8374647745,-0.7254005361\C,0,0.9049749099,-0.3104126
 687,-0.3062694032\C,0,1.4614474445,-0.9049740256,1.0280620306\S,0,2.42
 09947463,-2.1346385011,0.0864479931\C,0,1.3295532113,-1.4971538787,-1.
 2302025931\O,0,3.8270259095,-1.726649161,-0.1062446336\O,0,2.150685993
 2,-3.5353721106,0.465166945\C,0,-0.5983904193,0.011657229,-0.311341862
 9\C,0,-1.5607594069,-1.138965911,0.0362501617\C,0,-2.9995256815,-0.667
 4244666,0.0430918453\C,0,-3.7747628531,-0.7140665604,-1.123193591\C,0,
 -5.0909753181,-0.2487336014,-1.1274341382\C,0,-5.6537225321,0.27195845
 69,0.0398832889\C,0,-4.8919490178,0.32123921,1.2092202006\C,0,-3.57632
 47878,-0.1450460919,1.2087788695\O,0,3.0388201121,2.9581498884,-0.3980
 14957\O,0,1.6702384268,2.0117833752,1.5209756232\H,0,0.4901877938,3.46
 9691684,-1.5109879469\H,0,0.5376777828,4.2799678723,0.0858250625\H,0,-
 0.4975389648,2.8379827644,-0.1524596661\H,0,1.7444087737,0.9971301662,
 -1.7342138012\H,0,0.7051420397,-1.4196427613,1.6196084943\H,0,2.051092
 9588,-0.2302401251,1.641393769\H,0,0.5275248049,-2.2109232865,-1.41822
 71683\H,0,1.8452273348,-1.2435461072,-2.1547797407\H,0,-0.850852758,0.
 4000281712,-1.3039847384\H,0,-0.7647005977,0.8246498473,0.4023609793\H
 ,0,-1.3108928281,-1.5487432256,1.0197322854\H,0,-1.4511545417,-1.95071
 54821,-0.6892746716\H,0,-3.3440755674,-1.1227468458,-2.0330794886\H,0,
 -5.6767946043,-0.2966643067,-2.0399074898\H,0,-6.6777412319,0.63181267
 86,0.0394719774\H,0,-5.3224062375,0.7187065054,2.1229481994\H,0,-2.990
 7900452,-0.1083179968,2.1232011268\\Version=ES64L-G16RevB.01\State=1-A
 \HF=-1613.1834142\MP2=-1616.1704022\RMSD=4.781e-09\PG=C01 [X(C12H17N1O
 4S2)]\\@


 IN THE UNIVERSE THE DIFFICULT THINGS ARE DONE AS IF THEY WERE EASY.

                                                          -- LAO-TSU
 Job cpu time:       0 days  2 hours 38 minutes 59.3 seconds.
 Elapsed time:       0 days  0 hours 42 minutes 31.7 seconds.
 File lengths (MBytes):  RWF= 115063 Int=      0 D2E=      0 Chk=     29 Scr=      1
 Normal termination of Gaussian 16 at Tue Sep 15 08:33:24 2020.
