 Entering Gaussian System, Link 0=g16
 Initial command:
 /prod/apps/gaussian/g16b1/l1.exe "/tmp/ubafar01/1460141/Gau-6830.inp" -scrdir="/tmp/ubafar01/1460141/"
 Entering Link 1 = /prod/apps/gaussian/g16b1/l1.exe PID=      6832.
  
 Copyright (c) 1988-2017, Gaussian, Inc.  All Rights Reserved.
  
 This is part of the Gaussian(R) 16 program.  It is based on
 the Gaussian(R) 09 system (copyright 2009, Gaussian, Inc.),
 the Gaussian(R) 03 system (copyright 2003, Gaussian, Inc.),
 the Gaussian(R) 98 system (copyright 1998, Gaussian, Inc.),
 the Gaussian(R) 94 system (copyright 1995, Gaussian, Inc.),
 the Gaussian 92(TM) system (copyright 1992, Gaussian, Inc.),
 the Gaussian 90(TM) system (copyright 1990, Gaussian, Inc.),
 the Gaussian 88(TM) system (copyright 1988, Gaussian, Inc.),
 the Gaussian 86(TM) system (copyright 1986, Carnegie Mellon
 University), and the Gaussian 82(TM) system (copyright 1983,
 Carnegie Mellon University). Gaussian is a federally registered
 trademark of Gaussian, Inc.
  
 This software contains proprietary and confidential information,
 including trade secrets, belonging to Gaussian, Inc.
  
 This software is provided under written license and may be
 used, copied, transmitted, or stored only in accord with that
 written license.
  
 The following legend is applicable only to US Government
 contracts under FAR:
  
                    RESTRICTED RIGHTS LEGEND
  
 Use, reproduction and disclosure by the US Government is
 subject to restrictions as set forth in subparagraphs (a)
 and (c) of the Commercial Computer Software - Restricted
 Rights clause in FAR 52.227-19.
  
 Gaussian, Inc.
 340 Quinnipiac St., Bldg. 40, Wallingford CT 06492
  
  
 ---------------------------------------------------------------
 Warning -- This program may not be used in any manner that
 competes with the business of Gaussian, Inc. or will provide
 assistance to any competitor of Gaussian, Inc.  The licensee
 of this program is prohibited from giving any competitor of
 Gaussian, Inc. access to this program.  By using this program,
 the user acknowledges that Gaussian, Inc. is engaged in the
 business of creating and licensing software in the field of
 computational chemistry and represents and warrants to the
 licensee that it is not a competitor of Gaussian, Inc. and that
 it will not use this program in any manner prohibited above.
 ---------------------------------------------------------------
  

 Cite this work as:
 Gaussian 16, Revision B.01,
 M. J. Frisch, G. W. Trucks, H. B. Schlegel, G. E. Scuseria, 
 M. A. Robb, J. R. Cheeseman, G. Scalmani, V. Barone, 
 G. A. Petersson, H. Nakatsuji, X. Li, M. Caricato, A. V. Marenich, 
 J. Bloino, B. G. Janesko, R. Gomperts, B. Mennucci, H. P. Hratchian, 
 J. V. Ortiz, A. F. Izmaylov, J. L. Sonnenberg, D. Williams-Young, 
 F. Ding, F. Lipparini, F. Egidi, J. Goings, B. Peng, A. Petrone, 
 T. Henderson, D. Ranasinghe, V. G. Zakrzewski, J. Gao, N. Rega, 
 G. Zheng, W. Liang, M. Hada, M. Ehara, K. Toyota, R. Fukuda, 
 J. Hasegawa, M. Ishida, T. Nakajima, Y. Honda, O. Kitao, H. Nakai, 
 T. Vreven, K. Throssell, J. A. Montgomery, Jr., J. E. Peralta, 
 F. Ogliaro, M. J. Bearpark, J. J. Heyd, E. N. Brothers, K. N. Kudin, 
 V. N. Staroverov, T. A. Keith, R. Kobayashi, J. Normand, 
 K. Raghavachari, A. P. Rendell, J. C. Burant, S. S. Iyengar, 
 J. Tomasi, M. Cossi, J. M. Millam, M. Klene, C. Adamo, R. Cammi, 
 J. W. Ochterski, R. L. Martin, K. Morokuma, O. Farkas, 
 J. B. Foresman, and D. J. Fox, Gaussian, Inc., Wallingford CT, 2016.
 
 ******************************************
 Gaussian 16:  ES64L-G16RevB.01 20-Dec-2017
                21-Sep-2020 
 ******************************************
 %nproc=4
 Will use up to    4 processors via shared memory.
 %Chk=SM38_m0.n.11.pdb.xyz.mst.n.w.chk
 %mem=16GB
 ----------------------------------------------------------------------
 #p b3lyp/6-31G(d) opt freq NoSymm scf=(MaxCycle=2000,NoVarAcc,NoIncFoc
 k) scrf=(iefpcm,read,solvent=water)
 ----------------------------------------------------------------------
 1/18=20,19=15,26=3,38=1,40=2/1,3;
 2/9=110,12=2,15=1,17=6,18=5,40=1/2;
 3/5=1,6=6,7=1,11=2,25=1,30=1,70=2203,71=1,72=1,74=-5/1,2,3;
 4//1;
 5/5=100002,7=2000,38=1,53=1/2;
 6/7=2,8=2,9=2,10=2,28=1/1;
 7/30=1/1,2,3,16;
 1/18=20,19=15,26=3/3(2);
 2/9=110,15=1/2;
 99//99;
 2/9=110,15=1/2;
 3/5=1,6=6,7=1,11=2,25=1,30=1,70=2205,71=1,72=1,74=-5/1,2,3;
 4/5=5,16=3,69=1/1;
 5/5=100002,7=2000,38=1,53=1/2;
 7/30=1/1,2,3,16;
 1/18=20,19=15,26=3/3(-5);
 2/9=110,15=1/2;
 6/7=2,8=2,9=2,10=2,19=2,28=1/1;
 99/9=1/99;
 Leave Link    1 at Mon Sep 21 07:19:09 2020, MaxMem=  2147483648 cpu:               0.2 elap:               0.1
 (Enter /prod/apps/gaussian/g16b1/l101.exe)
 --------------------
 SM38_m0.n.11.pdb.xyz
 --------------------
 Symbolic Z-matrix:
 Charge =  0 Multiplicity = 1
 C                    -3.419    -3.066    -0.515 
 S                    -3.078    -1.406     0.061 
 N                    -1.401    -1.356    -0.147 
 C                    -0.641    -0.092    -0.046 
 C                    -1.018     0.849     1.156 
 S                    -1.31      2.229    -0.002 
 C                    -0.985     0.897    -1.207 
 O                    -2.705     2.712    -0.01 
 O                    -0.229     3.235     0.035 
 C                     0.84     -0.523    -0.031 
 C                     1.883     0.607     0.007 
 C                     3.291     0.054     0.008 
 C                     3.966    -0.187    -1.196 
 C                     5.257    -0.718    -1.201 
 C                     5.895    -1.02      0.004 
 C                     5.233    -0.784     1.211 
 C                     3.942    -0.252     1.211 
 O                    -3.668    -0.421    -0.862 
 O                    -3.468    -1.315     1.483 
 H                    -3.11     -3.147    -1.556 
 H                    -4.495    -3.211    -0.414 
 H                    -2.883    -3.776     0.112 
 H                    -0.996    -2.075     0.459 
 H                    -0.215     1.06      1.86 
 H                    -1.929     0.569     1.683 
 H                    -0.166     1.135    -1.887 
 H                    -1.891     0.641    -1.75 
 H                     1.007    -1.143    -0.918 
 H                     0.993    -1.165     0.844 
 H                     1.734     1.221     0.901 
 H                     1.756     1.266    -0.856 
 H                     3.478     0.052    -2.137 
 H                     5.765    -0.892    -2.144 
 H                     6.9      -1.43      0.003 
 H                     5.722    -1.009     2.154 
 H                     3.435    -0.065     2.154 
 
 ITRead=  0  0  0  0  0  0  0  0  0  0  0  0  0  0  0  0  0  0  0  0
 ITRead=  0  0  0  0  0  0  0  0  0  0  0  0  0  0  0  0
 MicOpt= -1 -1 -1 -1 -1 -1 -1 -1 -1 -1 -1 -1 -1 -1 -1 -1 -1 -1 -1 -1
 MicOpt= -1 -1 -1 -1 -1 -1 -1 -1 -1 -1 -1 -1 -1 -1 -1 -1
 NAtoms=     36 NQM=       36 NQMF=       0 NMMI=      0 NMMIF=      0
                NMic=       0 NMicF=      0.
                    Isotopes and Nuclear Properties:
 (Nuclear quadrupole moments (NQMom) in fm**2, nuclear magnetic moments (NMagM)
  in nuclear magnetons)

  Atom         1           2           3           4           5           6           7           8           9          10
 IAtWgt=          12          32          14          12          12          32          12          16          16          12
 AtmWgt=  12.0000000  31.9720718  14.0030740  12.0000000  12.0000000  31.9720718  12.0000000  15.9949146  15.9949146  12.0000000
 NucSpn=           0           0           2           0           0           0           0           0           0           0
 AtZEff=  -0.0000000  -0.0000000  -0.0000000  -0.0000000  -0.0000000  -0.0000000  -0.0000000  -0.0000000  -0.0000000  -0.0000000
 NQMom=    0.0000000   0.0000000   2.0440000   0.0000000   0.0000000   0.0000000   0.0000000   0.0000000   0.0000000   0.0000000
 NMagM=    0.0000000   0.0000000   0.4037610   0.0000000   0.0000000   0.0000000   0.0000000   0.0000000   0.0000000   0.0000000
 AtZNuc=   6.0000000  16.0000000   7.0000000   6.0000000   6.0000000  16.0000000   6.0000000   8.0000000   8.0000000   6.0000000

  Atom        11          12          13          14          15          16          17          18          19          20
 IAtWgt=          12          12          12          12          12          12          12          16          16           1
 AtmWgt=  12.0000000  12.0000000  12.0000000  12.0000000  12.0000000  12.0000000  12.0000000  15.9949146  15.9949146   1.0078250
 NucSpn=           0           0           0           0           0           0           0           0           0           1
 AtZEff=  -0.0000000  -0.0000000  -0.0000000  -0.0000000  -0.0000000  -0.0000000  -0.0000000  -0.0000000  -0.0000000  -0.0000000
 NQMom=    0.0000000   0.0000000   0.0000000   0.0000000   0.0000000   0.0000000   0.0000000   0.0000000   0.0000000   0.0000000
 NMagM=    0.0000000   0.0000000   0.0000000   0.0000000   0.0000000   0.0000000   0.0000000   0.0000000   0.0000000   2.7928460
 AtZNuc=   6.0000000   6.0000000   6.0000000   6.0000000   6.0000000   6.0000000   6.0000000   8.0000000   8.0000000   1.0000000

  Atom        21          22          23          24          25          26          27          28          29          30
 IAtWgt=           1           1           1           1           1           1           1           1           1           1
 AtmWgt=   1.0078250   1.0078250   1.0078250   1.0078250   1.0078250   1.0078250   1.0078250   1.0078250   1.0078250   1.0078250
 NucSpn=           1           1           1           1           1           1           1           1           1           1
 AtZEff=  -0.0000000  -0.0000000  -0.0000000  -0.0000000  -0.0000000  -0.0000000  -0.0000000  -0.0000000  -0.0000000  -0.0000000
 NQMom=    0.0000000   0.0000000   0.0000000   0.0000000   0.0000000   0.0000000   0.0000000   0.0000000   0.0000000   0.0000000
 NMagM=    2.7928460   2.7928460   2.7928460   2.7928460   2.7928460   2.7928460   2.7928460   2.7928460   2.7928460   2.7928460
 AtZNuc=   1.0000000   1.0000000   1.0000000   1.0000000   1.0000000   1.0000000   1.0000000   1.0000000   1.0000000   1.0000000

  Atom        31          32          33          34          35          36
 IAtWgt=           1           1           1           1           1           1
 AtmWgt=   1.0078250   1.0078250   1.0078250   1.0078250   1.0078250   1.0078250
 NucSpn=           1           1           1           1           1           1
 AtZEff=  -0.0000000  -0.0000000  -0.0000000  -0.0000000  -0.0000000  -0.0000000
 NQMom=    0.0000000   0.0000000   0.0000000   0.0000000   0.0000000   0.0000000
 NMagM=    2.7928460   2.7928460   2.7928460   2.7928460   2.7928460   2.7928460
 AtZNuc=   1.0000000   1.0000000   1.0000000   1.0000000   1.0000000   1.0000000
 Leave Link  101 at Mon Sep 21 07:19:09 2020, MaxMem=  2147483648 cpu:               1.3 elap:               0.3
 (Enter /prod/apps/gaussian/g16b1/l103.exe)

 GradGradGradGradGradGradGradGradGradGradGradGradGradGradGradGradGradGrad
 Berny optimization.
 Initialization pass.
                           ----------------------------
                           !    Initial Parameters    !
                           ! (Angstroms and Degrees)  !
 --------------------------                            --------------------------
 ! Name  Definition              Value          Derivative Info.                !
 --------------------------------------------------------------------------------
 ! R1    R(1,2)                  1.7899         estimate D2E/DX2                !
 ! R2    R(1,20)                 1.0889         estimate D2E/DX2                !
 ! R3    R(1,21)                 1.0904         estimate D2E/DX2                !
 ! R4    R(1,22)                 1.0884         estimate D2E/DX2                !
 ! R5    R(2,3)                  1.6906         estimate D2E/DX2                !
 ! R6    R(2,18)                 1.4732         estimate D2E/DX2                !
 ! R7    R(2,19)                 1.4773         estimate D2E/DX2                !
 ! R8    R(3,4)                  1.4783         estimate D2E/DX2                !
 ! R9    R(3,23)                 1.0238         estimate D2E/DX2                !
 ! R10   R(4,5)                  1.5724         estimate D2E/DX2                !
 ! R11   R(4,7)                  1.5635         estimate D2E/DX2                !
 ! R12   R(4,10)                 1.5425         estimate D2E/DX2                !
 ! R13   R(5,6)                  1.825          estimate D2E/DX2                !
 ! R14   R(5,24)                 1.0886         estimate D2E/DX2                !
 ! R15   R(5,25)                 1.0891         estimate D2E/DX2                !
 ! R16   R(6,7)                  1.8253         estimate D2E/DX2                !
 ! R17   R(6,8)                  1.4763         estimate D2E/DX2                !
 ! R18   R(6,9)                  1.4771         estimate D2E/DX2                !
 ! R19   R(7,26)                 1.0908         estimate D2E/DX2                !
 ! R20   R(7,27)                 1.0868         estimate D2E/DX2                !
 ! R21   R(10,11)                1.5382         estimate D2E/DX2                !
 ! R22   R(10,28)                1.095          estimate D2E/DX2                !
 ! R23   R(10,29)                1.096          estimate D2E/DX2                !
 ! R24   R(11,12)                1.5127         estimate D2E/DX2                !
 ! R25   R(11,30)                1.0947         estimate D2E/DX2                !
 ! R26   R(11,31)                1.0932         estimate D2E/DX2                !
 ! R27   R(12,13)                1.4012         estimate D2E/DX2                !
 ! R28   R(12,17)                1.4017         estimate D2E/DX2                !
 ! R29   R(13,14)                1.3959         estimate D2E/DX2                !
 ! R30   R(13,32)                1.0866         estimate D2E/DX2                !
 ! R31   R(14,15)                1.3965         estimate D2E/DX2                !
 ! R32   R(14,33)                1.0852         estimate D2E/DX2                !
 ! R33   R(15,16)                1.3967         estimate D2E/DX2                !
 ! R34   R(15,34)                1.0854         estimate D2E/DX2                !
 ! R35   R(16,17)                1.3963         estimate D2E/DX2                !
 ! R36   R(16,35)                1.0858         estimate D2E/DX2                !
 ! R37   R(17,36)                1.0869         estimate D2E/DX2                !
 ! A1    A(2,1,20)             108.8189         estimate D2E/DX2                !
 ! A2    A(2,1,21)             106.3508         estimate D2E/DX2                !
 ! A3    A(2,1,22)             109.0142         estimate D2E/DX2                !
 ! A4    A(20,1,21)            111.019          estimate D2E/DX2                !
 ! A5    A(20,1,22)            111.252          estimate D2E/DX2                !
 ! A6    A(21,1,22)            110.2346         estimate D2E/DX2                !
 ! A7    A(1,2,3)              100.1846         estimate D2E/DX2                !
 ! A8    A(1,2,18)             110.0097         estimate D2E/DX2                !
 ! A9    A(1,2,19)             108.4571         estimate D2E/DX2                !
 ! A10   A(3,2,18)             107.4825         estimate D2E/DX2                !
 ! A11   A(3,2,19)             112.2393         estimate D2E/DX2                !
 ! A12   A(18,2,19)            117.1398         estimate D2E/DX2                !
 ! A13   A(2,3,4)              121.7921         estimate D2E/DX2                !
 ! A14   A(2,3,23)             107.3856         estimate D2E/DX2                !
 ! A15   A(4,3,23)             110.8944         estimate D2E/DX2                !
 ! A16   A(3,4,5)              116.1454         estimate D2E/DX2                !
 ! A17   A(3,4,7)              112.1488         estimate D2E/DX2                !
 ! A18   A(3,4,10)             104.7943         estimate D2E/DX2                !
 ! A19   A(5,4,7)               97.8364         estimate D2E/DX2                !
 ! A20   A(5,4,10)             112.9534         estimate D2E/DX2                !
 ! A21   A(7,4,10)             113.2799         estimate D2E/DX2                !
 ! A22   A(4,5,6)               90.3344         estimate D2E/DX2                !
 ! A23   A(4,5,24)             115.6912         estimate D2E/DX2                !
 ! A24   A(4,5,25)             114.621          estimate D2E/DX2                !
 ! A25   A(6,5,24)             112.4465         estimate D2E/DX2                !
 ! A26   A(6,5,25)             111.5688         estimate D2E/DX2                !
 ! A27   A(24,5,25)            110.729          estimate D2E/DX2                !
 ! A28   A(5,6,7)               80.7117         estimate D2E/DX2                !
 ! A29   A(5,6,8)              113.7051         estimate D2E/DX2                !
 ! A30   A(5,6,9)              112.4573         estimate D2E/DX2                !
 ! A31   A(7,6,8)              113.792          estimate D2E/DX2                !
 ! A32   A(7,6,9)              112.5327         estimate D2E/DX2                !
 ! A33   A(8,6,9)              117.9592         estimate D2E/DX2                !
 ! A34   A(4,7,6)               90.6052         estimate D2E/DX2                !
 ! A35   A(4,7,26)             115.8332         estimate D2E/DX2                !
 ! A36   A(4,7,27)             113.9176         estimate D2E/DX2                !
 ! A37   A(6,7,26)             112.7063         estimate D2E/DX2                !
 ! A38   A(6,7,27)             110.6881         estimate D2E/DX2                !
 ! A39   A(26,7,27)            111.4591         estimate D2E/DX2                !
 ! A40   A(4,10,11)            116.4866         estimate D2E/DX2                !
 ! A41   A(4,10,28)            107.2628         estimate D2E/DX2                !
 ! A42   A(4,10,29)            107.7864         estimate D2E/DX2                !
 ! A43   A(11,10,28)           109.4228         estimate D2E/DX2                !
 ! A44   A(11,10,29)           108.4171         estimate D2E/DX2                !
 ! A45   A(28,10,29)           107.0824         estimate D2E/DX2                !
 ! A46   A(10,11,12)           111.2588         estimate D2E/DX2                !
 ! A47   A(10,11,30)           109.871          estimate D2E/DX2                !
 ! A48   A(10,11,31)           110.1541         estimate D2E/DX2                !
 ! A49   A(12,11,30)           109.3406         estimate D2E/DX2                !
 ! A50   A(12,11,31)           109.2089         estimate D2E/DX2                !
 ! A51   A(30,11,31)           106.903          estimate D2E/DX2                !
 ! A52   A(11,12,13)           120.7105         estimate D2E/DX2                !
 ! A53   A(11,12,17)           120.8424         estimate D2E/DX2                !
 ! A54   A(13,12,17)           118.4372         estimate D2E/DX2                !
 ! A55   A(12,13,14)           120.9321         estimate D2E/DX2                !
 ! A56   A(12,13,32)           119.3368         estimate D2E/DX2                !
 ! A57   A(14,13,32)           119.729          estimate D2E/DX2                !
 ! A58   A(13,14,15)           120.1107         estimate D2E/DX2                !
 ! A59   A(13,14,33)           119.8045         estimate D2E/DX2                !
 ! A60   A(15,14,33)           120.0844         estimate D2E/DX2                !
 ! A61   A(14,15,16)           119.5108         estimate D2E/DX2                !
 ! A62   A(14,15,34)           120.2579         estimate D2E/DX2                !
 ! A63   A(16,15,34)           120.2304         estimate D2E/DX2                !
 ! A64   A(15,16,17)           120.1722         estimate D2E/DX2                !
 ! A65   A(15,16,35)           120.1353         estimate D2E/DX2                !
 ! A66   A(17,16,35)           119.6918         estimate D2E/DX2                !
 ! A67   A(12,17,16)           120.8369         estimate D2E/DX2                !
 ! A68   A(12,17,36)           119.3699         estimate D2E/DX2                !
 ! A69   A(16,17,36)           119.7918         estimate D2E/DX2                !
 ! D1    D(20,1,2,3)           -60.8391         estimate D2E/DX2                !
 ! D2    D(20,1,2,18)           52.1313         estimate D2E/DX2                !
 ! D3    D(20,1,2,19)         -178.5719         estimate D2E/DX2                !
 ! D4    D(21,1,2,3)           179.4984         estimate D2E/DX2                !
 ! D5    D(21,1,2,18)          -67.5312         estimate D2E/DX2                !
 ! D6    D(21,1,2,19)           61.7657         estimate D2E/DX2                !
 ! D7    D(22,1,2,3)            60.6597         estimate D2E/DX2                !
 ! D8    D(22,1,2,18)          173.6301         estimate D2E/DX2                !
 ! D9    D(22,1,2,19)          -57.073          estimate D2E/DX2                !
 ! D10   D(1,2,3,4)            168.4879         estimate D2E/DX2                !
 ! D11   D(1,2,3,23)           -62.1838         estimate D2E/DX2                !
 ! D12   D(18,2,3,4)            53.5852         estimate D2E/DX2                !
 ! D13   D(18,2,3,23)         -177.0864         estimate D2E/DX2                !
 ! D14   D(19,2,3,4)           -76.6162         estimate D2E/DX2                !
 ! D15   D(19,2,3,23)           52.7121         estimate D2E/DX2                !
 ! D16   D(2,3,4,5)             44.2711         estimate D2E/DX2                !
 ! D17   D(2,3,4,7)            -67.0625         estimate D2E/DX2                !
 ! D18   D(2,3,4,10)           169.6496         estimate D2E/DX2                !
 ! D19   D(23,3,4,5)           -83.5294         estimate D2E/DX2                !
 ! D20   D(23,3,4,7)           165.137          estimate D2E/DX2                !
 ! D21   D(23,3,4,10)           41.849          estimate D2E/DX2                !
 ! D22   D(3,4,5,6)           -125.2711         estimate D2E/DX2                !
 ! D23   D(3,4,5,24)           119.4818         estimate D2E/DX2                !
 ! D24   D(3,4,5,25)           -11.2505         estimate D2E/DX2                !
 ! D25   D(7,4,5,6)             -5.8316         estimate D2E/DX2                !
 ! D26   D(7,4,5,24)          -121.0786         estimate D2E/DX2                !
 ! D27   D(7,4,5,25)           108.189          estimate D2E/DX2                !
 ! D28   D(10,4,5,6)           113.6104         estimate D2E/DX2                !
 ! D29   D(10,4,5,24)           -1.6367         estimate D2E/DX2                !
 ! D30   D(10,4,5,25)         -132.369          estimate D2E/DX2                !
 ! D31   D(3,4,7,6)            128.2604         estimate D2E/DX2                !
 ! D32   D(3,4,7,26)          -116.0177         estimate D2E/DX2                !
 ! D33   D(3,4,7,27)            15.233          estimate D2E/DX2                !
 ! D34   D(5,4,7,6)              5.8307         estimate D2E/DX2                !
 ! D35   D(5,4,7,26)           121.5526         estimate D2E/DX2                !
 ! D36   D(5,4,7,27)          -107.1968         estimate D2E/DX2                !
 ! D37   D(10,4,7,6)          -113.3631         estimate D2E/DX2                !
 ! D38   D(10,4,7,26)            2.3588         estimate D2E/DX2                !
 ! D39   D(10,4,7,27)          133.6094         estimate D2E/DX2                !
 ! D40   D(3,4,10,11)          177.3992         estimate D2E/DX2                !
 ! D41   D(3,4,10,28)           54.4494         estimate D2E/DX2                !
 ! D42   D(3,4,10,29)          -60.558          estimate D2E/DX2                !
 ! D43   D(5,4,10,11)          -55.2422         estimate D2E/DX2                !
 ! D44   D(5,4,10,28)         -178.192          estimate D2E/DX2                !
 ! D45   D(5,4,10,29)           66.8006         estimate D2E/DX2                !
 ! D46   D(7,4,10,11)           54.8426         estimate D2E/DX2                !
 ! D47   D(7,4,10,28)          -68.1072         estimate D2E/DX2                !
 ! D48   D(7,4,10,29)          176.8854         estimate D2E/DX2                !
 ! D49   D(4,5,6,7)              5.0118         estimate D2E/DX2                !
 ! D50   D(4,5,6,8)            117.0136         estimate D2E/DX2                !
 ! D51   D(4,5,6,9)           -105.6326         estimate D2E/DX2                !
 ! D52   D(24,5,6,7)           123.142          estimate D2E/DX2                !
 ! D53   D(24,5,6,8)          -124.8561         estimate D2E/DX2                !
 ! D54   D(24,5,6,9)            12.4977         estimate D2E/DX2                !
 ! D55   D(25,5,6,7)          -111.751          estimate D2E/DX2                !
 ! D56   D(25,5,6,8)             0.2508         estimate D2E/DX2                !
 ! D57   D(25,5,6,9)           137.6046         estimate D2E/DX2                !
 ! D58   D(5,6,7,4)             -5.0407         estimate D2E/DX2                !
 ! D59   D(5,6,7,26)          -123.5179         estimate D2E/DX2                !
 ! D60   D(5,6,7,27)           110.8962         estimate D2E/DX2                !
 ! D61   D(8,6,7,4)           -116.9476         estimate D2E/DX2                !
 ! D62   D(8,6,7,26)           124.5752         estimate D2E/DX2                !
 ! D63   D(8,6,7,27)            -1.0107         estimate D2E/DX2                !
 ! D64   D(9,6,7,4)            105.5206         estimate D2E/DX2                !
 ! D65   D(9,6,7,26)           -12.9566         estimate D2E/DX2                !
 ! D66   D(9,6,7,27)          -138.5425         estimate D2E/DX2                !
 ! D67   D(4,10,11,12)        -179.5726         estimate D2E/DX2                !
 ! D68   D(4,10,11,30)          59.1973         estimate D2E/DX2                !
 ! D69   D(4,10,11,31)         -58.3172         estimate D2E/DX2                !
 ! D70   D(28,10,11,12)        -57.752          estimate D2E/DX2                !
 ! D71   D(28,10,11,30)       -178.9821         estimate D2E/DX2                !
 ! D72   D(28,10,11,31)         63.5034         estimate D2E/DX2                !
 ! D73   D(29,10,11,12)         58.7161         estimate D2E/DX2                !
 ! D74   D(29,10,11,30)        -62.514          estimate D2E/DX2                !
 ! D75   D(29,10,11,31)        179.9715         estimate D2E/DX2                !
 ! D76   D(10,11,12,13)         89.5632         estimate D2E/DX2                !
 ! D77   D(10,11,12,17)        -89.2739         estimate D2E/DX2                !
 ! D78   D(30,11,12,13)       -148.897          estimate D2E/DX2                !
 ! D79   D(30,11,12,17)         32.2659         estimate D2E/DX2                !
 ! D80   D(31,11,12,13)        -32.2433         estimate D2E/DX2                !
 ! D81   D(31,11,12,17)        148.9196         estimate D2E/DX2                !
 ! D82   D(11,12,13,14)       -178.9281         estimate D2E/DX2                !
 ! D83   D(11,12,13,32)          1.6048         estimate D2E/DX2                !
 ! D84   D(17,12,13,14)         -0.0635         estimate D2E/DX2                !
 ! D85   D(17,12,13,32)       -179.5307         estimate D2E/DX2                !
 ! D86   D(11,12,17,16)        178.8891         estimate D2E/DX2                !
 ! D87   D(11,12,17,36)         -1.5387         estimate D2E/DX2                !
 ! D88   D(13,12,17,16)          0.0261         estimate D2E/DX2                !
 ! D89   D(13,12,17,36)        179.5984         estimate D2E/DX2                !
 ! D90   D(12,13,14,15)          0.1213         estimate D2E/DX2                !
 ! D91   D(12,13,14,33)       -179.6484         estimate D2E/DX2                !
 ! D92   D(32,13,14,15)        179.5863         estimate D2E/DX2                !
 ! D93   D(32,13,14,33)         -0.1834         estimate D2E/DX2                !
 ! D94   D(13,14,15,16)         -0.1394         estimate D2E/DX2                !
 ! D95   D(13,14,15,34)       -179.8045         estimate D2E/DX2                !
 ! D96   D(33,14,15,16)        179.6297         estimate D2E/DX2                !
 ! D97   D(33,14,15,34)         -0.0355         estimate D2E/DX2                !
 ! D98   D(14,15,16,17)          0.1025         estimate D2E/DX2                !
 ! D99   D(14,15,16,35)       -179.6009         estimate D2E/DX2                !
 ! D100  D(34,15,16,17)        179.7677         estimate D2E/DX2                !
 ! D101  D(34,15,16,35)          0.0643         estimate D2E/DX2                !
 ! D102  D(15,16,17,12)         -0.0465         estimate D2E/DX2                !
 ! D103  D(15,16,17,36)       -179.6169         estimate D2E/DX2                !
 ! D104  D(35,16,17,12)        179.6583         estimate D2E/DX2                !
 ! D105  D(35,16,17,36)          0.0879         estimate D2E/DX2                !
 --------------------------------------------------------------------------------
 Trust Radius=3.00D-01 FncErr=1.00D-07 GrdErr=1.00D-06 EigMax=2.50D+02 EigMin=1.00D-04
 Number of steps in this run=    216 maximum allowed number of steps=    216.
 GradGradGradGradGradGradGradGradGradGradGradGradGradGradGradGradGradGrad

 Leave Link  103 at Mon Sep 21 07:19:09 2020, MaxMem=  2147483648 cpu:               0.1 elap:               0.0
 (Enter /prod/apps/gaussian/g16b1/l202.exe)
                          Input orientation:                          
 ---------------------------------------------------------------------
 Center     Atomic      Atomic             Coordinates (Angstroms)
 Number     Number       Type             X           Y           Z
 ---------------------------------------------------------------------
      1          6           0       -3.419000   -3.066000   -0.515000
      2         16           0       -3.078000   -1.406000    0.061000
      3          7           0       -1.401000   -1.356000   -0.147000
      4          6           0       -0.641000   -0.092000   -0.046000
      5          6           0       -1.018000    0.849000    1.156000
      6         16           0       -1.310000    2.229000   -0.002000
      7          6           0       -0.985000    0.897000   -1.207000
      8          8           0       -2.705000    2.712000   -0.010000
      9          8           0       -0.229000    3.235000    0.035000
     10          6           0        0.840000   -0.523000   -0.031000
     11          6           0        1.883000    0.607000    0.007000
     12          6           0        3.291000    0.054000    0.008000
     13          6           0        3.966000   -0.187000   -1.196000
     14          6           0        5.257000   -0.718000   -1.201000
     15          6           0        5.895000   -1.020000    0.004000
     16          6           0        5.233000   -0.784000    1.211000
     17          6           0        3.942000   -0.252000    1.211000
     18          8           0       -3.668000   -0.421000   -0.862000
     19          8           0       -3.468000   -1.315000    1.483000
     20          1           0       -3.110000   -3.147000   -1.556000
     21          1           0       -4.495000   -3.211000   -0.414000
     22          1           0       -2.883000   -3.776000    0.112000
     23          1           0       -0.996000   -2.075000    0.459000
     24          1           0       -0.215000    1.060000    1.860000
     25          1           0       -1.929000    0.569000    1.683000
     26          1           0       -0.166000    1.135000   -1.887000
     27          1           0       -1.891000    0.641000   -1.750000
     28          1           0        1.007000   -1.143000   -0.918000
     29          1           0        0.993000   -1.165000    0.844000
     30          1           0        1.734000    1.221000    0.901000
     31          1           0        1.756000    1.266000   -0.856000
     32          1           0        3.478000    0.052000   -2.137000
     33          1           0        5.765000   -0.892000   -2.144000
     34          1           0        6.900000   -1.430000    0.003000
     35          1           0        5.722000   -1.009000    2.154000
     36          1           0        3.435000   -0.065000    2.154000
 ---------------------------------------------------------------------
                    Distance matrix (angstroms):
                    1          2          3          4          5
     1  C    0.000000
     2  S    1.789876   0.000000
     3  N    2.670552   1.690590   0.000000
     4  C    4.096574   2.770742   1.478343   0.000000
     5  C    4.887153   3.244634   2.589696   1.572391   0.000000
     6  S    5.722593   4.042650   3.589085   2.415893   1.825001
     7  C    4.701977   3.360399   2.524414   1.563451   2.363718
     8  O    5.843809   4.135468   4.274086   3.481926   2.770613
     9  O    7.083869   5.445765   4.741728   3.353391   2.751755
    10  C    4.983993   4.017322   2.393622   1.542513   2.596828
    11  C    6.471060   5.354120   3.829065   2.619539   3.129627
    12  C    7.418358   6.534414   4.901733   3.935080   4.529615
    13  C    7.955541   7.258371   5.592106   4.749313   5.607625
    14  C    9.014248   8.458027   6.771036   6.042541   6.883790
    15  C    9.550187   8.981479   7.305293   6.601741   7.253264
    16  C    9.112832   8.413210   6.795683   6.046717   6.461015
    17  C    8.067341   7.206568   5.622333   4.754949   5.081026
    18  O    2.679260   1.473178   2.554357   3.152273   3.564789
    19  O    2.657142   1.477317   2.632693   3.438822   3.285167
    20  H    1.088909   2.376298   2.848446   4.208216   5.263024
    21  H    1.090414   2.343403   3.617340   4.971609   5.571178
    22  H    1.088359   2.378555   2.849527   4.315482   5.094977
    23  H    2.793150   2.222766   1.023827   2.076858   3.006005
    24  H    5.738477   4.185012   3.357335   2.267469   1.088552
    25  H    4.501614   2.802090   2.708008   2.255062   1.089059
    26  H    5.487513   4.327947   3.279925   2.262838   3.172940
    27  H    4.195457   2.979748   2.607243   2.236829   3.041419
    28  H    4.842501   4.208899   2.537375   2.140301   3.517125
    29  H    4.992637   4.152615   2.598037   2.147879   2.863156
    30  H    6.851046   5.546357   4.191355   2.874266   2.788712
    31  H    6.757450   5.598931   4.164639   2.871563   3.452117
    32  H    7.740893   7.066690   5.454100   4.621599   5.629660
    33  H    9.577357   9.128246   7.453513   6.788110   7.741458
    34  H   10.460716   9.978197   8.302685   7.658938   8.319734
    35  H    9.742314   9.054185   7.493473   6.794752   7.062278
    36  H    7.943984   6.971234   5.508918   4.631901   4.654096
                    6          7          8          9         10
     6  S    0.000000
     7  C    1.825342   0.000000
     8  O    1.476272   2.772262   0.000000
     9  O    1.477148   2.753242   2.531033   0.000000
    10  C    3.492398   2.594225   4.799239   3.907644   0.000000
    11  C    3.581370   3.127830   5.047877   3.371604   1.538243
    12  C    5.089197   4.524494   6.558758   4.744459   2.518303
    13  C    5.924430   5.068291   7.369738   5.551889   3.352909
    14  C    7.297116   6.447544   8.750819   6.873871   4.573490
    15  C    7.903674   7.244019   9.374861   7.457168   5.079494
    16  C    7.304819   6.880117   8.759264   6.882498   4.572651
    17  C    5.933821   5.607339   7.379617   5.562318   3.352374
    18  O    3.649968   3.009093   3.386586   5.098791   4.585088
    19  O    4.407054   4.277188   4.362104   5.769777   4.634471
    20  H    5.878460   4.581633   6.073057   7.180624   4.981315
    21  H    6.317244   5.461192   6.200746   7.742821   5.986172
    22  H    6.208651   5.213357   6.491588   7.496917   4.946027
    23  H    4.339992   3.407119   5.104509   5.381837   2.453508
    24  H    2.456141   3.166379   3.525068   2.839269   2.682312
    25  H    2.444992   3.057911   2.839168   3.565594   3.434767
    26  H    2.461462   1.090782   3.529388   2.847464   2.684350
    27  H    2.432038   1.086840   2.824754   3.560520   3.430484
    28  H    4.192604   2.865865   5.428115   4.647880   1.095015
    29  H    4.187930   3.517233   5.425463   4.637646   1.095992
    30  H    3.331277   3.455662   4.770506   2.942706   2.170114
    31  H    3.325213   2.787910   4.765202   2.934462   2.172603
    32  H    5.676486   4.636517   7.058981   5.347048   3.424165
    33  H    8.023991   7.045636   9.449004   7.596592   5.371830
    34  H    8.988460   8.309769  10.460036   8.519735   6.127594
    35  H    8.036293   7.740349   9.462720   7.610263   5.370693
    36  H    5.694365   5.635438   7.077727   5.367034   3.423158
                   11         12         13         14         15
    11  C    0.000000
    12  C    1.512704   0.000000
    13  C    2.533088   1.401186   0.000000
    14  C    3.820833   2.433685   1.395947   0.000000
    15  C    4.329351   2.816790   2.419696   1.396522   0.000000
    16  C    3.821910   2.433273   2.784842   2.413022   1.396706
    17  C    2.535149   1.401658   2.407997   2.786418   2.420926
    18  O    5.711878   7.029239   7.644885   8.936373   9.620797
    19  O    5.874169   7.052224   7.982091   9.147999   9.483683
    20  H    6.439374   7.325660   7.678605   8.719676   9.383376
    21  H    7.445351   8.453408   9.019125  10.096332  10.626726
    22  H    6.475837   7.266223   7.842231   8.794028   9.201113
    23  H    3.960564   4.807745   5.561026   6.610375   6.986124
    24  H    2.835564   4.090718   5.326810   6.517192   6.715894
    25  H    4.164344   5.506292   6.603878   7.849358   8.158366
    26  H    2.839792   4.087840   4.393016   5.771753   6.704896
    27  H    4.163086   5.503477   5.941124   7.296724   8.152131
    28  H    2.164602   2.739880   3.122003   4.280562   4.975717
    29  H    2.152360   2.732336   3.735882   4.750108   4.975563
    30  H    1.094730   2.140931   3.370712   4.537582   4.810469
    31  H    1.093242   2.138145   2.666629   4.038847   4.805904
    32  H    2.729246   2.153137   1.086621   2.152635   3.402198
    33  H    4.684413   3.412726   2.152238   1.085168   2.155734
    34  H    5.414764   3.902200   3.404557   2.157779   1.085415
    35  H    4.686042   3.412484   3.870623   3.399549   2.156977
    36  H    2.733111   2.154115   3.394016   3.873257   3.403840
                   16         17         18         19         20
    16  C    0.000000
    17  C    1.396318   0.000000
    18  O    9.146415   7.889106   0.000000
    19  O    8.721430   7.490798   2.517590   0.000000
    20  H    9.101962   8.109748   2.867765   3.566498   0.000000
    21  H   10.157014   9.087314   2.944271   2.871960   1.796242
    22  H    8.719479   7.759317   3.580632   2.877219   1.797051
    23  H    6.405671   5.317206   3.408862   2.781539   3.111014
    24  H    5.788112   4.407175   4.639596   4.045338   6.144016
    25  H    7.303947   5.946887   3.237475   2.440897   5.068978
    26  H    6.513783   5.328887   3.966833   5.316258   5.206940
    27  H    7.845350   6.602186   2.252580   4.094527   3.984036
    28  H    4.745587   3.733731   4.730755   5.081339   4.623067
    29  H    4.272874   3.108836   5.018854   4.509029   5.150042
    30  H    4.044642   2.672282   5.914891   5.816427   6.969979
    31  H    4.534812   3.369779   5.680298   6.278747   6.606249
    32  H    3.871437   3.393643   7.274247   7.951101   7.346625
    33  H    3.398634   3.871557   9.531362   9.928864   9.175859
    34  H    2.157654   3.405395  10.651241  10.473731  10.275148
    35  H    1.085815   2.151906   9.879985   9.219543   9.815262
    36  H    2.153837   1.086861   7.724998   7.047280   8.130181
                   21         22         23         24         25
    21  H    0.000000
    22  H    1.787301   0.000000
    23  H    3.780956   2.564094   0.000000
    24  H    6.459947   5.793153   3.521504   0.000000
    25  H    5.026944   4.717752   3.059314   1.791705   0.000000
    26  H    6.308541   5.957853   4.061615   3.748071   4.021620
    27  H    4.837728   4.894997   3.613497   4.002079   3.433965
    28  H    5.899377   4.808918   2.603221   3.750170   4.279748
    29  H    5.990561   4.730383   2.220911   2.728030   3.499823
    30  H    7.757080   6.849031   4.302543   2.178119   3.801868
    31  H    7.701551   6.919473   4.523827   3.362132   4.528968
    32  H    8.785478   7.757184   5.592854   5.534467   6.640432
    33  H   10.660125   9.391214   7.340723   7.456723   8.716541
    34  H   11.540878  10.060949   7.935413   7.763490   9.207043
    35  H   10.762459   9.266719   7.010057   6.294058   7.826220
    36  H    8.909368   7.606472   5.152367   3.830739   5.421835
                   26         27         28         29         30
    26  H    0.000000
    27  H    1.799564   0.000000
    28  H    2.739375   3.503325   0.000000
    29  H    3.753884   4.278776   1.762193   0.000000
    30  H    3.374958   4.528225   3.070144   2.499065   0.000000
    31  H    2.184996   3.806635   2.523515   3.062994   1.757714
    32  H    3.809741   5.415058   3.003303   4.067269   3.692904
    33  H    6.273081   7.817906   4.919821   5.636901   5.475925
    34  H    7.751108   9.200203   5.971437   5.972450   5.875522
    35  H    7.456203   8.713294   5.629064   4.909570   4.737832
    36  H    5.544085   6.641229   4.061336   2.981520   2.473299
                   31         32         33         34         35
    31  H    0.000000
    32  H    2.465774   0.000000
    33  H    4.731595   2.474177   0.000000
    34  H    5.870863   4.299536   2.487424   0.000000
    35  H    5.474019   4.957211   4.299807   2.488318   0.000000
    36  H    3.694686   4.292810   4.958390   4.300727   2.474168
                   36
    36  H    0.000000
 Symmetry turned off by external request.
 Stoichiometry    C12H17NO4S2
 Framework group  C1[X(C12H17NO4S2)]
 Deg. of freedom   102
 Full point group                 C1      NOp   1
 Rotational constants (GHZ):           0.5197481           0.1631360           0.1370560
 Leave Link  202 at Mon Sep 21 07:19:09 2020, MaxMem=  2147483648 cpu:               0.0 elap:               0.0
 (Enter /prod/apps/gaussian/g16b1/l301.exe)
 Standard basis: 6-31G(d) (6D, 7F)
 Ernie: Thresh=  0.10000D-02 Tol=  0.10000D-05 Strict=F.
   327 basis functions,   648 primitive gaussians,   327 cartesian basis functions
    80 alpha electrons       80 beta electrons
       nuclear repulsion energy      1824.4402664305 Hartrees.
 IExCor=  402 DFT=T Ex+Corr=B3LYP ExCW=0 ScaHFX=  0.200000
 ScaDFX=  0.800000  0.720000  1.000000  0.810000 ScalE2=  1.000000  1.000000
 IRadAn=      5 IRanWt=     -1 IRanGd=            0 ICorTp=0 IEmpDi=  4
 NAtoms=   36 NActive=   36 NUniq=   36 SFac= 1.00D+00 NAtFMM=   60 NAOKFM=F Big=F
 Integral buffers will be    131072 words long.
 Raffenetti 2 integral format.
 Two-electron integral symmetry is turned off.
 Using the following non-standard input for PCM:
 MSTModel=DFT cav
 --- end of non-standard input.
 MST model for solvation energy: B3LYP parametrization.
 MST cavity parameters:
 ISph   IAn     Re0     Alpha   Atom Type   QCorr
 ------------------------------------------------
   1      6     1.50     1.25      CH3        F
   2     16     1.75     1.25      S          F
   3      7     1.50     1.25      NH         F
   4      6     1.50     1.25      C          F
   5      6     1.50     1.25      CH2        F
   6     16     1.75     1.25      S          F
   7      6     1.50     1.25      CH2        F
   8      8     1.40     1.25      O          F
   9      8     1.40     1.25      O          F
  10      6     1.50     1.25      CH2        F
  11      6     1.50     1.25      CH2        F
  12      6     1.50     1.25      C          F
  13      6     1.50     1.25      CH         F
  14      6     1.50     1.25      CH         F
  15      6     1.50     1.25      CH         F
  16      6     1.50     1.25      CH         F
  17      6     1.50     1.25      CH         F
  18      8     1.40     1.25      O          F
  19      8     1.40     1.25      O          F
  20      1     1.20     1.25      CH3        F
  21      1     1.20     1.25      CH3        F
  22      1     1.20     1.25      CH3        F
  23      1     0.90     1.25      NH         F
  24      1     1.20     1.25      CH2        F
  25      1     1.20     1.25      CH2        F
  26      1     1.20     1.25      CH2        F
  27      1     1.20     1.25      CH2        F
  28      1     1.20     1.25      CH2        F
  29      1     1.20     1.25      CH2        F
  30      1     1.20     1.25      CH2        F
  31      1     1.20     1.25      CH2        F
  32      1     1.20     1.25      CH         F
  33      1     1.20     1.25      CH         F
  34      1     1.20     1.25      CH         F
  35      1     1.20     1.25      CH         F
  36      1     1.20     1.25      CH         F
 ------------------------------------------------------------------------------
 Polarizable Continuum Model (PCM)
 =================================
 Model                : PCM.
 Atomic radii         : MST.
 Polarization charges : Total charges.
 Charge compensation  : None.
 Solution method      : On-the-fly selection.
 Cavity type          : Scaled VdW (van der Waals Surface) (Alpha=1.250).
 Cavity algorithm     : GePol (No added spheres)
                        Default sphere list used, NSphG=   36.
                        Lebedev-Laikov grids with approx.  5.0 points / Ang**2.
                        Smoothing algorithm: York/Karplus (Gamma=1.0000).
                        Polarization charges: spherical gaussians, with
                                              point-specific exponents (IZeta= 3).
                        Self-potential: point-specific (ISelfS= 7).
                        Self-field    : sphere-specific E.n sum rule (ISelfD= 2).
 1st derivatives      : Analytical E(r).r(x)/FMM algorithm (CHGder, D1EAlg=3).
                        Cavity 1st derivative terms included.
 Solvent              : Water, Eps=  78.355300 Eps(inf)=   1.777849
 ------------------------------------------------------------------------------
 GePol: Number of generator spheres                  =      36
 GePol: Total number of spheres                      =      36
 GePol: Number of exposed spheres                    =      36 (100.00%)
 GePol: Number of points                             =    2527
 GePol: Average weight of points                     =       0.14
 GePol: Minimum weight of points                     =   0.11D-09
 GePol: Maximum weight of points                     =    0.22001
 GePol: Number of points with low weight             =     173
 GePol: Fraction of low-weight points (<1% of avg)   =       6.85%
 GePol: Cavity surface area                          =    341.881 Ang**2
 GePol: Cavity volume                                =    336.567 Ang**3
 PCM non-electrostatic energy =         0.0030380527 Hartrees.
 Nuclear repulsion after PCM non-electrostatic terms =     1824.4433044831 Hartrees.
 Leave Link  301 at Mon Sep 21 07:19:09 2020, MaxMem=  2147483648 cpu:               0.3 elap:               0.1
 (Enter /prod/apps/gaussian/g16b1/l302.exe)
 NPDir=0 NMtPBC=     1 NCelOv=     1 NCel=       1 NClECP=     1 NCelD=      1
         NCelK=      1 NCelE2=     1 NClLst=     1 CellRange=     0.0.
 One-electron integrals computed using PRISM.
 NBasis=   327 RedAO= T EigKep=  4.67D-04  NBF=   327
 NBsUse=   327 1.00D-06 EigRej= -1.00D+00 NBFU=   327
 Precomputing XC quadrature grid using
 IXCGrd= 4 IRadAn=           5 IRanWt=          -1 IRanGd=           0 AccXCQ= 0.00D+00.
 Generated NRdTot=       0 NPtTot=           0 NUsed=           0 NTot=          32
 NSgBfM=   325   325   325   325   325 MxSgAt=    36 MxSgA2=    36.
 Leave Link  302 at Mon Sep 21 07:19:10 2020, MaxMem=  2147483648 cpu:               1.8 elap:               0.5
 (Enter /prod/apps/gaussian/g16b1/l303.exe)
 DipDrv:  MaxL=1.
 Leave Link  303 at Mon Sep 21 07:19:10 2020, MaxMem=  2147483648 cpu:               0.1 elap:               0.1
 (Enter /prod/apps/gaussian/g16b1/l401.exe)
 ExpMin= 1.17D-01 ExpMax= 2.19D+04 ExpMxC= 3.30D+03 IAcc=3 IRadAn=         5 AccDes= 0.00D+00
 Harris functional with IExCor=  402 and IRadAn=       5 diagonalized for initial guess.
 HarFok:  IExCor=  402 AccDes= 0.00D+00 IRadAn=         5 IDoV= 1 UseB2=F ITyADJ=14
 ICtDFT=  3500011 ScaDFX=  1.000000  1.000000  1.000000  1.000000
 FoFCou: FMM=F IPFlag=           0 FMFlag=      100000 FMFlg1=           0
         NFxFlg=           0 DoJE=T BraDBF=F KetDBF=T FulRan=T
         wScrn=  0.000000 ICntrl=       500 IOpCl=  0 I1Cent=   200000004 NGrid=           0
         NMat0=    1 NMatS0=      1 NMatT0=    0 NMatD0=    1 NMtDS0=    0 NMtDT0=    0
 Symmetry not used in FoFCou.
 Harris En= -1619.49047528973    
 JPrj=0 DoOrth=F DoCkMO=F.
 Leave Link  401 at Mon Sep 21 07:19:12 2020, MaxMem=  2147483648 cpu:              10.5 elap:               2.6
 (Enter /prod/apps/gaussian/g16b1/l502.exe)
 Two-electron integral symmetry not used.
 Closed shell SCF:
 Using DIIS extrapolation, IDIIS=  1040.
 NGot=  2147483648 LenX=  2147264911 LenY=  2147157541
 Requested convergence on RMS density matrix=1.00D-08 within2000 cycles.
 Requested convergence on MAX density matrix=1.00D-06.
 Requested convergence on             energy=1.00D-06.
 No special actions if energy rises.

 Cycle   1  Pass 1  IDiag  1:
 FoFJK:  IHMeth= 1 ICntrl=       0 DoSepK=F KAlg= 0 I1Cent=           0 FoldK=F
 IRaf= 780000000 NMat=       1 IRICut=       1 DoRegI=T DoRafI=F ISym2E= 0 IDoP0=0 IntGTp=1.
 FoFCou: FMM=F IPFlag=           0 FMFlag=      100000 FMFlg1=           0
         NFxFlg=           0 DoJE=F BraDBF=F KetDBF=F FulRan=T
         wScrn=  0.000000 ICntrl=         0 IOpCl=  0 I1Cent=           0 NGrid=           0
         NMat0=    1 NMatS0=      1 NMatT0=    0 NMatD0=    1 NMtDS0=    0 NMtDT0=    0
 Symmetry not used in FoFCou.
 Inv3:  Mode=1 IEnd=    19157187.
 Iteration    1 A*A^-1 deviation from unit magnitude is 3.11D-15 for   1122.
 Iteration    1 A*A^-1 deviation from orthogonality  is 2.63D-15 for   1660     85.
 Iteration    1 A^-1*A deviation from unit magnitude is 3.44D-15 for   1474.
 Iteration    1 A^-1*A deviation from orthogonality  is 3.62D-12 for   2398   2383.
 E= -1618.64868822515    
 DIIS: error= 4.10D-02 at cycle   1 NSaved=   1.
 NSaved= 1 IEnMin= 1 EnMin= -1618.64868822515     IErMin= 1 ErrMin= 4.10D-02
 ErrMax= 4.10D-02  0.00D+00 EMaxC= 1.00D-01 BMatC= 9.14D-01 BMatP= 9.14D-01
 IDIUse=3 WtCom= 5.90D-01 WtEn= 4.10D-01
 Coeff-Com:  0.100D+01
 Coeff-En:   0.100D+01
 Coeff:      0.100D+01
 Gap=     0.335 Goal=   None    Shift=    0.000
 GapD=    0.335 DampG=1.000 DampE=0.500 DampFc=0.5000 IDamp=-1.
 Damping current iteration by 5.00D-01
 RMSDP=6.91D-03 MaxDP=5.51D-01              OVMax= 2.23D-01

 Cycle   2  Pass 1  IDiag  1:
 E= -1618.86273725655     Delta-E=       -0.214049031397 Rises=F Damp=T
 DIIS: error= 1.66D-02 at cycle   2 NSaved=   2.
 NSaved= 2 IEnMin= 2 EnMin= -1618.86273725655     IErMin= 2 ErrMin= 1.66D-02
 ErrMax= 1.66D-02  0.00D+00 EMaxC= 1.00D-01 BMatC= 1.15D-01 BMatP= 9.14D-01
 IDIUse=3 WtCom= 8.34D-01 WtEn= 1.66D-01
 Coeff-Com:  0.214D+00 0.786D+00
 Coeff-En:   0.345D+00 0.655D+00
 Coeff:      0.236D+00 0.764D+00
 Gap=     0.274 Goal=   None    Shift=    0.000
 RMSDP=1.79D-03 MaxDP=1.07D-01 DE=-2.14D-01 OVMax= 1.71D-01

 Cycle   3  Pass 1  IDiag  1:
 E= -1619.36008173611     Delta-E=       -0.497344479558 Rises=F Damp=F
 DIIS: error= 9.00D-03 at cycle   3 NSaved=   3.
 NSaved= 3 IEnMin= 3 EnMin= -1619.36008173611     IErMin= 3 ErrMin= 9.00D-03
 ErrMax= 9.00D-03  0.00D+00 EMaxC= 1.00D-01 BMatC= 6.04D-02 BMatP= 1.15D-01
 IDIUse=3 WtCom= 9.10D-01 WtEn= 9.00D-02
 Coeff-Com:  0.813D-01 0.432D+00 0.486D+00
 Coeff-En:   0.000D+00 0.000D+00 0.100D+01
 Coeff:      0.740D-01 0.393D+00 0.533D+00
 Gap=     0.242 Goal=   None    Shift=    0.000
 RMSDP=1.00D-03 MaxDP=3.15D-02 DE=-4.97D-01 OVMax= 5.90D-02

 Cycle   4  Pass 1  IDiag  1:
 E= -1619.40952516686     Delta-E=       -0.049443430753 Rises=F Damp=F
 DIIS: error= 3.20D-03 at cycle   4 NSaved=   4.
 NSaved= 4 IEnMin= 4 EnMin= -1619.40952516686     IErMin= 4 ErrMin= 3.20D-03
 ErrMax= 3.20D-03  0.00D+00 EMaxC= 1.00D-01 BMatC= 7.15D-03 BMatP= 6.04D-02
 IDIUse=3 WtCom= 9.68D-01 WtEn= 3.20D-02
 Coeff-Com:  0.459D-02 0.640D-01 0.269D+00 0.662D+00
 Coeff-En:   0.000D+00 0.000D+00 0.819D-01 0.918D+00
 Coeff:      0.444D-02 0.620D-01 0.263D+00 0.670D+00
 Gap=     0.242 Goal=   None    Shift=    0.000
 RMSDP=3.06D-04 MaxDP=1.27D-02 DE=-4.94D-02 OVMax= 2.05D-02

 Cycle   5  Pass 1  IDiag  1:
 E= -1619.41544383383     Delta-E=       -0.005918666974 Rises=F Damp=F
 DIIS: error= 9.80D-04 at cycle   5 NSaved=   5.
 NSaved= 5 IEnMin= 5 EnMin= -1619.41544383383     IErMin= 5 ErrMin= 9.80D-04
 ErrMax= 9.80D-04  0.00D+00 EMaxC= 1.00D-01 BMatC= 5.37D-04 BMatP= 7.15D-03
 IDIUse=3 WtCom= 9.90D-01 WtEn= 9.80D-03
 Coeff-Com: -0.168D-02 0.131D-01 0.112D+00 0.353D+00 0.524D+00
 Coeff-En:   0.000D+00 0.000D+00 0.000D+00 0.000D+00 0.100D+01
 Coeff:     -0.167D-02 0.129D-01 0.111D+00 0.349D+00 0.529D+00
 Gap=     0.241 Goal=   None    Shift=    0.000
 RMSDP=9.03D-05 MaxDP=5.22D-03 DE=-5.92D-03 OVMax= 4.97D-03

 Cycle   6  Pass 1  IDiag  1:
 E= -1619.41589811078     Delta-E=       -0.000454276949 Rises=F Damp=F
 DIIS: error= 2.96D-04 at cycle   6 NSaved=   6.
 NSaved= 6 IEnMin= 6 EnMin= -1619.41589811078     IErMin= 6 ErrMin= 2.96D-04
 ErrMax= 2.96D-04  0.00D+00 EMaxC= 1.00D-01 BMatC= 4.66D-05 BMatP= 5.37D-04
 IDIUse=3 WtCom= 9.97D-01 WtEn= 2.96D-03
 Coeff-Com: -0.119D-02 0.252D-02 0.399D-01 0.136D+00 0.291D+00 0.531D+00
 Coeff-En:   0.000D+00 0.000D+00 0.000D+00 0.000D+00 0.000D+00 0.100D+01
 Coeff:     -0.118D-02 0.252D-02 0.398D-01 0.136D+00 0.290D+00 0.533D+00
 Gap=     0.241 Goal=   None    Shift=    0.000
 RMSDP=2.39D-05 MaxDP=1.32D-03 DE=-4.54D-04 OVMax= 1.60D-03

 Cycle   7  Pass 1  IDiag  1:
 E= -1619.41593151557     Delta-E=       -0.000033404792 Rises=F Damp=F
 DIIS: error= 1.05D-04 at cycle   7 NSaved=   7.
 NSaved= 7 IEnMin= 7 EnMin= -1619.41593151557     IErMin= 7 ErrMin= 1.05D-04
 ErrMax= 1.05D-04  0.00D+00 EMaxC= 1.00D-01 BMatC= 5.51D-06 BMatP= 4.66D-05
 IDIUse=3 WtCom= 9.99D-01 WtEn= 1.05D-03
 Coeff-Com: -0.530D-03 0.294D-05 0.111D-01 0.408D-01 0.115D+00 0.314D+00
 Coeff-Com:  0.520D+00
 Coeff-En:   0.000D+00 0.000D+00 0.000D+00 0.000D+00 0.000D+00 0.390D-01
 Coeff-En:   0.961D+00
 Coeff:     -0.529D-03 0.294D-05 0.111D-01 0.407D-01 0.114D+00 0.314D+00
 Coeff:      0.521D+00
 Gap=     0.242 Goal=   None    Shift=    0.000
 RMSDP=7.96D-06 MaxDP=4.20D-04 DE=-3.34D-05 OVMax= 5.02D-04

 Cycle   8  Pass 1  IDiag  1:
 E= -1619.41593561430     Delta-E=       -0.000004098729 Rises=F Damp=F
 DIIS: error= 2.82D-05 at cycle   8 NSaved=   8.
 NSaved= 8 IEnMin= 8 EnMin= -1619.41593561430     IErMin= 8 ErrMin= 2.82D-05
 ErrMax= 2.82D-05  0.00D+00 EMaxC= 1.00D-01 BMatC= 4.18D-07 BMatP= 5.51D-06
 IDIUse=1 WtCom= 1.00D+00 WtEn= 0.00D+00
 Coeff-Com: -0.178D-03-0.237D-03 0.208D-02 0.862D-02 0.340D-01 0.118D+00
 Coeff-Com:  0.281D+00 0.556D+00
 Coeff:     -0.178D-03-0.237D-03 0.208D-02 0.862D-02 0.340D-01 0.118D+00
 Coeff:      0.281D+00 0.556D+00
 Gap=     0.242 Goal=   None    Shift=    0.000
 RMSDP=2.36D-06 MaxDP=1.21D-04 DE=-4.10D-06 OVMax= 1.26D-04

 Cycle   9  Pass 1  IDiag  1:
 E= -1619.41593592645     Delta-E=       -0.000000312144 Rises=F Damp=F
 DIIS: error= 7.34D-06 at cycle   9 NSaved=   9.
 NSaved= 9 IEnMin= 9 EnMin= -1619.41593592645     IErMin= 9 ErrMin= 7.34D-06
 ErrMax= 7.34D-06  0.00D+00 EMaxC= 1.00D-01 BMatC= 4.03D-08 BMatP= 4.18D-07
 IDIUse=1 WtCom= 1.00D+00 WtEn= 0.00D+00
 Coeff-Com: -0.302D-04-0.106D-03-0.356D-03-0.739D-03 0.301D-02 0.206D-01
 Coeff-Com:  0.771D-01 0.287D+00 0.613D+00
 Coeff:     -0.302D-04-0.106D-03-0.356D-03-0.739D-03 0.301D-02 0.206D-01
 Coeff:      0.771D-01 0.287D+00 0.613D+00
 Gap=     0.242 Goal=   None    Shift=    0.000
 RMSDP=6.40D-07 MaxDP=3.41D-05 DE=-3.12D-07 OVMax= 2.77D-05

 Cycle  10  Pass 1  IDiag  1:
 E= -1619.41593595976     Delta-E=       -0.000000033309 Rises=F Damp=F
 DIIS: error= 2.14D-06 at cycle  10 NSaved=  10.
 NSaved=10 IEnMin=10 EnMin= -1619.41593595976     IErMin=10 ErrMin= 2.14D-06
 ErrMax= 2.14D-06  0.00D+00 EMaxC= 1.00D-01 BMatC= 1.54D-09 BMatP= 4.03D-08
 IDIUse=1 WtCom= 1.00D+00 WtEn= 0.00D+00
 Coeff-Com: -0.952D-05-0.282D-04-0.246D-03-0.658D-03 0.101D-04 0.442D-02
 Coeff-Com:  0.233D-01 0.107D+00 0.269D+00 0.597D+00
 Coeff:     -0.952D-05-0.282D-04-0.246D-03-0.658D-03 0.101D-04 0.442D-02
 Coeff:      0.233D-01 0.107D+00 0.269D+00 0.597D+00
 Gap=     0.242 Goal=   None    Shift=    0.000
 RMSDP=1.62D-07 MaxDP=8.83D-06 DE=-3.33D-08 OVMax= 8.63D-06

 Cycle  11  Pass 1  IDiag  1:
 E= -1619.41593596069     Delta-E=       -0.000000000935 Rises=F Damp=F
 DIIS: error= 8.51D-07 at cycle  11 NSaved=  11.
 NSaved=11 IEnMin=11 EnMin= -1619.41593596069     IErMin=11 ErrMin= 8.51D-07
 ErrMax= 8.51D-07  0.00D+00 EMaxC= 1.00D-01 BMatC= 4.45D-10 BMatP= 1.54D-09
 IDIUse=1 WtCom= 1.00D+00 WtEn= 0.00D+00
 Coeff-Com: -0.257D-05 0.100D-05-0.110D-03-0.312D-03-0.487D-03-0.461D-03
 Coeff-Com:  0.276D-02 0.226D-01 0.711D-01 0.367D+00 0.538D+00
 Coeff:     -0.257D-05 0.100D-05-0.110D-03-0.312D-03-0.487D-03-0.461D-03
 Coeff:      0.276D-02 0.226D-01 0.711D-01 0.367D+00 0.538D+00
 Gap=     0.242 Goal=   None    Shift=    0.000
 RMSDP=6.63D-08 MaxDP=3.15D-06 DE=-9.35D-10 OVMax= 3.49D-06

 Cycle  12  Pass 1  IDiag  1:
 E= -1619.41593596103     Delta-E=       -0.000000000336 Rises=F Damp=F
 DIIS: error= 2.37D-07 at cycle  12 NSaved=  12.
 NSaved=12 IEnMin=12 EnMin= -1619.41593596103     IErMin=12 ErrMin= 2.37D-07
 ErrMax= 2.37D-07  0.00D+00 EMaxC= 1.00D-01 BMatC= 2.87D-11 BMatP= 4.45D-10
 IDIUse=1 WtCom= 1.00D+00 WtEn= 0.00D+00
 Coeff-Com: -0.114D-05 0.316D-05-0.433D-04-0.121D-03-0.276D-03-0.623D-03
 Coeff-Com: -0.407D-03 0.356D-02 0.159D-01 0.144D+00 0.284D+00 0.554D+00
 Coeff:     -0.114D-05 0.316D-05-0.433D-04-0.121D-03-0.276D-03-0.623D-03
 Coeff:     -0.407D-03 0.356D-02 0.159D-01 0.144D+00 0.284D+00 0.554D+00
 Gap=     0.242 Goal=   None    Shift=    0.000
 RMSDP=1.98D-08 MaxDP=7.90D-07 DE=-3.36D-10 OVMax= 9.48D-07

 Cycle  13  Pass 1  IDiag  1:
 E= -1619.41593596104     Delta-E=       -0.000000000011 Rises=F Damp=F
 DIIS: error= 9.73D-08 at cycle  13 NSaved=  13.
 NSaved=13 IEnMin=13 EnMin= -1619.41593596104     IErMin=13 ErrMin= 9.73D-08
 ErrMax= 9.73D-08  0.00D+00 EMaxC= 1.00D-01 BMatC= 2.87D-12 BMatP= 2.87D-11
 IDIUse=1 WtCom= 1.00D+00 WtEn= 0.00D+00
 Coeff-Com: -0.420D-06 0.183D-05-0.109D-04-0.286D-04-0.936D-04-0.288D-03
 Coeff-Com: -0.569D-03-0.836D-03-0.289D-03 0.315D-01 0.848D-01 0.295D+00
 Coeff-Com:  0.591D+00
 Coeff:     -0.420D-06 0.183D-05-0.109D-04-0.286D-04-0.936D-04-0.288D-03
 Coeff:     -0.569D-03-0.836D-03-0.289D-03 0.315D-01 0.848D-01 0.295D+00
 Coeff:      0.591D+00
 Gap=     0.242 Goal=   None    Shift=    0.000
 RMSDP=5.83D-09 MaxDP=2.92D-07 DE=-1.14D-11 OVMax= 3.41D-07

 Error on total polarization charges =  0.01931
 SCF Done:  E(RB3LYP) =  -1619.41593596     A.U. after   13 cycles
            NFock= 13  Conv=0.58D-08     -V/T= 2.0066
 KE= 1.608801298335D+03 PE=-7.455389814677D+03 EE= 2.402729275898D+03
 Leave Link  502 at Mon Sep 21 07:20:37 2020, MaxMem=  2147483648 cpu:             339.7 elap:              85.0
 (Enter /prod/apps/gaussian/g16b1/l601.exe)
 Copying SCF densities to generalized density rwf, IOpCl= 0 IROHF=0.

 **********************************************************************

            Population analysis using the SCF Density.

 **********************************************************************

 Alpha  occ. eigenvalues --  -89.12671 -89.09681 -19.15713 -19.15542 -19.15424
 Alpha  occ. eigenvalues --  -19.15351 -14.37752 -10.27750 -10.22628 -10.22585
 Alpha  occ. eigenvalues --  -10.22501 -10.20277 -10.19867 -10.19460 -10.19029
 Alpha  occ. eigenvalues --  -10.19014 -10.18887 -10.18866 -10.18849  -8.15270
 Alpha  occ. eigenvalues --   -8.12766  -6.11764  -6.11690  -6.11547  -6.09216
 Alpha  occ. eigenvalues --   -6.09116  -6.09014  -1.12207  -1.10586  -1.00969
 Alpha  occ. eigenvalues --   -1.00308  -0.94867  -0.86159  -0.85453  -0.79480
 Alpha  occ. eigenvalues --   -0.78008  -0.74361  -0.73885  -0.72219  -0.68290
 Alpha  occ. eigenvalues --   -0.62480  -0.61938  -0.60461  -0.58123  -0.56816
 Alpha  occ. eigenvalues --   -0.54186  -0.52417  -0.51033  -0.50563  -0.49650
 Alpha  occ. eigenvalues --   -0.48893  -0.48088  -0.47365  -0.46080  -0.45304
 Alpha  occ. eigenvalues --   -0.44553  -0.44029  -0.43738  -0.43360  -0.42466
 Alpha  occ. eigenvalues --   -0.41793  -0.41074  -0.40135  -0.39174  -0.37485
 Alpha  occ. eigenvalues --   -0.36207  -0.35364  -0.35061  -0.34002  -0.33794
 Alpha  occ. eigenvalues --   -0.33407  -0.32946  -0.32427  -0.32211  -0.31358
 Alpha  occ. eigenvalues --   -0.30593  -0.29771  -0.27498  -0.25215  -0.24508
 Alpha virt. eigenvalues --   -0.00357  -0.00293   0.02830   0.04363   0.04947
 Alpha virt. eigenvalues --    0.05338   0.05972   0.07082   0.08371   0.09175
 Alpha virt. eigenvalues --    0.09795   0.10174   0.11169   0.11355   0.12591
 Alpha virt. eigenvalues --    0.14246   0.15235   0.15384   0.15711   0.15778
 Alpha virt. eigenvalues --    0.16170   0.17010   0.17880   0.18639   0.19511
 Alpha virt. eigenvalues --    0.19956   0.20797   0.22068   0.22919   0.23422
 Alpha virt. eigenvalues --    0.23992   0.26398   0.27353   0.29502   0.30794
 Alpha virt. eigenvalues --    0.32411   0.34124   0.34362   0.35285   0.35869
 Alpha virt. eigenvalues --    0.36720   0.39417   0.42702   0.43143   0.45768
 Alpha virt. eigenvalues --    0.46301   0.47122   0.48069   0.50412   0.51224
 Alpha virt. eigenvalues --    0.51501   0.52291   0.52689   0.54066   0.54856
 Alpha virt. eigenvalues --    0.55303   0.56243   0.56552   0.58151   0.59462
 Alpha virt. eigenvalues --    0.59669   0.59899   0.60783   0.61105   0.61341
 Alpha virt. eigenvalues --    0.62944   0.64559   0.65559   0.66435   0.67922
 Alpha virt. eigenvalues --    0.69144   0.69878   0.70853   0.71376   0.72887
 Alpha virt. eigenvalues --    0.74683   0.75056   0.78686   0.78873   0.78971
 Alpha virt. eigenvalues --    0.80106   0.81392   0.82403   0.82782   0.83365
 Alpha virt. eigenvalues --    0.83681   0.84270   0.84565   0.85711   0.86117
 Alpha virt. eigenvalues --    0.86474   0.87499   0.88012   0.88150   0.88828
 Alpha virt. eigenvalues --    0.90361   0.91299   0.92044   0.92700   0.93002
 Alpha virt. eigenvalues --    0.94886   0.95259   0.96075   0.96227   0.97918
 Alpha virt. eigenvalues --    0.98871   0.99631   1.00126   1.00498   1.01126
 Alpha virt. eigenvalues --    1.03105   1.05244   1.05688   1.06743   1.09878
 Alpha virt. eigenvalues --    1.11102   1.11423   1.12519   1.14347   1.15233
 Alpha virt. eigenvalues --    1.16932   1.17719   1.18365   1.18637   1.19969
 Alpha virt. eigenvalues --    1.20930   1.23263   1.23455   1.25865   1.28104
 Alpha virt. eigenvalues --    1.32229   1.34088   1.35945   1.40235   1.40557
 Alpha virt. eigenvalues --    1.42308   1.42829   1.44103   1.46168   1.46886
 Alpha virt. eigenvalues --    1.48292   1.49205   1.50611   1.51316   1.57482
 Alpha virt. eigenvalues --    1.57772   1.64721   1.66325   1.68402   1.69595
 Alpha virt. eigenvalues --    1.71457   1.72159   1.73627   1.76833   1.77677
 Alpha virt. eigenvalues --    1.78925   1.79477   1.79901   1.80044   1.80509
 Alpha virt. eigenvalues --    1.80680   1.81561   1.82169   1.83033   1.84486
 Alpha virt. eigenvalues --    1.85730   1.86401   1.86769   1.89425   1.90777
 Alpha virt. eigenvalues --    1.93516   1.93852   1.96077   1.97755   1.98046
 Alpha virt. eigenvalues --    2.00912   2.02800   2.02850   2.03524   2.04695
 Alpha virt. eigenvalues --    2.05938   2.06472   2.06749   2.09260   2.12014
 Alpha virt. eigenvalues --    2.13321   2.13599   2.14167   2.14786   2.15996
 Alpha virt. eigenvalues --    2.16936   2.18073   2.19678   2.22080   2.22975
 Alpha virt. eigenvalues --    2.23829   2.25509   2.26842   2.27866   2.29799
 Alpha virt. eigenvalues --    2.30751   2.30976   2.32873   2.37828   2.39815
 Alpha virt. eigenvalues --    2.41129   2.41738   2.46649   2.48920   2.55606
 Alpha virt. eigenvalues --    2.56899   2.57824   2.66091   2.68013   2.71292
 Alpha virt. eigenvalues --    2.71726   2.72453   2.72925   2.73909   2.74472
 Alpha virt. eigenvalues --    2.76720   2.76863   2.80489   2.81502   2.89230
 Alpha virt. eigenvalues --    2.94396   3.04979   3.40963   3.76411   3.79007
 Alpha virt. eigenvalues --    3.86121   3.94117   3.95604   4.01371   4.08264
 Alpha virt. eigenvalues --    4.09055   4.11449   4.15028   4.20126   4.21945
 Alpha virt. eigenvalues --    4.26446   4.33008   4.34504   4.41465   4.53961
 Alpha virt. eigenvalues --    4.70204   4.74427
          Condensed to atoms (all electrons):
               1          2          3          4          5          6
     1  C    5.537663   0.218980  -0.057019   0.003795  -0.000285   0.000043
     2  S    0.218980  13.675392   0.131631  -0.009713  -0.007456   0.002293
     3  N   -0.057019   0.131631   7.345025   0.271379  -0.051884   0.002466
     4  C    0.003795  -0.009713   0.271379   4.824638   0.341493  -0.093683
     5  C   -0.000285  -0.007456  -0.051884   0.341493   5.735551   0.156349
     6  S    0.000043   0.002293   0.002466  -0.093683   0.156349  13.850820
     7  C   -0.000239  -0.006499  -0.049425   0.343296  -0.203062   0.162057
     8  O    0.000000   0.001258  -0.000170   0.001588  -0.044124   0.423639
     9  O   -0.000000   0.000006  -0.000040   0.000843  -0.042997   0.408311
    10  C   -0.000169   0.000381  -0.050153   0.353510  -0.048607   0.001720
    11  C    0.000001  -0.000009   0.002968  -0.028979  -0.003800  -0.001377
    12  C   -0.000000   0.000001  -0.000095   0.003902  -0.000079   0.000357
    13  C   -0.000000   0.000000  -0.000003   0.000082  -0.000002  -0.000010
    14  C   -0.000000   0.000000  -0.000000   0.000002  -0.000000  -0.000000
    15  C    0.000000  -0.000000   0.000000  -0.000000   0.000000   0.000000
    16  C   -0.000000   0.000000  -0.000000   0.000002   0.000000  -0.000000
    17  C   -0.000000   0.000000  -0.000002   0.000076  -0.000003  -0.000009
    18  O   -0.056657   0.430086  -0.051290   0.000758  -0.002258   0.005413
    19  O   -0.057745   0.408709  -0.052648  -0.003245  -0.004393  -0.000744
    20  H    0.343793  -0.006535   0.001273  -0.000126   0.000006   0.000004
    21  H    0.358337  -0.016016   0.002429  -0.000043   0.000005  -0.000000
    22  H    0.342219  -0.002988  -0.000058  -0.000039   0.000004  -0.000001
    23  H   -0.000736  -0.004809   0.290399  -0.027133  -0.000251  -0.000223
    24  H    0.000002   0.000214   0.002357  -0.025706   0.341422  -0.011800
    25  H    0.000137   0.004782  -0.009525  -0.022417   0.331189  -0.008336
    26  H    0.000004   0.000309   0.001878  -0.028164   0.008328  -0.012475
    27  H   -0.000118   0.001380  -0.005962  -0.020632   0.005725  -0.007664
    28  H   -0.000008   0.000123   0.000930  -0.034044   0.005668  -0.000175
    29  H    0.000000  -0.000075  -0.004234  -0.032314  -0.006895  -0.000212
    30  H   -0.000000   0.000006   0.000012  -0.005128   0.001914   0.000823
    31  H    0.000000  -0.000000   0.000018  -0.005028  -0.000448   0.000906
    32  H    0.000000  -0.000000   0.000000  -0.000052   0.000001  -0.000001
    33  H    0.000000  -0.000000   0.000000  -0.000000   0.000000  -0.000000
    34  H    0.000000   0.000000  -0.000000   0.000000   0.000000   0.000000
    35  H    0.000000  -0.000000   0.000000  -0.000000  -0.000000  -0.000000
    36  H    0.000000  -0.000000   0.000000  -0.000052  -0.000012  -0.000001
               7          8          9         10         11         12
     1  C   -0.000239   0.000000  -0.000000  -0.000169   0.000001  -0.000000
     2  S   -0.006499   0.001258   0.000006   0.000381  -0.000009   0.000001
     3  N   -0.049425  -0.000170  -0.000040  -0.050153   0.002968  -0.000095
     4  C    0.343296   0.001588   0.000843   0.353510  -0.028979   0.003902
     5  C   -0.203062  -0.044124  -0.042997  -0.048607  -0.003800  -0.000079
     6  S    0.162057   0.423639   0.408311   0.001720  -0.001377   0.000357
     7  C    5.698334  -0.043866  -0.043712  -0.038524  -0.006131  -0.000048
     8  O   -0.043866   8.272257  -0.046046  -0.000062  -0.000005   0.000000
     9  O   -0.043712  -0.046046   8.296581  -0.000506   0.000401   0.000181
    10  C   -0.038524  -0.000062  -0.000506   5.127572   0.344549  -0.035767
    11  C   -0.006131  -0.000005   0.000401   0.344549   5.195705   0.343766
    12  C   -0.000048   0.000000   0.000181  -0.035767   0.343766   4.660168
    13  C   -0.000002  -0.000000  -0.000002  -0.004034  -0.058361   0.545492
    14  C    0.000000  -0.000000  -0.000000  -0.000059   0.006827  -0.021500
    15  C    0.000000   0.000000   0.000000   0.000018   0.000314  -0.034305
    16  C   -0.000000  -0.000000  -0.000000  -0.000057   0.006813  -0.021406
    17  C   -0.000002  -0.000000  -0.000002  -0.004185  -0.058364   0.544892
    18  O   -0.009765  -0.000556   0.000000   0.000079   0.000001   0.000000
    19  O   -0.000292  -0.000003  -0.000000  -0.000105   0.000000  -0.000000
    20  H   -0.000000   0.000000   0.000000   0.000005  -0.000000   0.000000
    21  H   -0.000001   0.000000   0.000000   0.000001  -0.000000   0.000000
    22  H    0.000005   0.000000  -0.000000  -0.000011  -0.000000  -0.000000
    23  H    0.004626   0.000003   0.000001  -0.003990   0.000048  -0.000016
    24  H    0.008919   0.000832  -0.001098  -0.006332   0.000048  -0.000189
    25  H    0.005312   0.000083   0.000893   0.001760   0.000256   0.000004
    26  H    0.343244   0.000836  -0.000908  -0.006664   0.000448  -0.000177
    27  H    0.332681  -0.000377   0.000929   0.002198   0.000223   0.000005
    28  H   -0.006901   0.000001   0.000000   0.366331  -0.034673  -0.002252
    29  H    0.005220   0.000001  -0.000001   0.366734  -0.035852  -0.002386
    30  H   -0.000417   0.000007   0.001981  -0.037069   0.359497  -0.026645
    31  H    0.002184   0.000007   0.002062  -0.037882   0.361145  -0.027016
    32  H   -0.000013   0.000000  -0.000000   0.000280  -0.009319  -0.044993
    33  H   -0.000000  -0.000000  -0.000000  -0.000001  -0.000177   0.003651
    34  H    0.000000   0.000000   0.000000   0.000000   0.000006   0.000623
    35  H   -0.000000  -0.000000  -0.000000  -0.000001  -0.000177   0.003641
    36  H    0.000000   0.000000  -0.000000   0.000226  -0.009201  -0.044964
              13         14         15         16         17         18
     1  C   -0.000000  -0.000000   0.000000  -0.000000  -0.000000  -0.056657
     2  S    0.000000   0.000000  -0.000000   0.000000   0.000000   0.430086
     3  N   -0.000003  -0.000000   0.000000  -0.000000  -0.000002  -0.051290
     4  C    0.000082   0.000002  -0.000000   0.000002   0.000076   0.000758
     5  C   -0.000002  -0.000000   0.000000   0.000000  -0.000003  -0.002258
     6  S   -0.000010  -0.000000   0.000000  -0.000000  -0.000009   0.005413
     7  C   -0.000002   0.000000   0.000000  -0.000000  -0.000002  -0.009765
     8  O   -0.000000  -0.000000   0.000000  -0.000000  -0.000000  -0.000556
     9  O   -0.000002  -0.000000   0.000000  -0.000000  -0.000002   0.000000
    10  C   -0.004034  -0.000059   0.000018  -0.000057  -0.004185   0.000079
    11  C   -0.058361   0.006827   0.000314   0.006813  -0.058364   0.000001
    12  C    0.545492  -0.021500  -0.034305  -0.021406   0.544892   0.000000
    13  C    4.980546   0.518284  -0.038168  -0.047188  -0.038791  -0.000000
    14  C    0.518284   4.898981   0.544264  -0.028708  -0.047106  -0.000000
    15  C   -0.038168   0.544264   4.883810   0.544290  -0.038132   0.000000
    16  C   -0.047188  -0.028708   0.544290   4.899669   0.517903  -0.000000
    17  C   -0.038791  -0.047106  -0.038132   0.517903   4.981562  -0.000000
    18  O   -0.000000  -0.000000   0.000000  -0.000000  -0.000000   8.292525
    19  O   -0.000000   0.000000   0.000000  -0.000000   0.000000  -0.048846
    20  H   -0.000000  -0.000000   0.000000  -0.000000  -0.000000  -0.000381
    21  H    0.000000   0.000000  -0.000000   0.000000   0.000000  -0.000563
    22  H    0.000000  -0.000000  -0.000000   0.000000   0.000000   0.001535
    23  H    0.000000   0.000000   0.000000  -0.000000  -0.000003   0.001308
    24  H    0.000000  -0.000000   0.000000  -0.000000   0.000014   0.000004
    25  H    0.000000  -0.000000   0.000000   0.000000  -0.000000  -0.001121
    26  H    0.000014  -0.000000   0.000000  -0.000000   0.000000   0.000281
    27  H   -0.000000  -0.000000   0.000000  -0.000000   0.000000   0.015549
    28  H    0.003628  -0.000133  -0.000005  -0.000009  -0.000006  -0.000008
    29  H    0.000002  -0.000008  -0.000006  -0.000129   0.003792   0.000001
    30  H    0.003720  -0.000201   0.000011   0.000111  -0.004303   0.000000
    31  H   -0.004360   0.000112   0.000011  -0.000202   0.003740  -0.000000
    32  H    0.360106  -0.044807   0.004759   0.000264   0.006037   0.000000
    33  H   -0.038662   0.360891  -0.042327   0.004489   0.000766   0.000000
    34  H    0.004594  -0.042138   0.363276  -0.042142   0.004583   0.000000
    35  H    0.000770   0.004480  -0.042244   0.360766  -0.038678   0.000000
    36  H    0.006010   0.000266   0.004735  -0.044702   0.360107   0.000000
              19         20         21         22         23         24
     1  C   -0.057745   0.343793   0.358337   0.342219  -0.000736   0.000002
     2  S    0.408709  -0.006535  -0.016016  -0.002988  -0.004809   0.000214
     3  N   -0.052648   0.001273   0.002429  -0.000058   0.290399   0.002357
     4  C   -0.003245  -0.000126  -0.000043  -0.000039  -0.027133  -0.025706
     5  C   -0.004393   0.000006   0.000005   0.000004  -0.000251   0.341422
     6  S   -0.000744   0.000004  -0.000000  -0.000001  -0.000223  -0.011800
     7  C   -0.000292  -0.000000  -0.000001   0.000005   0.004626   0.008919
     8  O   -0.000003   0.000000   0.000000   0.000000   0.000003   0.000832
     9  O   -0.000000   0.000000   0.000000  -0.000000   0.000001  -0.001098
    10  C   -0.000105   0.000005   0.000001  -0.000011  -0.003990  -0.006332
    11  C    0.000000  -0.000000  -0.000000  -0.000000   0.000048   0.000048
    12  C   -0.000000   0.000000   0.000000  -0.000000  -0.000016  -0.000189
    13  C   -0.000000  -0.000000   0.000000   0.000000   0.000000   0.000000
    14  C    0.000000  -0.000000   0.000000  -0.000000   0.000000  -0.000000
    15  C    0.000000   0.000000  -0.000000  -0.000000   0.000000   0.000000
    16  C   -0.000000  -0.000000   0.000000   0.000000  -0.000000  -0.000000
    17  C    0.000000  -0.000000   0.000000   0.000000  -0.000003   0.000014
    18  O   -0.048846  -0.000381  -0.000563   0.001535   0.001308   0.000004
    19  O    8.306660   0.001731   0.000334  -0.000727  -0.000413   0.000052
    20  H    0.001731   0.462917  -0.016373  -0.020401  -0.000022  -0.000000
    21  H    0.000334  -0.016373   0.451336  -0.017561  -0.000017  -0.000000
    22  H   -0.000727  -0.020401  -0.017561   0.462416   0.000511   0.000000
    23  H   -0.000413  -0.000022  -0.000017   0.000511   0.322655   0.000166
    24  H    0.000052  -0.000000  -0.000000   0.000000   0.000166   0.463710
    25  H    0.017915  -0.000008   0.000004   0.000003   0.000139  -0.014206
    26  H   -0.000000   0.000001  -0.000000  -0.000000  -0.000030  -0.000264
    27  H    0.000069   0.000003   0.000004  -0.000003   0.000069  -0.000223
    28  H    0.000003   0.000003   0.000000   0.000001  -0.000452   0.000155
    29  H   -0.000004   0.000000  -0.000000  -0.000001   0.006662   0.002029
    30  H   -0.000000   0.000000  -0.000000  -0.000000  -0.000003   0.004880
    31  H    0.000000  -0.000000   0.000000  -0.000000   0.000016   0.000059
    32  H   -0.000000   0.000000  -0.000000  -0.000000   0.000000  -0.000000
    33  H    0.000000   0.000000  -0.000000   0.000000   0.000000   0.000000
    34  H   -0.000000  -0.000000   0.000000  -0.000000   0.000000  -0.000000
    35  H    0.000000   0.000000  -0.000000   0.000000   0.000000  -0.000000
    36  H   -0.000000   0.000000  -0.000000   0.000000   0.000000   0.000091
              25         26         27         28         29         30
     1  C    0.000137   0.000004  -0.000118  -0.000008   0.000000  -0.000000
     2  S    0.004782   0.000309   0.001380   0.000123  -0.000075   0.000006
     3  N   -0.009525   0.001878  -0.005962   0.000930  -0.004234   0.000012
     4  C   -0.022417  -0.028164  -0.020632  -0.034044  -0.032314  -0.005128
     5  C    0.331189   0.008328   0.005725   0.005668  -0.006895   0.001914
     6  S   -0.008336  -0.012475  -0.007664  -0.000175  -0.000212   0.000823
     7  C    0.005312   0.343244   0.332681  -0.006901   0.005220  -0.000417
     8  O    0.000083   0.000836  -0.000377   0.000001   0.000001   0.000007
     9  O    0.000893  -0.000908   0.000929   0.000000  -0.000001   0.001981
    10  C    0.001760  -0.006664   0.002198   0.366331   0.366734  -0.037069
    11  C    0.000256   0.000448   0.000223  -0.034673  -0.035852   0.359497
    12  C    0.000004  -0.000177   0.000005  -0.002252  -0.002386  -0.026645
    13  C    0.000000   0.000014  -0.000000   0.003628   0.000002   0.003720
    14  C   -0.000000  -0.000000  -0.000000  -0.000133  -0.000008  -0.000201
    15  C    0.000000   0.000000   0.000000  -0.000005  -0.000006   0.000011
    16  C    0.000000  -0.000000  -0.000000  -0.000009  -0.000129   0.000111
    17  C   -0.000000   0.000000   0.000000  -0.000006   0.003792  -0.004303
    18  O   -0.001121   0.000281   0.015549  -0.000008   0.000001   0.000000
    19  O    0.017915  -0.000000   0.000069   0.000003  -0.000004  -0.000000
    20  H   -0.000008   0.000001   0.000003   0.000003   0.000000   0.000000
    21  H    0.000004  -0.000000   0.000004   0.000000  -0.000000  -0.000000
    22  H    0.000003  -0.000000  -0.000003   0.000001  -0.000001  -0.000000
    23  H    0.000139  -0.000030   0.000069  -0.000452   0.006662  -0.000003
    24  H   -0.014206  -0.000264  -0.000223   0.000155   0.002029   0.004880
    25  H    0.452157  -0.000228  -0.000202  -0.000089  -0.000025   0.000052
    26  H   -0.000228   0.467794  -0.013738   0.001844   0.000211   0.000050
    27  H   -0.000202  -0.013738   0.440716  -0.000019  -0.000097  -0.000014
    28  H   -0.000089   0.001844  -0.000019   0.553748  -0.032749   0.005105
    29  H   -0.000025   0.000211  -0.000097  -0.032749   0.553313  -0.004581
    30  H    0.000052   0.000050  -0.000014   0.005105  -0.004581   0.561844
    31  H   -0.000014   0.004690   0.000059  -0.004366   0.005168  -0.034292
    32  H   -0.000000   0.000102   0.000000   0.000701   0.000032   0.000073
    33  H    0.000000  -0.000000  -0.000000   0.000003   0.000000   0.000003
    34  H   -0.000000  -0.000000  -0.000000  -0.000000  -0.000000  -0.000000
    35  H   -0.000000   0.000000   0.000000   0.000000   0.000003  -0.000006
    36  H    0.000000  -0.000000   0.000000   0.000035   0.000729   0.004770
              31         32         33         34         35         36
     1  C    0.000000   0.000000   0.000000   0.000000   0.000000   0.000000
     2  S   -0.000000  -0.000000  -0.000000   0.000000  -0.000000  -0.000000
     3  N    0.000018   0.000000   0.000000  -0.000000   0.000000   0.000000
     4  C   -0.005028  -0.000052  -0.000000   0.000000  -0.000000  -0.000052
     5  C   -0.000448   0.000001   0.000000   0.000000  -0.000000  -0.000012
     6  S    0.000906  -0.000001  -0.000000   0.000000  -0.000000  -0.000001
     7  C    0.002184  -0.000013  -0.000000   0.000000  -0.000000   0.000000
     8  O    0.000007   0.000000  -0.000000   0.000000  -0.000000   0.000000
     9  O    0.002062  -0.000000  -0.000000   0.000000  -0.000000  -0.000000
[...]
    33  H    0.000005  -0.000125  -0.000411  -0.005612  -0.000769   0.000134
    34  H   -0.000001   0.000014   0.000030   0.000946  -0.000301  -0.000007
    35  H   -0.000020  -0.000065  -0.000366   0.001422   0.000988   0.000041
    36  H    0.000134  -0.000337  -0.004216   0.012526  -0.011188  -0.001813
               7          8          9         10         11         12
     1  C    0.017416  -0.005796  -0.000446  -0.059133   0.006782  -0.003169
     2  S    0.558896  -0.020203  -0.012986  -2.069966  -0.145469   0.068410
     3  N    1.120170   0.047084   0.007283  -0.894168   0.003415  -0.084492
     4  C   -4.754425  -0.212978  -0.124800  -9.698874  -3.627051   2.693435
     5  C    1.111262   0.202730   0.138553  -2.491614  -0.290790  -0.106640
     6  S    0.195280  -0.302595  -0.400330  -1.004745   0.072446   0.142919
     7  C    8.228730   0.144706   0.112917  -1.526590  -0.010596  -0.144034
     8  O    0.144706   9.242454   0.050560   0.043506  -0.029498  -0.003140
     9  O    0.112917   0.050560   9.338630   0.140260   0.009754  -0.089643
    10  C   -1.526590   0.043506   0.140260  22.963437   1.962060  -1.176009
    11  C   -0.010596  -0.029498   0.009754   1.962060  13.034647  -4.566831
    12  C   -0.144034  -0.003140  -0.089643  -1.176009  -4.566831  18.455441
    13  C    0.028763   0.000490   0.009502  -0.434483   0.345244  -6.639915
    14  C    0.073528  -0.000041   0.000805   0.391345  -0.685319   3.075085
    15  C   -0.001606   0.000024   0.000664  -0.148711   0.394320  -3.950408
    16  C   -0.030636   0.000008   0.000864   0.319282  -0.872556   3.202006
    17  C   -0.112917   0.000667   0.010380  -0.340223   0.172216  -6.627861
    18  O   -0.096525  -0.015917  -0.001716   0.086170  -0.000638  -0.002076
    19  O    0.015357   0.002711  -0.000414   0.194831   0.001483  -0.005185
    20  H    0.012151  -0.000271  -0.000032  -0.006815   0.000121  -0.001128
    21  H    0.018349   0.000178  -0.000016  -0.036993  -0.000985   0.000699
    22  H   -0.009160  -0.000662  -0.000034  -0.022552   0.001190   0.000162
    23  H    0.001523   0.000473  -0.001936   0.113925   0.027256  -0.013048
    24  H    0.163057  -0.003600   0.020497  -0.602234   0.156555   0.019796
    25  H    0.017746   0.051855   0.007226   0.319768  -0.072377   0.002752
    26  H    0.391540  -0.003595   0.020348  -0.460836   0.142267   0.004026
    27  H    0.236338   0.044407   0.012505   0.198011  -0.037528  -0.003652
    28  H   -0.086963   0.001261   0.006317   0.139588   0.009806  -0.196360
    29  H    0.108849   0.000838   0.008957   0.071992   0.081795  -0.219274
    30  H   -0.022415   0.003142   0.005001  -0.059425  -0.322088  -0.189797
    31  H    0.031346   0.003537   0.004818  -0.147349  -0.108297  -0.271014
    32  H   -0.006791   0.000144   0.000447   0.080618  -0.259377   0.825786
    33  H    0.000945  -0.000009  -0.000110   0.009536   0.009847  -0.160755
    34  H   -0.000277   0.000001   0.000007  -0.007976   0.002828   0.111748
    35  H   -0.000245  -0.000006  -0.000101   0.006489   0.003219  -0.165450
    36  H    0.000022  -0.000002   0.000209   0.125803  -0.175681   0.805829
              13         14         15         16         17         18
     1  C    0.001067   0.000154   0.000063  -0.000563  -0.001123  -0.016270
     2  S   -0.018878  -0.003089   0.000425  -0.000314  -0.010175  -0.244839
     3  N   -0.012688  -0.014087   0.006457  -0.013538  -0.038624   0.174479
     4  C   -0.313605  -0.149466  -0.010359   0.013517  -0.206534   0.089686
     5  C   -0.112629  -0.046623  -0.002364   0.065341   0.017410  -0.027949
     6  S   -0.015030  -0.002800   0.001488  -0.003737  -0.013195   0.027848
     7  C    0.028763   0.073528  -0.001606  -0.030636  -0.112917  -0.096525
     8  O    0.000490  -0.000041   0.000024   0.000008   0.000667  -0.015917
     9  O    0.009502   0.000805   0.000664   0.000864   0.010380  -0.001716
    10  C   -0.434483   0.391345  -0.148711   0.319282  -0.340223   0.086170
    11  C    0.345244  -0.685319   0.394320  -0.872556   0.172216  -0.000638
    12  C   -6.639915   3.075085  -3.950408   3.202006  -6.627861  -0.002076
    13  C   17.427425  -4.634347   3.264100  -3.929526   1.166816   0.000501
    14  C   -4.634347  11.687699  -3.276690   3.712191  -3.981851  -0.000044
    15  C    3.264100  -3.276690   9.228124  -3.292854   3.347961   0.000015
    16  C   -3.929526   3.712191  -3.292854  11.501657  -4.522432  -0.000053
    17  C    1.166816  -3.981851   3.347961  -4.522432  17.272666  -0.000062
    18  O    0.000501  -0.000044   0.000015  -0.000053  -0.000062   9.196284
    19  O    0.000353  -0.000028   0.000005  -0.000014   0.000822   0.053079
    20  H    0.000370  -0.000142   0.000008  -0.000052   0.000067   0.004860
    21  H   -0.000180  -0.000003   0.000003  -0.000026  -0.000242  -0.014104
    22  H    0.000014   0.000091   0.000041  -0.000048   0.000352   0.010332
    23  H   -0.000019  -0.004617   0.000374  -0.001201   0.002072  -0.007737
    24  H    0.004791  -0.002836  -0.001286   0.005794  -0.025951  -0.002466
    25  H   -0.002758  -0.001184  -0.000281   0.004472  -0.002519   0.002942
    26  H   -0.019991   0.004182  -0.000991   0.000721   0.008303  -0.006499
    27  H   -0.005438   0.003746  -0.000127  -0.000960  -0.002217  -0.008366
    28  H    0.037726   0.007544   0.013104  -0.028381   0.027532  -0.002558
    29  H    0.049496  -0.020524   0.019385  -0.004603   0.075002  -0.001541
    30  H   -0.246398  -0.089480   0.015785   0.067449   0.256855   0.000657
    31  H    0.251738   0.059211   0.013918  -0.080219  -0.238933   0.001553
    32  H   -1.224758   0.374948  -0.159657   0.128603  -0.100702   0.000174
    33  H    0.622158  -0.744788   0.329348  -0.237971   0.131830  -0.000007
    34  H   -0.140505   0.375558  -0.616497   0.376890  -0.146277   0.000000
    35  H    0.131804  -0.231146   0.322831  -0.743910   0.625578  -0.000001
    36  H   -0.075431   0.114532  -0.144659   0.334073  -1.229198  -0.000021
              19         20         21         22         23         24
     1  C   -0.027961   0.357428   0.335700   0.367142  -0.023429   0.005011
     2  S   -0.300796  -0.017299   0.125479  -0.017633  -0.149040   0.042445
     3  N    0.203111   0.010653   0.016998  -0.083173   0.526690   0.188755
     4  C   -0.093264  -0.028535  -0.043831   0.031742  -0.382899  -0.427650
     5  C   -0.103252   0.006860   0.015256  -0.000198   0.037400   0.427686
     6  S   -0.012572   0.000327   0.001182   0.001952   0.003959   0.068069
     7  C    0.015357   0.012151   0.018349  -0.009160   0.001523   0.163057
     8  O    0.002711  -0.000271   0.000178  -0.000662   0.000473  -0.003600
     9  O   -0.000414  -0.000032  -0.000016  -0.000034  -0.001936   0.020497
    10  C    0.194831  -0.006815  -0.036993  -0.022552   0.113925  -0.602234
    11  C    0.001483   0.000121  -0.000985   0.001190   0.027256   0.156555
    12  C   -0.005185  -0.001128   0.000699   0.000162  -0.013048   0.019796
    13  C    0.000353   0.000370  -0.000180   0.000014  -0.000019   0.004791
    14  C   -0.000028  -0.000142  -0.000003   0.000091  -0.004617  -0.002836
    15  C    0.000005   0.000008   0.000003   0.000041   0.000374  -0.001286
    16  C   -0.000014  -0.000052  -0.000026  -0.000048  -0.001201   0.005794
    17  C    0.000822   0.000067  -0.000242   0.000352   0.002072  -0.025951
    18  O    0.053079   0.004860  -0.014104   0.010332  -0.007737  -0.002466
    19  O    9.236556   0.003577  -0.024773   0.027245   0.018751  -0.016391
    20  H    0.003577   0.810814  -0.093957  -0.073284  -0.009839   0.000779
    21  H   -0.024773  -0.093957   0.788914  -0.115776  -0.003798   0.001381
    22  H    0.027245  -0.073284  -0.115776   0.867951   0.006430  -0.000091
    23  H    0.018751  -0.009839  -0.003798   0.006430   0.826783   0.008357
    24  H   -0.016391   0.000779   0.001381  -0.000091   0.008357   1.721752
    25  H    0.039481   0.001287  -0.002366  -0.003000  -0.016467  -0.433851
    26  H    0.001114   0.003775   0.001242  -0.001292   0.010723   0.013473
    27  H   -0.008298  -0.009414  -0.000330   0.002657  -0.005758   0.010655
    28  H   -0.002610  -0.002596  -0.000844   0.000797   0.003489   0.013760
    29  H    0.006677  -0.001094  -0.001372   0.001190  -0.019074  -0.020293
    30  H    0.001454  -0.000249  -0.000121   0.000246   0.003105  -0.021441
    31  H    0.000334   0.000148  -0.000124  -0.000074   0.003352   0.004822
    32  H    0.000019  -0.000032  -0.000042  -0.000017   0.000141   0.002184
    33  H   -0.000001  -0.000007  -0.000000   0.000001  -0.000225  -0.000354
    34  H   -0.000000  -0.000000  -0.000000   0.000002   0.000023   0.000009
    35  H   -0.000007  -0.000003  -0.000001  -0.000008   0.000134   0.001285
    36  H    0.000116   0.000036  -0.000009   0.000046  -0.000696  -0.007055
              25         26         27         28         29         30
     1  C   -0.017113   0.006550  -0.018601  -0.001506  -0.000527  -0.000284
     2  S    0.035887   0.021208   0.096454   0.000712  -0.048391  -0.000058
     3  N   -0.070988   0.157753   0.022484   0.064764  -0.117746  -0.008541
     4  C    0.051433  -0.327098  -0.470689  -0.369445  -0.172292   0.274526
     5  C    0.070772   0.111963   0.189546   0.149875  -0.186483   0.040735
     6  S   -0.180868   0.038072  -0.157390  -0.028674  -0.033620  -0.039733
     7  C    0.017746   0.391540   0.236338  -0.086963   0.108849  -0.022415
     8  O    0.051855  -0.003595   0.044407   0.001261   0.000838   0.003142
     9  O    0.007226   0.020348   0.012505   0.006317   0.008957   0.005001
    10  C    0.319768  -0.460836   0.198011   0.139588   0.071992  -0.059425
    11  C   -0.072377   0.142267  -0.037528   0.009806   0.081795  -0.322088
    12  C    0.002752   0.004026  -0.003652  -0.196360  -0.219274  -0.189797
    13  C   -0.002758  -0.019991  -0.005438   0.037726   0.049496  -0.246398
    14  C   -0.001184   0.004182   0.003746   0.007544  -0.020524  -0.089480
    15  C   -0.000281  -0.000991  -0.000127   0.013104   0.019385   0.015785
    16  C    0.004472   0.000721  -0.000960  -0.028381  -0.004603   0.067449
    17  C   -0.002519   0.008303  -0.002217   0.027532   0.075002   0.256855
    18  O    0.002942  -0.006499  -0.008366  -0.002558  -0.001541   0.000657
    19  O    0.039481   0.001114  -0.008298  -0.002610   0.006677   0.001454
    20  H    0.001287   0.003775  -0.009414  -0.002596  -0.001094  -0.000249
    21  H   -0.002366   0.001242  -0.000330  -0.000844  -0.001372  -0.000121
    22  H   -0.003000  -0.001292   0.002657   0.000797   0.001190   0.000246
    23  H   -0.016467   0.010723  -0.005758   0.003489  -0.019074   0.003105
    24  H   -0.433851   0.013473   0.010655   0.013760  -0.020293  -0.021441
    25  H    1.478688  -0.001385   0.014222   0.011973   0.005294   0.010009
    26  H   -0.001385   1.705494  -0.438010   0.001487  -0.011233  -0.003608
    27  H    0.014222  -0.438010   1.529973   0.006011   0.021351   0.003346
    28  H    0.011973   0.001487   0.006011   1.653657  -0.263562   0.067310
    29  H    0.005294  -0.011233   0.021351  -0.263562   1.910349  -0.080626
    30  H    0.010009  -0.003608   0.003346   0.067310  -0.080626   1.798257
    31  H   -0.001519  -0.051951   0.016320  -0.082475   0.078311  -0.127449
    32  H   -0.000170  -0.007958   0.003933  -0.024033   0.006179   0.009527
    33  H    0.000015   0.001316  -0.000077  -0.001085   0.000850  -0.000518
    34  H   -0.000015   0.000001  -0.000011  -0.000197  -0.000172   0.000780
    35  H   -0.000001  -0.000285   0.000023  -0.000066  -0.004262  -0.002455
    36  H    0.002039   0.002575  -0.000992   0.005333  -0.009010  -0.046679
              31         32         33         34         35         36
     1  C    0.000886  -0.000514   0.000005  -0.000001  -0.000020   0.000134
     2  S   -0.005507   0.000212  -0.000125   0.000014  -0.000065  -0.000337
     3  N    0.022726  -0.002823  -0.000411   0.000030  -0.000366  -0.004216
     4  C    0.137718   0.063627  -0.005612   0.000946   0.001422   0.012526
     5  C    0.015994   0.007969  -0.000769  -0.000301   0.000988  -0.011188
     6  S   -0.036483  -0.003213   0.000134  -0.000007   0.000041  -0.001813
     7  C    0.031346  -0.006791   0.000945  -0.000277  -0.000245   0.000022
     8  O    0.003537   0.000144  -0.000009   0.000001  -0.000006  -0.000002
     9  O    0.004818   0.000447  -0.000110   0.000007  -0.000101   0.000209
    10  C   -0.147349   0.080618   0.009536  -0.007976   0.006489   0.125803
    11  C   -0.108297  -0.259377   0.009847   0.002828   0.003219  -0.175681
    12  C   -0.271014   0.825786  -0.160755   0.111748  -0.165450   0.805829
    13  C    0.251738  -1.224758   0.622158  -0.140505   0.131804  -0.075431
    14  C    0.059211   0.374948  -0.744788   0.375558  -0.231146   0.114532
    15  C    0.013918  -0.159657   0.329348  -0.616497   0.322831  -0.144659
    16  C   -0.080219   0.128603  -0.237971   0.376890  -0.743910   0.334073
    17  C   -0.238933  -0.100702   0.131830  -0.146277   0.625578  -1.229198
    18  O    0.001553   0.000174  -0.000007   0.000000  -0.000001  -0.000021
    19  O    0.000334   0.000019  -0.000001  -0.000000  -0.000007   0.000116
    20  H    0.000148  -0.000032  -0.000007  -0.000000  -0.000003   0.000036
    21  H   -0.000124  -0.000042  -0.000000  -0.000000  -0.000001  -0.000009
    22  H   -0.000074  -0.000017   0.000001   0.000002  -0.000008   0.000046
    23  H    0.003352   0.000141  -0.000225   0.000023   0.000134  -0.000696
    24  H    0.004822   0.002184  -0.000354   0.000009   0.001285  -0.007055
    25  H   -0.001519  -0.000170   0.000015  -0.000015  -0.000001   0.002039
    26  H   -0.051951  -0.007958   0.001316   0.000001  -0.000285   0.002575
    27  H    0.016320   0.003933  -0.000077  -0.000011   0.000023  -0.000992
    28  H   -0.082475  -0.024033  -0.001085  -0.000197  -0.000066   0.005333
    29  H    0.078311   0.006179   0.000850  -0.000172  -0.004262  -0.009010
    30  H   -0.127449   0.009527  -0.000518   0.000780  -0.002455  -0.046679
    31  H    1.806319  -0.035171  -0.003388   0.000905  -0.000025   0.010084
    32  H   -0.035171   2.122513  -0.091049  -0.016693   0.011078  -0.025739
    33  H   -0.003388  -0.091049   1.668092  -0.053098  -0.019427   0.010724
    34  H    0.000905  -0.016693  -0.053098   1.614717  -0.051216  -0.017153
    35  H   -0.000025   0.011078  -0.019427  -0.051216   1.661787  -0.086036
    36  H    0.010084  -0.025739   0.010724  -0.017153  -0.086036   2.078075
 Mulliken charges:
               1
     1  C    0.160429
     2  S    2.776276
     3  N   -1.267245
     4  C    0.673883
     5  C    0.437165
     6  S    2.988960
     7  C    0.214288
     8  O   -1.242464
     9  O   -1.273943
    10  C    0.022078
    11  C    0.767831
    12  C    1.211785
    13  C    0.484220
    14  C    0.008484
    15  C    0.648049
    16  C    0.030727
    17  C    0.484509
    18  O   -1.199191
    19  O   -1.211509
    20  H    0.031491
    21  H    0.034512
    22  H    0.007418
    23  H    0.044821
    24  H   -0.315414
    25  H   -0.320996
    26  H   -0.313402
    27  H   -0.244121
    28  H   -0.130693
    29  H   -0.230814
    30  H   -0.296817
    31  H   -0.274061
    32  H   -0.679361
    33  H   -0.465016
    34  H   -0.434059
    35  H   -0.461577
    36  H   -0.666241
 Sum of Mulliken charges =  -0.00000
 Mulliken charges with hydrogens summed into heavy atoms:
               1
     1  C    0.233850
     2  S    2.776276
     3  N   -1.222424
     4  C    0.673883
     5  C   -0.199245
     6  S    2.988960
     7  C   -0.343236
     8  O   -1.242464
     9  O   -1.273943
    10  C   -0.339430
    11  C    0.196953
    12  C    1.211785
    13  C   -0.195141
    14  C   -0.456532
    15  C    0.213990
    16  C   -0.430850
    17  C   -0.181732
    18  O   -1.199191
    19  O   -1.211509
 Electronic spatial extent (au):  <R**2>=           7742.4410
 Charge=              0.0000 electrons
 Dipole moment (field-independent basis, Debye):
    X=              4.6737    Y=             -9.3190    Z=             -0.4575  Tot=             10.4354
 Quadrupole moment (field-independent basis, Debye-Ang):
   XX=           -143.4463   YY=           -137.7109   ZZ=           -122.6572
   XY=             17.3019   XZ=              3.6088   YZ=              1.7993
 Traceless Quadrupole moment (field-independent basis, Debye-Ang):
   XX=             -8.8415   YY=             -3.1061   ZZ=             11.9476
   XY=             17.3019   XZ=              3.6088   YZ=              1.7993
 Octapole moment (field-independent basis, Debye-Ang**2):
  XXX=             62.7388  YYY=           -119.3020  ZZZ=             -5.4617  XYY=            -57.0563
  XXY=            -95.4934  XXZ=            -13.5829  XZZ=             14.5709  YZZ=             13.4727
  YYZ=             -3.0590  XYZ=            -10.7205
 Hexadecapole moment (field-independent basis, Debye-Ang**3):
 XXXX=          -7559.5382 YYYY=          -2155.7937 ZZZZ=           -631.5895 XXXY=             46.5246
 XXXZ=             55.5128 YYYX=            296.2465 YYYZ=              0.8404 ZZZX=             18.9084
 ZZZY=              9.7659 XXYY=          -1590.5536 XXZZ=          -1371.7174 YYZZ=           -436.2519
 XXYZ=             52.6412 YYXZ=             20.4984 ZZXY=            -32.3538
 N-N= 1.823731681123D+03 E-N=-7.452571205246D+03  KE= 1.611496616047D+03
 Leave Link  601 at Mon Sep 21 12:09:55 2020, MaxMem=   262144000 cpu:               4.8 elap:               1.6
 (Enter /prod/apps/gaussian/g16b1/l9999.exe)
 1\1\GINC-PIRINEUS11\SP\RMP2-FC\Aug-CC-pVDZ\C12H17N1O4S2\UBAFAR01\21-Se
 p-2020\0\\#p mp2/aug-cc-pVDZ scf=(MaxCycle=2000,NoVarAcc,NoIncFock) ma
 xdisk=120GB geom=allcheck\\SM38_m0.n.11.pdb.xyz\\0,1\C,0,-3.4075283173
 ,-3.0835455633,-0.4840330006\S,0,-3.0862322962,-1.3841209943,-0.020760
 5447\N,0,-1.3995215787,-1.3481475605,-0.1681719047\C,0,-0.6343836423,-
 0.0861852371,-0.0441155955\C,0,-1.0235354303,0.8301713949,1.1765081478
 \S,0,-1.3363689404,2.2277118915,0.0453457095\C,0,-0.9711719343,0.92965
 82913,-1.1873970481\O,0,-2.7439538561,2.6722834146,0.0364738086\O,0,-0
 .2803112097,3.2595164062,0.1100830936\C,0,0.8454892643,-0.5243498346,-
 0.0389676096\C,0,1.8890882569,0.6055100194,0.0208679691\C,0,3.29786929
 92,0.0520847654,0.0088528459\C,0,3.9533198193,-0.214666026,-1.20080335
 49\C,0,5.2419933663,-0.7505395848,-1.2133983808\C,0,5.8976104548,-1.02
 80526381,-0.0118482823\C,0,5.2556678421,-0.7645883031,1.1999538861\C,0
 ,3.9667503483,-0.228671874,1.2072392483\O,0,-3.6377816228,-0.471847589
 8,-1.0379863618\O,0,-3.5318466802,-1.1852290652,1.3737746716\H,0,-3.04
 56821226,-3.2448875433,-1.4978296841\H,0,-4.489500806,-3.2120815481,-0
 .4319200141\H,0,-2.9151396622,-3.7500312901,0.2253937156\H,0,-1.024257
 8154,-2.0544879797,0.4700013486\H,0,-0.2280808009,1.0391119635,1.89078
 66685\H,0,-1.9358458096,0.5232228826,1.6854577039\H,0,-0.1381979661,1.
 196253974,-1.8349119716\H,0,-1.8602922329,0.675346531,-1.7592511138\H,
 0,1.0110429151,-1.1228171992,-0.9402730578\H,0,1.000398861,-1.18896873
 86,0.8187581189\H,0,1.7430801177,1.2014547256,0.9266990672\H,0,1.75707
 0008,1.2802744837,-0.8301212936\H,0,3.4514432122,0.004114068,-2.139134
 6888\H,0,5.7349290117,-0.94645616,-2.1603311232\H,0,6.9006788242,-1.44
 14179968,-0.020057352\H,0,5.7587711114,-0.971332416,2.1391847903\H,0,3
 .4744300115,-0.020289669,2.1529315883\\Version=ES64L-G16RevB.01\State=
 1-A\HF=-1613.1830189\MP2=-1616.171164\RMSD=5.867e-09\PG=C01 [X(C12H17N
 1O4S2)]\\@


 Sometimes the fool who rushes in gets the job done.
                                    -- Al Bernstein
 Job cpu time:       0 days 11 hours 26 minutes 31.1 seconds.
 Elapsed time:       0 days  3 hours 40 minutes 48.1 seconds.
 File lengths (MBytes):  RWF= 113100 Int=      0 D2E=      0 Chk=     29 Scr=      1
 Normal termination of Gaussian 16 at Mon Sep 21 12:10:04 2020.
