 Entering Gaussian System, Link 0=g16
 Initial command:
 /prod/apps/gaussian/g16b1/l1.exe "/tmp/ubafar01/1460343/Gau-12611.inp" -scrdir="/tmp/ubafar01/1460343/"
 Entering Link 1 = /prod/apps/gaussian/g16b1/l1.exe PID=     12612.
  
 Copyright (c) 1988-2017, Gaussian, Inc.  All Rights Reserved.
  
 This is part of the Gaussian(R) 16 program.  It is based on
 the Gaussian(R) 09 system (copyright 2009, Gaussian, Inc.),
 the Gaussian(R) 03 system (copyright 2003, Gaussian, Inc.),
 the Gaussian(R) 98 system (copyright 1998, Gaussian, Inc.),
 the Gaussian(R) 94 system (copyright 1995, Gaussian, Inc.),
 the Gaussian 92(TM) system (copyright 1992, Gaussian, Inc.),
 the Gaussian 90(TM) system (copyright 1990, Gaussian, Inc.),
 the Gaussian 88(TM) system (copyright 1988, Gaussian, Inc.),
 the Gaussian 86(TM) system (copyright 1986, Carnegie Mellon
 University), and the Gaussian 82(TM) system (copyright 1983,
 Carnegie Mellon University). Gaussian is a federally registered
 trademark of Gaussian, Inc.
  
 This software contains proprietary and confidential information,
 including trade secrets, belonging to Gaussian, Inc.
  
 This software is provided under written license and may be
 used, copied, transmitted, or stored only in accord with that
 written license.
  
 The following legend is applicable only to US Government
 contracts under FAR:
  
                    RESTRICTED RIGHTS LEGEND
  
 Use, reproduction and disclosure by the US Government is
 subject to restrictions as set forth in subparagraphs (a)
 and (c) of the Commercial Computer Software - Restricted
 Rights clause in FAR 52.227-19.
  
 Gaussian, Inc.
 340 Quinnipiac St., Bldg. 40, Wallingford CT 06492
  
  
 ---------------------------------------------------------------
 Warning -- This program may not be used in any manner that
 competes with the business of Gaussian, Inc. or will provide
 assistance to any competitor of Gaussian, Inc.  The licensee
 of this program is prohibited from giving any competitor of
 Gaussian, Inc. access to this program.  By using this program,
 the user acknowledges that Gaussian, Inc. is engaged in the
 business of creating and licensing software in the field of
 computational chemistry and represents and warrants to the
 licensee that it is not a competitor of Gaussian, Inc. and that
 it will not use this program in any manner prohibited above.
 ---------------------------------------------------------------
  

 Cite this work as:
 Gaussian 16, Revision B.01,
 M. J. Frisch, G. W. Trucks, H. B. Schlegel, G. E. Scuseria, 
 M. A. Robb, J. R. Cheeseman, G. Scalmani, V. Barone, 
 G. A. Petersson, H. Nakatsuji, X. Li, M. Caricato, A. V. Marenich, 
 J. Bloino, B. G. Janesko, R. Gomperts, B. Mennucci, H. P. Hratchian, 
 J. V. Ortiz, A. F. Izmaylov, J. L. Sonnenberg, D. Williams-Young, 
 F. Ding, F. Lipparini, F. Egidi, J. Goings, B. Peng, A. Petrone, 
 T. Henderson, D. Ranasinghe, V. G. Zakrzewski, J. Gao, N. Rega, 
 G. Zheng, W. Liang, M. Hada, M. Ehara, K. Toyota, R. Fukuda, 
 J. Hasegawa, M. Ishida, T. Nakajima, Y. Honda, O. Kitao, H. Nakai, 
 T. Vreven, K. Throssell, J. A. Montgomery, Jr., J. E. Peralta, 
 F. Ogliaro, M. J. Bearpark, J. J. Heyd, E. N. Brothers, K. N. Kudin, 
 V. N. Staroverov, T. A. Keith, R. Kobayashi, J. Normand, 
 K. Raghavachari, A. P. Rendell, J. C. Burant, S. S. Iyengar, 
 J. Tomasi, M. Cossi, J. M. Millam, M. Klene, C. Adamo, R. Cammi, 
 J. W. Ochterski, R. L. Martin, K. Morokuma, O. Farkas, 
 J. B. Foresman, and D. J. Fox, Gaussian, Inc., Wallingford CT, 2016.
 
 ******************************************
 Gaussian 16:  ES64L-G16RevB.01 20-Dec-2017
                22-Sep-2020 
 ******************************************
 %nproc=4
 Will use up to    4 processors via shared memory.
 %Chk=SM38_m0.n.1.pdb.xyz.mst.n.w.chk
 %mem=16GB
 ----------------------------------------------------------------------
 #p b3lyp/6-31G(d) opt freq NoSymm scf=(MaxCycle=2000,NoVarAcc,NoIncFoc
 k) scrf=(iefpcm,read,solvent=water)
 ----------------------------------------------------------------------
 1/18=20,19=15,26=3,38=1,40=2/1,3;
 2/9=110,12=2,15=1,17=6,18=5,40=1/2;
 3/5=1,6=6,7=1,11=2,25=1,30=1,70=2203,71=1,72=1,74=-5/1,2,3;
 4//1;
 5/5=100002,7=2000,38=1,53=1/2;
 6/7=2,8=2,9=2,10=2,28=1/1;
 7/30=1/1,2,3,16;
 1/18=20,19=15,26=3/3(2);
 2/9=110,15=1/2;
 99//99;
 2/9=110,15=1/2;
 3/5=1,6=6,7=1,11=2,25=1,30=1,70=2205,71=1,72=1,74=-5/1,2,3;
 4/5=5,16=3,69=1/1;
 5/5=100002,7=2000,38=1,53=1/2;
 7/30=1/1,2,3,16;
 1/18=20,19=15,26=3/3(-5);
 2/9=110,15=1/2;
 6/7=2,8=2,9=2,10=2,19=2,28=1/1;
 99/9=1/99;
 Leave Link    1 at Tue Sep 22 01:46:05 2020, MaxMem=  2147483648 cpu:               0.1 elap:               0.0
 (Enter /prod/apps/gaussian/g16b1/l101.exe)
 -------------------
 SM38_m0.n.1.pdb.xyz
 -------------------
 Symbolic Z-matrix:
 Charge =  0 Multiplicity = 1
 C                     4.16     -1.007    -0.969 
 S                     2.615    -1.477    -0.197 
 N                     2.157    -0.012     0.513 
 C                     0.723     0.324     0.681 
 C                     0.103     0.695    -0.705 
 S                     0.422     2.461    -0.379 
 C                     0.705     1.764     1.283 
 O                     1.671     2.94     -1.007 
 O                    -0.774     3.321    -0.471 
 C                    -0.027    -0.728     1.519 
 C                    -1.499    -0.454     1.887 
 C                    -2.521    -0.66      0.788 
 C                    -2.634    -1.891     0.125 
 C                    -3.599    -2.085    -0.863 
 C                    -4.474    -1.05     -1.205 
 C                    -4.374     0.179    -0.551 
 C                    -3.405     0.368     0.437 
 O                     1.619    -1.792    -1.236 
 O                     2.904    -2.499     0.824 
 H                     3.959    -0.231    -1.705 
 H                     4.566    -1.902    -1.443 
 H                     4.839    -0.647    -0.197 
 H                     2.67      0.092     1.391 
 H                    -0.974     0.531    -0.747 
 H                     0.599     0.29     -1.583 
 H                    -0.166     1.955     1.907 
 H                     1.615     2.108     1.771 
 H                     0.541    -0.845     2.447 
 H                     0.038    -1.683     0.99 
 H                    -1.61      0.555     2.295 
 H                    -1.737    -1.134     2.714 
 H                    -1.962    -2.703     0.385 
 H                    -3.671    -3.044    -1.365 
 H                    -5.225    -1.201    -1.974 
 H                    -5.048     0.991    -0.808 
 H                    -3.328     1.326     0.944 
 
 ITRead=  0  0  0  0  0  0  0  0  0  0  0  0  0  0  0  0  0  0  0  0
 ITRead=  0  0  0  0  0  0  0  0  0  0  0  0  0  0  0  0
 MicOpt= -1 -1 -1 -1 -1 -1 -1 -1 -1 -1 -1 -1 -1 -1 -1 -1 -1 -1 -1 -1
 MicOpt= -1 -1 -1 -1 -1 -1 -1 -1 -1 -1 -1 -1 -1 -1 -1 -1
 NAtoms=     36 NQM=       36 NQMF=       0 NMMI=      0 NMMIF=      0
                NMic=       0 NMicF=      0.
                    Isotopes and Nuclear Properties:
 (Nuclear quadrupole moments (NQMom) in fm**2, nuclear magnetic moments (NMagM)
  in nuclear magnetons)

  Atom         1           2           3           4           5           6           7           8           9          10
 IAtWgt=          12          32          14          12          12          32          12          16          16          12
 AtmWgt=  12.0000000  31.9720718  14.0030740  12.0000000  12.0000000  31.9720718  12.0000000  15.9949146  15.9949146  12.0000000
 NucSpn=           0           0           2           0           0           0           0           0           0           0
 AtZEff=  -0.0000000  -0.0000000  -0.0000000  -0.0000000  -0.0000000  -0.0000000  -0.0000000  -0.0000000  -0.0000000  -0.0000000
 NQMom=    0.0000000   0.0000000   2.0440000   0.0000000   0.0000000   0.0000000   0.0000000   0.0000000   0.0000000   0.0000000
 NMagM=    0.0000000   0.0000000   0.4037610   0.0000000   0.0000000   0.0000000   0.0000000   0.0000000   0.0000000   0.0000000
 AtZNuc=   6.0000000  16.0000000   7.0000000   6.0000000   6.0000000  16.0000000   6.0000000   8.0000000   8.0000000   6.0000000

  Atom        11          12          13          14          15          16          17          18          19          20
 IAtWgt=          12          12          12          12          12          12          12          16          16           1
 AtmWgt=  12.0000000  12.0000000  12.0000000  12.0000000  12.0000000  12.0000000  12.0000000  15.9949146  15.9949146   1.0078250
 NucSpn=           0           0           0           0           0           0           0           0           0           1
 AtZEff=  -0.0000000  -0.0000000  -0.0000000  -0.0000000  -0.0000000  -0.0000000  -0.0000000  -0.0000000  -0.0000000  -0.0000000
 NQMom=    0.0000000   0.0000000   0.0000000   0.0000000   0.0000000   0.0000000   0.0000000   0.0000000   0.0000000   0.0000000
 NMagM=    0.0000000   0.0000000   0.0000000   0.0000000   0.0000000   0.0000000   0.0000000   0.0000000   0.0000000   2.7928460
 AtZNuc=   6.0000000   6.0000000   6.0000000   6.0000000   6.0000000   6.0000000   6.0000000   8.0000000   8.0000000   1.0000000

  Atom        21          22          23          24          25          26          27          28          29          30
 IAtWgt=           1           1           1           1           1           1           1           1           1           1
 AtmWgt=   1.0078250   1.0078250   1.0078250   1.0078250   1.0078250   1.0078250   1.0078250   1.0078250   1.0078250   1.0078250
 NucSpn=           1           1           1           1           1           1           1           1           1           1
 AtZEff=  -0.0000000  -0.0000000  -0.0000000  -0.0000000  -0.0000000  -0.0000000  -0.0000000  -0.0000000  -0.0000000  -0.0000000
 NQMom=    0.0000000   0.0000000   0.0000000   0.0000000   0.0000000   0.0000000   0.0000000   0.0000000   0.0000000   0.0000000
 NMagM=    2.7928460   2.7928460   2.7928460   2.7928460   2.7928460   2.7928460   2.7928460   2.7928460   2.7928460   2.7928460
 AtZNuc=   1.0000000   1.0000000   1.0000000   1.0000000   1.0000000   1.0000000   1.0000000   1.0000000   1.0000000   1.0000000

  Atom        31          32          33          34          35          36
 IAtWgt=           1           1           1           1           1           1
 AtmWgt=   1.0078250   1.0078250   1.0078250   1.0078250   1.0078250   1.0078250
 NucSpn=           1           1           1           1           1           1
 AtZEff=  -0.0000000  -0.0000000  -0.0000000  -0.0000000  -0.0000000  -0.0000000
 NQMom=    0.0000000   0.0000000   0.0000000   0.0000000   0.0000000   0.0000000
 NMagM=    2.7928460   2.7928460   2.7928460   2.7928460   2.7928460   2.7928460
 AtZNuc=   1.0000000   1.0000000   1.0000000   1.0000000   1.0000000   1.0000000
 Leave Link  101 at Tue Sep 22 01:46:05 2020, MaxMem=  2147483648 cpu:               1.3 elap:               0.4
 (Enter /prod/apps/gaussian/g16b1/l103.exe)

 GradGradGradGradGradGradGradGradGradGradGradGradGradGradGradGradGradGrad
 Berny optimization.
 Initialization pass.
                           ----------------------------
                           !    Initial Parameters    !
                           ! (Angstroms and Degrees)  !
 --------------------------                            --------------------------
 ! Name  Definition              Value          Derivative Info.                !
 --------------------------------------------------------------------------------
 ! R1    R(1,2)                  1.7899         estimate D2E/DX2                !
 ! R2    R(1,20)                 1.0882         estimate D2E/DX2                !
 ! R3    R(1,21)                 1.0911         estimate D2E/DX2                !
 ! R4    R(1,22)                 1.0893         estimate D2E/DX2                !
 ! R5    R(2,3)                  1.6912         estimate D2E/DX2                !
 ! R6    R(2,18)                 1.4734         estimate D2E/DX2                !
 ! R7    R(2,19)                 1.4732         estimate D2E/DX2                !
 ! R8    R(3,4)                  1.4824         estimate D2E/DX2                !
 ! R9    R(3,23)                 1.0222         estimate D2E/DX2                !
 ! R10   R(4,5)                  1.563          estimate D2E/DX2                !
 ! R11   R(4,7)                  1.5609         estimate D2E/DX2                !
 ! R12   R(4,10)                 1.54           estimate D2E/DX2                !
 ! R13   R(5,6)                  1.8239         estimate D2E/DX2                !
 ! R14   R(5,24)                 1.0902         estimate D2E/DX2                !
 ! R15   R(5,25)                 1.0867         estimate D2E/DX2                !
 ! R16   R(6,7)                  1.8243         estimate D2E/DX2                !
 ! R17   R(6,8)                  1.4778         estimate D2E/DX2                !
 ! R18   R(6,9)                  1.476          estimate D2E/DX2                !
 ! R19   R(7,26)                 1.0883         estimate D2E/DX2                !
 ! R20   R(7,27)                 1.0884         estimate D2E/DX2                !
 ! R21   R(10,11)                1.5418         estimate D2E/DX2                !
 ! R22   R(10,28)                1.0943         estimate D2E/DX2                !
 ! R23   R(10,29)                1.0937         estimate D2E/DX2                !
 ! R24   R(11,12)                1.5148         estimate D2E/DX2                !
 ! R25   R(11,30)                1.094          estimate D2E/DX2                !
 ! R26   R(11,31)                1.0968         estimate D2E/DX2                !
 ! R27   R(12,13)                1.4027         estimate D2E/DX2                !
 ! R28   R(12,17)                1.4005         estimate D2E/DX2                !
 ! R29   R(13,14)                1.3946         estimate D2E/DX2                !
 ! R30   R(13,32)                1.0856         estimate D2E/DX2                !
 ! R31   R(14,15)                1.3978         estimate D2E/DX2                !
 ! R32   R(14,33)                1.0848         estimate D2E/DX2                !
 ! R33   R(15,16)                1.3958         estimate D2E/DX2                !
 ! R34   R(15,34)                1.0854         estimate D2E/DX2                !
 ! R35   R(16,17)                1.3967         estimate D2E/DX2                !
 ! R36   R(16,35)                1.0861         estimate D2E/DX2                !
 ! R37   R(17,36)                1.0866         estimate D2E/DX2                !
 ! A1    A(2,1,20)             108.6331         estimate D2E/DX2                !
 ! A2    A(2,1,21)             107.0471         estimate D2E/DX2                !
 ! A3    A(2,1,22)             108.611          estimate D2E/DX2                !
 ! A4    A(20,1,21)            111.0897         estimate D2E/DX2                !
 ! A5    A(20,1,22)            111.0251         estimate D2E/DX2                !
 ! A6    A(21,1,22)            110.3048         estimate D2E/DX2                !
 ! A7    A(1,2,3)              100.7991         estimate D2E/DX2                !
 ! A8    A(1,2,18)             109.6024         estimate D2E/DX2                !
 ! A9    A(1,2,19)             108.1637         estimate D2E/DX2                !
 ! A10   A(3,2,18)             107.3488         estimate D2E/DX2                !
 ! A11   A(3,2,19)             111.291          estimate D2E/DX2                !
 ! A12   A(18,2,19)            118.2303         estimate D2E/DX2                !
 ! A13   A(2,3,4)              120.3913         estimate D2E/DX2                !
 ! A14   A(2,3,23)             108.2297         estimate D2E/DX2                !
 ! A15   A(4,3,23)             111.4123         estimate D2E/DX2                !
 ! A16   A(3,4,5)              109.6957         estimate D2E/DX2                !
 ! A17   A(3,4,7)              105.306          estimate D2E/DX2                !
 ! A18   A(3,4,10)             112.2075         estimate D2E/DX2                !
 ! A19   A(5,4,7)               96.8025         estimate D2E/DX2                !
 ! A20   A(5,4,10)             116.8402         estimate D2E/DX2                !
 ! A21   A(7,4,10)             114.5031         estimate D2E/DX2                !
 ! A22   A(4,5,6)               90.1119         estimate D2E/DX2                !
 ! A23   A(4,5,24)             112.9739         estimate D2E/DX2                !
 ! A24   A(4,5,25)             116.547          estimate D2E/DX2                !
 ! A25   A(6,5,24)             108.9842         estimate D2E/DX2                !
 ! A26   A(6,5,25)             115.1776         estimate D2E/DX2                !
 ! A27   A(24,5,25)            111.3277         estimate D2E/DX2                !
 ! A28   A(5,6,7)               79.6325         estimate D2E/DX2                !
 ! A29   A(5,6,8)              112.6873         estimate D2E/DX2                !
 ! A30   A(5,6,9)              114.2862         estimate D2E/DX2                !
 ! A31   A(7,6,8)              112.3262         estimate D2E/DX2                !
 ! A32   A(7,6,9)              113.8975         estimate D2E/DX2                !
 ! A33   A(8,6,9)              118.003          estimate D2E/DX2                !
 ! A34   A(4,7,6)               90.166          estimate D2E/DX2                !
 ! A35   A(4,7,26)             113.0954         estimate D2E/DX2                !
 ! A36   A(4,7,27)             117.0569         estimate D2E/DX2                !
 ! A37   A(6,7,26)             109.3377         estimate D2E/DX2                !
 ! A38   A(6,7,27)             114.672          estimate D2E/DX2                !
 ! A39   A(26,7,27)            110.8909         estimate D2E/DX2                !
 ! A40   A(4,10,11)            118.2583         estimate D2E/DX2                !
 ! A41   A(4,10,28)            106.3629         estimate D2E/DX2                !
 ! A42   A(4,10,29)            107.72           estimate D2E/DX2                !
 ! A43   A(11,10,28)           108.188          estimate D2E/DX2                !
 ! A44   A(11,10,29)           109.109          estimate D2E/DX2                !
 ! A45   A(28,10,29)           106.6173         estimate D2E/DX2                !
 ! A46   A(10,11,12)           116.5371         estimate D2E/DX2                !
 ! A47   A(10,11,30)           110.4736         estimate D2E/DX2                !
 ! A48   A(10,11,31)           106.0784         estimate D2E/DX2                !
 ! A49   A(12,11,30)           109.1191         estimate D2E/DX2                !
 ! A50   A(12,11,31)           108.4405         estimate D2E/DX2                !
 ! A51   A(30,11,31)           105.5804         estimate D2E/DX2                !
 ! A52   A(11,12,13)           121.1035         estimate D2E/DX2                !
 ! A53   A(11,12,17)           120.5208         estimate D2E/DX2                !
 ! A54   A(13,12,17)           118.3492         estimate D2E/DX2                !
 ! A55   A(12,13,14)           120.8404         estimate D2E/DX2                !
 ! A56   A(12,13,32)           119.5598         estimate D2E/DX2                !
 ! A57   A(14,13,32)           119.5998         estimate D2E/DX2                !
 ! A58   A(13,14,15)           120.2303         estimate D2E/DX2                !
 ! A59   A(13,14,33)           119.7828         estimate D2E/DX2                !
 ! A60   A(15,14,33)           119.9867         estimate D2E/DX2                !
 ! A61   A(14,15,16)           119.5046         estimate D2E/DX2                !
 ! A62   A(14,15,34)           120.2286         estimate D2E/DX2                !
 ! A63   A(16,15,34)           120.2668         estimate D2E/DX2                !
 ! A64   A(15,16,17)           120.0199         estimate D2E/DX2                !
 ! A65   A(15,16,35)           120.1958         estimate D2E/DX2                !
 ! A66   A(17,16,35)           119.7842         estimate D2E/DX2                !
 ! A67   A(12,17,16)           121.0551         estimate D2E/DX2                !
 ! A68   A(12,17,36)           119.0432         estimate D2E/DX2                !
 ! A69   A(16,17,36)           119.9015         estimate D2E/DX2                !
 ! D1    D(20,1,2,3)           -61.5338         estimate D2E/DX2                !
 ! D2    D(20,1,2,18)           51.4313         estimate D2E/DX2                !
 ! D3    D(20,1,2,19)         -178.3812         estimate D2E/DX2                !
 ! D4    D(21,1,2,3)           178.4282         estimate D2E/DX2                !
 ! D5    D(21,1,2,18)          -68.6067         estimate D2E/DX2                !
 ! D6    D(21,1,2,19)           61.5808         estimate D2E/DX2                !
 ! D7    D(22,1,2,3)            59.3341         estimate D2E/DX2                !
 ! D8    D(22,1,2,18)          172.2992         estimate D2E/DX2                !
 ! D9    D(22,1,2,19)          -57.5134         estimate D2E/DX2                !
 ! D10   D(1,2,3,4)            149.4311         estimate D2E/DX2                !
 ! D11   D(1,2,3,23)           -80.8692         estimate D2E/DX2                !
 ! D12   D(18,2,3,4)            34.7602         estimate D2E/DX2                !
 ! D13   D(18,2,3,23)          164.4599         estimate D2E/DX2                !
 ! D14   D(19,2,3,4)           -96.0538         estimate D2E/DX2                !
 ! D15   D(19,2,3,23)           33.6459         estimate D2E/DX2                !
 ! D16   D(2,3,4,5)            -73.5675         estimate D2E/DX2                !
 ! D17   D(2,3,4,7)           -176.7705         estimate D2E/DX2                !
 ! D18   D(2,3,4,10)            58.0475         estimate D2E/DX2                !
 ! D19   D(23,3,4,5)           158.1502         estimate D2E/DX2                !
 ! D20   D(23,3,4,7)            54.9471         estimate D2E/DX2                !
 ! D21   D(23,3,4,10)          -70.2348         estimate D2E/DX2                !
 ! D22   D(3,4,5,6)            -94.256          estimate D2E/DX2                !
 ! D23   D(3,4,5,24)           155.0019         estimate D2E/DX2                !
 ! D24   D(3,4,5,25)            24.2039         estimate D2E/DX2                !
 ! D25   D(7,4,5,6)             14.7135         estimate D2E/DX2                !
 ! D26   D(7,4,5,24)           -96.0286         estimate D2E/DX2                !
 ! D27   D(7,4,5,25)           133.1734         estimate D2E/DX2                !
 ! D28   D(10,4,5,6)           136.6159         estimate D2E/DX2                !
 ! D29   D(10,4,5,24)           25.8739         estimate D2E/DX2                !
 ! D30   D(10,4,5,25)         -104.9242         estimate D2E/DX2                !
 ! D31   D(3,4,7,6)             97.9048         estimate D2E/DX2                !
 ! D32   D(3,4,7,26)          -150.9197         estimate D2E/DX2                !
 ! D33   D(3,4,7,27)           -20.1427         estimate D2E/DX2                !
 ! D34   D(5,4,7,6)            -14.7105         estimate D2E/DX2                !
 ! D35   D(5,4,7,26)            96.4649         estimate D2E/DX2                !
 ! D36   D(5,4,7,27)          -132.758          estimate D2E/DX2                !
 ! D37   D(10,4,7,6)          -138.3578         estimate D2E/DX2                !
 ! D38   D(10,4,7,26)          -27.1824         estimate D2E/DX2                !
 ! D39   D(10,4,7,27)          103.5946         estimate D2E/DX2                !
 ! D40   D(3,4,10,11)          174.6424         estimate D2E/DX2                !
 ! D41   D(3,4,10,28)           52.8294         estimate D2E/DX2                !
 ! D42   D(3,4,10,29)          -61.1691         estimate D2E/DX2                !
 ! D43   D(5,4,10,11)          -57.4378         estimate D2E/DX2                !
 ! D44   D(5,4,10,28)         -179.2507         estimate D2E/DX2                !
 ! D45   D(5,4,10,29)           66.7508         estimate D2E/DX2                !
 ! D46   D(7,4,10,11)           54.6808         estimate D2E/DX2                !
 ! D47   D(7,4,10,28)          -67.1321         estimate D2E/DX2                !
 ! D48   D(7,4,10,29)          178.8694         estimate D2E/DX2                !
 ! D49   D(4,5,6,7)            -12.6715         estimate D2E/DX2                !
 ! D50   D(4,5,6,8)             97.3329         estimate D2E/DX2                !
 ! D51   D(4,5,6,9)           -124.3414         estimate D2E/DX2                !
 ! D52   D(24,5,6,7)           101.7494         estimate D2E/DX2                !
 ! D53   D(24,5,6,8)          -148.2463         estimate D2E/DX2                !
 ! D54   D(24,5,6,9)            -9.9205         estimate D2E/DX2                !
 ! D55   D(25,5,6,7)          -132.3261         estimate D2E/DX2                !
 ! D56   D(25,5,6,8)           -22.3218         estimate D2E/DX2                !
 ! D57   D(25,5,6,9)           116.004          estimate D2E/DX2                !
 ! D58   D(5,6,7,4)             12.6892         estimate D2E/DX2                !
 ! D59   D(5,6,7,26)          -101.9394         estimate D2E/DX2                !
 ! D60   D(5,6,7,27)           132.8153         estimate D2E/DX2                !
 ! D61   D(8,6,7,4)            -97.7216         estimate D2E/DX2                !
 ! D62   D(8,6,7,26)           147.6498         estimate D2E/DX2                !
 ! D63   D(8,6,7,27)            22.4045         estimate D2E/DX2                !
 ! D64   D(9,6,7,4)            124.7918         estimate D2E/DX2                !
 ! D65   D(9,6,7,26)            10.1631         estimate D2E/DX2                !
 ! D66   D(9,6,7,27)          -115.0822         estimate D2E/DX2                !
 ! D67   D(4,10,11,12)          76.4342         estimate D2E/DX2                !
 ! D68   D(4,10,11,30)         -48.8225         estimate D2E/DX2                !
 ! D69   D(4,10,11,31)        -162.7753         estimate D2E/DX2                !
 ! D70   D(28,10,11,12)       -162.6847         estimate D2E/DX2                !
 ! D71   D(28,10,11,30)         72.0586         estimate D2E/DX2                !
 ! D72   D(28,10,11,31)        -41.8942         estimate D2E/DX2                !
 ! D73   D(29,10,11,12)        -47.0647         estimate D2E/DX2                !
 ! D74   D(29,10,11,30)       -172.3214         estimate D2E/DX2                !
 ! D75   D(29,10,11,31)         73.7258         estimate D2E/DX2                !
 ! D76   D(10,11,12,13)         56.5132         estimate D2E/DX2                !
 ! D77   D(10,11,12,17)       -125.3897         estimate D2E/DX2                !
 ! D78   D(30,11,12,13)       -177.549          estimate D2E/DX2                !
 ! D79   D(30,11,12,17)          0.5481         estimate D2E/DX2                !
 ! D80   D(31,11,12,13)        -63.0141         estimate D2E/DX2                !
 ! D81   D(31,11,12,17)        115.083          estimate D2E/DX2                !
 ! D82   D(11,12,13,14)        178.3931         estimate D2E/DX2                !
 ! D83   D(11,12,13,32)         -1.5655         estimate D2E/DX2                !
 ! D84   D(17,12,13,14)          0.2557         estimate D2E/DX2                !
 ! D85   D(17,12,13,32)       -179.7029         estimate D2E/DX2                !
 ! D86   D(11,12,17,16)       -178.3569         estimate D2E/DX2                !
 ! D87   D(11,12,17,36)          1.8031         estimate D2E/DX2                !
 ! D88   D(13,12,17,16)         -0.2082         estimate D2E/DX2                !
 ! D89   D(13,12,17,36)        179.9517         estimate D2E/DX2                !
 ! D90   D(12,13,14,15)         -0.1765         estimate D2E/DX2                !
 ! D91   D(12,13,14,33)        179.981          estimate D2E/DX2                !
 ! D92   D(32,13,14,15)        179.7821         estimate D2E/DX2                !
 ! D93   D(32,13,14,33)         -0.0604         estimate D2E/DX2                !
 ! D94   D(13,14,15,16)          0.0432         estimate D2E/DX2                !
 ! D95   D(13,14,15,34)        179.9962         estimate D2E/DX2                !
 ! D96   D(33,14,15,16)        179.8853         estimate D2E/DX2                !
 ! D97   D(33,14,15,34)         -0.1617         estimate D2E/DX2                !
 ! D98   D(14,15,16,17)          0.0044         estimate D2E/DX2                !
 ! D99   D(14,15,16,35)        179.9874         estimate D2E/DX2                !
 ! D100  D(34,15,16,17)       -179.9486         estimate D2E/DX2                !
 ! D101  D(34,15,16,35)          0.0345         estimate D2E/DX2                !
 ! D102  D(15,16,17,12)          0.0808         estimate D2E/DX2                !
 ! D103  D(15,16,17,36)        179.9195         estimate D2E/DX2                !
 ! D104  D(35,16,17,12)       -179.9024         estimate D2E/DX2                !
 ! D105  D(35,16,17,36)         -0.0636         estimate D2E/DX2                !
 --------------------------------------------------------------------------------
 Trust Radius=3.00D-01 FncErr=1.00D-07 GrdErr=1.00D-06 EigMax=2.50D+02 EigMin=1.00D-04
 Number of steps in this run=    216 maximum allowed number of steps=    216.
 GradGradGradGradGradGradGradGradGradGradGradGradGradGradGradGradGradGrad

 Leave Link  103 at Tue Sep 22 01:46:05 2020, MaxMem=  2147483648 cpu:               0.1 elap:               0.0
 (Enter /prod/apps/gaussian/g16b1/l202.exe)
                          Input orientation:                          
 ---------------------------------------------------------------------
 Center     Atomic      Atomic             Coordinates (Angstroms)
 Number     Number       Type             X           Y           Z
 ---------------------------------------------------------------------
      1          6           0        4.160000   -1.007000   -0.969000
      2         16           0        2.615000   -1.477000   -0.197000
      3          7           0        2.157000   -0.012000    0.513000
      4          6           0        0.723000    0.324000    0.681000
      5          6           0        0.103000    0.695000   -0.705000
      6         16           0        0.422000    2.461000   -0.379000
      7          6           0        0.705000    1.764000    1.283000
      8          8           0        1.671000    2.940000   -1.007000
      9          8           0       -0.774000    3.321000   -0.471000
     10          6           0       -0.027000   -0.728000    1.519000
     11          6           0       -1.499000   -0.454000    1.887000
     12          6           0       -2.521000   -0.660000    0.788000
     13          6           0       -2.634000   -1.891000    0.125000
     14          6           0       -3.599000   -2.085000   -0.863000
     15          6           0       -4.474000   -1.050000   -1.205000
     16          6           0       -4.374000    0.179000   -0.551000
     17          6           0       -3.405000    0.368000    0.437000
     18          8           0        1.619000   -1.792000   -1.236000
     19          8           0        2.904000   -2.499000    0.824000
     20          1           0        3.959000   -0.231000   -1.705000
     21          1           0        4.566000   -1.902000   -1.443000
     22          1           0        4.839000   -0.647000   -0.197000
     23          1           0        2.670000    0.092000    1.391000
     24          1           0       -0.974000    0.531000   -0.747000
     25          1           0        0.599000    0.290000   -1.583000
     26          1           0       -0.166000    1.955000    1.907000
     27          1           0        1.615000    2.108000    1.771000
     28          1           0        0.541000   -0.845000    2.447000
     29          1           0        0.038000   -1.683000    0.990000
     30          1           0       -1.610000    0.555000    2.295000
     31          1           0       -1.737000   -1.134000    2.714000
     32          1           0       -1.962000   -2.703000    0.385000
     33          1           0       -3.671000   -3.044000   -1.365000
     34          1           0       -5.225000   -1.201000   -1.974000
     35          1           0       -5.048000    0.991000   -0.808000
     36          1           0       -3.328000    1.326000    0.944000
 ---------------------------------------------------------------------
                    Distance matrix (angstroms):
                    1          2          3          4          5
     1  C    0.000000
     2  S    1.789947   0.000000
     3  N    2.682976   1.691180   0.000000
     4  C    4.038196   2.755748   1.482389   0.000000
     5  C    4.407465   3.359433   2.490440   1.563022   0.000000
     6  S    5.133008   4.511121   3.149860   2.404365   1.823950
     7  C    4.968598   4.042596   2.419789   1.560874   2.336088
     8  O    4.666409   4.588804   3.355726   3.254459   2.754969
     9  O    6.582093   5.880578   4.546197   3.542615   2.778446
    10  C    4.878417   3.238182   2.508894   1.539951   2.643483
    11  C    6.362926   4.723831   3.930595   2.645185   3.256542
    12  C    6.916879   5.293034   4.730667   3.391643   3.309146
    13  C    6.938064   5.275138   5.160898   4.060149   3.855835
    14  C    7.834245   6.279094   6.270745   5.183329   4.632296
    15  C    8.637332   7.173027   6.928140   5.696813   4.923815
    16  C    8.626151   7.191229   6.619859   5.245785   4.509268
    17  C    7.816437   6.328221   5.575484   4.135439   3.703668
    18  O    2.672863   1.473351   2.552811   2.992518   2.960639
    19  O    2.649236   1.473243   2.615320   3.570230   4.514984
    20  H    1.088243   2.373376   2.866128   4.058660   4.089769
    21  H    1.091117   2.353623   3.633362   4.922916   5.216073
    22  H    1.089323   2.373832   2.846129   4.319164   4.948608
    23  H    2.999583   2.233054   1.022188   2.085362   3.368429
    24  H    5.364018   4.149155   3.418422   2.227519   1.090224
    25  H    3.839261   3.017870   2.629027   2.267648   1.086704
    26  H    5.979891   4.892791   3.347933   2.225659   2.912474
    27  H    4.867017   4.210136   2.524030   2.272976   3.226963
    28  H    4.979203   3.419303   2.654374   2.125662   3.535329
    29  H    4.613626   2.844703   2.740425   2.143071   2.920982
    30  H    6.810759   5.309399   4.205627   2.846269   3.457451
    31  H    6.953792   5.247044   4.611564   3.508626   4.291900
    32  H    6.495276   4.773964   4.921791   4.057040   4.122951
    33  H    8.101281   6.582819   6.832678   5.902269   5.353391
    34  H    9.440651   8.043600   7.879899   6.689795   5.795926
    35  H    9.423651   8.073779   7.393448   5.997204   5.160526
    36  H    8.072955   6.669178   5.662264   4.181360   3.858643
                    6          7          8          9         10
     6  S    0.000000
     7  C    1.824320   0.000000
     8  O    1.477777   2.749588   0.000000
     9  O    1.475967   2.772761   2.531893   0.000000
    10  C    3.738145   2.607985   4.766351   4.573020   0.000000
    11  C    4.161997   3.184644   5.472054   4.509591   1.541844
    12  C    4.445647   4.065449   5.809896   4.526086   2.599812
    13  C    5.341634   5.084182   6.569095   5.565946   3.176831
    14  C    6.088416   6.159913   7.283149   6.112211   4.502728
    15  C    6.081136   6.397717   7.329415   5.773595   5.224909
    16  C    5.314012   5.627790   6.661312   4.778971   4.899383
    17  C    4.437616   4.422288   5.870783   4.057935   3.712523
    18  O    4.500585   4.452628   4.737823   5.696880   3.381041
    19  O    5.675309   4.818657   5.869887   7.005506   3.494314
    20  H    4.638481   4.847338   3.972076   6.044894   5.150668
    21  H    6.110696   5.981467   5.658276   7.532603   5.589935
    22  H    5.403950   5.009319   4.853750   6.879380   5.160346
    23  H    3.714642   2.582339   3.854803   5.074901   2.821807
    24  H    2.410216   2.908647   3.587047   2.810743   2.759827
    25  H    2.488812   3.224573   2.916069   3.508366   3.324245
    26  H    2.414037   1.088346   3.582763   2.809004   2.714471
    27  H    2.484021   1.088384   2.900456   3.493602   3.286725
    28  H    4.350870   2.861586   5.247213   5.253523   1.094302
    29  H    4.381136   3.523144   5.294037   5.275783   1.093659
    30  H    3.861623   2.800902   5.230334   4.000051   2.180402
    31  H    5.210754   4.050868   6.485197   5.560451   2.125314
    32  H    5.738819   5.279525   6.854181   6.199408   2.988445
    33  H    6.930359   7.019839   8.029532   7.050182   5.192307
    34  H    6.916855   7.386757   8.101715   6.520651   6.280444
    35  H    5.680303   6.169831   6.998797   4.879503   5.794854
    36  H    4.135342   4.070854   5.603695   3.536264   3.930158
                   11         12         13         14         15
    11  C    0.000000
    12  C    1.514834   0.000000
    13  C    2.541228   1.402747   0.000000
    14  C    3.825266   2.432799   1.394634   0.000000
    15  C    4.332009   2.817509   2.421112   1.397789   0.000000
    16  C    3.822324   2.435252   2.787378   2.413227   1.395764
    17  C    2.531999   1.400515   2.407253   2.782956   2.418605
    18  O    4.611431   4.745271   4.466557   5.239514   6.138092
    19  O    4.969749   5.728337   5.614954   6.731001   7.787896
    20  H    6.537733   6.956255   7.040749   7.827493   8.487417
    21  H    7.068934   7.532961   7.368768   8.187620   9.083179
    22  H    6.674620   7.425631   7.582674   8.585525   9.376057
    23  H    4.233756   5.279734   5.802367   7.008581   7.686359
    24  H    2.860735   2.483529   3.063016   3.707767   3.867729
    25  H    4.122625   4.032188   4.257501   4.876703   5.260591
    26  H    2.753283   3.692751   4.904922   5.981638   6.105197
    27  H    4.034141   5.072929   6.062616   7.190619   7.476995
    28  H    2.151298   3.487456   4.070187   5.443648   6.207202
    29  H    2.162734   2.763298   2.816216   4.101583   5.057357
    30  H    1.094014   2.139438   3.426426   4.571508   4.798804
    31  H    1.096801   2.132793   2.842636   4.143232   4.780877
    32  H    2.743788   2.156093   1.085600   2.149232   3.401566
    33  H    4.690542   3.411944   2.150553   1.084836   2.155561
    34  H    5.417417   3.902940   3.405170   2.158623   1.085432
    35  H    4.684704   3.414491   3.873475   3.400647   2.157027
    36  H    2.720825   2.149368   3.391384   3.869575   3.402483
                   16         17         18         19         20
    16  C    0.000000
    17  C    1.396720   0.000000
    18  O    6.345874   5.718838   0.000000
    19  O    7.876014   6.940673   2.528769   0.000000
    20  H    8.422512   7.692559   2.851716   3.557062   0.000000
    21  H    9.222246   8.498479   2.956308   2.873664   1.797035
    22  H    9.256725   8.330409   3.571967   2.866456   1.794859
    23  H    7.307316   6.155641   3.399292   2.662616   3.369134
    24  H    3.423787   2.708909   3.515551   5.166026   5.082607
    25  H    5.080165   4.485365   2.344255   4.345710   3.402341
    26  H    5.186830   3.894944   5.206216   5.516875   5.902607
    27  H    6.706776   5.477915   4.924639   4.876759   4.800816
    28  H    5.847547   4.591556   3.952642   3.309624   5.412839
    29  H    5.030653   4.045573   2.732493   2.984521   4.974492
    30  H    3.985071   2.590204   5.329429   5.645082   6.901562
    31  H    4.397495   3.197336   5.224768   5.193670   7.265493
    32  H    3.872953   3.393522   4.034987   4.890020   6.748120
    33  H    3.397725   3.867778   5.437669   6.951214   8.139132
    34  H    2.157204   3.403980   6.908999   8.694495   9.239000
    35  H    1.086126   2.153509   7.237207   8.836166   9.133671
    36  H    2.155168   1.086620   6.240764   7.313197   7.908339
                   21         22         23         24         25
    21  H    0.000000
    22  H    1.789433   0.000000
    23  H    3.949988   2.787907   0.000000
    24  H    6.090608   5.956606   4.247647   0.000000
    25  H    4.534485   4.558132   3.629452   1.797583   0.000000
    26  H    6.963532   6.020568   3.432189   3.118390   3.941770
    27  H    5.926069   4.675171   2.306877   3.940834   3.947999
    28  H    5.696488   5.050024   2.554554   3.793447   4.187182
    29  H    5.144923   5.052907   3.199820   2.990503   3.290559
    30  H    7.625777   7.017440   4.398862   3.107867   4.470882
    31  H    7.589353   7.207972   4.761833   3.915727   5.094004
    32  H    6.826271   7.128777   5.502680   3.565996   4.403384
    33  H    8.316154   8.917956   7.591990   4.520659   5.421806
    34  H    9.830414  10.234683   8.679061   4.751458   6.024528
    35  H   10.059904  10.040375   8.075353   4.100341   5.742877
    36  H    8.856240   8.479062   6.139916   3.005465   4.783341
                   26         27         28         29         30
    26  H    0.000000
    27  H    1.792726   0.000000
    28  H    2.937933   3.214135   0.000000
    29  H    3.757333   4.179542   1.754452   0.000000
    30  H    2.048336   3.617597   2.570974   3.070435   0.000000
    31  H    3.558260   4.757701   2.311730   2.534601   1.744824
    32  H    5.219106   6.153182   3.737515   2.325172   3.792963
    33  H    6.926833   8.019937   6.091624   4.599459   5.531376
    34  H    7.114491   8.471134   7.274526   6.059438   5.863115
    35  H    5.668725   7.231494   6.723306   6.020837   4.651725
    36  H    3.364707   5.072347   4.684166   4.515103   2.317578
                   31         32         33         34         35
    31  H    0.000000
    32  H    2.817202   0.000000
    33  H    4.901703   2.469709   0.000000
    34  H    5.843627   4.297447   2.486452   0.000000
    35  H    5.280419   4.959060   4.299721   2.489126   0.000000
    36  H    3.422832   4.290837   4.954395   4.301054   2.477928
                   36
    36  H    0.000000
 Symmetry turned off by external request.
 Stoichiometry    C12H17NO4S2
 Framework group  C1[X(C12H17NO4S2)]
 Deg. of freedom   102
 Full point group                 C1      NOp   1
 Rotational constants (GHZ):           0.4178613           0.2393984           0.1803642
 Leave Link  202 at Tue Sep 22 01:46:05 2020, MaxMem=  2147483648 cpu:               0.0 elap:               0.0
 (Enter /prod/apps/gaussian/g16b1/l301.exe)
 Standard basis: 6-31G(d) (6D, 7F)
 Ernie: Thresh=  0.10000D-02 Tol=  0.10000D-05 Strict=F.
   327 basis functions,   648 primitive gaussians,   327 cartesian basis functions
    80 alpha electrons       80 beta electrons
       nuclear repulsion energy      1880.4564054687 Hartrees.
 IExCor=  402 DFT=T Ex+Corr=B3LYP ExCW=0 ScaHFX=  0.200000
 ScaDFX=  0.800000  0.720000  1.000000  0.810000 ScalE2=  1.000000  1.000000
 IRadAn=      5 IRanWt=     -1 IRanGd=            0 ICorTp=0 IEmpDi=  4
 NAtoms=   36 NActive=   36 NUniq=   36 SFac= 1.00D+00 NAtFMM=   60 NAOKFM=F Big=F
 Integral buffers will be    131072 words long.
 Raffenetti 2 integral format.
 Two-electron integral symmetry is turned off.
 Using the following non-standard input for PCM:
 MSTModel=DFT cav
 --- end of non-standard input.
 MST model for solvation energy: B3LYP parametrization.
 MST cavity parameters:
 ISph   IAn     Re0     Alpha   Atom Type   QCorr
 ------------------------------------------------
   1      6     1.50     1.25      CH3        F
   2     16     1.75     1.25      S          F
   3      7     1.50     1.25      NH         F
   4      6     1.50     1.25      C          F
   5      6     1.50     1.25      CH2        F
   6     16     1.75     1.25      S          F
   7      6     1.50     1.25      CH2        F
   8      8     1.40     1.25      O          F
   9      8     1.40     1.25      O          F
  10      6     1.50     1.25      CH2        F
  11      6     1.50     1.25      CH2        F
  12      6     1.50     1.25      C          F
  13      6     1.50     1.25      CH         F
  14      6     1.50     1.25      CH         F
  15      6     1.50     1.25      CH         F
  16      6     1.50     1.25      CH         F
  17      6     1.50     1.25      CH         F
  18      8     1.40     1.25      O          F
  19      8     1.40     1.25      O          F
  20      1     1.20     1.25      CH3        F
  21      1     1.20     1.25      CH3        F
  22      1     1.20     1.25      CH3        F
  23      1     0.90     1.25      NH         F
  24      1     1.20     1.25      CH2        F
  25      1     1.20     1.25      CH2        F
  26      1     1.20     1.25      CH2        F
  27      1     1.20     1.25      CH2        F
  28      1     1.20     1.25      CH2        F
  29      1     1.20     1.25      CH2        F
  30      1     1.20     1.25      CH2        F
  31      1     1.20     1.25      CH2        F
  32      1     1.20     1.25      CH         F
  33      1     1.20     1.25      CH         F
  34      1     1.20     1.25      CH         F
  35      1     1.20     1.25      CH         F
  36      1     1.20     1.25      CH         F
 ------------------------------------------------------------------------------
 Polarizable Continuum Model (PCM)
 =================================
 Model                : PCM.
 Atomic radii         : MST.
 Polarization charges : Total charges.
 Charge compensation  : None.
 Solution method      : On-the-fly selection.
 Cavity type          : Scaled VdW (van der Waals Surface) (Alpha=1.250).
 Cavity algorithm     : GePol (No added spheres)
                        Default sphere list used, NSphG=   36.
                        Lebedev-Laikov grids with approx.  5.0 points / Ang**2.
                        Smoothing algorithm: York/Karplus (Gamma=1.0000).
                        Polarization charges: spherical gaussians, with
                                              point-specific exponents (IZeta= 3).
                        Self-potential: point-specific (ISelfS= 7).
                        Self-field    : sphere-specific E.n sum rule (ISelfD= 2).
 1st derivatives      : Analytical E(r).r(x)/FMM algorithm (CHGder, D1EAlg=3).
                        Cavity 1st derivative terms included.
 Solvent              : Water, Eps=  78.355300 Eps(inf)=   1.777849
 ------------------------------------------------------------------------------
 GePol: Number of generator spheres                  =      36
 GePol: Total number of spheres                      =      36
 GePol: Number of exposed spheres                    =      36 (100.00%)
 GePol: Number of points                             =    2525
 GePol: Average weight of points                     =       0.14
 GePol: Minimum weight of points                     =   0.22D-09
 GePol: Maximum weight of points                     =    0.22001
 GePol: Number of points with low weight             =     167
 GePol: Fraction of low-weight points (<1% of avg)   =       6.61%
 GePol: Cavity surface area                          =    341.477 Ang**2
 GePol: Cavity volume                                =    335.641 Ang**3
 PCM non-electrostatic energy =         0.0030263156 Hartrees.
 Nuclear repulsion after PCM non-electrostatic terms =     1880.4594317843 Hartrees.
 Leave Link  301 at Tue Sep 22 01:46:05 2020, MaxMem=  2147483648 cpu:               0.3 elap:               0.1
 (Enter /prod/apps/gaussian/g16b1/l302.exe)
 NPDir=0 NMtPBC=     1 NCelOv=     1 NCel=       1 NClECP=     1 NCelD=      1
         NCelK=      1 NCelE2=     1 NClLst=     1 CellRange=     0.0.
 One-electron integrals computed using PRISM.
 NBasis=   327 RedAO= T EigKep=  4.69D-04  NBF=   327
 NBsUse=   327 1.00D-06 EigRej= -1.00D+00 NBFU=   327
 Precomputing XC quadrature grid using
 IXCGrd= 4 IRadAn=           5 IRanWt=          -1 IRanGd=           0 AccXCQ= 0.00D+00.
 Generated NRdTot=       0 NPtTot=           0 NUsed=           0 NTot=          32
 NSgBfM=   325   325   325   325   325 MxSgAt=    36 MxSgA2=    36.
 Leave Link  302 at Tue Sep 22 01:46:06 2020, MaxMem=  2147483648 cpu:               1.9 elap:               0.5
 (Enter /prod/apps/gaussian/g16b1/l303.exe)
 DipDrv:  MaxL=1.
 Leave Link  303 at Tue Sep 22 01:46:06 2020, MaxMem=  2147483648 cpu:               0.2 elap:               0.1
 (Enter /prod/apps/gaussian/g16b1/l401.exe)
 ExpMin= 1.17D-01 ExpMax= 2.19D+04 ExpMxC= 3.30D+03 IAcc=3 IRadAn=         5 AccDes= 0.00D+00
 Harris functional with IExCor=  402 and IRadAn=       5 diagonalized for initial guess.
 HarFok:  IExCor=  402 AccDes= 0.00D+00 IRadAn=         5 IDoV= 1 UseB2=F ITyADJ=14
 ICtDFT=  3500011 ScaDFX=  1.000000  1.000000  1.000000  1.000000
 FoFCou: FMM=F IPFlag=           0 FMFlag=      100000 FMFlg1=           0
         NFxFlg=           0 DoJE=T BraDBF=F KetDBF=T FulRan=T
         wScrn=  0.000000 ICntrl=       500 IOpCl=  0 I1Cent=   200000004 NGrid=           0
         NMat0=    1 NMatS0=      1 NMatT0=    0 NMatD0=    1 NMtDS0=    0 NMtDT0=    0
 Symmetry not used in FoFCou.
 Harris En= -1619.48834256838    
 JPrj=0 DoOrth=F DoCkMO=F.
 Leave Link  401 at Tue Sep 22 01:46:09 2020, MaxMem=  2147483648 cpu:              10.4 elap:               2.6
 (Enter /prod/apps/gaussian/g16b1/l502.exe)
 Two-electron integral symmetry not used.
 Closed shell SCF:
 Using DIIS extrapolation, IDIIS=  1040.
 NGot=  2147483648 LenX=  2147264911 LenY=  2147157541
 Requested convergence on RMS density matrix=1.00D-08 within2000 cycles.
 Requested convergence on MAX density matrix=1.00D-06.
 Requested convergence on             energy=1.00D-06.
 No special actions if energy rises.

 Cycle   1  Pass 1  IDiag  1:
 FoFJK:  IHMeth= 1 ICntrl=       0 DoSepK=F KAlg= 0 I1Cent=           0 FoldK=F
 IRaf= 830000000 NMat=       1 IRICut=       1 DoRegI=T DoRafI=F ISym2E= 0 IDoP0=0 IntGTp=1.
 FoFCou: FMM=F IPFlag=           0 FMFlag=      100000 FMFlg1=           0
         NFxFlg=           0 DoJE=F BraDBF=F KetDBF=F FulRan=T
         wScrn=  0.000000 ICntrl=         0 IOpCl=  0 I1Cent=           0 NGrid=           0
         NMat0=    1 NMatS0=      1 NMatT0=    0 NMatD0=    1 NMtDS0=    0 NMtDT0=    0
 Symmetry not used in FoFCou.
 Inv3:  Mode=1 IEnd=    19126875.
 Iteration    1 A*A^-1 deviation from unit magnitude is 3.33D-15 for    187.
 Iteration    1 A*A^-1 deviation from orthogonality  is 2.29D-15 for   2321    681.
 Iteration    1 A^-1*A deviation from unit magnitude is 3.11D-15 for    187.
 Iteration    1 A^-1*A deviation from orthogonality  is 2.09D-15 for   2182    335.
 E= -1618.65408064374    
 DIIS: error= 3.76D-02 at cycle   1 NSaved=   1.
 NSaved= 1 IEnMin= 1 EnMin= -1618.65408064374     IErMin= 1 ErrMin= 3.76D-02
 ErrMax= 3.76D-02  0.00D+00 EMaxC= 1.00D-01 BMatC= 9.09D-01 BMatP= 9.09D-01
 IDIUse=3 WtCom= 6.24D-01 WtEn= 3.76D-01
 Coeff-Com:  0.100D+01
 Coeff-En:   0.100D+01
 Coeff:      0.100D+01
 Gap=     0.326 Goal=   None    Shift=    0.000
 GapD=    0.326 DampG=1.000 DampE=0.500 DampFc=0.5000 IDamp=-1.
 Damping current iteration by 5.00D-01
 RMSDP=6.91D-03 MaxDP=5.43D-01              OVMax= 2.27D-01

 Cycle   2  Pass 1  IDiag  1:
 E= -1618.87093753799     Delta-E=       -0.216856894254 Rises=F Damp=T
 DIIS: error= 1.54D-02 at cycle   2 NSaved=   2.
 NSaved= 2 IEnMin= 2 EnMin= -1618.87093753799     IErMin= 2 ErrMin= 1.54D-02
 ErrMax= 1.54D-02  0.00D+00 EMaxC= 1.00D-01 BMatC= 1.11D-01 BMatP= 9.09D-01
 IDIUse=3 WtCom= 8.46D-01 WtEn= 1.54D-01
 Coeff-Com:  0.211D+00 0.789D+00
 Coeff-En:   0.340D+00 0.660D+00
 Coeff:      0.231D+00 0.769D+00
 Gap=     0.273 Goal=   None    Shift=    0.000
 RMSDP=1.80D-03 MaxDP=1.05D-01 DE=-2.17D-01 OVMax= 1.68D-01

 Cycle   3  Pass 1  IDiag  1:
 E= -1619.36243700909     Delta-E=       -0.491499471099 Rises=F Damp=F
 DIIS: error= 1.05D-02 at cycle   3 NSaved=   3.
 NSaved= 3 IEnMin= 3 EnMin= -1619.36243700909     IErMin= 3 ErrMin= 1.05D-02
 ErrMax= 1.05D-02  0.00D+00 EMaxC= 1.00D-01 BMatC= 5.94D-02 BMatP= 1.11D-01
 IDIUse=3 WtCom= 8.95D-01 WtEn= 1.05D-01
 Coeff-Com:  0.789D-01 0.434D+00 0.487D+00
 Coeff-En:   0.000D+00 0.000D+00 0.100D+01
 Coeff:      0.706D-01 0.389D+00 0.541D+00
 Gap=     0.239 Goal=   None    Shift=    0.000
 RMSDP=1.02D-03 MaxDP=3.49D-02 DE=-4.91D-01 OVMax= 6.47D-02

 Cycle   4  Pass 1  IDiag  1:
 E= -1619.40958587599     Delta-E=       -0.047148866897 Rises=F Damp=F
 DIIS: error= 3.17D-03 at cycle   4 NSaved=   4.
 NSaved= 4 IEnMin= 4 EnMin= -1619.40958587599     IErMin= 4 ErrMin= 3.17D-03
 ErrMax= 3.17D-03  0.00D+00 EMaxC= 1.00D-01 BMatC= 8.30D-03 BMatP= 5.94D-02
 IDIUse=3 WtCom= 9.68D-01 WtEn= 3.17D-02
 Coeff-Com:  0.525D-02 0.656D-01 0.284D+00 0.645D+00
 Coeff-En:   0.000D+00 0.000D+00 0.112D+00 0.888D+00
 Coeff:      0.508D-02 0.635D-01 0.279D+00 0.653D+00
 Gap=     0.237 Goal=   None    Shift=    0.000
 RMSDP=3.26D-04 MaxDP=1.64D-02 DE=-4.71D-02 OVMax= 2.16D-02

 Cycle   5  Pass 1  IDiag  1:
 E= -1619.41648545306     Delta-E=       -0.006899577076 Rises=F Damp=F
 DIIS: error= 8.11D-04 at cycle   5 NSaved=   5.
 NSaved= 5 IEnMin= 5 EnMin= -1619.41648545306     IErMin= 5 ErrMin= 8.11D-04
 ErrMax= 8.11D-04  0.00D+00 EMaxC= 1.00D-01 BMatC= 5.25D-04 BMatP= 8.30D-03
 IDIUse=3 WtCom= 9.92D-01 WtEn= 8.11D-03
 Coeff-Com: -0.131D-02 0.130D-01 0.118D+00 0.339D+00 0.531D+00
 Coeff-En:   0.000D+00 0.000D+00 0.000D+00 0.000D+00 0.100D+01
 Coeff:     -0.130D-02 0.129D-01 0.117D+00 0.337D+00 0.535D+00
 Gap=     0.237 Goal=   None    Shift=    0.000
 RMSDP=8.73D-05 MaxDP=4.90D-03 DE=-6.90D-03 OVMax= 5.17D-03

 Cycle   6  Pass 1  IDiag  1:
 E= -1619.41693356088     Delta-E=       -0.000448107813 Rises=F Damp=F
 DIIS: error= 3.43D-04 at cycle   6 NSaved=   6.
 NSaved= 6 IEnMin= 6 EnMin= -1619.41693356088     IErMin= 6 ErrMin= 3.43D-04
 ErrMax= 3.43D-04  0.00D+00 EMaxC= 1.00D-01 BMatC= 4.32D-05 BMatP= 5.25D-04
 IDIUse=3 WtCom= 9.97D-01 WtEn= 3.43D-03
 Coeff-Com: -0.105D-02 0.210D-02 0.404D-01 0.127D+00 0.287D+00 0.544D+00
 Coeff-En:   0.000D+00 0.000D+00 0.000D+00 0.000D+00 0.000D+00 0.100D+01
 Coeff:     -0.105D-02 0.209D-02 0.403D-01 0.126D+00 0.286D+00 0.546D+00
 Gap=     0.237 Goal=   None    Shift=    0.000
 RMSDP=2.31D-05 MaxDP=1.21D-03 DE=-4.48D-04 OVMax= 1.43D-03

 Cycle   7  Pass 1  IDiag  1:
 E= -1619.41696504347     Delta-E=       -0.000031482588 Rises=F Damp=F
 DIIS: error= 1.34D-04 at cycle   7 NSaved=   7.
 NSaved= 7 IEnMin= 7 EnMin= -1619.41696504347     IErMin= 7 ErrMin= 1.34D-04
 ErrMax= 1.34D-04  0.00D+00 EMaxC= 1.00D-01 BMatC= 5.31D-06 BMatP= 4.32D-05
 IDIUse=3 WtCom= 9.99D-01 WtEn= 1.34D-03
 Coeff-Com: -0.496D-03-0.945D-04 0.119D-01 0.397D-01 0.116D+00 0.321D+00
 Coeff-Com:  0.512D+00
 Coeff-En:   0.000D+00 0.000D+00 0.000D+00 0.000D+00 0.000D+00 0.338D-01
 Coeff-En:   0.966D+00
 Coeff:     -0.496D-03-0.944D-04 0.119D-01 0.397D-01 0.116D+00 0.321D+00
 Coeff:      0.512D+00
 Gap=     0.237 Goal=   None    Shift=    0.000
 RMSDP=7.77D-06 MaxDP=4.37D-04 DE=-3.15D-05 OVMax= 4.58D-04

 Cycle   8  Pass 1  IDiag  1:
 E= -1619.41696896265     Delta-E=       -0.000003919181 Rises=F Damp=F
 DIIS: error= 3.79D-05 at cycle   8 NSaved=   8.
 NSaved= 8 IEnMin= 8 EnMin= -1619.41696896265     IErMin= 8 ErrMin= 3.79D-05
 ErrMax= 3.79D-05  0.00D+00 EMaxC= 1.00D-01 BMatC= 4.24D-07 BMatP= 5.31D-06
 IDIUse=1 WtCom= 1.00D+00 WtEn= 0.00D+00
 Coeff-Com: -0.166D-03-0.260D-03 0.221D-02 0.827D-02 0.338D-01 0.119D+00
 Coeff-Com:  0.279D+00 0.558D+00
 Coeff:     -0.166D-03-0.260D-03 0.221D-02 0.827D-02 0.338D-01 0.119D+00
 Coeff:      0.279D+00 0.558D+00
 Gap=     0.237 Goal=   None    Shift=    0.000
 RMSDP=2.38D-06 MaxDP=1.13D-04 DE=-3.92D-06 OVMax= 1.23D-04

 Cycle   9  Pass 1  IDiag  1:
 E= -1619.41696927197     Delta-E=       -0.000000309321 Rises=F Damp=F
 DIIS: error= 6.49D-06 at cycle   9 NSaved=   9.
 NSaved= 9 IEnMin= 9 EnMin= -1619.41696927197     IErMin= 9 ErrMin= 6.49D-06
 ErrMax= 6.49D-06  0.00D+00 EMaxC= 1.00D-01 BMatC= 4.27D-08 BMatP= 4.24D-07
 IDIUse=1 WtCom= 1.00D+00 WtEn= 0.00D+00
 Coeff-Com: -0.283D-04-0.110D-03-0.377D-03-0.786D-03 0.281D-02 0.204D-01
 Coeff-Com:  0.792D-01 0.293D+00 0.605D+00
 Coeff:     -0.283D-04-0.110D-03-0.377D-03-0.786D-03 0.281D-02 0.204D-01
 Coeff:      0.792D-01 0.293D+00 0.605D+00
 Gap=     0.237 Goal=   None    Shift=    0.000
 RMSDP=6.77D-07 MaxDP=3.65D-05 DE=-3.09D-07 OVMax= 2.75D-05

 Cycle  10  Pass 1  IDiag  1:
 E= -1619.41696930723     Delta-E=       -0.000000035261 Rises=F Damp=F
 DIIS: error= 2.19D-06 at cycle  10 NSaved=  10.
 NSaved=10 IEnMin=10 EnMin= -1619.41696930723     IErMin=10 ErrMin= 2.19D-06
 ErrMax= 2.19D-06  0.00D+00 EMaxC= 1.00D-01 BMatC= 1.60D-09 BMatP= 4.27D-08
 IDIUse=1 WtCom= 1.00D+00 WtEn= 0.00D+00
 Coeff-Com: -0.880D-05-0.275D-04-0.259D-03-0.663D-03-0.624D-04 0.427D-02
 Coeff-Com:  0.244D-01 0.110D+00 0.268D+00 0.595D+00
 Coeff:     -0.880D-05-0.275D-04-0.259D-03-0.663D-03-0.624D-04 0.427D-02
 Coeff:      0.244D-01 0.110D+00 0.268D+00 0.595D+00
 Gap=     0.237 Goal=   None    Shift=    0.000
 RMSDP=1.59D-07 MaxDP=9.14D-06 DE=-3.53D-08 OVMax= 7.99D-06

 Cycle  11  Pass 1  IDiag  1:
 E= -1619.41696930822     Delta-E=       -0.000000000995 Rises=F Damp=F
 DIIS: error= 1.08D-06 at cycle  11 NSaved=  11.
 NSaved=11 IEnMin=11 EnMin= -1619.41696930822     IErMin=11 ErrMin= 1.08D-06
 ErrMax= 1.08D-06  0.00D+00 EMaxC= 1.00D-01 BMatC= 4.01D-10 BMatP= 1.60D-09
 IDIUse=1 WtCom= 1.00D+00 WtEn= 0.00D+00
 Coeff-Com: -0.295D-05-0.786D-07-0.118D-03-0.311D-03-0.451D-03-0.241D-03
 Coeff-Com:  0.411D-02 0.272D-01 0.777D-01 0.354D+00 0.538D+00
 Coeff:     -0.295D-05-0.786D-07-0.118D-03-0.311D-03-0.451D-03-0.241D-03
 Coeff:      0.411D-02 0.272D-01 0.777D-01 0.354D+00 0.538D+00
 Gap=     0.237 Goal=   None    Shift=    0.000
 RMSDP=6.54D-08 MaxDP=3.69D-06 DE=-9.95D-10 OVMax= 4.03D-06

 Cycle  12  Pass 1  IDiag  1:
 E= -1619.41696930851     Delta-E=       -0.000000000283 Rises=F Damp=F
 DIIS: error= 2.59D-07 at cycle  12 NSaved=  12.
 NSaved=12 IEnMin=12 EnMin= -1619.41696930851     IErMin=12 ErrMin= 2.59D-07
 ErrMax= 2.59D-07  0.00D+00 EMaxC= 1.00D-01 BMatC= 4.21D-11 BMatP= 4.01D-10
 IDIUse=1 WtCom= 1.00D+00 WtEn= 0.00D+00
 Coeff-Com: -0.132D-05 0.336D-05-0.462D-04-0.118D-03-0.275D-03-0.646D-03
 Coeff-Com: -0.287D-03 0.401D-02 0.158D-01 0.141D+00 0.311D+00 0.529D+00
 Coeff:     -0.132D-05 0.336D-05-0.462D-04-0.118D-03-0.275D-03-0.646D-03
 Coeff:     -0.287D-03 0.401D-02 0.158D-01 0.141D+00 0.311D+00 0.529D+00
 Gap=     0.237 Goal=   None    Shift=    0.000
 RMSDP=2.18D-08 MaxDP=9.29D-07 DE=-2.83D-10 OVMax= 1.24D-06

 Cycle  13  Pass 1  IDiag  1:
 E= -1619.41696930856     Delta-E=       -0.000000000052 Rises=F Damp=F
 DIIS: error= 6.29D-08 at cycle  13 NSaved=  13.
 NSaved=13 IEnMin=13 EnMin= -1619.41696930856     IErMin=13 ErrMin= 6.29D-08
 ErrMax= 6.29D-08  0.00D+00 EMaxC= 1.00D-01 BMatC= 2.79D-12 BMatP= 4.21D-11
 IDIUse=1 WtCom= 1.00D+00 WtEn= 0.00D+00
 Coeff-Com: -0.486D-06 0.202D-05-0.123D-04-0.294D-04-0.977D-04-0.317D-03
 Coeff-Com: -0.591D-03-0.790D-03-0.326D-03 0.331D-01 0.993D-01 0.267D+00
 Coeff-Com:  0.603D+00
 Coeff:     -0.486D-06 0.202D-05-0.123D-04-0.294D-04-0.977D-04-0.317D-03
 Coeff:     -0.591D-03-0.790D-03-0.326D-03 0.331D-01 0.993D-01 0.267D+00
 Coeff:      0.603D+00
 Gap=     0.237 Goal=   None    Shift=    0.000
 RMSDP=5.71D-09 MaxDP=3.06D-07 DE=-5.18D-11 OVMax= 3.19D-07

 Error on total polarization charges =  0.01861
 SCF Done:  E(RB3LYP) =  -1619.41696931     A.U. after   13 cycles
            NFock= 13  Conv=0.57D-08     -V/T= 2.0066
 KE= 1.608810755542D+03 PE=-7.567571035083D+03 EE= 2.458883878447D+03
 Leave Link  502 at Tue Sep 22 01:47:41 2020, MaxMem=  2147483648 cpu:             367.7 elap:              92.0
 (Enter /prod/apps/gaussian/g16b1/l601.exe)
 Copying SCF densities to generalized density rwf, IOpCl= 0 IROHF=0.

 **********************************************************************

            Population analysis using the SCF Density.

 **********************************************************************

 Alpha  occ. eigenvalues --  -89.12428 -89.09550 -19.15549 -19.15363 -19.15357
 Alpha  occ. eigenvalues --  -19.15214 -14.37409 -10.27480 -10.22940 -10.22286
 Alpha  occ. eigenvalues --  -10.22283 -10.19879 -10.19866 -10.19450 -10.19101
 Alpha  occ. eigenvalues --  -10.19090 -10.18929 -10.18883 -10.18880  -8.14997
 Alpha  occ. eigenvalues --   -8.12623  -6.11498  -6.11432  -6.11262  -6.09075
 Alpha  occ. eigenvalues --   -6.08972  -6.08872  -1.12027  -1.10456  -1.00930
 Alpha  occ. eigenvalues --   -1.00182  -0.94734  -0.86056  -0.85253  -0.79312
 Alpha  occ. eigenvalues --   -0.77650  -0.74470  -0.73796  -0.72124  -0.67887
 Alpha  occ. eigenvalues --   -0.63654  -0.61143  -0.60310  -0.58198  -0.57027
 Alpha  occ. eigenvalues --   -0.54049  -0.51996  -0.51316  -0.50343  -0.49329
 Alpha  occ. eigenvalues --   -0.48890  -0.47800  -0.46330  -0.46174  -0.45217
 Alpha  occ. eigenvalues --   -0.44345  -0.43970  -0.43343  -0.42860  -0.42120
 Alpha  occ. eigenvalues --   -0.41758  -0.41244  -0.40943  -0.39341  -0.37110
 Alpha  occ. eigenvalues --   -0.36448  -0.35467  -0.35153  -0.34103  -0.33650
 Alpha  occ. eigenvalues --   -0.33014  -0.32821  -0.32462  -0.31835  -0.31136
 Alpha  occ. eigenvalues --   -0.30602  -0.29316  -0.27719  -0.25322  -0.24365
 Alpha virt. eigenvalues --   -0.00636  -0.00334   0.03442   0.04292   0.05280
 Alpha virt. eigenvalues --    0.06334   0.06900   0.07638   0.08736   0.09250
 Alpha virt. eigenvalues --    0.09966   0.10143   0.10663   0.11972   0.12827
 Alpha virt. eigenvalues --    0.13762   0.13931   0.15562   0.15989   0.16118
 Alpha virt. eigenvalues --    0.16307   0.16720   0.17432   0.18628   0.19619
 Alpha virt. eigenvalues --    0.19939   0.20947   0.21426   0.22138   0.23031
 Alpha virt. eigenvalues --    0.24971   0.25709   0.26647   0.29300   0.30687
 Alpha virt. eigenvalues --    0.32613   0.34178   0.34633   0.35190   0.36005
 Alpha virt. eigenvalues --    0.36451   0.40540   0.41437   0.43246   0.45662
 Alpha virt. eigenvalues --    0.46752   0.47300   0.48314   0.50101   0.50892
 Alpha virt. eigenvalues --    0.51645   0.53009   0.53795   0.54481   0.54999
 Alpha virt. eigenvalues --    0.56363   0.56876   0.57432   0.57733   0.59285
 Alpha virt. eigenvalues --    0.60100   0.60540   0.60632   0.61380   0.61697
 Alpha virt. eigenvalues --    0.62527   0.64363   0.64765   0.67356   0.68993
 Alpha virt. eigenvalues --    0.69793   0.70215   0.71223   0.72659   0.74066
 Alpha virt. eigenvalues --    0.74217   0.76971   0.78238   0.79094   0.79214
 Alpha virt. eigenvalues --    0.79960   0.80529   0.81398   0.82008   0.83775
 Alpha virt. eigenvalues --    0.84237   0.84827   0.85247   0.85940   0.86603
 Alpha virt. eigenvalues --    0.87126   0.87557   0.88012   0.89584   0.90134
 Alpha virt. eigenvalues --    0.90437   0.91249   0.92718   0.93220   0.93962
 Alpha virt. eigenvalues --    0.94681   0.96031   0.96320   0.97118   0.97813
 Alpha virt. eigenvalues --    0.98982   1.00434   1.01159   1.01746   1.02839
 Alpha virt. eigenvalues --    1.03852   1.04891   1.06317   1.07309   1.08749
 Alpha virt. eigenvalues --    1.10315   1.11127   1.12402   1.14921   1.15661
 Alpha virt. eigenvalues --    1.16706   1.17599   1.18337   1.19219   1.19985
 Alpha virt. eigenvalues --    1.21039   1.21502   1.23671   1.25808   1.27668
 Alpha virt. eigenvalues --    1.30691   1.32053   1.34431   1.35878   1.41303
 Alpha virt. eigenvalues --    1.41597   1.43697   1.45005   1.46244   1.47835
 Alpha virt. eigenvalues --    1.48234   1.49937   1.51308   1.53398   1.56397
 Alpha virt. eigenvalues --    1.59033   1.63713   1.66770   1.68443   1.71428
 Alpha virt. eigenvalues --    1.71637   1.72496   1.73427   1.74713   1.77404
 Alpha virt. eigenvalues --    1.78550   1.79270   1.79501   1.79688   1.80172
 Alpha virt. eigenvalues --    1.80697   1.81371   1.82588   1.83390   1.83904
 Alpha virt. eigenvalues --    1.85398   1.87952   1.88101   1.90103   1.91340
 Alpha virt. eigenvalues --    1.91900   1.93375   1.95383   1.96897   1.98347
 Alpha virt. eigenvalues --    2.00491   2.01518   2.02870   2.03819   2.04182
 Alpha virt. eigenvalues --    2.05644   2.08038   2.08882   2.10029   2.12172
 Alpha virt. eigenvalues --    2.13710   2.13987   2.14638   2.15082   2.15792
 Alpha virt. eigenvalues --    2.17061   2.18367   2.19886   2.20339   2.22514
 Alpha virt. eigenvalues --    2.23217   2.27041   2.27375   2.28669   2.30107
 Alpha virt. eigenvalues --    2.30822   2.31289   2.32721   2.34399   2.38476
 Alpha virt. eigenvalues --    2.40992   2.44317   2.46047   2.52393   2.55324
 Alpha virt. eigenvalues --    2.58169   2.59135   2.64464   2.66289   2.70564
 Alpha virt. eigenvalues --    2.71487   2.72626   2.73644   2.74532   2.75462
 Alpha virt. eigenvalues --    2.76208   2.80087   2.80583   2.81360   2.86906
 Alpha virt. eigenvalues --    2.89740   3.05961   3.40800   3.76616   3.78699
 Alpha virt. eigenvalues --    3.86718   3.94619   3.95404   4.03770   4.06831
 Alpha virt. eigenvalues --    4.09519   4.12274   4.17829   4.20164   4.21450
 Alpha virt. eigenvalues --    4.25722   4.33064   4.35402   4.43664   4.51028
 Alpha virt. eigenvalues --    4.69699   4.74956
          Condensed to atoms (all electrons):
               1          2          3          4          5          6
     1  C    5.519121   0.239237  -0.059008   0.002830  -0.000065   0.000006
     2  S    0.239237  13.619897   0.130387  -0.018606  -0.005582   0.000924
     3  N   -0.059008   0.130387   7.399168   0.234924  -0.061356   0.011084
     4  C    0.002830  -0.018606   0.234924   4.875871   0.346014  -0.105680
     5  C   -0.000065  -0.005582  -0.061356   0.346014   5.696623   0.152853
     6  S    0.000006   0.000924   0.011084  -0.105680   0.152853  13.881268
     7  C   -0.000209   0.000510  -0.055501   0.340258  -0.182970   0.135515
     8  O   -0.000055   0.000217   0.000122  -0.000593  -0.043584   0.419976
     9  O   -0.000000  -0.000002  -0.000049   0.002679  -0.045173   0.424186
    10  C   -0.000200   0.001831  -0.059692   0.384776  -0.043872   0.002933
    11  C    0.000001   0.000087   0.004303  -0.032425  -0.001841  -0.000203
    12  C    0.000000  -0.000047  -0.000032  -0.003150  -0.003753   0.000144
    13  C   -0.000000  -0.000066  -0.000006  -0.000972  -0.000158   0.000035
    14  C   -0.000000  -0.000001   0.000000  -0.000031   0.000191  -0.000008
    15  C    0.000000   0.000000   0.000000   0.000004   0.000067   0.000000
    16  C   -0.000000   0.000000  -0.000000   0.000001  -0.000320  -0.000016
    17  C    0.000000   0.000002  -0.000003   0.000873  -0.005475   0.000873
    18  O   -0.056110   0.407283  -0.050477   0.008069  -0.004498  -0.000268
    19  O   -0.061135   0.435880  -0.051439  -0.003989  -0.000116   0.000009
    20  H    0.342489  -0.005202   0.000623  -0.000049   0.000009   0.000155
    21  H    0.355088  -0.016400   0.002690  -0.000039  -0.000004   0.000003
    22  H    0.343190  -0.004068  -0.000087  -0.000067   0.000005  -0.000006
    23  H   -0.000509  -0.003800   0.289371  -0.021659   0.004626  -0.000405
    24  H   -0.000004   0.000094   0.003177  -0.025559   0.323826  -0.005198
    25  H   -0.000559   0.002534  -0.005300  -0.019663   0.340607  -0.009953
    26  H    0.000001   0.000025   0.003488  -0.027060   0.004368  -0.004671
    27  H   -0.000003   0.000047  -0.005130  -0.021148   0.008709  -0.009732
    28  H    0.000017   0.000051  -0.002092  -0.037915   0.005365  -0.000094
    29  H    0.000081   0.011221  -0.006316  -0.032821  -0.005146  -0.000252
    30  H   -0.000000   0.000017   0.000052  -0.007999   0.000012  -0.000689
    31  H   -0.000000  -0.000004  -0.000129   0.004447  -0.000127   0.000026
    32  H    0.000000  -0.000010   0.000003   0.000161  -0.000040   0.000001
    33  H   -0.000000  -0.000000  -0.000000   0.000000  -0.000000   0.000000
    34  H    0.000000   0.000000   0.000000  -0.000000   0.000000  -0.000000
    35  H   -0.000000  -0.000000   0.000000   0.000000  -0.000005  -0.000001
    36  H    0.000000   0.000000   0.000000  -0.000006  -0.000159   0.000742
               7          8          9         10         11         12
     1  C   -0.000209  -0.000055  -0.000000  -0.000200   0.000001   0.000000
     2  S    0.000510   0.000217  -0.000002   0.001831   0.000087  -0.000047
     3  N   -0.055501   0.000122  -0.000049  -0.059692   0.004303  -0.000032
     4  C    0.340258  -0.000593   0.002679   0.384776  -0.032425  -0.003150
     5  C   -0.182970  -0.043584  -0.045173  -0.043872  -0.001841  -0.003753
     6  S    0.135515   0.419976   0.424186   0.002933  -0.000203   0.000144
     7  C    5.709030  -0.044230  -0.045877  -0.045940  -0.006850  -0.000546
     8  O   -0.044230   8.281463  -0.046557  -0.000090  -0.000001  -0.000000
     9  O   -0.045877  -0.046557   8.273079  -0.000199   0.000046  -0.000117
    10  C   -0.045940  -0.000090  -0.000199   5.114325   0.325123  -0.033675
    11  C   -0.006850  -0.000001   0.000046   0.325123   5.188256   0.351747
    12  C   -0.000546  -0.000000  -0.000117  -0.033675   0.351747   4.678689
    13  C    0.000014  -0.000000   0.000001  -0.004554  -0.066075   0.536780
    14  C    0.000001  -0.000000  -0.000000   0.000231   0.005972  -0.019615
    15  C   -0.000000   0.000000   0.000000   0.000004   0.000321  -0.034945
    16  C    0.000000  -0.000000  -0.000013  -0.000182   0.007040  -0.024204
    17  C   -0.000099  -0.000000  -0.000136   0.000912  -0.050413   0.541470
    18  O    0.000182   0.000000  -0.000000  -0.007668  -0.000039   0.000005
    19  O   -0.000109  -0.000000  -0.000000   0.003118   0.000038   0.000000
    20  H    0.000010   0.000171   0.000000  -0.000001  -0.000000   0.000000
    21  H    0.000001   0.000000   0.000000   0.000004  -0.000000   0.000000
    22  H   -0.000005   0.000000   0.000000   0.000011   0.000000  -0.000000
    23  H   -0.006402   0.000004   0.000001  -0.000660  -0.000043   0.000004
    24  H    0.004573   0.001111   0.000670  -0.006321  -0.001945   0.010466
    25  H    0.008460  -0.000256   0.000604   0.000843   0.000054   0.000022
    26  H    0.333181   0.001128   0.001015  -0.006137   0.001658   0.000087
    27  H    0.344629  -0.000211   0.000664   0.000749   0.000102   0.000003
    28  H   -0.006471   0.000001   0.000002   0.363694  -0.025942   0.004018
    29  H    0.005029   0.000001   0.000001   0.365082  -0.036339  -0.007397
    30  H    0.001707   0.000001  -0.000057  -0.037827   0.363707  -0.037184
    31  H    0.000130  -0.000000  -0.000000  -0.030742   0.359927  -0.028363
    32  H    0.000001   0.000000   0.000000   0.000779  -0.008393  -0.046101
    33  H    0.000000  -0.000000  -0.000000   0.000001  -0.000172   0.003563
    34  H    0.000000   0.000000   0.000000   0.000000   0.000007   0.000626
    35  H    0.000000  -0.000000  -0.000001   0.000001  -0.000170   0.003736
    36  H   -0.000131   0.000000   0.000848   0.000188  -0.010819  -0.042553
              13         14         15         16         17         18
     1  C   -0.000000  -0.000000   0.000000  -0.000000   0.000000  -0.056110
     2  S   -0.000066  -0.000001   0.000000   0.000000   0.000002   0.407283
     3  N   -0.000006   0.000000   0.000000  -0.000000  -0.000003  -0.050477
     4  C   -0.000972  -0.000031   0.000004   0.000001   0.000873   0.008069
     5  C   -0.000158   0.000191   0.000067  -0.000320  -0.005475  -0.004498
     6  S    0.000035  -0.000008   0.000000  -0.000016   0.000873  -0.000268
     7  C    0.000014   0.000001  -0.000000   0.000000  -0.000099   0.000182
     8  O   -0.000000  -0.000000   0.000000  -0.000000  -0.000000   0.000000
     9  O    0.000001  -0.000000   0.000000  -0.000013  -0.000136  -0.000000
    10  C   -0.004554   0.000231   0.000004  -0.000182   0.000912  -0.007668
    11  C   -0.066075   0.005972   0.000321   0.007040  -0.050413  -0.000039
    12  C    0.536780  -0.019615  -0.034945  -0.024204   0.541470   0.000005
    13  C    4.996797   0.523661  -0.037619  -0.046464  -0.045178   0.000012
    14  C    0.523661   4.888792   0.541533  -0.028875  -0.045687  -0.000005
    15  C   -0.037619   0.541533   4.885083   0.546082  -0.037718   0.000000
    16  C   -0.046464  -0.028875   0.546082   4.898741   0.512250  -0.000000
    17  C   -0.045178  -0.045687  -0.037718   0.512250   4.997297   0.000000
    18  O    0.000012  -0.000005   0.000000  -0.000000   0.000000   8.321443
    19  O   -0.000000  -0.000000  -0.000000  -0.000000   0.000000  -0.044538
    20  H    0.000000   0.000000  -0.000000   0.000000  -0.000000  -0.000242
    21  H    0.000000  -0.000000  -0.000000   0.000000   0.000000  -0.000354
    22  H    0.000000   0.000000  -0.000000   0.000000   0.000000   0.001597
    23  H    0.000000  -0.000000  -0.000000   0.000000  -0.000000   0.001231
    24  H    0.000143  -0.000400  -0.000115   0.000881   0.008473  -0.000118
    25  H    0.000015  -0.000010  -0.000004   0.000003   0.000057   0.010251
    26  H    0.000001  -0.000000   0.000000   0.000001   0.000033   0.000001
    27  H    0.000000  -0.000000   0.000000  -0.000000  -0.000000   0.000004
    28  H    0.000163   0.000001   0.000000   0.000002  -0.000108   0.000093
    29  H    0.004207  -0.000094  -0.000001   0.000003   0.000179   0.006170
    30  H    0.004842  -0.000155  -0.000006   0.000268  -0.004514  -0.000001
    31  H   -0.005035  -0.000044   0.000037  -0.000240   0.001288   0.000000
    32  H    0.359205  -0.042479   0.004646   0.000293   0.005878   0.000003
    33  H   -0.039328   0.361655  -0.042130   0.004545   0.000747  -0.000000
    34  H    0.004635  -0.041960   0.363414  -0.042302   0.004597   0.000000
    35  H    0.000706   0.004520  -0.042262   0.361042  -0.038589  -0.000000
    36  H    0.006324   0.000250   0.004725  -0.044970   0.357659  -0.000000
              19         20         21         22         23         24
     1  C   -0.061135   0.342489   0.355088   0.343190  -0.000509  -0.000004
     2  S    0.435880  -0.005202  -0.016400  -0.004068  -0.003800   0.000094
     3  N   -0.051439   0.000623   0.002690  -0.000087   0.289371   0.003177
     4  C   -0.003989  -0.000049  -0.000039  -0.000067  -0.021659  -0.025559
     5  C   -0.000116   0.000009  -0.000004   0.000005   0.004626   0.323826
     6  S    0.000009   0.000155   0.000003  -0.000006  -0.000405  -0.005198
     7  C   -0.000109   0.000010   0.000001  -0.000005  -0.006402   0.004573
     8  O   -0.000000   0.000171   0.000000   0.000000   0.000004   0.001111
     9  O   -0.000000   0.000000   0.000000   0.000000   0.000001   0.000670
    10  C    0.003118  -0.000001   0.000004   0.000011  -0.000660  -0.006321
    11  C    0.000038  -0.000000  -0.000000   0.000000  -0.000043  -0.001945
    12  C    0.000000   0.000000   0.000000  -0.000000   0.000004   0.010466
    13  C   -0.000000   0.000000   0.000000   0.000000   0.000000   0.000143
    14  C   -0.000000   0.000000  -0.000000   0.000000  -0.000000  -0.000400
    15  C   -0.000000  -0.000000  -0.000000  -0.000000  -0.000000  -0.000115
    16  C   -0.000000   0.000000   0.000000   0.000000   0.000000   0.000881
    17  C    0.000000  -0.000000   0.000000   0.000000  -0.000000   0.008473
    18  O   -0.044538  -0.000242  -0.000354   0.001597   0.001231  -0.000118
    19  O    8.290871   0.001773   0.000259  -0.000671   0.000520   0.000002
    20  H    0.001773   0.468184  -0.017343  -0.020545   0.000037   0.000000
    21  H    0.000259  -0.017343   0.462386  -0.018105  -0.000052   0.000000
    22  H   -0.000671  -0.020545  -0.018105   0.468573   0.000115   0.000000
    23  H    0.000520   0.000037  -0.000052   0.000115   0.317565  -0.000082
    24  H    0.000002   0.000000   0.000000   0.000000  -0.000082   0.469806
    25  H    0.000028   0.000123   0.000009   0.000005   0.000048  -0.013297
    26  H    0.000001  -0.000000  -0.000000  -0.000000   0.000067   0.000110
    27  H   -0.000006  -0.000000   0.000000  -0.000003   0.003766  -0.000208
    28  H    0.000371  -0.000000  -0.000000  -0.000002   0.003248   0.000106
    29  H   -0.001271   0.000001   0.000002  -0.000004  -0.000278   0.000396
    30  H   -0.000000   0.000000  -0.000000   0.000000  -0.000004  -0.000018
    31  H    0.000001  -0.000000   0.000000   0.000000  -0.000000   0.000143
    32  H   -0.000001  -0.000000  -0.000000  -0.000000  -0.000000   0.000043
    33  H   -0.000000   0.000000   0.000000   0.000000  -0.000000   0.000001
    34  H   -0.000000  -0.000000   0.000000  -0.000000   0.000000  -0.000001
    35  H   -0.000000   0.000000  -0.000000   0.000000  -0.000000   0.000018
    36  H   -0.000000  -0.000000  -0.000000  -0.000000  -0.000000  -0.000034
              25         26         27         28         29         30
     1  C   -0.000559   0.000001  -0.000003   0.000017   0.000081  -0.000000
     2  S    0.002534   0.000025   0.000047   0.000051   0.011221   0.000017
     3  N   -0.005300   0.003488  -0.005130  -0.002092  -0.006316   0.000052
     4  C   -0.019663  -0.027060  -0.021148  -0.037915  -0.032821  -0.007999
     5  C    0.340607   0.004368   0.008709   0.005365  -0.005146   0.000012
     6  S   -0.009953  -0.004671  -0.009732  -0.000094  -0.000252  -0.000689
     7  C    0.008460   0.333181   0.344629  -0.006471   0.005029   0.001707
     8  O   -0.000256   0.001128  -0.000211   0.000001   0.000001   0.000001
     9  O    0.000604   0.001015   0.000664   0.000002   0.000001  -0.000057
    10  C    0.000843  -0.006137   0.000749   0.363694   0.365082  -0.037827
    11  C    0.000054   0.001658   0.000102  -0.025942  -0.036339   0.363707
    12  C    0.000022   0.000087   0.000003   0.004018  -0.007397  -0.037184
    13  C    0.000015   0.000001   0.000000   0.000163   0.004207   0.004842
    14  C   -0.000010  -0.000000  -0.000000   0.000001  -0.000094  -0.000155
    15  C   -0.000004   0.000000   0.000000   0.000000  -0.000001  -0.000006
    16  C    0.000003   0.000001  -0.000000   0.000002   0.000003   0.000268
    17  C    0.000057   0.000033  -0.000000  -0.000108   0.000179  -0.004514
    18  O    0.010251   0.000001   0.000004   0.000093   0.006170  -0.000001
    19  O    0.000028   0.000001  -0.000006   0.000371  -0.001271  -0.000000
    20  H    0.000123  -0.000000  -0.000000  -0.000000   0.000001   0.000000
    21  H    0.000009  -0.000000   0.000000  -0.000000   0.000002  -0.000000
    22  H    0.000005  -0.000000  -0.000003  -0.000002  -0.000004   0.000000
    23  H    0.000048   0.000067   0.003766   0.003248  -0.000278  -0.000004
    24  H   -0.013297   0.000110  -0.000208   0.000106   0.000396  -0.000018
    25  H    0.443603  -0.000218  -0.000281  -0.000078   0.000254  -0.000004
    26  H   -0.000218   0.467367  -0.014602   0.000452   0.000184   0.007683
    27  H   -0.000281  -0.014602   0.456723   0.000369  -0.000067  -0.000004
    28  H   -0.000078   0.000452   0.000369   0.564564  -0.031713  -0.001241
    29  H    0.000254   0.000184  -0.000067  -0.031713   0.537020   0.004512
    30  H   -0.000004   0.007683  -0.000004  -0.001241   0.004512   0.567048
    31  H    0.000001  -0.000163  -0.000003  -0.006051  -0.001274  -0.031111
    32  H   -0.000002  -0.000000  -0.000000  -0.000143   0.004301   0.000029
    33  H   -0.000000   0.000000   0.000000  -0.000000   0.000007   0.000003
    34  H   -0.000000  -0.000000  -0.000000   0.000000  -0.000000  -0.000000
    35  H   -0.000000  -0.000000  -0.000000  -0.000000   0.000000  -0.000009
    36  H    0.000001   0.000164   0.000002  -0.000009   0.000008   0.006825
              31         32         33         34         35         36
     1  C   -0.000000   0.000000  -0.000000   0.000000  -0.000000   0.000000
     2  S   -0.000004  -0.000010  -0.000000   0.000000  -0.000000   0.000000
     3  N   -0.000129   0.000003  -0.000000   0.000000   0.000000   0.000000
     4  C    0.004447   0.000161   0.000000  -0.000000   0.000000  -0.000006
     5  C   -0.000127  -0.000040  -0.000000   0.000000  -0.000005  -0.000159
     6  S    0.000026   0.000001   0.000000  -0.000000  -0.000001   0.000742
     7  C    0.000130   0.000001   0.000000   0.000000   0.000000  -0.000131
     8  O   -0.000000   0.000000  -0.000000   0.000000  -0.000000   0.000000
     9  O   -0.000000   0.000000  -0.000000   0.000000  -0.000001   0.000848
[...]
     1  C   -0.056205   0.007808   0.000494  -0.098502  -0.004061  -0.005965
     2  S   -0.401597   0.014911   0.003701   0.720615  -0.105002   0.079532
     3  N    0.401849   0.035242   0.050327   1.304199  -0.270104   0.160616
     4  C   -5.108567   0.106973  -0.160219  -4.870966   0.586398  -0.782259
     5  C   -0.032953   0.113787   0.180059   0.242757  -0.274652   0.350034
     6  S    0.707696  -0.425276  -0.341611   0.124329  -0.014097  -0.149342
     7  C   10.975440   0.040223   0.098320  -0.661337  -0.011147  -0.376612
     8  O    0.040223   9.319879   0.061137  -0.029346  -0.001184   0.007415
     9  O    0.098320   0.061137   9.276589  -0.028367  -0.004354   0.032473
    10  C   -0.661337  -0.029346  -0.028367  11.428641  -1.185795   0.766703
    11  C   -0.011147  -0.001184  -0.004354  -1.185795   8.941652  -0.705001
    12  C   -0.376612   0.007415   0.032473   0.766703  -0.705001  17.027695
    13  C   -0.235221  -0.004025  -0.013367  -1.184616  -0.479050  -8.728182
    14  C    0.075761   0.001085   0.002534  -0.249209   0.427737   3.320362
    15  C   -0.036740  -0.000508   0.001859  -0.097655  -0.030267  -4.233782
    16  C   -0.034734   0.002971   0.025714   0.186366  -0.309490   3.865765
    17  C   -0.204467  -0.001574  -0.038395  -0.259123  -1.284133  -6.736630
    18  O   -0.059548   0.001006  -0.000265   0.062314   0.021390   0.016137
    19  O    0.012442  -0.000293  -0.000047  -0.163266  -0.004546  -0.008213
    20  H   -0.001933  -0.002089  -0.000007   0.004895   0.005275  -0.000870
    21  H    0.006377   0.000708   0.000199   0.010062  -0.001926   0.001435
    22  H   -0.030606  -0.001166  -0.000522  -0.011628  -0.000733  -0.001524
    23  H   -0.126145   0.005636   0.004235  -0.044258   0.014342   0.015903
    24  H   -0.295968   0.011946   0.041254  -0.159584   0.145711  -0.018801
    25  H    0.263916   0.001872   0.002275   0.200974  -0.043485   0.099018
    26  H    0.186089   0.013514   0.058391  -0.050805   0.094554  -0.017379
    27  H    0.174262  -0.001220  -0.002597   0.038630  -0.004440   0.011805
    28  H   -0.060600   0.001137  -0.001287  -0.359026   0.154487  -0.024271
    29  H    0.322533  -0.005574  -0.002833  -0.151365   0.057282  -0.110982
    30  H   -0.018653   0.002245  -0.005670   0.017550  -0.418909   0.197349
    31  H   -0.020215  -0.000302   0.000716  -0.272207   0.374513  -0.228935
    32  H   -0.050784   0.000431   0.000275  -0.082072  -0.069655   0.766086
    33  H    0.003615   0.000079   0.000058   0.022078   0.012962  -0.070417
    34  H   -0.002423  -0.000032   0.000159  -0.001917  -0.001770   0.064791
    35  H    0.002782  -0.000083  -0.000788  -0.001330   0.011889  -0.086369
    36  H    0.014341   0.000821   0.006935   0.051381   0.130964   0.641292
              13         14         15         16         17         18
     1  C    0.000736   0.001355  -0.000374  -0.000188  -0.000660  -0.069678
     2  S   -0.013505  -0.008790  -0.005734   0.004423  -0.009176  -0.115455
     3  N   -0.114820  -0.030727  -0.000331   0.010325  -0.016329   0.072420
     4  C    0.441920   0.261856  -0.017139  -0.052129   0.323923  -0.261029
     5  C   -0.170084  -0.051076   0.010943   0.110021  -0.091921   0.091424
     6  S    0.060590  -0.020643   0.009277  -0.029571   0.016839  -0.001606
     7  C   -0.235221   0.075761  -0.036740  -0.034734  -0.204467  -0.059548
     8  O   -0.004025   0.001085  -0.000508   0.002971  -0.001574   0.001006
     9  O   -0.013367   0.002534   0.001859   0.025714  -0.038395  -0.000265
    10  C   -1.184616  -0.249209  -0.097655   0.186366  -0.259123   0.062314
    11  C   -0.479050   0.427737  -0.030267  -0.309490  -1.284133   0.021390
    12  C   -8.728182   3.320362  -4.233782   3.865765  -6.736630   0.016137
    13  C   19.390609  -5.226410   4.046499  -4.388167   3.323440  -0.011546
    14  C   -5.226410  11.756189  -3.950974   4.255020  -4.601721   0.005042
    15  C    4.046499  -3.950974   9.865428  -4.033890   4.081408  -0.003263
    16  C   -4.388167   4.255020  -4.033890  11.621062  -5.280009   0.001707
    17  C    3.323440  -4.601721   4.081408  -5.280009  17.287399  -0.013930
    18  O   -0.011546   0.005042  -0.003263   0.001707  -0.013930   9.317798
    19  O   -0.007398   0.002336  -0.000330   0.000174  -0.000679   0.040437
    20  H    0.000490   0.000319  -0.000088  -0.000066   0.001151   0.030886
    21  H   -0.000294  -0.000759  -0.000009  -0.000009   0.000274  -0.016001
    22  H    0.000499   0.000280  -0.000017  -0.000042  -0.000518   0.012679
    23  H    0.001462  -0.000142  -0.000102   0.000387   0.001518   0.012046
    24  H   -0.071377  -0.026758   0.051251  -0.088136  -0.029395   0.034367
    25  H   -0.075702   0.005486  -0.003805   0.001343  -0.068745   0.027263
    26  H   -0.038506  -0.003444   0.000521   0.010607  -0.004591   0.002717
    27  H   -0.003124   0.003606  -0.001634  -0.003331  -0.012179  -0.001735
    28  H    0.010868  -0.008023   0.004264   0.001126   0.021374   0.000354
    29  H   -0.187455   0.020924  -0.001265  -0.002982  -0.022605   0.038385
    30  H   -0.122727  -0.005871  -0.019897   0.105125  -0.000981  -0.000727
    31  H    0.074029   0.025180   0.012636  -0.045043   0.049193   0.001600
    32  H   -1.402877   0.548272  -0.200620   0.153467  -0.211772   0.006880
    33  H    0.591624  -0.866263   0.351950  -0.260865   0.129502  -0.000778
    34  H   -0.091596   0.382005  -0.715573   0.389696  -0.076977  -0.000029
    35  H    0.098800  -0.217370   0.334010  -0.724901   0.510891  -0.000087
    36  H   -0.091975   0.122976  -0.190794   0.424673  -1.468601  -0.000325
              19         20         21         22         23         24
     1  C   -0.090457   0.324178   0.286363   0.354803   0.002229   0.006129
     2  S   -0.122598  -0.058684   0.125466  -0.036733  -0.159719   0.048464
     3  N   -0.067679  -0.028873   0.058633  -0.135812   0.367268   0.142563
     4  C    0.291923   0.034188  -0.069604   0.147115   0.147894  -0.482940
     5  C   -0.023201  -0.027422   0.015305  -0.023548  -0.004927   0.396327
     6  S    0.002962   0.003834  -0.005504   0.008723  -0.018626  -0.212693
     7  C    0.012442  -0.001933   0.006377  -0.030606  -0.126145  -0.295968
     8  O   -0.000293  -0.002089   0.000708  -0.001166   0.005636   0.011946
     9  O   -0.000047  -0.000007   0.000199  -0.000522   0.004235   0.041254
    10  C   -0.163266   0.004895   0.010062  -0.011628  -0.044258  -0.159584
    11  C   -0.004546   0.005275  -0.001926  -0.000733   0.014342   0.145711
    12  C   -0.008213  -0.000870   0.001435  -0.001524   0.015903  -0.018801
    13  C   -0.007398   0.000490  -0.000294   0.000499   0.001462  -0.071377
    14  C    0.002336   0.000319  -0.000759   0.000280  -0.000142  -0.026758
    15  C   -0.000330  -0.000088  -0.000009  -0.000017  -0.000102   0.051251
    16  C    0.000174  -0.000066  -0.000009  -0.000042   0.000387  -0.088136
    17  C   -0.000679   0.001151   0.000274  -0.000518   0.001518  -0.029395
    18  O    0.040437   0.030886  -0.016001   0.012679   0.012046   0.034367
    19  O    9.210452   0.013041  -0.024627   0.021684   0.046289  -0.003839
    20  H    0.013041   0.865951  -0.111409  -0.075145   0.007383   0.005611
    21  H   -0.024627  -0.111409   0.823279  -0.130872  -0.005002   0.000757
    22  H    0.021684  -0.075145  -0.130872   0.887984   0.010890  -0.002466
    23  H    0.046289   0.007383  -0.005002   0.010890   0.790058   0.004759
    24  H   -0.003839   0.005611   0.000757  -0.002466   0.004759   1.960690
    25  H   -0.001221  -0.014600   0.000325   0.002427  -0.001968  -0.333310
    26  H   -0.002033   0.000884   0.001332  -0.003336   0.011352   0.040221
    27  H    0.001323  -0.002797  -0.001463   0.003228  -0.006283   0.000203
    28  H    0.012759   0.000093  -0.000735   0.002135  -0.009590   0.042284
    29  H    0.041668   0.003560  -0.001268  -0.000359  -0.024607   0.006161
    30  H   -0.000111   0.000223  -0.000163   0.000155   0.000545  -0.007235
    31  H    0.001209   0.000149  -0.000069  -0.000192   0.002994   0.003101
    32  H   -0.006796  -0.000118   0.000429   0.000233   0.001418   0.050874
    33  H    0.000430   0.000066  -0.000049  -0.000022  -0.000109   0.007487
    34  H   -0.000032  -0.000003   0.000004  -0.000001   0.000026  -0.008028
    35  H    0.000017   0.000010  -0.000001  -0.000001   0.000007   0.011785
    36  H   -0.000050   0.000063  -0.000031   0.000015  -0.000278   0.015295
              25         26         27         28         29         30
     1  C   -0.013073   0.001768  -0.005744   0.004588  -0.034568  -0.000381
     2  S    0.036875   0.017593  -0.036961  -0.055142  -0.027926   0.008028
     3  N    0.195150   0.304958  -0.122007  -0.120119   0.001286  -0.021431
     4  C   -0.708852  -0.390987   0.005542  -0.060188  -0.341625   0.006231
     5  C    0.259334   0.002833   0.202177   0.215160  -0.105099  -0.031372
     6  S   -0.028840  -0.168469   0.003816   0.005993   0.064409   0.020136
     7  C    0.263916   0.186089   0.174262  -0.060600   0.322533  -0.018653
     8  O    0.001872   0.013514  -0.001220   0.001137  -0.005574   0.002245
     9  O    0.002275   0.058391  -0.002597  -0.001287  -0.002833  -0.005670
    10  C    0.200974  -0.050805   0.038630  -0.359026  -0.151365   0.017550
    11  C   -0.043485   0.094554  -0.004440   0.154487   0.057282  -0.418909
    12  C    0.099018  -0.017379   0.011805  -0.024271  -0.110982   0.197349
    13  C   -0.075702  -0.038506  -0.003124   0.010868  -0.187455  -0.122727
    14  C    0.005486  -0.003444   0.003606  -0.008023   0.020924  -0.005871
    15  C   -0.003805   0.000521  -0.001634   0.004264  -0.001265  -0.019897
    16  C    0.001343   0.010607  -0.003331   0.001126  -0.002982   0.105125
    17  C   -0.068745  -0.004591  -0.012179   0.021374  -0.022605  -0.000981
    18  O    0.027263   0.002717  -0.001735   0.000354   0.038385  -0.000727
    19  O   -0.001221  -0.002033   0.001323   0.012759   0.041668  -0.000111
    20  H   -0.014600   0.000884  -0.002797   0.000093   0.003560   0.000223
    21  H    0.000325   0.001332  -0.001463  -0.000735  -0.001268  -0.000163
    22  H    0.002427  -0.003336   0.003228   0.002135  -0.000359   0.000155
    23  H   -0.001968   0.011352  -0.006283  -0.009590  -0.024607   0.000545
    24  H   -0.333310   0.040221   0.000203   0.042284   0.006161  -0.007235
    25  H    1.473090   0.020853   0.013727   0.003232   0.029770  -0.008683
    26  H    0.020853   1.521247  -0.272445  -0.009669   0.000688  -0.096666
    27  H    0.013727  -0.272445   1.283208   0.014853   0.014855   0.009714
    28  H    0.003232  -0.009669   0.014853   1.605067  -0.242969  -0.019729
    29  H    0.029770   0.000688   0.014855  -0.242969   1.730109   0.066878
    30  H   -0.008683  -0.096666   0.009714  -0.019729   0.066878   1.998839
    31  H    0.001360   0.011236  -0.000640  -0.114728  -0.008209  -0.330843
    32  H   -0.014607  -0.000716  -0.001259   0.014768  -0.043522   0.012633
    33  H    0.000200  -0.000362   0.000164   0.000773   0.012144  -0.000655
    34  H   -0.000658  -0.000221  -0.000086   0.000254  -0.002536   0.000330
    35  H   -0.000246   0.001694  -0.000050  -0.000575  -0.000150   0.003511
    36  H   -0.002342  -0.003802   0.003459   0.002708  -0.004436  -0.089180
              31         32         33         34         35         36
     1  C    0.000612   0.002601  -0.000084  -0.000017   0.000005  -0.000107
     2  S   -0.004341   0.021227  -0.001949   0.000145   0.000133  -0.003102
     3  N   -0.011373  -0.009248  -0.000656  -0.000045   0.000089  -0.006910
     4  C    0.294063   0.081015   0.003423   0.001194  -0.000056  -0.048616
     5  C   -0.016547   0.035943  -0.003499   0.001135  -0.000901   0.029474
     6  S    0.001840  -0.005680  -0.000528   0.000116   0.000792  -0.004178
     7  C   -0.020215  -0.050784   0.003615  -0.002423   0.002782   0.014341
     8  O   -0.000302   0.000431   0.000079  -0.000032  -0.000083   0.000821
     9  O    0.000716   0.000275   0.000058   0.000159  -0.000788   0.006935
    10  C   -0.272207  -0.082072   0.022078  -0.001917  -0.001330   0.051381
    11  C    0.374513  -0.069655   0.012962  -0.001770   0.011889   0.130964
    12  C   -0.228935   0.766086  -0.070417   0.064791  -0.086369   0.641292
    13  C    0.074029  -1.402877   0.591624  -0.091596   0.098800  -0.091975
    14  C    0.025180   0.548272  -0.866263   0.382005  -0.217370   0.122976
    15  C    0.012636  -0.200620   0.351950  -0.715573   0.334010  -0.190794
    16  C   -0.045043   0.153467  -0.260865   0.389696  -0.724901   0.424673
    17  C    0.049193  -0.211772   0.129502  -0.076977   0.510891  -1.468601
    18  O    0.001600   0.006880  -0.000778  -0.000029  -0.000087  -0.000325
    19  O    0.001209  -0.006796   0.000430  -0.000032   0.000017  -0.000050
    20  H    0.000149  -0.000118   0.000066  -0.000003   0.000010   0.000063
    21  H   -0.000069   0.000429  -0.000049   0.000004  -0.000001  -0.000031
    22  H   -0.000192   0.000233  -0.000022  -0.000001  -0.000001   0.000015
    23  H    0.002994   0.001418  -0.000109   0.000026   0.000007  -0.000278
    24  H    0.003101   0.050874   0.007487  -0.008028   0.011785   0.015295
    25  H    0.001360  -0.014607   0.000200  -0.000658  -0.000246  -0.002342
    26  H    0.011236  -0.000716  -0.000362  -0.000221   0.001694  -0.003802
    27  H   -0.000640  -0.001259   0.000164  -0.000086  -0.000050   0.003459
    28  H   -0.114728   0.014768   0.000773   0.000254  -0.000575   0.002708
    29  H   -0.008209  -0.043522   0.012144  -0.002536  -0.000150  -0.004436
    30  H   -0.330843   0.012633  -0.000655   0.000330   0.003511  -0.089180
    31  H    1.306469  -0.012108  -0.002530   0.000472  -0.000154   0.016227
    32  H   -0.012108   2.272161  -0.102791  -0.012944   0.009533  -0.025635
    33  H   -0.002530  -0.102791   1.741472  -0.060076  -0.019434   0.010744
    34  H    0.000472  -0.012944  -0.060076   1.653271  -0.053195  -0.016758
    35  H   -0.000154   0.009533  -0.019434  -0.053195   1.682381  -0.094086
    36  H    0.016227  -0.025635   0.010744  -0.016758  -0.094086   2.316933
 Mulliken charges:
               1
     1  C    0.254377
     2  S    2.564809
     3  N   -1.266012
     4  C    0.154416
     5  C    0.164794
     6  S    2.910278
     7  C    0.540808
     8  O   -1.278156
     9  O   -1.247377
    10  C    0.780878
    11  C    0.244644
    12  C    0.861123
    13  C    0.620459
    14  C    0.049858
    15  C    0.774743
    16  C    0.083579
    17  C    0.688198
    18  O   -1.240849
    19  O   -1.171727
    20  H    0.021853
    21  H    0.038847
    22  H    0.002393
    23  H   -0.046883
    24  H   -0.286711
    25  H   -0.318351
    26  H   -0.239621
    27  H   -0.304576
    28  H   -0.031627
    29  H   -0.088317
    30  H   -0.249610
    31  H   -0.109166
    32  H   -0.725042
    33  H   -0.497706
    34  H   -0.448682
    35  H   -0.468552
    36  H   -0.737093
 Sum of Mulliken charges =  -0.00000
 Mulliken charges with hydrogens summed into heavy atoms:
               1
     1  C    0.317471
     2  S    2.564809
     3  N   -1.312895
     4  C    0.154416
     5  C   -0.440267
     6  S    2.910278
     7  C   -0.003389
     8  O   -1.278156
     9  O   -1.247377
    10  C    0.660933
    11  C   -0.114132
    12  C    0.861123
    13  C   -0.104583
    14  C   -0.447849
    15  C    0.326061
    16  C   -0.384972
    17  C   -0.048896
    18  O   -1.240849
    19  O   -1.171727
 Electronic spatial extent (au):  <R**2>=           6186.6375
 Charge=              0.0000 electrons
 Dipole moment (field-independent basis, Debye):
    X=              1.4829    Y=             -2.0163    Z=              3.0964  Tot=              3.9815
 Quadrupole moment (field-independent basis, Debye-Ang):
   XX=           -113.0051   YY=           -159.4864   ZZ=           -122.4213
   XY=              4.9354   XZ=              2.1380   YZ=             12.1296
 Traceless Quadrupole moment (field-independent basis, Debye-Ang):
   XX=             18.6325   YY=            -27.8488   ZZ=              9.2163
   XY=              4.9354   XZ=              2.1380   YZ=             12.1296
 Octapole moment (field-independent basis, Debye-Ang**2):
  XXX=            114.4665  YYY=            -59.3928  ZZZ=              6.2868  XYY=            -24.4627
  XXY=              7.5497  XXZ=            -49.8323  XZZ=             16.4791  YZZ=             10.9870
  YYZ=             15.4626  XYZ=             13.2999
 Hexadecapole moment (field-independent basis, Debye-Ang**3):
 XXXX=          -4560.2735 YYYY=          -2734.6042 ZZZZ=           -834.5070 XXXY=           -148.3472
 XXXZ=             42.1593 YYYX=             44.9965 YYYZ=            113.8313 ZZZX=              2.4184
 ZZZY=              0.2714 XXYY=          -1351.7147 XXZZ=           -914.3671 YYZZ=           -540.1398
 XXYZ=            130.2786 YYXZ=             11.0509 ZZXY=              6.8158
 N-N= 1.880617855176D+03 E-N=-7.566527764131D+03  KE= 1.611528526797D+03
 Leave Link  601 at Tue Sep 22 03:04:14 2020, MaxMem=   262144000 cpu:               0.6 elap:               0.2
 (Enter /prod/apps/gaussian/g16b1/l9999.exe)
 1\1\GINC-PIRINEUS18\SP\RMP2-FC\Aug-CC-pVDZ\C12H17N1O4S2\UBAFAR01\22-Se
 p-2020\0\\#p mp2/aug-cc-pVDZ scf=(MaxCycle=2000,NoVarAcc,NoIncFock) ma
 xdisk=120GB geom=allcheck\\SM38_m0.n.1.pdb.xyz\\0,1\C,0,4.1656026113,-
 0.9998844438,-0.965029511\S,0,2.6228416378,-1.4753262589,-0.190897305\
 N,0,2.156940601,-0.0108378091,0.5146208832\C,0,0.7213224032,0.32014516
 1,0.6787280678\C,0,0.1029176699,0.6847615942,-0.7097636746\S,0,0.41520
 19306,2.4521962989,-0.3880902253\C,0,0.6974843019,1.7617524892,1.27682
 39085\O,0,1.6624835537,2.9353865641,-1.0153188111\O,0,-0.7849924227,3.
 3074576752,-0.4847631545\C,0,-0.0261017168,-0.7331997082,1.5170795509\
 C,0,-1.4973115071,-0.4625336778,1.8894323139\C,0,-2.5214261457,-0.6602
 354402,0.7904052666\C,0,-2.6393022722,-1.88896138,0.1238376083\C,0,-3.
 6054200678,-2.0763734605,-0.864505147\C,0,-4.4758605283,-1.036863264,-
 1.2036191269\C,0,-4.3711698511,0.1894043514,-0.5459708747\C,0,-3.40144
 06522,0.3722913738,0.4426352674\O,0,1.6287623817,-1.7997522632,-1.2281
 925573\O,0,2.9184089828,-2.4928256743,0.8336306114\H,0,3.959731511,-0.
 2271355464,-1.7036182533\H,0,4.5753228432,-1.8940533247,-1.4364151071\
 H,0,4.8425103866,-0.6335601273,-0.1945179961\H,0,2.6685717613,0.097465
 9963,1.3934254014\H,0,-0.9725073632,0.5163879882,-0.7528905626\H,0,0.6
 028197732,0.2791619094,-1.5853666878\H,0,-0.1752906739,1.9524838391,1.
 8988170967\H,0,1.6064118737,2.1093667102,1.7651055924\H,0,0.543865423,
 -0.8507540807,2.4444628719\H,0,0.0401564281,-1.6881449888,0.987104138\
 H,0,-1.6067248134,0.544669216,2.3036220633\H,0,-1.7338445628,-1.147064
 7556,2.7123656194\H,0,-1.9702511827,-2.7047325966,0.3820751863\H,0,-3.
 6812062725,-3.0346428383,-1.3684314299\H,0,-5.228142074,-1.1831427596,
 -1.9727421826\H,0,-5.042058891,1.0043323369,-0.7999309029\H,0,-3.32030
 50767,1.3277608945,0.9518920621\\Version=ES64L-G16RevB.01\State=1-A\HF
 =-1613.1887304\MP2=-1616.1791889\RMSD=6.280e-09\PG=C01 [X(C12H17N1O4S2
 )]\\@


 THESE ARE THE TIMES THAT TRY MENS SOULS.
 THE SUMMER SOLDIER AND THE SUNSHINE PATRIOT WILL IN THIS CRISIS,
 SHRINK FROM THE SERVICE OF HIS COUNTRY.  BUT HE THAT STANDS NOW,
 DESERVES THE LOVE AND THANKS OF MAN AND WOMAN.
 TYRANNY, LIKE HELL, IS NOT EASILY CONQUERED,
 YET WE HAVE THIS CONSOLATION WITH US,
 THAT THE HARDER THE CONFLICT, THE MORE GLORIOUS THE TRIUMPH.
 WHAT WE OBTAIN TOO CHEAP, WE ESTEEM TOO LIGHTLY, 
 'TIS DEARNESS ONLY THAT GIVES EVERYTHING ITS VALUE.

                                              -- TOM PAINE
 Job cpu time:       0 days  3 hours  2 minutes 14.9 seconds.
 Elapsed time:       0 days  0 hours 49 minutes 50.6 seconds.
 File lengths (MBytes):  RWF= 118119 Int=      0 D2E=      0 Chk=     29 Scr=      1
 Normal termination of Gaussian 16 at Tue Sep 22 03:04:16 2020.
