 Entering Gaussian System, Link 0=g16
 Initial command:
 /prod/apps/gaussian/g16b1/l1.exe "/tmp/ubafar01/1460347/Gau-96803.inp" -scrdir="/tmp/ubafar01/1460347/"
 Entering Link 1 = /prod/apps/gaussian/g16b1/l1.exe PID=     96805.
  
 Copyright (c) 1988-2017, Gaussian, Inc.  All Rights Reserved.
  
 This is part of the Gaussian(R) 16 program.  It is based on
 the Gaussian(R) 09 system (copyright 2009, Gaussian, Inc.),
 the Gaussian(R) 03 system (copyright 2003, Gaussian, Inc.),
 the Gaussian(R) 98 system (copyright 1998, Gaussian, Inc.),
 the Gaussian(R) 94 system (copyright 1995, Gaussian, Inc.),
 the Gaussian 92(TM) system (copyright 1992, Gaussian, Inc.),
 the Gaussian 90(TM) system (copyright 1990, Gaussian, Inc.),
 the Gaussian 88(TM) system (copyright 1988, Gaussian, Inc.),
 the Gaussian 86(TM) system (copyright 1986, Carnegie Mellon
 University), and the Gaussian 82(TM) system (copyright 1983,
 Carnegie Mellon University). Gaussian is a federally registered
 trademark of Gaussian, Inc.
  
 This software contains proprietary and confidential information,
 including trade secrets, belonging to Gaussian, Inc.
  
 This software is provided under written license and may be
 used, copied, transmitted, or stored only in accord with that
 written license.
  
 The following legend is applicable only to US Government
 contracts under FAR:
  
                    RESTRICTED RIGHTS LEGEND
  
 Use, reproduction and disclosure by the US Government is
 subject to restrictions as set forth in subparagraphs (a)
 and (c) of the Commercial Computer Software - Restricted
 Rights clause in FAR 52.227-19.
  
 Gaussian, Inc.
 340 Quinnipiac St., Bldg. 40, Wallingford CT 06492
  
  
 ---------------------------------------------------------------
 Warning -- This program may not be used in any manner that
 competes with the business of Gaussian, Inc. or will provide
 assistance to any competitor of Gaussian, Inc.  The licensee
 of this program is prohibited from giving any competitor of
 Gaussian, Inc. access to this program.  By using this program,
 the user acknowledges that Gaussian, Inc. is engaged in the
 business of creating and licensing software in the field of
 computational chemistry and represents and warrants to the
 licensee that it is not a competitor of Gaussian, Inc. and that
 it will not use this program in any manner prohibited above.
 ---------------------------------------------------------------
  

 Cite this work as:
 Gaussian 16, Revision B.01,
 M. J. Frisch, G. W. Trucks, H. B. Schlegel, G. E. Scuseria, 
 M. A. Robb, J. R. Cheeseman, G. Scalmani, V. Barone, 
 G. A. Petersson, H. Nakatsuji, X. Li, M. Caricato, A. V. Marenich, 
 J. Bloino, B. G. Janesko, R. Gomperts, B. Mennucci, H. P. Hratchian, 
 J. V. Ortiz, A. F. Izmaylov, J. L. Sonnenberg, D. Williams-Young, 
 F. Ding, F. Lipparini, F. Egidi, J. Goings, B. Peng, A. Petrone, 
 T. Henderson, D. Ranasinghe, V. G. Zakrzewski, J. Gao, N. Rega, 
 G. Zheng, W. Liang, M. Hada, M. Ehara, K. Toyota, R. Fukuda, 
 J. Hasegawa, M. Ishida, T. Nakajima, Y. Honda, O. Kitao, H. Nakai, 
 T. Vreven, K. Throssell, J. A. Montgomery, Jr., J. E. Peralta, 
 F. Ogliaro, M. J. Bearpark, J. J. Heyd, E. N. Brothers, K. N. Kudin, 
 V. N. Staroverov, T. A. Keith, R. Kobayashi, J. Normand, 
 K. Raghavachari, A. P. Rendell, J. C. Burant, S. S. Iyengar, 
 J. Tomasi, M. Cossi, J. M. Millam, M. Klene, C. Adamo, R. Cammi, 
 J. W. Ochterski, R. L. Martin, K. Morokuma, O. Farkas, 
 J. B. Foresman, and D. J. Fox, Gaussian, Inc., Wallingford CT, 2016.
 
 ******************************************
 Gaussian 16:  ES64L-G16RevB.01 20-Dec-2017
                22-Sep-2020 
 ******************************************
 %nproc=4
 Will use up to    4 processors via shared memory.
 %Chk=SM38_m1.a.10.pdb.xyz.mst.a.w.chk
 %mem=16GB
 ----------------------------------------------------------------------
 #p b3lyp/6-31G(d) opt freq NoSymm scf=(MaxCycle=2000,NoVarAcc,NoIncFoc
 k) scrf=(iefpcm,read,solvent=water)
 ----------------------------------------------------------------------
 1/18=20,19=15,26=3,38=1,40=2/1,3;
 2/9=110,12=2,15=1,17=6,18=5,40=1/2;
 3/5=1,6=6,7=1,11=2,25=1,30=1,70=2203,71=1,72=1,74=-5/1,2,3;
 4//1;
 5/5=100002,7=2000,38=1,53=1/2;
 6/7=2,8=2,9=2,10=2,28=1/1;
 7/30=1/1,2,3,16;
 1/18=20,19=15,26=3/3(2);
 2/9=110,15=1/2;
 99//99;
 2/9=110,15=1/2;
 3/5=1,6=6,7=1,11=2,25=1,30=1,70=2205,71=1,72=1,74=-5/1,2,3;
 4/5=5,16=3,69=1/1;
 5/5=100002,7=2000,38=1,53=1/2;
 7/30=1/1,2,3,16;
 1/18=20,19=15,26=3/3(-5);
 2/9=110,15=1/2;
 6/7=2,8=2,9=2,10=2,19=2,28=1/1;
 99/9=1/99;
 Leave Link    1 at Tue Sep 22 01:46:05 2020, MaxMem=  2147483648 cpu:               0.1 elap:               0.0
 (Enter /prod/apps/gaussian/g16b1/l101.exe)
 --------------------
 SM38_m1.a.10.pdb.xyz
 --------------------
 Symbolic Z-matrix:
 Charge = -1 Multiplicity = 1
 C                     2.863    -2.842     0.447 
 S                     2.533    -1.156    -0.093 
 N                     1.312    -0.782     0.854 
 C                     0.655     0.504     0.754 
 C                     0.035     0.885    -0.663 
 S                     0.743     2.552    -0.543 
 C                     1.589     1.788     0.868 
 O                     1.637     2.927    -1.665 
 O                    -0.265     3.553    -0.109 
 C                    -0.405     0.581     1.879 
 C                    -1.386    -0.604     1.999 
 C                    -2.377    -0.772     0.863 
 C                    -2.222    -1.789    -0.091 
 C                    -3.137    -1.941    -1.137 
 C                    -4.226    -1.074    -1.248 
 C                    -4.396    -0.058    -0.302 
 C                    -3.481     0.087     0.743 
 O                     3.802    -0.384     0.153 
 O                     2.217    -1.236    -1.562 
 H                     3.111    -2.84      1.51 
 H                     3.711    -3.208    -0.136 
 H                     1.984    -3.461     0.263 
 H                    -1.051     0.891    -0.75 
 H                     0.499     0.338    -1.484 
 H                     1.512     2.373     1.787 
 H                     2.63      1.579     0.619 
 H                    -0.964     1.52      1.775 
 H                     0.143     0.647     2.828 
 H                    -1.944    -0.46      2.933 
 H                    -0.806    -1.524     2.117 
 H                    -1.374    -2.464    -0.014 
 H                    -2.997    -2.737    -1.864 
 H                    -4.939    -1.19     -2.06 
 H                    -5.245     0.617    -0.374 
 H                    -3.627     0.875     1.479 
 
 ITRead=  0  0  0  0  0  0  0  0  0  0  0  0  0  0  0  0  0  0  0  0
 ITRead=  0  0  0  0  0  0  0  0  0  0  0  0  0  0  0
 MicOpt= -1 -1 -1 -1 -1 -1 -1 -1 -1 -1 -1 -1 -1 -1 -1 -1 -1 -1 -1 -1
 MicOpt= -1 -1 -1 -1 -1 -1 -1 -1 -1 -1 -1 -1 -1 -1 -1
 NAtoms=     35 NQM=       35 NQMF=       0 NMMI=      0 NMMIF=      0
                NMic=       0 NMicF=      0.
                    Isotopes and Nuclear Properties:
 (Nuclear quadrupole moments (NQMom) in fm**2, nuclear magnetic moments (NMagM)
  in nuclear magnetons)

  Atom         1           2           3           4           5           6           7           8           9          10
 IAtWgt=          12          32          14          12          12          32          12          16          16          12
 AtmWgt=  12.0000000  31.9720718  14.0030740  12.0000000  12.0000000  31.9720718  12.0000000  15.9949146  15.9949146  12.0000000
 NucSpn=           0           0           2           0           0           0           0           0           0           0
 AtZEff=  -0.0000000  -0.0000000  -0.0000000  -0.0000000  -0.0000000  -0.0000000  -0.0000000  -0.0000000  -0.0000000  -0.0000000
 NQMom=    0.0000000   0.0000000   2.0440000   0.0000000   0.0000000   0.0000000   0.0000000   0.0000000   0.0000000   0.0000000
 NMagM=    0.0000000   0.0000000   0.4037610   0.0000000   0.0000000   0.0000000   0.0000000   0.0000000   0.0000000   0.0000000
 AtZNuc=   6.0000000  16.0000000   7.0000000   6.0000000   6.0000000  16.0000000   6.0000000   8.0000000   8.0000000   6.0000000

  Atom        11          12          13          14          15          16          17          18          19          20
 IAtWgt=          12          12          12          12          12          12          12          16          16           1
 AtmWgt=  12.0000000  12.0000000  12.0000000  12.0000000  12.0000000  12.0000000  12.0000000  15.9949146  15.9949146   1.0078250
 NucSpn=           0           0           0           0           0           0           0           0           0           1
 AtZEff=  -0.0000000  -0.0000000  -0.0000000  -0.0000000  -0.0000000  -0.0000000  -0.0000000  -0.0000000  -0.0000000  -0.0000000
 NQMom=    0.0000000   0.0000000   0.0000000   0.0000000   0.0000000   0.0000000   0.0000000   0.0000000   0.0000000   0.0000000
 NMagM=    0.0000000   0.0000000   0.0000000   0.0000000   0.0000000   0.0000000   0.0000000   0.0000000   0.0000000   2.7928460
 AtZNuc=   6.0000000   6.0000000   6.0000000   6.0000000   6.0000000   6.0000000   6.0000000   8.0000000   8.0000000   1.0000000

  Atom        21          22          23          24          25          26          27          28          29          30
 IAtWgt=           1           1           1           1           1           1           1           1           1           1
 AtmWgt=   1.0078250   1.0078250   1.0078250   1.0078250   1.0078250   1.0078250   1.0078250   1.0078250   1.0078250   1.0078250
 NucSpn=           1           1           1           1           1           1           1           1           1           1
 AtZEff=  -0.0000000  -0.0000000  -0.0000000  -0.0000000  -0.0000000  -0.0000000  -0.0000000  -0.0000000  -0.0000000  -0.0000000
 NQMom=    0.0000000   0.0000000   0.0000000   0.0000000   0.0000000   0.0000000   0.0000000   0.0000000   0.0000000   0.0000000
 NMagM=    2.7928460   2.7928460   2.7928460   2.7928460   2.7928460   2.7928460   2.7928460   2.7928460   2.7928460   2.7928460
 AtZNuc=   1.0000000   1.0000000   1.0000000   1.0000000   1.0000000   1.0000000   1.0000000   1.0000000   1.0000000   1.0000000

  Atom        31          32          33          34          35
 IAtWgt=           1           1           1           1           1
 AtmWgt=   1.0078250   1.0078250   1.0078250   1.0078250   1.0078250
 NucSpn=           1           1           1           1           1
 AtZEff=  -0.0000000  -0.0000000  -0.0000000  -0.0000000  -0.0000000
 NQMom=    0.0000000   0.0000000   0.0000000   0.0000000   0.0000000
 NMagM=    2.7928460   2.7928460   2.7928460   2.7928460   2.7928460
 AtZNuc=   1.0000000   1.0000000   1.0000000   1.0000000   1.0000000
 Leave Link  101 at Tue Sep 22 01:46:05 2020, MaxMem=  2147483648 cpu:               1.3 elap:               0.3
 (Enter /prod/apps/gaussian/g16b1/l103.exe)

 GradGradGradGradGradGradGradGradGradGradGradGradGradGradGradGradGradGrad
 Berny optimization.
 Initialization pass.
                           ----------------------------
                           !    Initial Parameters    !
                           ! (Angstroms and Degrees)  !
 --------------------------                            --------------------------
 ! Name  Definition              Value          Derivative Info.                !
 --------------------------------------------------------------------------------
 ! R1    R(1,2)                  1.8009         estimate D2E/DX2                !
 ! R2    R(1,20)                 1.0915         estimate D2E/DX2                !
 ! R3    R(1,21)                 1.0922         estimate D2E/DX2                !
 ! R4    R(1,22)                 1.0907         estimate D2E/DX2                !
 ! R5    R(2,3)                  1.5898         estimate D2E/DX2                !
 ! R6    R(2,18)                 1.5056         estimate D2E/DX2                !
 ! R7    R(2,19)                 1.5047         estimate D2E/DX2                !
 ! R8    R(3,4)                  1.4476         estimate D2E/DX2                !
 ! R9    R(4,5)                  1.5929         estimate D2E/DX2                !
 ! R10   R(4,7)                  1.5919         estimate D2E/DX2                !
 ! R11   R(4,10)                 1.5476         estimate D2E/DX2                !
 ! R12   R(5,6)                  1.8151         estimate D2E/DX2                !
 ! R13   R(5,23)                 1.0895         estimate D2E/DX2                !
 ! R14   R(5,24)                 1.0902         estimate D2E/DX2                !
 ! R15   R(6,7)                  1.8139         estimate D2E/DX2                !
 ! R16   R(6,8)                  1.4828         estimate D2E/DX2                !
 ! R17   R(6,9)                  1.4854         estimate D2E/DX2                !
 ! R18   R(7,25)                 1.0921         estimate D2E/DX2                !
 ! R19   R(7,26)                 1.0906         estimate D2E/DX2                !
 ! R20   R(10,11)                1.543          estimate D2E/DX2                !
 ! R21   R(10,27)                1.0977         estimate D2E/DX2                !
 ! R22   R(10,28)                1.0978         estimate D2E/DX2                !
 ! R23   R(11,12)                1.5168         estimate D2E/DX2                !
 ! R24   R(11,29)                1.0975         estimate D2E/DX2                !
 ! R25   R(11,30)                1.0939         estimate D2E/DX2                !
 ! R26   R(12,13)                1.403          estimate D2E/DX2                !
 ! R27   R(12,17)                1.404          estimate D2E/DX2                !
 ! R28   R(13,14)                1.398          estimate D2E/DX2                !
 ! R29   R(13,31)                1.0866         estimate D2E/DX2                !
 ! R30   R(14,15)                1.3964         estimate D2E/DX2                !
 ! R31   R(14,32)                1.0871         estimate D2E/DX2                !
 ! R32   R(15,16)                1.3986         estimate D2E/DX2                !
 ! R33   R(15,33)                1.0868         estimate D2E/DX2                !
 ! R34   R(16,17)                1.3965         estimate D2E/DX2                !
 ! R35   R(16,34)                1.087          estimate D2E/DX2                !
 ! R36   R(17,35)                1.0881         estimate D2E/DX2                !
 ! A1    A(2,1,20)             109.3861         estimate D2E/DX2                !
 ! A2    A(2,1,21)             107.2139         estimate D2E/DX2                !
 ! A3    A(2,1,22)             109.4546         estimate D2E/DX2                !
 ! A4    A(20,1,21)            110.1226         estimate D2E/DX2                !
 ! A5    A(20,1,22)            110.3909         estimate D2E/DX2                !
 ! A6    A(21,1,22)            110.2108         estimate D2E/DX2                !
 ! A7    A(1,2,3)              100.5075         estimate D2E/DX2                !
 ! A8    A(1,2,18)             106.0576         estimate D2E/DX2                !
 ! A9    A(1,2,19)             106.3464         estimate D2E/DX2                !
 ! A10   A(3,2,18)             115.4275         estimate D2E/DX2                !
 ! A11   A(3,2,19)             115.6417         estimate D2E/DX2                !
 ! A12   A(18,2,19)            111.332          estimate D2E/DX2                !
 ! A13   A(2,3,4)              121.0921         estimate D2E/DX2                !
 ! A14   A(3,4,5)              116.7815         estimate D2E/DX2                !
 ! A15   A(3,4,7)              116.4446         estimate D2E/DX2                !
 ! A16   A(3,4,10)             107.7488         estimate D2E/DX2                !
 ! A17   A(5,4,7)               95.6901         estimate D2E/DX2                !
 ! A18   A(5,4,10)             111.6015         estimate D2E/DX2                !
 ! A19   A(7,4,10)             108.0398         estimate D2E/DX2                !
 ! A20   A(4,5,6)               90.5178         estimate D2E/DX2                !
 ! A21   A(4,5,23)             117.4078         estimate D2E/DX2                !
 ! A22   A(4,5,24)             112.5961         estimate D2E/DX2                !
 ! A23   A(6,5,23)             112.8944         estimate D2E/DX2                !
 ! A24   A(6,5,24)             110.156          estimate D2E/DX2                !
 ! A25   A(23,5,24)            111.5227         estimate D2E/DX2                !
 ! A26   A(5,6,7)               81.1718         estimate D2E/DX2                !
 ! A27   A(5,6,8)              114.6712         estimate D2E/DX2                !
 ! A28   A(5,6,9)              111.9333         estimate D2E/DX2                !
 ! A29   A(7,6,8)              114.451          estimate D2E/DX2                !
 ! A30   A(7,6,9)              111.904          estimate D2E/DX2                !
 ! A31   A(8,6,9)              117.3736         estimate D2E/DX2                !
 ! A32   A(4,7,6)               90.5945         estimate D2E/DX2                !
 ! A33   A(4,7,25)             116.8052         estimate D2E/DX2                !
 ! A34   A(4,7,26)             112.9005         estimate D2E/DX2                !
 ! A35   A(6,7,25)             113.3329         estimate D2E/DX2                !
 ! A36   A(6,7,26)             110.3835         estimate D2E/DX2                !
 ! A37   A(25,7,26)            111.2281         estimate D2E/DX2                !
 ! A38   A(4,10,11)            116.9854         estimate D2E/DX2                !
 ! A39   A(4,10,27)            108.8125         estimate D2E/DX2                !
 ! A40   A(4,10,28)            106.8263         estimate D2E/DX2                !
 ! A41   A(11,10,27)           109.9095         estimate D2E/DX2                !
 ! A42   A(11,10,28)           107.2348         estimate D2E/DX2                !
 ! A43   A(27,10,28)           106.5385         estimate D2E/DX2                !
 ! A44   A(10,11,12)           116.2427         estimate D2E/DX2                !
 ! A45   A(10,11,29)           106.7779         estimate D2E/DX2                !
 ! A46   A(10,11,30)           108.4916         estimate D2E/DX2                !
 ! A47   A(12,11,29)           108.646          estimate D2E/DX2                !
 ! A48   A(12,11,30)           109.5135         estimate D2E/DX2                !
 ! A49   A(29,11,30)           106.7452         estimate D2E/DX2                !
 ! A50   A(11,12,13)           121.1548         estimate D2E/DX2                !
 ! A51   A(11,12,17)           120.6634         estimate D2E/DX2                !
 ! A52   A(13,12,17)           118.1812         estimate D2E/DX2                !
 ! A53   A(12,13,14)           121.0148         estimate D2E/DX2                !
 ! A54   A(12,13,31)           119.2312         estimate D2E/DX2                !
 ! A55   A(14,13,31)           119.7535         estimate D2E/DX2                !
 ! A56   A(13,14,15)           120.1582         estimate D2E/DX2                !
 ! A57   A(13,14,32)           119.7155         estimate D2E/DX2                !
 ! A58   A(15,14,32)           120.1263         estimate D2E/DX2                !
 ! A59   A(14,15,16)           119.4762         estimate D2E/DX2                !
 ! A60   A(14,15,33)           120.3145         estimate D2E/DX2                !
 ! A61   A(16,15,33)           120.2087         estimate D2E/DX2                !
 ! A62   A(15,16,17)           120.1273         estimate D2E/DX2                !
 ! A63   A(15,16,34)           120.0813         estimate D2E/DX2                !
 ! A64   A(17,16,34)           119.79           estimate D2E/DX2                !
 ! A65   A(12,17,16)           121.0406         estimate D2E/DX2                !
 ! A66   A(12,17,35)           119.3927         estimate D2E/DX2                !
 ! A67   A(16,17,35)           119.5662         estimate D2E/DX2                !
 ! D1    D(20,1,2,3)           -59.799          estimate D2E/DX2                !
 ! D2    D(20,1,2,18)           60.7189         estimate D2E/DX2                !
 ! D3    D(20,1,2,19)          179.333          estimate D2E/DX2                !
 ! D4    D(21,1,2,3)          -179.1942         estimate D2E/DX2                !
 ! D5    D(21,1,2,18)          -58.6763         estimate D2E/DX2                !
 ! D6    D(21,1,2,19)           59.9378         estimate D2E/DX2                !
 ! D7    D(22,1,2,3)            61.267          estimate D2E/DX2                !
 ! D8    D(22,1,2,18)         -178.2151         estimate D2E/DX2                !
 ! D9    D(22,1,2,19)          -59.6009         estimate D2E/DX2                !
 ! D10   D(1,2,3,4)           -177.9406         estimate D2E/DX2                !
 ! D11   D(18,2,3,4)            68.5016         estimate D2E/DX2                !
 ! D12   D(19,2,3,4)           -63.9527         estimate D2E/DX2                !
 ! D13   D(2,3,4,5)             57.7998         estimate D2E/DX2                !
 ! D14   D(2,3,4,7)            -54.2296         estimate D2E/DX2                !
 ! D15   D(2,3,4,10)          -175.7197         estimate D2E/DX2                !
 ! D16   D(3,4,5,6)           -134.9093         estimate D2E/DX2                !
 ! D17   D(3,4,5,23)           108.7999         estimate D2E/DX2                !
 ! D18   D(3,4,5,24)           -22.7611         estimate D2E/DX2                !
 ! D19   D(7,4,5,6)            -11.4322         estimate D2E/DX2                !
 ! D20   D(7,4,5,23)          -127.723          estimate D2E/DX2                !
 ! D21   D(7,4,5,24)           100.716          estimate D2E/DX2                !
 ! D22   D(10,4,5,6)           100.5409         estimate D2E/DX2                !
 ! D23   D(10,4,5,23)          -15.7498         estimate D2E/DX2                !
 ! D24   D(10,4,5,24)         -147.3108         estimate D2E/DX2                !
 ! D25   D(3,4,7,6)            135.171          estimate D2E/DX2                !
 ! D26   D(3,4,7,25)          -108.148          estimate D2E/DX2                !
 ! D27   D(3,4,7,26)            22.6819         estimate D2E/DX2                !
 ! D28   D(5,4,7,6)             11.4398         estimate D2E/DX2                !
 ! D29   D(5,4,7,25)           128.1208         estimate D2E/DX2                !
 ! D30   D(5,4,7,26)          -101.0492         estimate D2E/DX2                !
 ! D31   D(10,4,7,6)          -103.4927         estimate D2E/DX2                !
 ! D32   D(10,4,7,25)           13.1883         estimate D2E/DX2                !
 ! D33   D(10,4,7,26)          144.0182         estimate D2E/DX2                !
 ! D34   D(3,4,10,11)          -50.7134         estimate D2E/DX2                !
 ! D35   D(3,4,10,27)         -175.9659         estimate D2E/DX2                !
 ! D36   D(3,4,10,28)           69.3762         estimate D2E/DX2                !
 ! D37   D(5,4,10,11)           78.75           estimate D2E/DX2                !
 ! D38   D(5,4,10,27)          -46.5025         estimate D2E/DX2                !
 ! D39   D(5,4,10,28)         -161.1605         estimate D2E/DX2                !
 ! D40   D(7,4,10,11)         -177.298          estimate D2E/DX2                !
 ! D41   D(7,4,10,27)           57.4496         estimate D2E/DX2                !
 ! D42   D(7,4,10,28)          -57.2084         estimate D2E/DX2                !
 ! D43   D(4,5,6,7)             10.088          estimate D2E/DX2                !
 ! D44   D(4,5,6,8)            123.0185         estimate D2E/DX2                !
 ! D45   D(4,5,6,9)           -100.0597         estimate D2E/DX2                !
 ! D46   D(23,5,6,7)           130.3212         estimate D2E/DX2                !
 ! D47   D(23,5,6,8)          -116.7483         estimate D2E/DX2                !
 ! D48   D(23,5,6,9)            20.1734         estimate D2E/DX2                !
 ! D49   D(24,5,6,7)          -104.2823         estimate D2E/DX2                !
 ! D50   D(24,5,6,8)             8.6482         estimate D2E/DX2                !
 ! D51   D(24,5,6,9)           145.5699         estimate D2E/DX2                !
 ! D52   D(5,6,7,4)            -10.0951         estimate D2E/DX2                !
 ! D53   D(5,6,7,25)          -129.8061         estimate D2E/DX2                !
 ! D54   D(5,6,7,26)           104.6767         estimate D2E/DX2                !
 ! D55   D(8,6,7,4)           -123.262          estimate D2E/DX2                !
 ! D56   D(8,6,7,25)           117.027          estimate D2E/DX2                !
 ! D57   D(8,6,7,26)            -8.4903         estimate D2E/DX2                !
 ! D58   D(9,6,7,4)            100.0848         estimate D2E/DX2                !
 ! D59   D(9,6,7,25)           -19.6262         estimate D2E/DX2                !
 ! D60   D(9,6,7,26)          -145.1434         estimate D2E/DX2                !
 ! D61   D(4,10,11,12)         -67.7161         estimate D2E/DX2                !
 ! D62   D(4,10,11,29)         170.8883         estimate D2E/DX2                !
 ! D63   D(4,10,11,30)          56.1711         estimate D2E/DX2                !
 ! D64   D(27,10,11,12)         56.9854         estimate D2E/DX2                !
 ! D65   D(27,10,11,29)        -64.4102         estimate D2E/DX2                !
 ! D66   D(27,10,11,30)       -179.1275         estimate D2E/DX2                !
 ! D67   D(28,10,11,12)        172.4113         estimate D2E/DX2                !
 ! D68   D(28,10,11,29)         51.0156         estimate D2E/DX2                !
 ! D69   D(28,10,11,30)        -63.7016         estimate D2E/DX2                !
 ! D70   D(10,11,12,13)        105.4748         estimate D2E/DX2                !
 ! D71   D(10,11,12,17)        -74.8142         estimate D2E/DX2                !
 ! D72   D(29,11,12,13)       -134.1266         estimate D2E/DX2                !
 ! D73   D(29,11,12,17)         45.5844         estimate D2E/DX2                !
 ! D74   D(30,11,12,13)        -17.8831         estimate D2E/DX2                !
 ! D75   D(30,11,12,17)        161.8278         estimate D2E/DX2                !
 ! D76   D(11,12,13,14)       -179.9864         estimate D2E/DX2                !
 ! D77   D(11,12,13,31)         -0.2381         estimate D2E/DX2                !
 ! D78   D(17,12,13,14)          0.2956         estimate D2E/DX2                !
 ! D79   D(17,12,13,31)       -179.9561         estimate D2E/DX2                !
 ! D80   D(11,12,17,16)        179.805          estimate D2E/DX2                !
 ! D81   D(11,12,17,35)         -0.4586         estimate D2E/DX2                !
 ! D82   D(13,12,17,16)         -0.4756         estimate D2E/DX2                !
 ! D83   D(13,12,17,35)        179.2608         estimate D2E/DX2                !
 ! D84   D(12,13,14,15)          0.0774         estimate D2E/DX2                !
 ! D85   D(12,13,14,32)       -179.9414         estimate D2E/DX2                !
 ! D86   D(31,13,14,15)       -179.6696         estimate D2E/DX2                !
 ! D87   D(31,13,14,32)          0.3115         estimate D2E/DX2                !
 ! D88   D(13,14,15,16)         -0.2778         estimate D2E/DX2                !
 ! D89   D(13,14,15,33)       -179.9849         estimate D2E/DX2                !
 ! D90   D(32,14,15,16)        179.7411         estimate D2E/DX2                !
 ! D91   D(32,14,15,33)          0.034          estimate D2E/DX2                !
 ! D92   D(14,15,16,17)          0.0999         estimate D2E/DX2                !
 ! D93   D(14,15,16,34)       -179.4657         estimate D2E/DX2                !
 ! D94   D(33,15,16,17)        179.8073         estimate D2E/DX2                !
 ! D95   D(33,15,16,34)          0.2417         estimate D2E/DX2                !
 ! D96   D(15,16,17,12)          0.2832         estimate D2E/DX2                !
 ! D97   D(15,16,17,35)       -179.4528         estimate D2E/DX2                !
 ! D98   D(34,16,17,12)        179.8501         estimate D2E/DX2                !
 ! D99   D(34,16,17,35)          0.1141         estimate D2E/DX2                !
 --------------------------------------------------------------------------------
 Trust Radius=3.00D-01 FncErr=1.00D-07 GrdErr=1.00D-06 EigMax=2.50D+02 EigMin=1.00D-04
 Number of steps in this run=    210 maximum allowed number of steps=    210.
 GradGradGradGradGradGradGradGradGradGradGradGradGradGradGradGradGradGrad

 Leave Link  103 at Tue Sep 22 01:46:05 2020, MaxMem=  2147483648 cpu:               0.0 elap:               0.0
 (Enter /prod/apps/gaussian/g16b1/l202.exe)
                          Input orientation:                          
 ---------------------------------------------------------------------
 Center     Atomic      Atomic             Coordinates (Angstroms)
 Number     Number       Type             X           Y           Z
 ---------------------------------------------------------------------
      1          6           0        2.863000   -2.842000    0.447000
      2         16           0        2.533000   -1.156000   -0.093000
      3          7           0        1.312000   -0.782000    0.854000
      4          6           0        0.655000    0.504000    0.754000
      5          6           0        0.035000    0.885000   -0.663000
      6         16           0        0.743000    2.552000   -0.543000
      7          6           0        1.589000    1.788000    0.868000
      8          8           0        1.637000    2.927000   -1.665000
      9          8           0       -0.265000    3.553000   -0.109000
     10          6           0       -0.405000    0.581000    1.879000
     11          6           0       -1.386000   -0.604000    1.999000
     12          6           0       -2.377000   -0.772000    0.863000
     13          6           0       -2.222000   -1.789000   -0.091000
     14          6           0       -3.137000   -1.941000   -1.137000
     15          6           0       -4.226000   -1.074000   -1.248000
     16          6           0       -4.396000   -0.058000   -0.302000
     17          6           0       -3.481000    0.087000    0.743000
     18          8           0        3.802000   -0.384000    0.153000
     19          8           0        2.217000   -1.236000   -1.562000
     20          1           0        3.111000   -2.840000    1.510000
     21          1           0        3.711000   -3.208000   -0.136000
     22          1           0        1.984000   -3.461000    0.263000
     23          1           0       -1.051000    0.891000   -0.750000
     24          1           0        0.499000    0.338000   -1.484000
     25          1           0        1.512000    2.373000    1.787000
     26          1           0        2.630000    1.579000    0.619000
     27          1           0       -0.964000    1.520000    1.775000
     28          1           0        0.143000    0.647000    2.828000
     29          1           0       -1.944000   -0.460000    2.933000
     30          1           0       -0.806000   -1.524000    2.117000
     31          1           0       -1.374000   -2.464000   -0.014000
     32          1           0       -2.997000   -2.737000   -1.864000
     33          1           0       -4.939000   -1.190000   -2.060000
     34          1           0       -5.245000    0.617000   -0.374000
     35          1           0       -3.627000    0.875000    1.479000
 ---------------------------------------------------------------------
                    Distance matrix (angstroms):
                    1          2          3          4          5
     1  C    0.000000
     2  S    1.800860   0.000000
     3  N    2.610527   1.589819   0.000000
     4  C    4.020601   2.645731   1.447565   0.000000
     5  C    4.808348   3.275757   2.590542   1.592938   0.000000
     6  S    5.879603   4.141964   3.659361   2.425749   1.815090
     7  C    4.820500   3.237560   2.584923   1.591857   2.360993
     8  O    6.264581   4.465970   4.495294   3.561855   2.782116
     9  O    7.140696   5.477567   4.712380   3.299632   2.741376
    10  C    4.944429   3.941801   2.420017   1.547629   2.597649
    11  C    5.046915   4.476576   2.936309   2.635028   3.364908
    12  C    5.649385   5.016921   3.689025   3.291365   3.300313
    13  C    5.220678   4.796949   3.794236   3.774785   3.545632
    14  C    6.270634   5.818510   5.010086   4.892154   4.274639
    15  C    7.500185   6.857465   5.930692   5.506564   4.726101
    16  C    7.810553   7.018570   5.868712   5.190721   4.544594
    17  C    6.993782   6.197753   4.872405   4.156983   3.869870
    18  O    2.647626   1.505610   2.617232   3.324658   4.057894
    19  O    2.651911   1.504732   2.619580   3.291094   3.173006
    20  H    1.091548   2.395736   2.811068   4.217322   5.297106
    21  H    1.092222   2.366482   3.552573   4.889804   5.526604
    22  H    1.090714   2.396072   2.824519   4.210528   4.852195
    23  H    5.539629   4.179344   3.309911   2.306994   1.089496
    24  H    4.407908   2.881679   2.716912   2.249564   1.090205
    25  H    5.551308   4.126825   3.296136   2.301021   3.224620
    26  H    4.430476   2.827822   2.714161   2.252660   2.976438
    27  H    5.952861   4.783243   3.365653   2.166993   2.710179
    28  H    5.024011   4.182720   2.702828   2.141044   3.500770
    29  H    5.912814   5.448359   3.876527   3.525924   4.319338
    30  H    4.241177   4.021000   2.575200   2.846941   3.773455
    31  H    4.278735   4.120892   3.285901   3.676369   3.690838
    32  H    6.300107   6.018048   5.456833   5.540317   4.873839
    33  H    8.359746   7.726644   6.908897   6.486992   5.567577
    34  H    8.853157   7.982467   6.816116   6.007924   5.294690
    35  H    7.549915   6.673960   5.246903   4.358760   4.242465
                    6          7          8          9         10
     6  S    0.000000
     7  C    1.813928   0.000000
     8  O    1.482817   2.777717   0.000000
     9  O    1.485403   2.739903   2.535866   0.000000
    10  C    3.326985   2.540670   4.715232   3.578342   0.000000
    11  C    4.577635   3.981388   5.918732   4.793845   1.543044
    12  C    4.770766   4.720464   6.015445   4.910291   2.598394
    13  C    5.276344   5.313975   6.293649   5.689212   3.577609
    14  C    5.966095   6.345120   6.838661   6.284044   4.787543
    15  C    6.191596   6.817824   7.110321   6.196448   5.207417
    16  C    5.768839   6.371565   6.867684   5.490149   4.592729
    17  C    5.056896   5.349199   6.329138   4.804343   3.316068
    18  O    4.296742   3.182166   4.353742   5.666489   4.648564
    19  O    4.190463   3.929868   4.204471   5.586238   4.692212
    20  H    6.236658   4.913963   6.746228   7.408710   4.919518
    21  H    6.492478   5.520047   6.654137   7.843496   5.946276
    22  H    6.192406   5.298495   6.681627   7.375133   4.965535
    23  H    2.453611   3.223683   3.493976   2.848670   2.724896
    24  H    2.418018   2.970270   2.833854   3.579182   3.490850
    25  H    2.460143   1.092115   3.498406   2.853935   2.625760
    26  H    2.420277   1.090579   2.831927   3.578783   3.434360
    27  H    3.058103   2.722551   4.536348   2.858522   1.097733
    28  H    3.918248   2.689683   5.255234   4.151779   1.097844
    29  H    5.326790   4.669028   6.740692   5.308199   2.136146
    30  H    5.107717   4.273800   6.331127   5.569891   2.156031
    31  H    5.470081   5.257071   6.391776   6.119084   3.714086
    32  H    6.611064   6.997917   7.320823   7.078697   5.633617
    33  H    6.970579   7.749610   7.768493   6.938928   6.261734
    34  H    6.295151   7.043959   7.373243   5.787117   5.338811
    35  H    5.098795   5.330436   6.465689   4.582191   3.260018
                   11         12         13         14         15
    11  C    0.000000
    12  C    1.516839   0.000000
    13  C    2.543859   1.403007   0.000000
    14  C    3.832501   2.438065   1.398015   0.000000
    15  C    4.339298   2.822468   2.421960   1.396399   0.000000
    16  C    3.827900   2.437905   2.786962   2.414124   1.398596
    17  C    2.538512   1.403958   2.408322   2.786668   2.422195
    18  O    5.511031   6.231748   6.190488   7.227591   8.178489
    19  O    5.105071   5.215434   4.708967   5.416915   6.452681
    20  H    5.045971   5.900286   5.666453   6.844875   8.034730
    21  H    6.108883   6.632936   6.100498   7.035794   8.293761
    22  H    4.746898   5.158395   4.539971   5.522232   6.822389
    23  H    3.147102   2.669385   2.997986   3.538557   3.766942
    24  H    4.070857   3.874517   3.724033   4.305200   4.937111
    25  H    4.160033   5.086170   5.898465   6.983808   7.349672
    26  H    4.774740   5.536857   5.948901   6.980847   7.584776
    27  H    2.177071   2.842811   4.001750   5.017987   5.148593
    28  H    2.142448   3.496453   4.477486   5.759980   6.218020
    29  H    1.097477   2.137693   3.314830   4.492384   4.802633
    30  H    1.093949   2.146174   2.636389   4.024421   4.818934
    31  H    2.740787   2.153602   1.086581   2.154722   3.404227
    32  H    4.697635   3.417917   2.154729   1.087081   2.157653
    33  H    5.426111   3.909283   3.408497   2.159429   1.086816
    34  H    4.691892   3.418320   3.873946   3.401352   2.159101
    35  H    2.734945   2.157444   3.396442   3.874714   3.404986
                   16         17         18         19         20
    16  C    0.000000
    17  C    1.396522   0.000000
    18  O    8.217086   7.322024   0.000000
    19  O    6.834256   6.287333   2.485831   0.000000
    20  H    8.208405   7.253281   2.889786   3.578999   0.000000
    21  H    8.699052   7.959556   2.840207   2.855573   1.790179
    22  H    7.252864   6.533370   3.575633   2.887133   1.791865
    23  H    3.505757   2.963168   5.098298   3.982875   6.029113
    24  H    5.051234   4.567596   3.756443   2.331327   5.087855
    25  H    6.721469   5.589793   3.938922   4.973702   5.459753
    26  H    7.272736   6.291722   2.333261   3.584907   4.533520
    27  H    4.310758   3.074704   5.382458   5.371207   5.973730
    28  H    5.558457   4.218317   4.648319   5.207616   4.765010
    29  H    4.079109   2.730875   6.383627   6.174230   5.765618
    30  H    4.570429   3.411572   5.137174   4.770379   4.176505
    31  H    3.873534   3.394127   5.580794   4.098728   4.751755
    32  H    3.402071   3.873717   7.472034   5.434151   6.978692
    33  H    2.160286   3.407830   9.052739   7.173455   8.959347
    34  H    1.087019   2.154132   9.117452   7.779871   9.237047
    35  H    2.152629   1.088097   7.650712   6.917828   7.694338
                   21         22         23         24         25
    21  H    0.000000
    22  H    1.790458   0.000000
    23  H    6.313117   5.401601   0.000000
    24  H    4.970731   4.437300   1.801961   0.000000
    25  H    6.299293   6.048216   3.898931   3.983320   0.000000
    26  H    4.965275   5.093687   3.987138   3.240965   1.801273
    27  H    6.918203   5.982241   2.603620   3.762788   2.618841
    28  H    6.031330   5.181136   3.779849   4.337691   2.436579
    29  H    6.996377   5.618192   4.023324   5.110278   4.613365
    30  H    5.321199   3.869546   3.756586   4.258787   4.546277
    31  H    5.140588   3.513816   3.449935   3.676987   5.913473
    32  H    6.942988   5.464308   4.265008   4.671407   7.731299
    33  H    9.088267   7.647333   4.600348   5.677887   8.313229
    34  H    9.741520   8.324319   4.219726   5.856917   7.308249
    35  H    8.551337   7.194642   3.406534   5.107995   5.361734
                   26         27         28         29         30
    26  H    0.000000
    27  H    3.775798   0.000000
    28  H    3.454486   1.759655   0.000000
    29  H    5.516665   2.494346   2.364750   0.000000
    30  H    4.866077   3.067224   2.473735   1.758692   0.000000
    31  H    5.725256   4.386442   4.478457   3.609117   2.397370
    32  H    7.513739   5.957974   6.582243   5.413386   4.703213
    33  H    8.493183   6.152394   7.286552   5.867962   5.885624
    34  H    7.995444   4.874482   6.267715   4.795079   5.522109
    35  H    6.354940   2.755941   4.010572   2.593999   3.757697
                   31         32         33         34         35
    31  H    0.000000
    32  H    2.476118   0.000000
    33  H    4.303303   2.490580   0.000000
    34  H    4.960524   4.303826   2.490277   0.000000
    35  H    4.295809   4.961763   4.302335   2.473479   0.000000
 Symmetry turned off by external request.
 Stoichiometry    C12H16NO4S2(1-)
 Framework group  C1[X(C12H16NO4S2)]
 Deg. of freedom    99
 Full point group                 C1      NOp   1
 Rotational constants (GHZ):           0.4056185           0.2492875           0.1899585
 Leave Link  202 at Tue Sep 22 01:46:05 2020, MaxMem=  2147483648 cpu:               0.0 elap:               0.0
 (Enter /prod/apps/gaussian/g16b1/l301.exe)
 Standard basis: 6-31G(d) (6D, 7F)
 Ernie: Thresh=  0.10000D-02 Tol=  0.10000D-05 Strict=F.
   325 basis functions,   644 primitive gaussians,   325 cartesian basis functions
    80 alpha electrons       80 beta electrons
       nuclear repulsion energy      1862.6090755460 Hartrees.
 IExCor=  402 DFT=T Ex+Corr=B3LYP ExCW=0 ScaHFX=  0.200000
 ScaDFX=  0.800000  0.720000  1.000000  0.810000 ScalE2=  1.000000  1.000000
 IRadAn=      5 IRanWt=     -1 IRanGd=            0 ICorTp=0 IEmpDi=  4
 NAtoms=   35 NActive=   35 NUniq=   35 SFac= 1.00D+00 NAtFMM=   60 NAOKFM=F Big=F
 Integral buffers will be    131072 words long.
 Raffenetti 2 integral format.
 Two-electron integral symmetry is turned off.
 Using the following non-standard input for PCM:
 MSTModel=DFT MSTcharged
 --- end of non-standard input.
 MST model for solvation energy: B3LYP parametrization.
 MST cavity parameters:
 ISph   IAn     Re0     Alpha   Atom Type   QCorr
 ------------------------------------------------
   1      6     1.50     1.25      CH3        F
   2     16     1.75     1.25      S          F
   3      7     1.40     1.15      N          T
   4      6     1.50     1.25      C          F
   5      6     1.50     1.25      CH2        F
   6     16     1.75     1.25      S          F
   7      6     1.50     1.25      CH2        F
   8      8     1.40     1.25      O          F
   9      8     1.40     1.25      O          F
  10      6     1.50     1.25      CH2        F
  11      6     1.50     1.25      CH2        F
  12      6     1.50     1.25      C          F
  13      6     1.50     1.25      CH         F
  14      6     1.50     1.25      CH         F
  15      6     1.50     1.25      CH         F
  16      6     1.50     1.25      CH         F
  17      6     1.50     1.25      CH         F
  18      8     1.40     1.25      O          F
  19      8     1.40     1.25      O          F
  20      1     1.20     1.25      CH3        F
  21      1     1.20     1.25      CH3        F
  22      1     1.20     1.25      CH3        F
  23      1     1.20     1.25      CH2        F
  24      1     1.20     1.25      CH2        F
  25      1     1.20     1.25      CH2        F
  26      1     1.20     1.25      CH2        F
  27      1     1.20     1.25      CH2        F
  28      1     1.20     1.25      CH2        F
  29      1     1.20     1.25      CH2        F
  30      1     1.20     1.25      CH2        F
  31      1     1.20     1.25      CH         F
  32      1     1.20     1.25      CH         F
  33      1     1.20     1.25      CH         F
  34      1     1.20     1.25      CH         F
  35      1     1.20     1.25      CH         F
 ------------------------------------------------------------------------------
 Polarizable Continuum Model (PCM)
 =================================
 Model                : PCM.
 Atomic radii         : MST.
 Polarization charges : Total charges.
 Charge compensation  : None.
 Solution method      : On-the-fly selection.
 Cavity type          : Scaled VdW (van der Waals Surface) (Alpha=1.250).
 Cavity algorithm     : GePol (No added spheres)
                        Default sphere list used, NSphG=   35.
                        Lebedev-Laikov grids with approx.  5.0 points / Ang**2.
                        Smoothing algorithm: York/Karplus (Gamma=1.0000).
                        Polarization charges: spherical gaussians, with
                                              point-specific exponents (IZeta= 3).
                        Self-potential: point-specific (ISelfS= 7).
                        Self-field    : sphere-specific E.n sum rule (ISelfD= 2).
 1st derivatives      : Analytical E(r).r(x)/FMM algorithm (CHGder, D1EAlg=3).
                        Cavity 1st derivative terms included.
 Solvent              : Water, Eps=  78.355300 Eps(inf)=   1.777849
 ------------------------------------------------------------------------------
 GePol: Number of generator spheres                  =      35
 GePol: Total number of spheres                      =      35
 GePol: Number of exposed spheres                    =      35 (100.00%)
 GePol: Number of points                             =    2498
 GePol: Average weight of points                     =       0.14
 GePol: Minimum weight of points                     =   0.13D-10
 GePol: Maximum weight of points                     =    0.22001
 GePol: Number of points with low weight             =     175
 GePol: Fraction of low-weight points (<1% of avg)   =       7.01%
 GePol: Cavity surface area                          =    344.124 Ang**2
 GePol: Cavity volume                                =    335.976 Ang**3
 PCM non-electrostatic energy =        -0.0668919541 Hartrees.
 Nuclear repulsion after PCM non-electrostatic terms =     1862.5421835918 Hartrees.
 Leave Link  301 at Tue Sep 22 01:46:05 2020, MaxMem=  2147483648 cpu:               0.3 elap:               0.1
 (Enter /prod/apps/gaussian/g16b1/l302.exe)
 NPDir=0 NMtPBC=     1 NCelOv=     1 NCel=       1 NClECP=     1 NCelD=      1
         NCelK=      1 NCelE2=     1 NClLst=     1 CellRange=     0.0.
 One-electron integrals computed using PRISM.
 NBasis=   325 RedAO= T EigKep=  4.72D-04  NBF=   325
 NBsUse=   325 1.00D-06 EigRej= -1.00D+00 NBFU=   325
 Precomputing XC quadrature grid using
 IXCGrd= 4 IRadAn=           5 IRanWt=          -1 IRanGd=           0 AccXCQ= 0.00D+00.
 Generated NRdTot=       0 NPtTot=           0 NUsed=           0 NTot=          32
 NSgBfM=   324   324   324   324   324 MxSgAt=    35 MxSgA2=    35.
 Leave Link  302 at Tue Sep 22 01:46:06 2020, MaxMem=  2147483648 cpu:               1.8 elap:               0.5
 (Enter /prod/apps/gaussian/g16b1/l303.exe)
 DipDrv:  MaxL=1.
 Leave Link  303 at Tue Sep 22 01:46:06 2020, MaxMem=  2147483648 cpu:               0.1 elap:               0.1
 (Enter /prod/apps/gaussian/g16b1/l401.exe)
 ExpMin= 1.17D-01 ExpMax= 2.19D+04 ExpMxC= 3.30D+03 IAcc=3 IRadAn=         5 AccDes= 0.00D+00
 Harris functional with IExCor=  402 and IRadAn=       5 diagonalized for initial guess.
 HarFok:  IExCor=  402 AccDes= 0.00D+00 IRadAn=         5 IDoV= 1 UseB2=F ITyADJ=14
 ICtDFT=  3500011 ScaDFX=  1.000000  1.000000  1.000000  1.000000
 FoFCou: FMM=F IPFlag=           0 FMFlag=      100000 FMFlg1=           0
         NFxFlg=           0 DoJE=T BraDBF=F KetDBF=T FulRan=T
         wScrn=  0.000000 ICntrl=       500 IOpCl=  0 I1Cent=   200000004 NGrid=           0
         NMat0=    1 NMatS0=      1 NMatT0=    0 NMatD0=    1 NMtDS0=    0 NMtDT0=    0
 Symmetry not used in FoFCou.
 Harris En= -1619.15078873813    
 JPrj=0 DoOrth=F DoCkMO=F.
 Leave Link  401 at Tue Sep 22 01:46:09 2020, MaxMem=  2147483648 cpu:              10.5 elap:               2.7
 (Enter /prod/apps/gaussian/g16b1/l502.exe)
 Two-electron integral symmetry not used.
 Closed shell SCF:
 Using DIIS extrapolation, IDIIS=  1040.
 NGot=  2147483648 LenX=  2147267572 LenY=  2147161506
 Requested convergence on RMS density matrix=1.00D-08 within2000 cycles.
 Requested convergence on MAX density matrix=1.00D-06.
 Requested convergence on             energy=1.00D-06.
 No special actions if energy rises.

 Cycle   1  Pass 1  IDiag  1:
 FoFJK:  IHMeth= 1 ICntrl=       0 DoSepK=F KAlg= 0 I1Cent=           0 FoldK=F
 IRaf= 830000000 NMat=       1 IRICut=       1 DoRegI=T DoRafI=F ISym2E= 0 IDoP0=0 IntGTp=1.
 FoFCou: FMM=F IPFlag=           0 FMFlag=      100000 FMFlg1=           0
         NFxFlg=           0 DoJE=F BraDBF=F KetDBF=F FulRan=T
         wScrn=  0.000000 ICntrl=         0 IOpCl=  0 I1Cent=           0 NGrid=           0
         NMat0=    1 NMatS0=      1 NMatT0=    0 NMatD0=    1 NMtDS0=    0 NMtDT0=    0
 Symmetry not used in FoFCou.
 Inv3:  Mode=1 IEnd=    18720012.
 Iteration    1 A*A^-1 deviation from unit magnitude is 3.11D-15 for   1631.
 Iteration    1 A*A^-1 deviation from orthogonality  is 2.00D-15 for   2221   1096.
 Iteration    1 A^-1*A deviation from unit magnitude is 3.11D-15 for   2097.
 Iteration    1 A^-1*A deviation from orthogonality  is 1.59D-15 for   2484    381.
 E= -1618.20758219607    
 DIIS: error= 3.19D-02 at cycle   1 NSaved=   1.
 NSaved= 1 IEnMin= 1 EnMin= -1618.20758219607     IErMin= 1 ErrMin= 3.19D-02
 ErrMax= 3.19D-02  0.00D+00 EMaxC= 1.00D-01 BMatC= 9.53D-01 BMatP= 9.53D-01
 IDIUse=3 WtCom= 6.81D-01 WtEn= 3.19D-01
 Coeff-Com:  0.100D+01
 Coeff-En:   0.100D+01
 Coeff:      0.100D+01
 Gap=     0.204 Goal=   None    Shift=    0.000
 GapD=    0.204 DampG=1.000 DampE=0.500 DampFc=0.5000 IDamp=-1.
 Damping current iteration by 5.00D-01
 RMSDP=7.14D-03 MaxDP=5.01D-01              OVMax= 2.31D-01

 Cycle   2  Pass 1  IDiag  1:
 E= -1618.46230178987     Delta-E=       -0.254719593795 Rises=F Damp=T
 DIIS: error= 1.10D-02 at cycle   2 NSaved=   2.
 NSaved= 2 IEnMin= 2 EnMin= -1618.46230178987     IErMin= 2 ErrMin= 1.10D-02
 ErrMax= 1.10D-02  0.00D+00 EMaxC= 1.00D-01 BMatC= 9.69D-02 BMatP= 9.53D-01
 IDIUse=3 WtCom= 8.90D-01 WtEn= 1.10D-01
 Coeff-Com:  0.192D+00 0.808D+00
 Coeff-En:   0.310D+00 0.690D+00
 Coeff:      0.205D+00 0.795D+00
 Gap=     0.266 Goal=   None    Shift=    0.000
 RMSDP=1.71D-03 MaxDP=1.05D-01 DE=-2.55D-01 OVMax= 1.69D-01

 Cycle   3  Pass 1  IDiag  1:
 E= -1618.96113772883     Delta-E=       -0.498835938962 Rises=F Damp=F
 DIIS: error= 9.58D-03 at cycle   3 NSaved=   3.
 NSaved= 3 IEnMin= 3 EnMin= -1618.96113772883     IErMin= 3 ErrMin= 9.58D-03
 ErrMax= 9.58D-03  0.00D+00 EMaxC= 1.00D-01 BMatC= 5.02D-02 BMatP= 9.69D-02
 IDIUse=3 WtCom= 9.04D-01 WtEn= 9.58D-02
 Coeff-Com:  0.665D-01 0.432D+00 0.501D+00
 Coeff-En:   0.000D+00 0.000D+00 0.100D+01
 Coeff:      0.601D-01 0.391D+00 0.549D+00
 Gap=     0.206 Goal=   None    Shift=    0.000
 RMSDP=9.70D-04 MaxDP=2.83D-02 DE=-4.99D-01 OVMax= 5.00D-02

 Cycle   4  Pass 1  IDiag  1:
 E= -1619.00012458857     Delta-E=       -0.038986859744 Rises=F Damp=F
 DIIS: error= 3.44D-03 at cycle   4 NSaved=   4.
 NSaved= 4 IEnMin= 4 EnMin= -1619.00012458857     IErMin= 4 ErrMin= 3.44D-03
 ErrMax= 3.44D-03  0.00D+00 EMaxC= 1.00D-01 BMatC= 8.21D-03 BMatP= 5.02D-02
 IDIUse=3 WtCom= 9.66D-01 WtEn= 3.44D-02
 Coeff-Com:  0.560D-02 0.751D-01 0.299D+00 0.620D+00
 Coeff-En:   0.000D+00 0.000D+00 0.133D+00 0.867D+00
 Coeff:      0.541D-02 0.725D-01 0.294D+00 0.629D+00
 Gap=     0.197 Goal=   None    Shift=    0.000
 RMSDP=3.51D-04 MaxDP=1.30D-02 DE=-3.90D-02 OVMax= 1.83D-02

 Cycle   5  Pass 1  IDiag  1:
 E= -1619.00670844151     Delta-E=       -0.006583852936 Rises=F Damp=F
 DIIS: error= 8.40D-04 at cycle   5 NSaved=   5.
 NSaved= 5 IEnMin= 5 EnMin= -1619.00670844151     IErMin= 5 ErrMin= 8.40D-04
 ErrMax= 8.40D-04  0.00D+00 EMaxC= 1.00D-01 BMatC= 7.57D-04 BMatP= 8.21D-03
 IDIUse=3 WtCom= 9.92D-01 WtEn= 8.40D-03
 Coeff-Com: -0.108D-02 0.143D-01 0.129D+00 0.353D+00 0.505D+00
 Coeff-En:   0.000D+00 0.000D+00 0.000D+00 0.000D+00 0.100D+01
 Coeff:     -0.107D-02 0.142D-01 0.128D+00 0.350D+00 0.509D+00
 Gap=     0.200 Goal=   None    Shift=    0.000
 RMSDP=1.09D-04 MaxDP=7.90D-03 DE=-6.58D-03 OVMax= 6.50D-03

 Cycle   6  Pass 1  IDiag  1:
 E= -1619.00736099786     Delta-E=       -0.000652556355 Rises=F Damp=F
 DIIS: error= 2.85D-04 at cycle   6 NSaved=   6.
 NSaved= 6 IEnMin= 6 EnMin= -1619.00736099786     IErMin= 6 ErrMin= 2.85D-04
 ErrMax= 2.85D-04  0.00D+00 EMaxC= 1.00D-01 BMatC= 3.76D-05 BMatP= 7.57D-04
 IDIUse=3 WtCom= 9.97D-01 WtEn= 2.85D-03
 Coeff-Com: -0.814D-03 0.198D-02 0.419D-01 0.125D+00 0.255D+00 0.577D+00
 Coeff-En:   0.000D+00 0.000D+00 0.000D+00 0.000D+00 0.000D+00 0.100D+01
 Coeff:     -0.811D-03 0.197D-02 0.418D-01 0.125D+00 0.254D+00 0.578D+00
 Gap=     0.199 Goal=   None    Shift=    0.000
 RMSDP=2.39D-05 MaxDP=1.38D-03 DE=-6.53D-04 OVMax= 1.41D-03

 Cycle   7  Pass 1  IDiag  1:
 E= -1619.00739216307     Delta-E=       -0.000031165206 Rises=F Damp=F
 DIIS: error= 4.79D-05 at cycle   7 NSaved=   7.
 NSaved= 7 IEnMin= 7 EnMin= -1619.00739216307     IErMin= 7 ErrMin= 4.79D-05
 ErrMax= 4.79D-05  0.00D+00 EMaxC= 1.00D-01 BMatC= 2.69D-06 BMatP= 3.76D-05
 IDIUse=1 WtCom= 1.00D+00 WtEn= 0.00D+00
 Coeff-Com: -0.309D-03-0.277D-03 0.973D-02 0.313D-01 0.837D-01 0.285D+00
 Coeff-Com:  0.591D+00
 Coeff:     -0.309D-03-0.277D-03 0.973D-02 0.313D-01 0.837D-01 0.285D+00
 Coeff:      0.591D+00
 Gap=     0.199 Goal=   None    Shift=    0.000
 RMSDP=6.72D-06 MaxDP=3.44D-04 DE=-3.12D-05 OVMax= 3.12D-04

 Cycle   8  Pass 1  IDiag  1:
 E= -1619.00739451413     Delta-E=       -0.000002351060 Rises=F Damp=F
 DIIS: error= 2.30D-05 at cycle   8 NSaved=   8.
 NSaved= 8 IEnMin= 8 EnMin= -1619.00739451413     IErMin= 8 ErrMin= 2.30D-05
 ErrMax= 2.30D-05  0.00D+00 EMaxC= 1.00D-01 BMatC= 2.28D-07 BMatP= 2.69D-06
 IDIUse=1 WtCom= 1.00D+00 WtEn= 0.00D+00
 Coeff-Com: -0.102D-03-0.287D-03 0.191D-02 0.688D-02 0.244D-01 0.103D+00
 Coeff-Com:  0.297D+00 0.567D+00
 Coeff:     -0.102D-03-0.287D-03 0.191D-02 0.688D-02 0.244D-01 0.103D+00
 Coeff:      0.297D+00 0.567D+00
 Gap=     0.199 Goal=   None    Shift=    0.000
 RMSDP=1.97D-06 MaxDP=9.49D-05 DE=-2.35D-06 OVMax= 1.27D-04

 Cycle   9  Pass 1  IDiag  1:
 E= -1619.00739465044     Delta-E=       -0.000000136313 Rises=F Damp=F
 DIIS: error= 1.40D-05 at cycle   9 NSaved=   9.
 NSaved= 9 IEnMin= 9 EnMin= -1619.00739465044     IErMin= 9 ErrMin= 1.40D-05
 ErrMax= 1.40D-05  0.00D+00 EMaxC= 1.00D-01 BMatC= 6.68D-08 BMatP= 2.28D-07
 IDIUse=1 WtCom= 1.00D+00 WtEn= 0.00D+00
 Coeff-Com: -0.170D-04-0.121D-03-0.356D-03-0.674D-03 0.220D-02 0.203D-01
 Coeff-Com:  0.976D-01 0.375D+00 0.506D+00
 Coeff:     -0.170D-04-0.121D-03-0.356D-03-0.674D-03 0.220D-02 0.203D-01
 Coeff:      0.976D-01 0.375D+00 0.506D+00
 Gap=     0.199 Goal=   None    Shift=    0.000
 RMSDP=7.75D-07 MaxDP=4.23D-05 DE=-1.36D-07 OVMax= 5.19D-05

 Cycle  10  Pass 1  IDiag  1:
 E= -1619.00739470133     Delta-E=       -0.000000050886 Rises=F Damp=F
 DIIS: error= 1.61D-06 at cycle  10 NSaved=  10.
 NSaved=10 IEnMin=10 EnMin= -1619.00739470133     IErMin=10 ErrMin= 1.61D-06
 ErrMax= 1.61D-06  0.00D+00 EMaxC= 1.00D-01 BMatC= 1.49D-09 BMatP= 6.68D-08
 IDIUse=1 WtCom= 1.00D+00 WtEn= 0.00D+00
 Coeff-Com: -0.511D-05-0.324D-04-0.267D-03-0.651D-03-0.210D-03 0.397D-02
 Coeff-Com:  0.301D-01 0.142D+00 0.227D+00 0.598D+00
 Coeff:     -0.511D-05-0.324D-04-0.267D-03-0.651D-03-0.210D-03 0.397D-02
 Coeff:      0.301D-01 0.142D+00 0.227D+00 0.598D+00
 Gap=     0.199 Goal=   None    Shift=    0.000
 RMSDP=1.63D-07 MaxDP=6.74D-06 DE=-5.09D-08 OVMax= 7.55D-06

 Cycle  11  Pass 1  IDiag  1:
 E= -1619.00739470234     Delta-E=       -0.000000001011 Rises=F Damp=F
 DIIS: error= 7.35D-07 at cycle  11 NSaved=  11.
 NSaved=11 IEnMin=11 EnMin= -1619.00739470234     IErMin=11 ErrMin= 7.35D-07
 ErrMax= 7.35D-07  0.00D+00 EMaxC= 1.00D-01 BMatC= 3.13D-10 BMatP= 1.49D-09
 IDIUse=1 WtCom= 1.00D+00 WtEn= 0.00D+00
 Coeff-Com: -0.215D-05-0.122D-05-0.120D-03-0.300D-03-0.444D-03-0.464D-03
 Coeff-Com:  0.459D-02 0.325D-01 0.643D-01 0.342D+00 0.558D+00
 Coeff:     -0.215D-05-0.122D-05-0.120D-03-0.300D-03-0.444D-03-0.464D-03
 Coeff:      0.459D-02 0.325D-01 0.643D-01 0.342D+00 0.558D+00
 Gap=     0.199 Goal=   None    Shift=    0.000
 RMSDP=6.37D-08 MaxDP=2.24D-06 DE=-1.01D-09 OVMax= 4.12D-06

 Cycle  12  Pass 1  IDiag  1:
 E= -1619.00739470260     Delta-E=       -0.000000000257 Rises=F Damp=F
 DIIS: error= 2.26D-07 at cycle  12 NSaved=  12.
 NSaved=12 IEnMin=12 EnMin= -1619.00739470260     IErMin=12 ErrMin= 2.26D-07
 ErrMax= 2.26D-07  0.00D+00 EMaxC= 1.00D-01 BMatC= 3.26D-11 BMatP= 3.13D-10
 IDIUse=1 WtCom= 1.00D+00 WtEn= 0.00D+00
 Coeff-Com: -0.117D-05 0.301D-05-0.463D-04-0.113D-03-0.239D-03-0.641D-03
 Coeff-Com: -0.122D-03 0.529D-02 0.155D-01 0.140D+00 0.318D+00 0.523D+00
 Coeff:     -0.117D-05 0.301D-05-0.463D-04-0.113D-03-0.239D-03-0.641D-03
 Coeff:     -0.122D-03 0.529D-02 0.155D-01 0.140D+00 0.318D+00 0.523D+00
 Gap=     0.199 Goal=   None    Shift=    0.000
 RMSDP=2.05D-08 MaxDP=8.48D-07 DE=-2.57D-10 OVMax= 1.09D-06

 Cycle  13  Pass 1  IDiag  1:
 E= -1619.00739470264     Delta-E=       -0.000000000040 Rises=F Damp=F
 DIIS: error= 5.80D-08 at cycle  13 NSaved=  13.
 NSaved=13 IEnMin=13 EnMin= -1619.00739470264     IErMin=13 ErrMin= 5.80D-08
 ErrMax= 5.80D-08  0.00D+00 EMaxC= 1.00D-01 BMatC= 2.29D-12 BMatP= 3.26D-11
 IDIUse=1 WtCom= 1.00D+00 WtEn= 0.00D+00
 Coeff-Com: -0.470D-06 0.188D-05-0.127D-04-0.297D-04-0.837D-04-0.306D-03
 Coeff-Com: -0.598D-03-0.849D-03 0.896D-03 0.336D-01 0.102D+00 0.267D+00
 Coeff-Com:  0.599D+00
 Coeff:     -0.470D-06 0.188D-05-0.127D-04-0.297D-04-0.837D-04-0.306D-03
 Coeff:     -0.598D-03-0.849D-03 0.896D-03 0.336D-01 0.102D+00 0.267D+00
 Coeff:      0.599D+00
 Gap=     0.199 Goal=   None    Shift=    0.000
 RMSDP=5.45D-09 MaxDP=2.56D-07 DE=-3.96D-11 OVMax= 2.12D-07

 Error on total polarization charges =  0.01942
 SCF Done:  E(RB3LYP) =  -1619.00739470     A.U. after   13 cycles
            NFock= 13  Conv=0.54D-08     -V/T= 2.0067
 KE= 1.608301552459D+03 PE=-7.555678434122D+03 EE= 2.465827303368D+03
 Leave Link  502 at Tue Sep 22 01:47:37 2020, MaxMem=  2147483648 cpu:             354.7 elap:              88.8
 (Enter /prod/apps/gaussian/g16b1/l601.exe)
 Copying SCF densities to generalized density rwf, IOpCl= 0 IROHF=0.

 **********************************************************************

            Population analysis using the SCF Density.

 **********************************************************************

 Alpha  occ. eigenvalues --  -89.08258 -89.07442 -19.14270 -19.14094 -19.10453
 Alpha  occ. eigenvalues --  -19.10407 -14.28179 -10.24574 -10.20645 -10.20454
 Alpha  occ. eigenvalues --  -10.19722 -10.19345 -10.18846 -10.18780 -10.18663
 Alpha  occ. eigenvalues --  -10.18533 -10.18463 -10.18338 -10.18140  -8.11359
 Alpha  occ. eigenvalues --   -8.09887  -6.07825  -6.07711  -6.07581  -6.06343
 Alpha  occ. eigenvalues --   -6.06333  -6.06220  -1.09056  -1.06089  -0.98844
 Alpha  occ. eigenvalues --   -0.94551  -0.88900  -0.85175  -0.82124  -0.78128
 Alpha  occ. eigenvalues --   -0.74181  -0.74015  -0.72380  -0.70110  -0.66047
 Alpha  occ. eigenvalues --   -0.61102  -0.59966  -0.57771  -0.57142  -0.53023
 Alpha  occ. eigenvalues --   -0.50585  -0.49638  -0.48261  -0.47835  -0.46215
 Alpha  occ. eigenvalues --   -0.45351  -0.45191  -0.44723  -0.44487  -0.43726
 Alpha  occ. eigenvalues --   -0.42594  -0.42023  -0.41452  -0.41170  -0.40305
 Alpha  occ. eigenvalues --   -0.39619  -0.39000  -0.37050  -0.35612  -0.34943
 Alpha  occ. eigenvalues --   -0.34301  -0.33432  -0.32578  -0.32206  -0.31434
 Alpha  occ. eigenvalues --   -0.31307  -0.29704  -0.29626  -0.27720  -0.27558
 Alpha  occ. eigenvalues --   -0.26768  -0.24958  -0.24722  -0.23732  -0.20171
 Alpha virt. eigenvalues --   -0.00237   0.00064   0.05791   0.06363   0.07072
 Alpha virt. eigenvalues --    0.07134   0.08790   0.10109   0.11354   0.11925
 Alpha virt. eigenvalues --    0.12485   0.13098   0.13587   0.14133   0.14743
 Alpha virt. eigenvalues --    0.15368   0.15729   0.16532   0.17078   0.17947
 Alpha virt. eigenvalues --    0.18155   0.18511   0.18788   0.20231   0.20603
 Alpha virt. eigenvalues --    0.21175   0.22597   0.24444   0.25241   0.25500
 Alpha virt. eigenvalues --    0.27514   0.28360   0.31084   0.31732   0.33363
 Alpha virt. eigenvalues --    0.33952   0.35060   0.35195   0.36851   0.41144
 Alpha virt. eigenvalues --    0.41303   0.43426   0.43619   0.44784   0.46201
 Alpha virt. eigenvalues --    0.48403   0.50522   0.51501   0.52470   0.52946
 Alpha virt. eigenvalues --    0.53710   0.54755   0.55983   0.56538   0.56858
 Alpha virt. eigenvalues --    0.56971   0.59037   0.59312   0.59976   0.60363
 Alpha virt. eigenvalues --    0.60538   0.61348   0.61865   0.63579   0.63846
 Alpha virt. eigenvalues --    0.64651   0.65363   0.67423   0.69164   0.72317
 Alpha virt. eigenvalues --    0.73130   0.73522   0.74847   0.76103   0.76697
 Alpha virt. eigenvalues --    0.77674   0.78899   0.80521   0.81493   0.82417
 Alpha virt. eigenvalues --    0.83089   0.83990   0.84300   0.84490   0.85379
 Alpha virt. eigenvalues --    0.85809   0.86459   0.87773   0.88612   0.89267
 Alpha virt. eigenvalues --    0.89477   0.90310   0.91079   0.92285   0.92805
 Alpha virt. eigenvalues --    0.93469   0.94252   0.94949   0.95094   0.95749
 Alpha virt. eigenvalues --    0.96061   0.97601   0.98088   1.00117   1.00696
 Alpha virt. eigenvalues --    1.01639   1.02866   1.03265   1.05090   1.05536
 Alpha virt. eigenvalues --    1.06690   1.06839   1.09484   1.11441   1.12391
 Alpha virt. eigenvalues --    1.13698   1.14082   1.16396   1.17256   1.17992
 Alpha virt. eigenvalues --    1.18931   1.19822   1.21550   1.21895   1.24478
 Alpha virt. eigenvalues --    1.25783   1.26574   1.30580   1.31585   1.32404
 Alpha virt. eigenvalues --    1.34334   1.40543   1.43350   1.44276   1.45198
 Alpha virt. eigenvalues --    1.45433   1.47051   1.48697   1.49275   1.49742
 Alpha virt. eigenvalues --    1.51649   1.52128   1.57380   1.61662   1.63443
 Alpha virt. eigenvalues --    1.68145   1.69932   1.73108   1.73869   1.74779
 Alpha virt. eigenvalues --    1.75954   1.77576   1.78159   1.79112   1.79686
 Alpha virt. eigenvalues --    1.80274   1.81147   1.81947   1.82333   1.83618
 Alpha virt. eigenvalues --    1.84777   1.86535   1.86777   1.87709   1.88601
 Alpha virt. eigenvalues --    1.89742   1.90015   1.91378   1.92377   1.94285
 Alpha virt. eigenvalues --    1.96320   1.97911   1.99027   1.99455   2.03374
 Alpha virt. eigenvalues --    2.04065   2.04326   2.05276   2.06108   2.08739
 Alpha virt. eigenvalues --    2.10911   2.13371   2.14164   2.14420   2.14985
 Alpha virt. eigenvalues --    2.15326   2.16183   2.17932   2.19289   2.20288
 Alpha virt. eigenvalues --    2.20810   2.22640   2.23925   2.25789   2.27579
 Alpha virt. eigenvalues --    2.28763   2.29096   2.29451   2.31307   2.33926
 Alpha virt. eigenvalues --    2.36523   2.36857   2.39250   2.41698   2.43607
 Alpha virt. eigenvalues --    2.47039   2.48625   2.58454   2.58635   2.62587
 Alpha virt. eigenvalues --    2.65978   2.69244   2.71558   2.72540   2.73548
 Alpha virt. eigenvalues --    2.74140   2.75120   2.76699   2.77824   2.80230
 Alpha virt. eigenvalues --    2.81440   2.81959   2.89488   2.93177   3.05540
 Alpha virt. eigenvalues --    3.40693   3.80332   3.83288   3.89453   3.93839
 Alpha virt. eigenvalues --    3.97746   4.00500   4.09865   4.12108   4.13690
 Alpha virt. eigenvalues --    4.17738   4.21175   4.24226   4.25240   4.34180
 Alpha virt. eigenvalues --    4.36365   4.42750   4.55956   4.70524   4.76939
          Condensed to atoms (all electrons):
               1          2          3          4          5          6
     1  C    5.612932   0.164257  -0.071979   0.006249  -0.000391   0.000033
     2  S    0.164257  13.781909   0.290919  -0.013843  -0.015667   0.003460
     3  N   -0.071979   0.290919   7.439497   0.335441  -0.047548   0.000251
     4  C    0.006249  -0.013843   0.335441   4.782276   0.310962  -0.089239
     5  C   -0.000391  -0.015667  -0.047548   0.310962   5.807854   0.146582
     6  S    0.000033   0.003460   0.000251  -0.089239   0.146582  13.909006
     7  C   -0.000419  -0.016671  -0.045276   0.318655  -0.198595   0.137400
     8  O   -0.000000   0.000172  -0.000109   0.001830  -0.045159   0.418777
     9  O   -0.000000  -0.000010  -0.000038   0.000735  -0.046340   0.402511
    10  C   -0.000202  -0.000811  -0.080141   0.360990  -0.061526   0.007885
    11  C   -0.000013   0.000114  -0.006233  -0.032661  -0.005835  -0.000123
    12  C    0.000003  -0.000135  -0.002644  -0.003532   0.001359   0.000018
    13  C   -0.000028   0.000148   0.000532   0.001658   0.000122   0.000159
    14  C   -0.000000   0.000013   0.000050  -0.000016   0.000302   0.000012
    15  C    0.000000   0.000000   0.000001   0.000007   0.000010  -0.000001
    16  C   -0.000000  -0.000000  -0.000001   0.000003  -0.000330  -0.000016
    17  C    0.000000   0.000000  -0.000017  -0.000751  -0.002136  -0.000064
    18  O   -0.061737   0.380776  -0.060794  -0.005906  -0.000735  -0.000017
    19  O   -0.061259   0.386442  -0.061489  -0.004829  -0.007124   0.000872
    20  H    0.339124  -0.000771   0.000663  -0.000140   0.000008  -0.000000
    21  H    0.347460  -0.011326   0.003276  -0.000103   0.000006  -0.000000
    22  H    0.339769  -0.002264   0.000556  -0.000125  -0.000004   0.000001
    23  H    0.000004   0.000367   0.001574  -0.022231   0.335174  -0.011642
    24  H    0.000125   0.001900  -0.009040  -0.021847   0.317890  -0.001716
    25  H    0.000004   0.000371   0.001635  -0.024089   0.009763  -0.011007
    26  H    0.000172   0.002331  -0.009227  -0.022113   0.002984  -0.001299
    27  H    0.000002   0.000021   0.004625  -0.033439  -0.003991   0.007222
    28  H   -0.000010   0.000286   0.001128  -0.032875   0.006608  -0.000327
    29  H   -0.000000   0.000012   0.000324   0.005089  -0.000084   0.000018
    30  H   -0.000005   0.000318   0.016455  -0.010335   0.000306  -0.000016
    31  H   -0.000083   0.001114   0.004092  -0.000131  -0.000078   0.000005
    32  H    0.000000  -0.000001  -0.000001   0.000001  -0.000004   0.000000
    33  H    0.000000  -0.000000   0.000000  -0.000000  -0.000000  -0.000000
    34  H   -0.000000   0.000000  -0.000000   0.000000  -0.000002   0.000000
    35  H    0.000000   0.000000   0.000001   0.000090  -0.000031  -0.000002
               7          8          9         10         11         12
     1  C   -0.000419  -0.000000  -0.000000  -0.000202  -0.000013   0.000003
     2  S   -0.016671   0.000172  -0.000010  -0.000811   0.000114  -0.000135
     3  N   -0.045276  -0.000109  -0.000038  -0.080141  -0.006233  -0.002644
     4  C    0.318655   0.001830   0.000735   0.360990  -0.032661  -0.003532
     5  C   -0.198595  -0.045159  -0.046340  -0.061526  -0.005835   0.001359
     6  S    0.137400   0.418777   0.402511   0.007885  -0.000123   0.000018
     7  C    5.814318  -0.045220  -0.046097  -0.064933   0.004893  -0.000099
     8  O   -0.045220   8.296221  -0.046356  -0.000084   0.000000  -0.000000
     9  O   -0.046097  -0.046356   8.326960  -0.002041   0.000052  -0.000015
    10  C   -0.064933  -0.000084  -0.002041   5.185858   0.344167  -0.035024
    11  C    0.004893   0.000000   0.000052   0.344167   5.149620   0.362110
    12  C   -0.000099  -0.000000  -0.000015  -0.035024   0.362110   4.669736
    13  C    0.000023  -0.000000  -0.000000  -0.003104  -0.051561   0.542800
    14  C    0.000000  -0.000000  -0.000000  -0.000149   0.006800  -0.023597
    15  C    0.000000   0.000000   0.000000   0.000009   0.000293  -0.034833
    16  C   -0.000000   0.000000  -0.000000   0.000041   0.006131  -0.019951
    17  C   -0.000016  -0.000000   0.000009  -0.002759  -0.063108   0.531185
    18  O   -0.006489  -0.000012  -0.000000  -0.000158   0.000002  -0.000000
    19  O   -0.001136  -0.000040  -0.000000  -0.000047  -0.000017   0.000007
    20  H    0.000001   0.000000   0.000000   0.000001  -0.000003   0.000000
    21  H    0.000007   0.000000   0.000000   0.000000  -0.000000  -0.000000
    22  H    0.000008   0.000000   0.000000  -0.000001  -0.000003   0.000001
    23  H    0.009379   0.000707   0.000014  -0.006796  -0.000651   0.004004
    24  H    0.002562   0.000030   0.001127   0.003149  -0.000046  -0.000044
    25  H    0.338374   0.000773  -0.000438  -0.006119   0.000148   0.000011
    26  H    0.317190   0.000045   0.001085   0.002805  -0.000087   0.000001
    27  H   -0.002993   0.000021   0.005126   0.351838  -0.034911  -0.005804
    28  H   -0.009175   0.000001   0.000045   0.353337  -0.032002   0.004731
    29  H   -0.000090  -0.000000  -0.000000  -0.034790   0.358340  -0.031881
    30  H    0.000235   0.000000  -0.000000  -0.037770   0.356047  -0.030477
    31  H    0.000023   0.000000  -0.000000  -0.000233  -0.010169  -0.043586
    32  H   -0.000000  -0.000000  -0.000000   0.000002  -0.000163   0.003704
    33  H    0.000000   0.000000   0.000000   0.000000   0.000006   0.000605
    34  H   -0.000000  -0.000000  -0.000000   0.000001  -0.000167   0.003546
    35  H    0.000001   0.000000  -0.000002   0.000611  -0.008461  -0.045663
              13         14         15         16         17         18
     1  C   -0.000028  -0.000000   0.000000  -0.000000   0.000000  -0.061737
     2  S    0.000148   0.000013   0.000000  -0.000000   0.000000   0.380776
     3  N    0.000532   0.000050   0.000001  -0.000001  -0.000017  -0.060794
     4  C    0.001658  -0.000016   0.000007   0.000003  -0.000751  -0.005906
     5  C    0.000122   0.000302   0.000010  -0.000330  -0.002136  -0.000735
     6  S    0.000159   0.000012  -0.000001  -0.000016  -0.000064  -0.000017
     7  C    0.000023   0.000000   0.000000  -0.000000  -0.000016  -0.006489
     8  O   -0.000000  -0.000000   0.000000   0.000000  -0.000000  -0.000012
     9  O   -0.000000  -0.000000   0.000000  -0.000000   0.000009  -0.000000
    10  C   -0.003104  -0.000149   0.000009   0.000041  -0.002759  -0.000158
    11  C   -0.051561   0.006800   0.000293   0.006131  -0.063108   0.000002
    12  C    0.542800  -0.023597  -0.034833  -0.019951   0.531185  -0.000000
    13  C    5.006174   0.509586  -0.037529  -0.046316  -0.045422   0.000000
    14  C    0.509586   4.908582   0.545092  -0.029534  -0.046434   0.000000
    15  C   -0.037529   0.545092   4.889100   0.541827  -0.037692   0.000000
    16  C   -0.046316  -0.029534   0.541827   4.899402   0.518069  -0.000000
    17  C   -0.045422  -0.046434  -0.037692   0.518069   5.009021  -0.000000
    18  O    0.000000   0.000000   0.000000  -0.000000  -0.000000   8.441043
    19  O   -0.000015  -0.000002  -0.000000  -0.000000   0.000000  -0.063308
    20  H    0.000000  -0.000000  -0.000000   0.000000   0.000000  -0.000847
    21  H   -0.000000   0.000000   0.000000  -0.000000  -0.000000   0.000204
    22  H   -0.000031  -0.000000   0.000000  -0.000000   0.000000   0.002000
    23  H   -0.000596  -0.000285   0.000217   0.001194   0.004912  -0.000002
    24  H    0.000093  -0.000031  -0.000008   0.000001   0.000031  -0.000177
    25  H   -0.000000   0.000000  -0.000000   0.000000   0.000000   0.000133
    26  H    0.000000   0.000000  -0.000000  -0.000000   0.000000   0.026364
    27  H    0.000086   0.000005  -0.000001  -0.000118   0.003538   0.000001
    28  H   -0.000083   0.000002  -0.000000   0.000003   0.000020  -0.000010
    29  H    0.003573  -0.000223   0.000020   0.000072  -0.006746   0.000000
    30  H   -0.005800   0.000217   0.000008  -0.000200   0.004796   0.000002
    31  H    0.354793  -0.044893   0.004772   0.000233   0.006251   0.000001
    32  H   -0.038377   0.360258  -0.042663   0.004522   0.000710  -0.000000
    33  H    0.004543  -0.042348   0.362917  -0.042171   0.004580   0.000000
    34  H    0.000698   0.004548  -0.042340   0.360889  -0.039268  -0.000000
    35  H    0.006102   0.000263   0.004742  -0.045087   0.359639   0.000000
              19         20         21         22         23         24
     1  C   -0.061259   0.339124   0.347460   0.339769   0.000004   0.000125
     2  S    0.386442  -0.000771  -0.011326  -0.002264   0.000367   0.001900
     3  N   -0.061489   0.000663   0.003276   0.000556   0.001574  -0.009040
     4  C   -0.004829  -0.000140  -0.000103  -0.000125  -0.022231  -0.021847
     5  C   -0.007124   0.000008   0.000006  -0.000004   0.335174   0.317890
     6  S    0.000872  -0.000000  -0.000000   0.000001  -0.011642  -0.001716
     7  C   -0.001136   0.000001   0.000007   0.000008   0.009379   0.002562
     8  O   -0.000040   0.000000   0.000000   0.000000   0.000707   0.000030
     9  O   -0.000000   0.000000   0.000000   0.000000   0.000014   0.001127
    10  C   -0.000047   0.000001   0.000000  -0.000001  -0.006796   0.003149
    11  C   -0.000017  -0.000003  -0.000000  -0.000003  -0.000651  -0.000046
    12  C    0.000007   0.000000  -0.000000   0.000001   0.004004  -0.000044
    13  C   -0.000015   0.000000  -0.000000  -0.000031  -0.000596   0.000093
    14  C   -0.000002  -0.000000   0.000000  -0.000000  -0.000285  -0.000031
    15  C   -0.000000  -0.000000   0.000000   0.000000   0.000217  -0.000008
    16  C   -0.000000   0.000000  -0.000000  -0.000000   0.001194   0.000001
    17  C    0.000000   0.000000  -0.000000   0.000000   0.004912   0.000031
    18  O   -0.063308  -0.000847   0.000204   0.002000  -0.000002  -0.000177
    19  O    8.434101   0.001975  -0.000068  -0.000839   0.000146   0.025409
    20  H    0.001975   0.506859  -0.021437  -0.024170  -0.000000  -0.000009
    21  H   -0.000068  -0.021437   0.506186  -0.021212  -0.000000   0.000004
    22  H   -0.000839  -0.024170  -0.021212   0.506472   0.000001   0.000009
    23  H    0.000146  -0.000000  -0.000000   0.000001   0.484424  -0.015521
    24  H    0.025409  -0.000009   0.000004   0.000009  -0.015521   0.471291
    25  H   -0.000003   0.000001  -0.000000  -0.000000  -0.000299  -0.000245
    26  H   -0.000422   0.000008   0.000005  -0.000010  -0.000228  -0.000340
    27  H    0.000002   0.000000  -0.000000   0.000000   0.000283   0.000216
    28  H    0.000003   0.000003   0.000000  -0.000000   0.000168  -0.000111
    29  H   -0.000000  -0.000000   0.000000  -0.000000  -0.000034   0.000002
    30  H    0.000011   0.000018   0.000002   0.000068   0.000081   0.000013
    31  H   -0.000041  -0.000004   0.000002   0.000375   0.000061   0.000017
    32  H    0.000000   0.000000  -0.000000  -0.000000   0.000003   0.000002
    33  H    0.000000  -0.000000  -0.000000  -0.000000  -0.000000  -0.000000
    34  H   -0.000000   0.000000  -0.000000   0.000000   0.000006   0.000000
    35  H    0.000000  -0.000000   0.000000  -0.000000   0.000071   0.000000
              25         26         27         28         29         30
     1  C    0.000004   0.000172   0.000002  -0.000010  -0.000000  -0.000005
     2  S    0.000371   0.002331   0.000021   0.000286   0.000012   0.000318
     3  N    0.001635  -0.009227   0.004625   0.001128   0.000324   0.016455
     4  C   -0.024089  -0.022113  -0.033439  -0.032875   0.005089  -0.010335
     5  C    0.009763   0.002984  -0.003991   0.006608  -0.000084   0.000306
     6  S   -0.011007  -0.001299   0.007222  -0.000327   0.000018  -0.000016
     7  C    0.338374   0.317190  -0.002993  -0.009175  -0.000090   0.000235
     8  O    0.000773   0.000045   0.000021   0.000001  -0.000000   0.000000
     9  O   -0.000438   0.001085   0.005126   0.000045  -0.000000  -0.000000
    10  C   -0.006119   0.002805   0.351838   0.353337  -0.034790  -0.037770
    11  C    0.000148  -0.000087  -0.034911  -0.032002   0.358340   0.356047
    12  C    0.000011   0.000001  -0.005804   0.004731  -0.031881  -0.030477
    13  C   -0.000000   0.000000   0.000086  -0.000083   0.003573  -0.005800
    14  C    0.000000   0.000000   0.000005   0.000002  -0.000223   0.000217
    15  C   -0.000000  -0.000000  -0.000001  -0.000000   0.000020   0.000008
    16  C    0.000000  -0.000000  -0.000118   0.000003   0.000072  -0.000200
    17  C    0.000000   0.000000   0.003538   0.000020  -0.006746   0.004796
    18  O    0.000133   0.026364   0.000001  -0.000010   0.000000   0.000002
    19  O   -0.000003  -0.000422   0.000002   0.000003  -0.000000   0.000011
    20  H    0.000001   0.000008   0.000000   0.000003  -0.000000   0.000018
    21  H   -0.000000   0.000005  -0.000000   0.000000   0.000000   0.000002
    22  H   -0.000000  -0.000010   0.000000  -0.000000  -0.000000   0.000068
    23  H   -0.000299  -0.000228   0.000283   0.000168  -0.000034   0.000081
    24  H   -0.000245  -0.000340   0.000216  -0.000111   0.000002   0.000013
    25  H    0.491454  -0.016195   0.000276   0.004428  -0.000021   0.000003
    26  H   -0.016195   0.469874   0.000121   0.000082   0.000002   0.000003
    27  H    0.000276   0.000121   0.586681  -0.031293  -0.002766   0.005474
    28  H    0.004428   0.000082  -0.031293   0.594821  -0.004747  -0.002164
    29  H   -0.000021   0.000002  -0.002766  -0.004747   0.593505  -0.034440
    30  H    0.000003   0.000003   0.005474  -0.002164  -0.034440   0.577101
    31  H   -0.000000   0.000000   0.000016  -0.000025   0.000111   0.006438
    32  H   -0.000000  -0.000000   0.000000  -0.000000   0.000003  -0.000008
    33  H    0.000000   0.000000  -0.000000   0.000000  -0.000000  -0.000000
    34  H   -0.000000  -0.000000   0.000003  -0.000000  -0.000004   0.000003
    35  H   -0.000000  -0.000000   0.001534  -0.000096   0.003529   0.000065
              31         32         33         34         35
     1  C   -0.000083   0.000000   0.000000  -0.000000   0.000000
     2  S    0.001114  -0.000001  -0.000000   0.000000   0.000000
     3  N    0.004092  -0.000001   0.000000  -0.000000   0.000001
     4  C   -0.000131   0.000001  -0.000000   0.000000   0.000090
     5  C   -0.000078  -0.000004  -0.000000  -0.000002  -0.000031
     6  S    0.000005   0.000000  -0.000000   0.000000  -0.000002
     7  C    0.000023  -0.000000   0.000000  -0.000000   0.000001
     8  O    0.000000  -0.000000   0.000000  -0.000000   0.000000
     9  O   -0.000000  -0.000000   0.000000  -0.000000  -0.000002
    10  C   -0.000233   0.000002   0.000000   0.000001   0.000611
    11  C   -0.010169  -0.000163   0.000006  -0.000167  -0.008461
    12  C   -0.043586   0.003704   0.000605   0.003546  -0.045663
    13  C    0.354793  -0.038377   0.004543   0.000698   0.006102
    14  C   -0.044893   0.360258  -0.042348   0.004548   0.000263
    15  C    0.004772  -0.042663   0.362917  -0.042340   0.004742
    16  C    0.000233   0.004522  -0.042171   0.360889  -0.045087
    17  C    0.006251   0.000710   0.004580  -0.039268   0.359639
    18  O    0.000001  -0.000000   0.000000  -0.000000   0.000000
    19  O   -0.000041   0.000000   0.000000  -0.000000   0.000000
    20  H   -0.000004   0.000000  -0.000000   0.000000  -0.000000
    21  H    0.000002  -0.000000  -0.000000  -0.000000   0.000000
    22  H    0.000375  -0.000000  -0.000000   0.000000  -0.000000
    23  H    0.000061   0.000003  -0.000000   0.000006   0.000071
    24  H    0.000017   0.000002  -0.000000   0.000000   0.000000
    25  H   -0.000000  -0.000000   0.000000  -0.000000  -0.000000
    26  H    0.000000  -0.000000   0.000000  -0.000000  -0.000000
    27  H    0.000016   0.000000  -0.000000   0.000003   0.001534
    28  H   -0.000025  -0.000000   0.000000  -0.000000  -0.000096
    29  H    0.000111   0.000003  -0.000000  -0.000004   0.003529
    30  H    0.006438  -0.000008  -0.000000   0.000003   0.000065
    31  H    0.584231  -0.005300  -0.000163   0.000016  -0.000162
    32  H   -0.005300   0.575845  -0.005278  -0.000174   0.000016
    33  H   -0.000163  -0.005278   0.576484  -0.005196  -0.000167
    34  H    0.000016  -0.000174  -0.005196   0.575524  -0.005301
    35  H   -0.000162   0.000016  -0.000167  -0.005301   0.585258
 Mulliken charges:
               1
     1  C   -0.614007
     2  S    1.046567
     3  N   -0.706481
     4  C    0.194219
     5  C   -0.504348
     6  S    1.081258
     7  C   -0.505860
     8  O   -0.581599
     9  O   -0.596327
    10  C   -0.274005
    11  C   -0.342510
    12  C    0.153466
    13  C   -0.202228
    14  C   -0.148217
    15  C   -0.153949
    16  C   -0.148661
    17  C   -0.198349
    18  O   -0.650335
    19  O   -0.648329
    20  H    0.198720
    21  H    0.196995
[...]
 Deg. of freedom    99
 Full point group                 C1      NOp   1
 RotChk:  IX=0 Diff= 8.66D-16
 Largest Abelian subgroup         C1      NOp   1
 Largest concise Abelian subgroup C1      NOp   1
                         Standard orientation:                         
 ---------------------------------------------------------------------
 Center     Atomic      Atomic             Coordinates (Angstroms)
 Number     Number       Type             X           Y           Z
 ---------------------------------------------------------------------
      1          6           0        2.519416   -3.191836    0.186966
      2         16           0        2.338777   -1.445729   -0.216434
      3          7           0        1.148257   -1.044456    0.757812
      4          6           0        0.605315    0.297423    0.761332
      5          6           0        0.029197    0.842130   -0.620827
      6         16           0        0.876660    2.427033   -0.368403
      7          6           0        1.645518    1.482275    0.976685
      8          8           0        1.806845    2.811351   -1.456984
      9          8           0       -0.044702    3.472767    0.144457
     10          6           0       -0.451462    0.375556    1.889525
     11          6           0       -1.532097   -0.726756    1.914361
     12          6           0       -2.525704   -0.717673    0.769239
     13          6           0       -2.453320   -1.664969   -0.262533
     14          6           0       -3.370295   -1.653521   -1.317313
     15          6           0       -4.380744   -0.690070   -1.358299
     16          6           0       -4.468645    0.258048   -0.334219
     17          6           0       -3.551393    0.240240    0.718423
     18          8           0        3.668111   -0.808205    0.089890
     19          8           0        2.026084   -1.381177   -1.687521
     20          1           0        2.759132   -3.295322    1.246350
     21          1           0        3.336391   -3.581717   -0.424279
     22          1           0        1.591027   -3.715527   -0.046088
     23          1           0       -1.051552    0.947746   -0.706171
     24          1           0        0.449896    0.323388   -1.482685
     25          1           0        1.613129    1.997357    1.939166
     26          1           0        2.666176    1.205515    0.710734
     27          1           0       -0.927190    1.364329    1.860274
     28          1           0        0.093423    0.318111    2.840410
     29          1           0       -2.081554   -0.609505    2.857577
     30          1           0       -1.033371   -1.699307    1.958571
     31          1           0       -1.666015   -2.414576   -0.240534
     32          1           0       -3.294925   -2.398204   -2.105495
     33          1           0       -5.095582   -0.679699   -2.176597
     34          1           0       -5.255495    1.007733   -0.352131
     35          1           0       -3.633721    0.977038    1.514837
 ---------------------------------------------------------------------
 Rotational constants (GHZ):           0.4056013           0.2492913           0.1899583
 Leave Link  202 at Tue Sep 22 02:08:29 2020, MaxMem=   262144000 cpu:               0.0 elap:               0.0
 (Enter /prod/apps/gaussian/g16b1/l301.exe)
 Standard basis: Aug-CC-pVDZ (5D, 7F)
 Ernie: Thresh=  0.10000D-02 Tol=  0.10000D-05 Strict=F.
 Ernie:  54 primitive shells out of 643 were deleted.
 There are   627 symmetry adapted cartesian basis functions of A   symmetry.
 There are   589 symmetry adapted basis functions of A   symmetry.
   589 basis functions,  1069 primitive gaussians,   627 cartesian basis functions
    80 alpha electrons       80 beta electrons
       nuclear repulsion energy      1862.5825726129 Hartrees.
 IExCor=    0 DFT=F Ex=HF Corr=None ExCW=0 ScaHFX=  1.000000
 ScaDFX=  1.000000  1.000000  1.000000  1.000000 ScalE2=  1.000000  1.000000
 IRadAn=      5 IRanWt=     -1 IRanGd=            0 ICorTp=0 IEmpDi=  4
 NAtoms=   35 NActive=   35 NUniq=   35 SFac= 1.00D+00 NAtFMM=   60 NAOKFM=F Big=F
 Integral buffers will be    131072 words long.
 Raffenetti 1 integral format.
 Two-electron integral symmetry is turned on.
 Leave Link  301 at Tue Sep 22 02:08:29 2020, MaxMem=   262144000 cpu:               0.3 elap:               0.1
 (Enter /prod/apps/gaussian/g16b1/l302.exe)
 NPDir=0 NMtPBC=     1 NCelOv=     1 NCel=       1 NClECP=     1 NCelD=      1
         NCelK=      1 NCelE2=     1 NClLst=     1 CellRange=     0.0.
 One-electron integrals computed using PRISM.
 One-electron integral symmetry used in STVInt
 NBasis=   589 RedAO= T EigKep=  1.86D-06  NBF=   589
 NBsUse=   589 1.00D-06 EigRej= -1.00D+00 NBFU=   589
 Leave Link  302 at Tue Sep 22 02:08:30 2020, MaxMem=   262144000 cpu:               2.1 elap:               0.5
 (Enter /prod/apps/gaussian/g16b1/l303.exe)
 DipDrv:  MaxL=1.
 Leave Link  303 at Tue Sep 22 02:08:30 2020, MaxMem=   262144000 cpu:               0.5 elap:               0.1
 (Enter /prod/apps/gaussian/g16b1/l401.exe)
 ExpMin= 2.97D-02 ExpMax= 1.11D+05 ExpMxC= 1.07D+03 IAcc=3 IRadAn=         5 AccDes= 0.00D+00
 Harris functional with IExCor=  205 and IRadAn=       5 diagonalized for initial guess.
 HarFok:  IExCor=  205 AccDes= 0.00D+00 IRadAn=         5 IDoV= 1 UseB2=F ITyADJ=14
 ICtDFT=  3500011 ScaDFX=  1.000000  1.000000  1.000000  1.000000
 FoFCou: FMM=F IPFlag=           0 FMFlag=      100000 FMFlg1=           0
         NFxFlg=           0 DoJE=T BraDBF=F KetDBF=T FulRan=T
         wScrn=  0.000000 ICntrl=       500 IOpCl=  0 I1Cent=   200000004 NGrid=           0
         NMat0=    1 NMatS0=      1 NMatT0=    0 NMatD0=    1 NMtDS0=    0 NMtDT0=    0
 Petite list used in FoFCou.
 Harris En= -1613.18825094306    
 JPrj=0 DoOrth=F DoCkMO=F.
 Leave Link  401 at Tue Sep 22 02:08:34 2020, MaxMem=   262144000 cpu:              16.5 elap:               4.1
 (Enter /prod/apps/gaussian/g16b1/l502.exe)
 Integral symmetry usage will be decided dynamically.
 Closed shell SCF:
 Using DIIS extrapolation, IDIIS=  1040.
 NGot=   262144000 LenX=   261348123 LenY=   260954367
 Requested convergence on RMS density matrix=1.00D-08 within2000 cycles.
 Requested convergence on MAX density matrix=1.00D-06.
 Requested convergence on             energy=1.00D-06.
 No special actions if energy rises.

 Cycle   1  Pass 1  IDiag  1:
 FoFJK:  IHMeth= 1 ICntrl=       0 DoSepK=F KAlg= 0 I1Cent=           0 FoldK=F
 IRaf= 940000000 NMat=       1 IRICut=       1 DoRegI=T DoRafI=F ISym2E= 0 IDoP0=0 IntGTp=1.
 FoFCou: FMM=F IPFlag=           0 FMFlag=      100000 FMFlg1=           0
         NFxFlg=           0 DoJE=F BraDBF=F KetDBF=F FulRan=T
         wScrn=  0.000000 ICntrl=         0 IOpCl=  0 I1Cent=           0 NGrid=           0
         NMat0=    1 NMatS0=      1 NMatT0=    0 NMatD0=    1 NMtDS0=    0 NMtDT0=    0
 Symmetry not used in FoFCou.
 E= -1611.69731775540    
 DIIS: error= 1.99D-02 at cycle   1 NSaved=   1.
 NSaved= 1 IEnMin= 1 EnMin= -1611.69731775540     IErMin= 1 ErrMin= 1.99D-02
 ErrMax= 1.99D-02  0.00D+00 EMaxC= 1.00D-01 BMatC= 1.35D+00 BMatP= 1.35D+00
 IDIUse=3 WtCom= 8.01D-01 WtEn= 1.99D-01
 Coeff-Com:  0.100D+01
 Coeff-En:   0.100D+01
 Coeff:      0.100D+01
 Gap=     0.447 Goal=   None    Shift=    0.000
 GapD=    0.447 DampG=2.000 DampE=0.500 DampFc=1.0000 IDamp=-1.
 RMSDP=4.26D-02 MaxDP=3.45D+00              OVMax= 1.53D-01

 Cycle   2  Pass 1  IDiag  1:
 E= -1612.39678217083     Delta-E=       -0.699464415422 Rises=F Damp=F
 DIIS: error= 1.01D-02 at cycle   2 NSaved=   2.
 NSaved= 2 IEnMin= 2 EnMin= -1612.39678217083     IErMin= 2 ErrMin= 1.01D-02
 ErrMax= 1.01D-02  0.00D+00 EMaxC= 1.00D-01 BMatC= 3.12D-01 BMatP= 1.35D+00
 IDIUse=3 WtCom= 8.99D-01 WtEn= 1.01D-01
 Coeff-Com:  0.294D+00 0.706D+00
 Coeff-En:   0.000D+00 0.100D+01
 Coeff:      0.264D+00 0.736D+00
 Gap=     0.313 Goal=   None    Shift=    0.000
 RMSDP=7.62D-03 MaxDP=1.81D+00 DE=-6.99D-01 OVMax= 5.98D-02

 Cycle   3  Pass 1  IDiag  1:
 E= -1612.63171308340     Delta-E=       -0.234930912578 Rises=F Damp=F
 DIIS: error= 2.79D-03 at cycle   3 NSaved=   3.
 NSaved= 3 IEnMin= 3 EnMin= -1612.63171308340     IErMin= 3 ErrMin= 2.79D-03
 ErrMax= 2.79D-03  0.00D+00 EMaxC= 1.00D-01 BMatC= 2.24D-02 BMatP= 3.12D-01
 IDIUse=3 WtCom= 9.72D-01 WtEn= 2.79D-02
 Coeff-Com: -0.678D-02 0.185D+00 0.822D+00
 Coeff-En:   0.000D+00 0.000D+00 0.100D+01
 Coeff:     -0.659D-02 0.180D+00 0.827D+00
 Gap=     0.308 Goal=   None    Shift=    0.000
 RMSDP=1.78D-03 MaxDP=5.31D-01 DE=-2.35D-01 OVMax= 1.65D-02

 Cycle   4  Pass 1  IDiag  1:
 E= -1612.64849343219     Delta-E=       -0.016780348783 Rises=F Damp=F
 DIIS: error= 5.33D-04 at cycle   4 NSaved=   4.
 NSaved= 4 IEnMin= 4 EnMin= -1612.64849343219     IErMin= 4 ErrMin= 5.33D-04
 ErrMax= 5.33D-04  0.00D+00 EMaxC= 1.00D-01 BMatC= 1.01D-03 BMatP= 2.24D-02
 IDIUse=3 WtCom= 9.95D-01 WtEn= 5.33D-03
 Coeff-Com: -0.139D-01 0.154D-01 0.215D+00 0.783D+00
 Coeff-En:   0.000D+00 0.000D+00 0.000D+00 0.100D+01
 Coeff:     -0.139D-01 0.153D-01 0.214D+00 0.784D+00
 Gap=     0.303 Goal=   None    Shift=    0.000
 RMSDP=3.98D-04 MaxDP=3.25D-02 DE=-1.68D-02 OVMax= 6.86D-03

 Cycle   5  Pass 1  IDiag  1:
 E= -1612.64963012642     Delta-E=       -0.001136694236 Rises=F Damp=F
 DIIS: error= 1.98D-04 at cycle   5 NSaved=   5.
 NSaved= 5 IEnMin= 5 EnMin= -1612.64963012642     IErMin= 5 ErrMin= 1.98D-04
 ErrMax= 1.98D-04  0.00D+00 EMaxC= 1.00D-01 BMatC= 6.82D-05 BMatP= 1.01D-03
 IDIUse=3 WtCom= 9.98D-01 WtEn= 1.98D-03
 Coeff-Com:  0.145D-03-0.114D-01-0.578D-01 0.442D-01 0.102D+01
 Coeff-En:   0.000D+00 0.000D+00 0.000D+00 0.000D+00 0.100D+01
 Coeff:      0.145D-03-0.114D-01-0.577D-01 0.441D-01 0.102D+01
 Gap=     0.305 Goal=   None    Shift=    0.000
 RMSDP=1.25D-04 MaxDP=1.01D-02 DE=-1.14D-03 OVMax= 2.15D-03

 Cycle   6  Pass 1  IDiag  1:
 E= -1612.64974145367     Delta-E=       -0.000111327246 Rises=F Damp=F
 DIIS: error= 5.05D-05 at cycle   6 NSaved=   6.
 NSaved= 6 IEnMin= 6 EnMin= -1612.64974145367     IErMin= 6 ErrMin= 5.05D-05
 ErrMax= 5.05D-05  0.00D+00 EMaxC= 1.00D-01 BMatC= 9.79D-06 BMatP= 6.82D-05
 IDIUse=1 WtCom= 1.00D+00 WtEn= 0.00D+00
 Coeff-Com:  0.152D-02-0.520D-02-0.411D-01-0.658D-01 0.269D+00 0.842D+00
 Coeff:      0.152D-02-0.520D-02-0.411D-01-0.658D-01 0.269D+00 0.842D+00
 Gap=     0.305 Goal=   None    Shift=    0.000
 RMSDP=4.17D-05 MaxDP=8.59D-03 DE=-1.11D-04 OVMax= 9.70D-04

 Cycle   7  Pass 1  IDiag  1:
 E= -1612.64975708179     Delta-E=       -0.000015628120 Rises=F Damp=F
 DIIS: error= 1.82D-05 at cycle   7 NSaved=   7.
 NSaved= 7 IEnMin= 7 EnMin= -1612.64975708179     IErMin= 7 ErrMin= 1.82D-05
 ErrMax= 1.82D-05  0.00D+00 EMaxC= 1.00D-01 BMatC= 8.22D-07 BMatP= 9.79D-06
 IDIUse=1 WtCom= 1.00D+00 WtEn= 0.00D+00
 Coeff-Com:  0.213D-03 0.400D-03 0.564D-04-0.122D-01-0.706D-01 0.102D+00
 Coeff-Com:  0.980D+00
 Coeff:      0.213D-03 0.400D-03 0.564D-04-0.122D-01-0.706D-01 0.102D+00
 Coeff:      0.980D+00
 Gap=     0.305 Goal=   None    Shift=    0.000
 RMSDP=1.42D-05 MaxDP=1.76D-03 DE=-1.56D-05 OVMax= 3.58D-04

 Cycle   8  Pass 1  IDiag  1:
 E= -1612.64975893793     Delta-E=       -0.000001856140 Rises=F Damp=F
 DIIS: error= 6.78D-06 at cycle   8 NSaved=   8.
 NSaved= 8 IEnMin= 8 EnMin= -1612.64975893793     IErMin= 8 ErrMin= 6.78D-06
 ErrMax= 6.78D-06  0.00D+00 EMaxC= 1.00D-01 BMatC= 1.09D-07 BMatP= 8.22D-07
 IDIUse=1 WtCom= 1.00D+00 WtEn= 0.00D+00
 Coeff-Com: -0.166D-03 0.690D-03 0.524D-02 0.755D-02-0.382D-01-0.102D+00
 Coeff-Com:  0.447D-01 0.108D+01
 Coeff:     -0.166D-03 0.690D-03 0.524D-02 0.755D-02-0.382D-01-0.102D+00
 Coeff:      0.447D-01 0.108D+01
 Gap=     0.305 Goal=   None    Shift=    0.000
 RMSDP=6.29D-06 MaxDP=4.76D-04 DE=-1.86D-06 OVMax= 1.42D-04

 Cycle   9  Pass 1  IDiag  1:
 E= -1612.64975922356     Delta-E=       -0.000000285630 Rises=F Damp=F
 DIIS: error= 2.59D-06 at cycle   9 NSaved=   9.
 NSaved= 9 IEnMin= 9 EnMin= -1612.64975922356     IErMin= 9 ErrMin= 2.59D-06
 ErrMax= 2.59D-06  0.00D+00 EMaxC= 1.00D-01 BMatC= 1.55D-08 BMatP= 1.09D-07
 IDIUse=1 WtCom= 1.00D+00 WtEn= 0.00D+00
 Coeff-Com: -0.600D-04 0.100D-03 0.105D-02 0.299D-02 0.186D-02-0.318D-01
 Coeff-Com: -0.123D+00 0.217D+00 0.932D+00
 Coeff:     -0.600D-04 0.100D-03 0.105D-02 0.299D-02 0.186D-02-0.318D-01
 Coeff:     -0.123D+00 0.217D+00 0.932D+00
 Gap=     0.305 Goal=   None    Shift=    0.000
 RMSDP=2.37D-06 MaxDP=2.78D-04 DE=-2.86D-07 OVMax= 5.55D-05

 Cycle  10  Pass 1  IDiag  1:
 E= -1612.64975925694     Delta-E=       -0.000000033378 Rises=F Damp=F
 DIIS: error= 7.44D-07 at cycle  10 NSaved=  10.
 NSaved=10 IEnMin=10 EnMin= -1612.64975925694     IErMin=10 ErrMin= 7.44D-07
 ErrMax= 7.44D-07  0.00D+00 EMaxC= 1.00D-01 BMatC= 1.73D-09 BMatP= 1.55D-08
 IDIUse=1 WtCom= 1.00D+00 WtEn= 0.00D+00
 Coeff-Com:  0.437D-05-0.453D-04-0.324D-03-0.292D-03 0.401D-02 0.584D-02
 Coeff-Com: -0.243D-01-0.746D-01 0.159D+00 0.930D+00
 Coeff:      0.437D-05-0.453D-04-0.324D-03-0.292D-03 0.401D-02 0.584D-02
 Coeff:     -0.243D-01-0.746D-01 0.159D+00 0.930D+00
 Gap=     0.305 Goal=   None    Shift=    0.000
 RMSDP=9.96D-07 MaxDP=1.02D-04 DE=-3.34D-08 OVMax= 2.83D-05

 Cycle  11  Pass 1  IDiag  1:
 E= -1612.64975926093     Delta-E=       -0.000000003996 Rises=F Damp=F
 DIIS: error= 4.99D-07 at cycle  11 NSaved=  11.
 NSaved=11 IEnMin=11 EnMin= -1612.64975926093     IErMin=11 ErrMin= 4.99D-07
 ErrMax= 4.99D-07  0.00D+00 EMaxC= 1.00D-01 BMatC= 3.19D-10 BMatP= 1.73D-09
 IDIUse=1 WtCom= 1.00D+00 WtEn= 0.00D+00
 Coeff-Com:  0.101D-04-0.214D-04-0.226D-03-0.573D-03 0.413D-03 0.634D-02
 Coeff-Com:  0.147D-01-0.500D-01-0.114D+00 0.180D+00 0.963D+00
 Coeff:      0.101D-04-0.214D-04-0.226D-03-0.573D-03 0.413D-03 0.634D-02
 Coeff:      0.147D-01-0.500D-01-0.114D+00 0.180D+00 0.963D+00
 Gap=     0.305 Goal=   None    Shift=    0.000
 RMSDP=3.51D-07 MaxDP=3.04D-05 DE=-4.00D-09 OVMax= 1.49D-05

 Cycle  12  Pass 1  IDiag  1:
 E= -1612.64975926193     Delta-E=       -0.000000000999 Rises=F Damp=F
 DIIS: error= 2.05D-07 at cycle  12 NSaved=  12.
 NSaved=12 IEnMin=12 EnMin= -1612.64975926193     IErMin=12 ErrMin= 2.05D-07
 ErrMax= 2.05D-07  0.00D+00 EMaxC= 1.00D-01 BMatC= 5.00D-11 BMatP= 3.19D-10
 IDIUse=1 WtCom= 1.00D+00 WtEn= 0.00D+00
 Coeff-Com: -0.108D-05 0.806D-05 0.581D-04 0.684D-04-0.579D-03-0.120D-02
 Coeff-Com:  0.255D-02 0.135D-01-0.175D-01-0.141D+00-0.564D-01 0.120D+01
 Coeff:     -0.108D-05 0.806D-05 0.581D-04 0.684D-04-0.579D-03-0.120D-02
 Coeff:      0.255D-02 0.135D-01-0.175D-01-0.141D+00-0.564D-01 0.120D+01
 Gap=     0.305 Goal=   None    Shift=    0.000
 RMSDP=1.74D-07 MaxDP=1.09D-05 DE=-9.99D-10 OVMax= 9.54D-06

 Cycle  13  Pass 1  IDiag  1:
 E= -1612.64975926217     Delta-E=       -0.000000000238 Rises=F Damp=F
 DIIS: error= 1.07D-07 at cycle  13 NSaved=  13.
 NSaved=13 IEnMin=13 EnMin= -1612.64975926217     IErMin=13 ErrMin= 1.07D-07
 ErrMax= 1.07D-07  0.00D+00 EMaxC= 1.00D-01 BMatC= 1.20D-11 BMatP= 5.00D-11
 IDIUse=1 WtCom= 1.00D+00 WtEn= 0.00D+00
 Coeff-Com: -0.220D-05 0.519D-05 0.535D-04 0.125D-03-0.149D-03-0.142D-02
 Coeff-Com: -0.270D-02 0.116D-01 0.218D-01-0.477D-01-0.214D+00 0.120D+00
 Coeff-Com:  0.111D+01
 Coeff:     -0.220D-05 0.519D-05 0.535D-04 0.125D-03-0.149D-03-0.142D-02
 Coeff:     -0.270D-02 0.116D-01 0.218D-01-0.477D-01-0.214D+00 0.120D+00
 Coeff:      0.111D+01
 Gap=     0.305 Goal=   None    Shift=    0.000
 RMSDP=9.96D-08 MaxDP=8.46D-06 DE=-2.38D-10 OVMax= 5.39D-06

 Cycle  14  Pass 1  IDiag  1:
 E= -1612.64975926221     Delta-E=       -0.000000000040 Rises=F Damp=F
 DIIS: error= 4.97D-08 at cycle  14 NSaved=  14.
 NSaved=14 IEnMin=14 EnMin= -1612.64975926221     IErMin=14 ErrMin= 4.97D-08
 ErrMax= 4.97D-08  0.00D+00 EMaxC= 1.00D-01 BMatC= 2.44D-12 BMatP= 1.20D-11
 IDIUse=1 WtCom= 1.00D+00 WtEn= 0.00D+00
 Coeff-Com:  0.107D-06-0.166D-05-0.935D-05-0.875D-05 0.116D-03 0.200D-03
 Coeff-Com: -0.698D-03-0.264D-02 0.574D-02 0.317D-01-0.912D-02-0.260D+00
 Coeff-Com:  0.100D+00 0.113D+01
 Coeff:      0.107D-06-0.166D-05-0.935D-05-0.875D-05 0.116D-03 0.200D-03
 Coeff:     -0.698D-03-0.264D-02 0.574D-02 0.317D-01-0.912D-02-0.260D+00
 Coeff:      0.100D+00 0.113D+01
 Gap=     0.305 Goal=   None    Shift=    0.000
 RMSDP=5.06D-08 MaxDP=3.36D-06 DE=-4.05D-11 OVMax= 2.54D-06

 Cycle  15  Pass 1  IDiag  1:
 E= -1612.64975926223     Delta-E=       -0.000000000017 Rises=F Damp=F
 DIIS: error= 1.35D-08 at cycle  15 NSaved=  15.
 NSaved=15 IEnMin=15 EnMin= -1612.64975926223     IErMin=15 ErrMin= 1.35D-08
 ErrMax= 1.35D-08  0.00D+00 EMaxC= 1.00D-01 BMatC= 3.73D-13 BMatP= 2.44D-12
 IDIUse=1 WtCom= 1.00D+00 WtEn= 0.00D+00
 Coeff-Com:  0.431D-06-0.129D-05-0.116D-04-0.249D-04 0.474D-04 0.305D-03
 Coeff-Com:  0.405D-03-0.270D-02-0.313D-02 0.144D-01 0.367D-01-0.586D-01
 Coeff-Com: -0.186D+00 0.148D+00 0.105D+01
 Coeff:      0.431D-06-0.129D-05-0.116D-04-0.249D-04 0.474D-04 0.305D-03
 Coeff:      0.405D-03-0.270D-02-0.313D-02 0.144D-01 0.367D-01-0.586D-01
 Coeff:     -0.186D+00 0.148D+00 0.105D+01
 Gap=     0.305 Goal=   None    Shift=    0.000
 RMSDP=1.91D-08 MaxDP=1.28D-06 DE=-1.73D-11 OVMax= 8.76D-07

 Cycle  16  Pass 1  IDiag  1:
 E= -1612.64975926228     Delta-E=       -0.000000000049 Rises=F Damp=F
 DIIS: error= 4.93D-09 at cycle  16 NSaved=  16.
 NSaved=16 IEnMin=16 EnMin= -1612.64975926228     IErMin=16 ErrMin= 4.93D-09
 ErrMax= 4.93D-09  0.00D+00 EMaxC= 1.00D-01 BMatC= 5.10D-14 BMatP= 3.73D-13
 IDIUse=1 WtCom= 1.00D+00 WtEn= 0.00D+00
 Coeff-Com:  0.267D-07 0.127D-06 0.185D-06-0.167D-05-0.151D-04 0.642D-05
 Coeff-Com:  0.175D-03 0.802D-04-0.138D-02-0.330D-02 0.588D-02 0.357D-01
 Coeff-Com: -0.401D-01-0.171D+00 0.159D+00 0.101D+01
 Coeff:      0.267D-07 0.127D-06 0.185D-06-0.167D-05-0.151D-04 0.642D-05
 Coeff:      0.175D-03 0.802D-04-0.138D-02-0.330D-02 0.588D-02 0.357D-01
 Coeff:     -0.401D-01-0.171D+00 0.159D+00 0.101D+01
 Gap=     0.305 Goal=   None    Shift=    0.000
 RMSDP=5.96D-09 MaxDP=7.47D-07 DE=-4.91D-11 OVMax= 2.58D-07

 SCF Done:  E(RHF) =  -1612.64975926     A.U. after   16 cycles
            NFock= 16  Conv=0.60D-08     -V/T= 2.0011
 KE= 1.610932373300D+03 PE=-7.552384627809D+03 EE= 2.466219922634D+03
 Leave Link  502 at Tue Sep 22 02:27:23 2020, MaxMem=   262144000 cpu:            4513.8 elap:            1128.6
 (Enter /prod/apps/gaussian/g16b1/l801.exe)
 ExpMin= 2.97D-02 ExpMax= 1.11D+05 ExpMxC= 1.07D+03 IAcc=3 IRadAn=         5 AccDes= 0.00D+00
 HarFok:  IExCor=  205 AccDes= 0.00D+00 IRadAn=         5 IDoV=-2 UseB2=F ITyADJ=14
 ICtDFT= 12500011 ScaDFX=  1.000000  1.000000  1.000000  1.000000
 GSVD:  LWork=        -945 too small for GESVD, short by        4050 words or        4050 for optimal perf.
 Largest valence mixing into a core orbital is  3.64D-04
 Largest core mixing into a valence orbital is  1.19D-04
 Range of M.O.s used for correlation:    28   589
 NBasis=   589 NAE=    80 NBE=    80 NFC=    27 NFV=     0
 NROrb=    562 NOA=    53 NOB=    53 NVA=   509 NVB=   509

 **** Warning!!: The largest alpha MO coefficient is  0.10906662D+03

 Leave Link  801 at Tue Sep 22 02:27:23 2020, MaxMem=   262144000 cpu:               1.0 elap:               0.3
 (Enter /prod/apps/gaussian/g16b1/l906.exe)
 FulOut=F Deriv=F AODrv=F NAtomX=    35
   MMem=           3  MDisk=          53 MDiskD=          53
  W3Min=    16914579 MinDsk=    17123203 NBas6D=         627
 NBas2D=      197721    NTT=      196878    LW2=     2000000
    MDV=   259621707 MDiskM=        5706 NBas2p=      182732
 Disk-based method using OVN memory for 53 occupieds at a time.
 Estimated scratch disk usage= 15047309900 words.
 IMap=   1   2   3   4   5   6   7   8   9  10  11  12  13  14  15  16  17  18  19  20
 IMap=  21  22  23  24  25  26  27  28  29  30  31  32  33  34  35  36  37  38  39  40
 IMap=  41  42  43  44  45  46  47  48  49  50  51  52  53
 Actual    scratch disk usage= 14827356748 words.
 JobTyp=1 Pass  1:  I=   1 to  53 NPSUse=  4 ParTrn=T ParDer=T DoDerP=F.
Erroneous write. Write -1 instead of 1218903400.
fd = 4
orig len = 2067064384 left = 1218903400
g_write
