 Entering Gaussian System, Link 0=g16
 Initial command:
 /prod/apps/gaussian/g16b1/l1.exe "/tmp/ubafar01/1460350/Gau-43865.inp" -scrdir="/tmp/ubafar01/1460350/"
 Entering Link 1 = /prod/apps/gaussian/g16b1/l1.exe PID=     43866.
  
 Copyright (c) 1988-2017, Gaussian, Inc.  All Rights Reserved.
  
 This is part of the Gaussian(R) 16 program.  It is based on
 the Gaussian(R) 09 system (copyright 2009, Gaussian, Inc.),
 the Gaussian(R) 03 system (copyright 2003, Gaussian, Inc.),
 the Gaussian(R) 98 system (copyright 1998, Gaussian, Inc.),
 the Gaussian(R) 94 system (copyright 1995, Gaussian, Inc.),
 the Gaussian 92(TM) system (copyright 1992, Gaussian, Inc.),
 the Gaussian 90(TM) system (copyright 1990, Gaussian, Inc.),
 the Gaussian 88(TM) system (copyright 1988, Gaussian, Inc.),
 the Gaussian 86(TM) system (copyright 1986, Carnegie Mellon
 University), and the Gaussian 82(TM) system (copyright 1983,
 Carnegie Mellon University). Gaussian is a federally registered
 trademark of Gaussian, Inc.
  
 This software contains proprietary and confidential information,
 including trade secrets, belonging to Gaussian, Inc.
  
 This software is provided under written license and may be
 used, copied, transmitted, or stored only in accord with that
 written license.
  
 The following legend is applicable only to US Government
 contracts under FAR:
  
                    RESTRICTED RIGHTS LEGEND
  
 Use, reproduction and disclosure by the US Government is
 subject to restrictions as set forth in subparagraphs (a)
 and (c) of the Commercial Computer Software - Restricted
 Rights clause in FAR 52.227-19.
  
 Gaussian, Inc.
 340 Quinnipiac St., Bldg. 40, Wallingford CT 06492
  
  
 ---------------------------------------------------------------
 Warning -- This program may not be used in any manner that
 competes with the business of Gaussian, Inc. or will provide
 assistance to any competitor of Gaussian, Inc.  The licensee
 of this program is prohibited from giving any competitor of
 Gaussian, Inc. access to this program.  By using this program,
 the user acknowledges that Gaussian, Inc. is engaged in the
 business of creating and licensing software in the field of
 computational chemistry and represents and warrants to the
 licensee that it is not a competitor of Gaussian, Inc. and that
 it will not use this program in any manner prohibited above.
 ---------------------------------------------------------------
  

 Cite this work as:
 Gaussian 16, Revision B.01,
 M. J. Frisch, G. W. Trucks, H. B. Schlegel, G. E. Scuseria, 
 M. A. Robb, J. R. Cheeseman, G. Scalmani, V. Barone, 
 G. A. Petersson, H. Nakatsuji, X. Li, M. Caricato, A. V. Marenich, 
 J. Bloino, B. G. Janesko, R. Gomperts, B. Mennucci, H. P. Hratchian, 
 J. V. Ortiz, A. F. Izmaylov, J. L. Sonnenberg, D. Williams-Young, 
 F. Ding, F. Lipparini, F. Egidi, J. Goings, B. Peng, A. Petrone, 
 T. Henderson, D. Ranasinghe, V. G. Zakrzewski, J. Gao, N. Rega, 
 G. Zheng, W. Liang, M. Hada, M. Ehara, K. Toyota, R. Fukuda, 
 J. Hasegawa, M. Ishida, T. Nakajima, Y. Honda, O. Kitao, H. Nakai, 
 T. Vreven, K. Throssell, J. A. Montgomery, Jr., J. E. Peralta, 
 F. Ogliaro, M. J. Bearpark, J. J. Heyd, E. N. Brothers, K. N. Kudin, 
 V. N. Staroverov, T. A. Keith, R. Kobayashi, J. Normand, 
 K. Raghavachari, A. P. Rendell, J. C. Burant, S. S. Iyengar, 
 J. Tomasi, M. Cossi, J. M. Millam, M. Klene, C. Adamo, R. Cammi, 
 J. W. Ochterski, R. L. Martin, K. Morokuma, O. Farkas, 
 J. B. Foresman, and D. J. Fox, Gaussian, Inc., Wallingford CT, 2016.
 
 ******************************************
 Gaussian 16:  ES64L-G16RevB.01 20-Dec-2017
                22-Sep-2020 
 ******************************************
 %nproc=4
 Will use up to    4 processors via shared memory.
 %Chk=SM38_m1.a.15.pdb.xyz.mst.a.w.chk
 %mem=16GB
 ----------------------------------------------------------------------
 #p b3lyp/6-31G(d) opt freq NoSymm scf=(MaxCycle=2000,NoVarAcc,NoIncFoc
 k) scrf=(iefpcm,read,solvent=water)
 ----------------------------------------------------------------------
 1/18=20,19=15,26=3,38=1,40=2/1,3;
 2/9=110,12=2,15=1,17=6,18=5,40=1/2;
 3/5=1,6=6,7=1,11=2,25=1,30=1,70=2203,71=1,72=1,74=-5/1,2,3;
 4//1;
 5/5=100002,7=2000,38=1,53=1/2;
 6/7=2,8=2,9=2,10=2,28=1/1;
 7/30=1/1,2,3,16;
 1/18=20,19=15,26=3/3(2);
 2/9=110,15=1/2;
 99//99;
 2/9=110,15=1/2;
 3/5=1,6=6,7=1,11=2,25=1,30=1,70=2205,71=1,72=1,74=-5/1,2,3;
 4/5=5,16=3,69=1/1;
 5/5=100002,7=2000,38=1,53=1/2;
 7/30=1/1,2,3,16;
 1/18=20,19=15,26=3/3(-5);
 2/9=110,15=1/2;
 6/7=2,8=2,9=2,10=2,19=2,28=1/1;
 99/9=1/99;
 Leave Link    1 at Tue Sep 22 01:46:05 2020, MaxMem=  2147483648 cpu:               0.1 elap:               0.0
 (Enter /prod/apps/gaussian/g16b1/l101.exe)
 --------------------
 SM38_m1.a.15.pdb.xyz
 --------------------
 Symbolic Z-matrix:
 Charge = -1 Multiplicity = 1
 C                     3.332    -2.109     1.5 
 S                     2.944    -1.542    -0.182 
 N                     1.374    -1.378    -0.312 
 C                     0.7      -0.102    -0.125 
 C                     1.016     0.987    -1.234 
 S                     1.266     2.261     0.043 
 C                     1.116     0.796     1.117 
 O                     2.616     2.872     0.04 
 O                     0.111     3.184     0.17 
 C                    -0.804    -0.48     -0.084 
 C                    -1.863     0.634     0.039 
 C                    -3.264     0.053     0.034 
 C                    -3.902    -0.301     1.231 
 C                    -5.18     -0.865     1.225 
 C                    -5.844    -1.087     0.015 
 C                    -5.22     -0.738    -1.185 
 C                    -3.942    -0.173    -1.173 
 O                     3.736    -0.279    -0.351 
 O                     3.377    -2.677    -1.048 
 H                     3.027    -1.353     2.226 
 H                     4.409    -2.28      1.572 
 H                     2.791    -3.04      1.687 
 H                     0.222     1.23     -1.943 
 H                     1.96      0.798    -1.743 
 H                     0.379     0.914     1.914 
 H                     2.096     0.566     1.531 
 H                    -0.928    -1.179     0.752 
 H                    -1.003    -1.053    -0.997 
 H                    -1.766     1.345    -0.788 
 H                    -1.713     1.205     0.962 
 H                    -3.395    -0.128     2.178 
 H                    -5.659    -1.128     2.165 
 H                    -6.839    -1.523     0.009 
 H                    -5.729    -0.901    -2.132 
 H                    -3.465     0.1      -2.112 
 
 ITRead=  0  0  0  0  0  0  0  0  0  0  0  0  0  0  0  0  0  0  0  0
 ITRead=  0  0  0  0  0  0  0  0  0  0  0  0  0  0  0
 MicOpt= -1 -1 -1 -1 -1 -1 -1 -1 -1 -1 -1 -1 -1 -1 -1 -1 -1 -1 -1 -1
 MicOpt= -1 -1 -1 -1 -1 -1 -1 -1 -1 -1 -1 -1 -1 -1 -1
 NAtoms=     35 NQM=       35 NQMF=       0 NMMI=      0 NMMIF=      0
                NMic=       0 NMicF=      0.
                    Isotopes and Nuclear Properties:
 (Nuclear quadrupole moments (NQMom) in fm**2, nuclear magnetic moments (NMagM)
  in nuclear magnetons)

  Atom         1           2           3           4           5           6           7           8           9          10
 IAtWgt=          12          32          14          12          12          32          12          16          16          12
 AtmWgt=  12.0000000  31.9720718  14.0030740  12.0000000  12.0000000  31.9720718  12.0000000  15.9949146  15.9949146  12.0000000
 NucSpn=           0           0           2           0           0           0           0           0           0           0
 AtZEff=  -0.0000000  -0.0000000  -0.0000000  -0.0000000  -0.0000000  -0.0000000  -0.0000000  -0.0000000  -0.0000000  -0.0000000
 NQMom=    0.0000000   0.0000000   2.0440000   0.0000000   0.0000000   0.0000000   0.0000000   0.0000000   0.0000000   0.0000000
 NMagM=    0.0000000   0.0000000   0.4037610   0.0000000   0.0000000   0.0000000   0.0000000   0.0000000   0.0000000   0.0000000
 AtZNuc=   6.0000000  16.0000000   7.0000000   6.0000000   6.0000000  16.0000000   6.0000000   8.0000000   8.0000000   6.0000000

  Atom        11          12          13          14          15          16          17          18          19          20
 IAtWgt=          12          12          12          12          12          12          12          16          16           1
 AtmWgt=  12.0000000  12.0000000  12.0000000  12.0000000  12.0000000  12.0000000  12.0000000  15.9949146  15.9949146   1.0078250
 NucSpn=           0           0           0           0           0           0           0           0           0           1
 AtZEff=  -0.0000000  -0.0000000  -0.0000000  -0.0000000  -0.0000000  -0.0000000  -0.0000000  -0.0000000  -0.0000000  -0.0000000
 NQMom=    0.0000000   0.0000000   0.0000000   0.0000000   0.0000000   0.0000000   0.0000000   0.0000000   0.0000000   0.0000000
 NMagM=    0.0000000   0.0000000   0.0000000   0.0000000   0.0000000   0.0000000   0.0000000   0.0000000   0.0000000   2.7928460
 AtZNuc=   6.0000000   6.0000000   6.0000000   6.0000000   6.0000000   6.0000000   6.0000000   8.0000000   8.0000000   1.0000000

  Atom        21          22          23          24          25          26          27          28          29          30
 IAtWgt=           1           1           1           1           1           1           1           1           1           1
 AtmWgt=   1.0078250   1.0078250   1.0078250   1.0078250   1.0078250   1.0078250   1.0078250   1.0078250   1.0078250   1.0078250
 NucSpn=           1           1           1           1           1           1           1           1           1           1
 AtZEff=  -0.0000000  -0.0000000  -0.0000000  -0.0000000  -0.0000000  -0.0000000  -0.0000000  -0.0000000  -0.0000000  -0.0000000
 NQMom=    0.0000000   0.0000000   0.0000000   0.0000000   0.0000000   0.0000000   0.0000000   0.0000000   0.0000000   0.0000000
 NMagM=    2.7928460   2.7928460   2.7928460   2.7928460   2.7928460   2.7928460   2.7928460   2.7928460   2.7928460   2.7928460
 AtZNuc=   1.0000000   1.0000000   1.0000000   1.0000000   1.0000000   1.0000000   1.0000000   1.0000000   1.0000000   1.0000000

  Atom        31          32          33          34          35
 IAtWgt=           1           1           1           1           1
 AtmWgt=   1.0078250   1.0078250   1.0078250   1.0078250   1.0078250
 NucSpn=           1           1           1           1           1
 AtZEff=  -0.0000000  -0.0000000  -0.0000000  -0.0000000  -0.0000000
 NQMom=    0.0000000   0.0000000   0.0000000   0.0000000   0.0000000
 NMagM=    2.7928460   2.7928460   2.7928460   2.7928460   2.7928460
 AtZNuc=   1.0000000   1.0000000   1.0000000   1.0000000   1.0000000
 Leave Link  101 at Tue Sep 22 01:46:06 2020, MaxMem=  2147483648 cpu:               1.2 elap:               0.3
 (Enter /prod/apps/gaussian/g16b1/l103.exe)

 GradGradGradGradGradGradGradGradGradGradGradGradGradGradGradGradGradGrad
 Berny optimization.
 Initialization pass.
                           ----------------------------
                           !    Initial Parameters    !
                           ! (Angstroms and Degrees)  !
 --------------------------                            --------------------------
 ! Name  Definition              Value          Derivative Info.                !
 --------------------------------------------------------------------------------
 ! R1    R(1,2)                  1.8169         estimate D2E/DX2                !
 ! R2    R(1,20)                 1.0916         estimate D2E/DX2                !
 ! R3    R(1,21)                 1.0929         estimate D2E/DX2                !
 ! R4    R(1,22)                 1.0929         estimate D2E/DX2                !
 ! R5    R(2,3)                  1.5839         estimate D2E/DX2                !
 ! R6    R(2,18)                 1.5003         estimate D2E/DX2                !
 ! R7    R(2,19)                 1.4919         estimate D2E/DX2                !
 ! R8    R(3,4)                  1.4551         estimate D2E/DX2                !
 ! R9    R(4,5)                  1.5861         estimate D2E/DX2                !
 ! R10   R(4,7)                  1.5881         estimate D2E/DX2                !
 ! R11   R(4,10)                 1.5513         estimate D2E/DX2                !
 ! R12   R(5,6)                  1.8211         estimate D2E/DX2                !
 ! R13   R(5,23)                 1.0919         estimate D2E/DX2                !
 ! R14   R(5,24)                 1.089          estimate D2E/DX2                !
 ! R15   R(6,7)                  1.8227         estimate D2E/DX2                !
 ! R16   R(6,8)                  1.4818         estimate D2E/DX2                !
 ! R17   R(6,9)                  1.4839         estimate D2E/DX2                !
 ! R18   R(7,25)                 1.0919         estimate D2E/DX2                !
 ! R19   R(7,26)                 1.0884         estimate D2E/DX2                !
 ! R20   R(10,11)                1.5419         estimate D2E/DX2                !
 ! R21   R(10,27)                1.0968         estimate D2E/DX2                !
 ! R22   R(10,28)                1.0961         estimate D2E/DX2                !
 ! R23   R(11,12)                1.5167         estimate D2E/DX2                !
 ! R24   R(11,29)                1.0949         estimate D2E/DX2                !
 ! R25   R(11,30)                1.0957         estimate D2E/DX2                !
 ! R26   R(12,13)                1.4018         estimate D2E/DX2                !
 ! R27   R(12,17)                1.4027         estimate D2E/DX2                !
 ! R28   R(13,14)                1.3969         estimate D2E/DX2                !
 ! R29   R(13,31)                1.088          estimate D2E/DX2                !
 ! R30   R(14,15)                1.398          estimate D2E/DX2                !
 ! R31   R(14,32)                1.0873         estimate D2E/DX2                !
 ! R32   R(15,16)                1.3968         estimate D2E/DX2                !
 ! R33   R(15,33)                1.0864         estimate D2E/DX2                !
 ! R34   R(16,17)                1.3974         estimate D2E/DX2                !
 ! R35   R(16,34)                1.0874         estimate D2E/DX2                !
 ! R36   R(17,35)                1.088          estimate D2E/DX2                !
 ! A1    A(2,1,20)             109.8705         estimate D2E/DX2                !
 ! A2    A(2,1,21)             108.6792         estimate D2E/DX2                !
 ! A3    A(2,1,22)             108.5741         estimate D2E/DX2                !
 ! A4    A(20,1,21)            109.8703         estimate D2E/DX2                !
 ! A5    A(20,1,22)            109.7463         estimate D2E/DX2                !
 ! A6    A(21,1,22)            110.076          estimate D2E/DX2                !
 ! A7    A(1,2,3)              108.6612         estimate D2E/DX2                !
 ! A8    A(1,2,18)             104.7293         estimate D2E/DX2                !
 ! A9    A(1,2,19)             103.7673         estimate D2E/DX2                !
 ! A10   A(3,2,18)             115.2676         estimate D2E/DX2                !
 ! A11   A(3,2,19)             108.5919         estimate D2E/DX2                !
 ! A12   A(18,2,19)            114.9512         estimate D2E/DX2                !
 ! A13   A(2,3,4)              122.6411         estimate D2E/DX2                !
 ! A14   A(3,4,5)              114.8305         estimate D2E/DX2                !
 ! A15   A(3,4,7)              118.3607         estimate D2E/DX2                !
 ! A16   A(3,4,10)             103.815          estimate D2E/DX2                !
 ! A17   A(5,4,7)               96.1077         estimate D2E/DX2                !
 ! A18   A(5,4,10)             112.2677         estimate D2E/DX2                !
 ! A19   A(7,4,10)             111.7818         estimate D2E/DX2                !
 ! A20   A(4,5,6)               90.9957         estimate D2E/DX2                !
 ! A21   A(4,5,23)             117.5132         estimate D2E/DX2                !
 ! A22   A(4,5,24)             112.3554         estimate D2E/DX2                !
 ! A23   A(6,5,23)             113.5457         estimate D2E/DX2                !
 ! A24   A(6,5,24)             109.279          estimate D2E/DX2                !
 ! A25   A(23,5,24)            111.4376         estimate D2E/DX2                !
 ! A26   A(5,6,7)               80.7698         estimate D2E/DX2                !
 ! A27   A(5,6,8)              114.3373         estimate D2E/DX2                !
 ! A28   A(5,6,9)              112.8488         estimate D2E/DX2                !
 ! A29   A(7,6,8)              114.0528         estimate D2E/DX2                !
 ! A30   A(7,6,9)              112.6716         estimate D2E/DX2                !
 ! A31   A(8,6,9)              116.9232         estimate D2E/DX2                !
 ! A32   A(4,7,6)               90.8722         estimate D2E/DX2                !
 ! A33   A(4,7,25)             117.0739         estimate D2E/DX2                !
 ! A34   A(4,7,26)             114.446          estimate D2E/DX2                !
 ! A35   A(6,7,25)             113.5016         estimate D2E/DX2                !
 ! A36   A(6,7,26)             108.6551         estimate D2E/DX2                !
 ! A37   A(25,7,26)            110.666          estimate D2E/DX2                !
 ! A38   A(4,10,11)            119.4666         estimate D2E/DX2                !
 ! A39   A(4,10,27)            106.562          estimate D2E/DX2                !
 ! A40   A(4,10,28)            106.3421         estimate D2E/DX2                !
 ! A41   A(11,10,27)           108.7837         estimate D2E/DX2                !
 ! A42   A(11,10,28)           108.628          estimate D2E/DX2                !
 ! A43   A(27,10,28)           106.3324         estimate D2E/DX2                !
 ! A44   A(10,11,12)           110.9397         estimate D2E/DX2                !
 ! A45   A(10,11,29)           110.3678         estimate D2E/DX2                !
 ! A46   A(10,11,30)           110.468          estimate D2E/DX2                !
 ! A47   A(12,11,29)           109.153          estimate D2E/DX2                !
 ! A48   A(12,11,30)           109.2003         estimate D2E/DX2                !
 ! A49   A(29,11,30)           106.603          estimate D2E/DX2                !
 ! A50   A(11,12,13)           120.9517         estimate D2E/DX2                !
 ! A51   A(11,12,17)           120.7325         estimate D2E/DX2                !
 ! A52   A(13,12,17)           118.299          estimate D2E/DX2                !
 ! A53   A(12,13,14)           120.9744         estimate D2E/DX2                !
 ! A54   A(12,13,31)           119.4046         estimate D2E/DX2                !
 ! A55   A(14,13,31)           119.6201         estimate D2E/DX2                !
 ! A56   A(13,14,15)           120.1572         estimate D2E/DX2                !
 ! A57   A(13,14,32)           119.8005         estimate D2E/DX2                !
 ! A58   A(15,14,32)           120.0419         estimate D2E/DX2                !
 ! A59   A(14,15,16)           119.4534         estimate D2E/DX2                !
 ! A60   A(14,15,33)           120.2354         estimate D2E/DX2                !
 ! A61   A(16,15,33)           120.3106         estimate D2E/DX2                !
 ! A62   A(15,16,17)           120.1458         estimate D2E/DX2                !
 ! A63   A(15,16,34)           120.1057         estimate D2E/DX2                !
 ! A64   A(17,16,34)           119.7479         estimate D2E/DX2                !
 ! A65   A(12,17,16)           120.9701         estimate D2E/DX2                !
 ! A66   A(12,17,35)           119.3596         estimate D2E/DX2                !
 ! A67   A(16,17,35)           119.6699         estimate D2E/DX2                !
 ! D1    D(20,1,2,3)           -63.1215         estimate D2E/DX2                !
 ! D2    D(20,1,2,18)           60.5635         estimate D2E/DX2                !
 ! D3    D(20,1,2,19)         -178.5397         estimate D2E/DX2                !
 ! D4    D(21,1,2,3)           176.6341         estimate D2E/DX2                !
 ! D5    D(21,1,2,18)          -59.6809         estimate D2E/DX2                !
 ! D6    D(21,1,2,19)           61.216          estimate D2E/DX2                !
 ! D7    D(22,1,2,3)            56.907          estimate D2E/DX2                !
 ! D8    D(22,1,2,18)         -179.408          estimate D2E/DX2                !
 ! D9    D(22,1,2,19)          -58.5111         estimate D2E/DX2                !
 ! D10   D(1,2,3,4)             95.8281         estimate D2E/DX2                !
 ! D11   D(18,2,3,4)           -21.3116         estimate D2E/DX2                !
 ! D12   D(19,2,3,4)          -151.9237         estimate D2E/DX2                !
 ! D13   D(2,3,4,5)             67.252          estimate D2E/DX2                !
 ! D14   D(2,3,4,7)            -45.2679         estimate D2E/DX2                !
 ! D15   D(2,3,4,10)          -169.8084         estimate D2E/DX2                !
 ! D16   D(3,4,5,6)           -134.2067         estimate D2E/DX2                !
 ! D17   D(3,4,5,23)           108.4358         estimate D2E/DX2                !
 ! D18   D(3,4,5,24)           -22.8482         estimate D2E/DX2                !
 ! D19   D(7,4,5,6)             -9.0434         estimate D2E/DX2                !
 ! D20   D(7,4,5,23)          -126.4009         estimate D2E/DX2                !
 ! D21   D(7,4,5,24)           102.3151         estimate D2E/DX2                !
 ! D22   D(10,4,5,6)           107.5132         estimate D2E/DX2                !
 ! D23   D(10,4,5,23)           -9.8443         estimate D2E/DX2                !
 ! D24   D(10,4,5,24)         -141.1283         estimate D2E/DX2                !
 ! D25   D(3,4,7,6)            131.5623         estimate D2E/DX2                !
 ! D26   D(3,4,7,25)          -111.3288         estimate D2E/DX2                !
 ! D27   D(3,4,7,26)            20.5645         estimate D2E/DX2                !
 ! D28   D(5,4,7,6)              9.035          estimate D2E/DX2                !
 ! D29   D(5,4,7,25)           126.1439         estimate D2E/DX2                !
 ! D30   D(5,4,7,26)          -101.9627         estimate D2E/DX2                !
 ! D31   D(10,4,7,6)          -107.9115         estimate D2E/DX2                !
 ! D32   D(10,4,7,25)            9.1974         estimate D2E/DX2                !
 ! D33   D(10,4,7,26)          141.0907         estimate D2E/DX2                !
 ! D34   D(3,4,10,11)         -177.168          estimate D2E/DX2                !
 ! D35   D(3,4,10,27)           59.1989         estimate D2E/DX2                !
 ! D36   D(3,4,10,28)          -53.9383         estimate D2E/DX2                !
 ! D37   D(5,4,10,11)          -52.5582         estimate D2E/DX2                !
 ! D38   D(5,4,10,27)         -176.1913         estimate D2E/DX2                !
 ! D39   D(5,4,10,28)           70.6715         estimate D2E/DX2                !
 ! D40   D(7,4,10,11)           54.1465         estimate D2E/DX2                !
 ! D41   D(7,4,10,27)          -69.4867         estimate D2E/DX2                !
 ! D42   D(7,4,10,28)          177.3762         estimate D2E/DX2                !
 ! D43   D(4,5,6,7)              7.9299         estimate D2E/DX2                !
 ! D44   D(4,5,6,8)            120.2447         estimate D2E/DX2                !
 ! D45   D(4,5,6,9)           -102.8808         estimate D2E/DX2                !
 ! D46   D(23,5,6,7)           128.6975         estimate D2E/DX2                !
 ! D47   D(23,5,6,8)          -118.9876         estimate D2E/DX2                !
 ! D48   D(23,5,6,9)            17.8868         estimate D2E/DX2                !
 ! D49   D(24,5,6,7)          -106.2177         estimate D2E/DX2                !
 ! D50   D(24,5,6,8)             6.0972         estimate D2E/DX2                !
 ! D51   D(24,5,6,9)           142.9716         estimate D2E/DX2                !
 ! D52   D(5,6,7,4)             -7.9195         estimate D2E/DX2                !
 ! D53   D(5,6,7,25)          -128.1173         estimate D2E/DX2                !
 ! D54   D(5,6,7,26)           108.3104         estimate D2E/DX2                !
 ! D55   D(8,6,7,4)           -120.5435         estimate D2E/DX2                !
 ! D56   D(8,6,7,25)           119.2587         estimate D2E/DX2                !
 ! D57   D(8,6,7,26)            -4.3136         estimate D2E/DX2                !
 ! D58   D(9,6,7,4)            103.0859         estimate D2E/DX2                !
 ! D59   D(9,6,7,25)           -17.1119         estimate D2E/DX2                !
 ! D60   D(9,6,7,26)          -140.6843         estimate D2E/DX2                !
 ! D61   D(4,10,11,12)         178.888          estimate D2E/DX2                !
 ! D62   D(4,10,11,29)          57.7712         estimate D2E/DX2                !
 ! D63   D(4,10,11,30)         -59.8681         estimate D2E/DX2                !
 ! D64   D(27,10,11,12)        -58.5652         estimate D2E/DX2                !
 ! D65   D(27,10,11,29)       -179.682          estimate D2E/DX2                !
 ! D66   D(27,10,11,30)         62.6786         estimate D2E/DX2                !
 ! D67   D(28,10,11,12)         56.7814         estimate D2E/DX2                !
 ! D68   D(28,10,11,29)        -64.3354         estimate D2E/DX2                !
 ! D69   D(28,10,11,30)        178.0253         estimate D2E/DX2                !
 ! D70   D(10,11,12,13)         91.0326         estimate D2E/DX2                !
 ! D71   D(10,11,12,17)        -87.4502         estimate D2E/DX2                !
 ! D72   D(29,11,12,13)       -147.1377         estimate D2E/DX2                !
 ! D73   D(29,11,12,17)         34.3795         estimate D2E/DX2                !
 ! D74   D(30,11,12,13)        -30.9541         estimate D2E/DX2                !
 ! D75   D(30,11,12,17)        150.5631         estimate D2E/DX2                !
 ! D76   D(11,12,13,14)       -178.496          estimate D2E/DX2                !
 ! D77   D(11,12,13,31)          1.8506         estimate D2E/DX2                !
 ! D78   D(17,12,13,14)          0.0228         estimate D2E/DX2                !
 ! D79   D(17,12,13,31)       -179.6305         estimate D2E/DX2                !
 ! D80   D(11,12,17,16)        178.4398         estimate D2E/DX2                !
 ! D81   D(11,12,17,35)         -1.7903         estimate D2E/DX2                !
 ! D82   D(13,12,17,16)         -0.0824         estimate D2E/DX2                !
 ! D83   D(13,12,17,35)        179.6874         estimate D2E/DX2                !
 ! D84   D(12,13,14,15)          0.079          estimate D2E/DX2                !
 ! D85   D(12,13,14,32)       -179.7076         estimate D2E/DX2                !
 ! D86   D(31,13,14,15)        179.7316         estimate D2E/DX2                !
 ! D87   D(31,13,14,32)         -0.055          estimate D2E/DX2                !
 ! D88   D(13,14,15,16)         -0.1213         estimate D2E/DX2                !
 ! D89   D(13,14,15,33)       -179.8311         estimate D2E/DX2                !
 ! D90   D(32,14,15,16)        179.6648         estimate D2E/DX2                !
 ! D91   D(32,14,15,33)         -0.045          estimate D2E/DX2                !
 ! D92   D(14,15,16,17)          0.0624         estimate D2E/DX2                !
 ! D93   D(14,15,16,34)       -179.666          estimate D2E/DX2                !
 ! D94   D(33,15,16,17)        179.7719         estimate D2E/DX2                !
 ! D95   D(33,15,16,34)          0.0435         estimate D2E/DX2                !
 ! D96   D(15,16,17,12)          0.0403         estimate D2E/DX2                !
 ! D97   D(15,16,17,35)       -179.7288         estimate D2E/DX2                !
 ! D98   D(34,16,17,12)        179.7697         estimate D2E/DX2                !
 ! D99   D(34,16,17,35)          0.0005         estimate D2E/DX2                !
 --------------------------------------------------------------------------------
 Trust Radius=3.00D-01 FncErr=1.00D-07 GrdErr=1.00D-06 EigMax=2.50D+02 EigMin=1.00D-04
 Number of steps in this run=    210 maximum allowed number of steps=    210.
 GradGradGradGradGradGradGradGradGradGradGradGradGradGradGradGradGradGrad

 Leave Link  103 at Tue Sep 22 01:46:06 2020, MaxMem=  2147483648 cpu:               0.1 elap:               0.0
 (Enter /prod/apps/gaussian/g16b1/l202.exe)
                          Input orientation:                          
 ---------------------------------------------------------------------
 Center     Atomic      Atomic             Coordinates (Angstroms)
 Number     Number       Type             X           Y           Z
 ---------------------------------------------------------------------
      1          6           0        3.332000   -2.109000    1.500000
      2         16           0        2.944000   -1.542000   -0.182000
      3          7           0        1.374000   -1.378000   -0.312000
      4          6           0        0.700000   -0.102000   -0.125000
      5          6           0        1.016000    0.987000   -1.234000
      6         16           0        1.266000    2.261000    0.043000
      7          6           0        1.116000    0.796000    1.117000
      8          8           0        2.616000    2.872000    0.040000
      9          8           0        0.111000    3.184000    0.170000
     10          6           0       -0.804000   -0.480000   -0.084000
     11          6           0       -1.863000    0.634000    0.039000
     12          6           0       -3.264000    0.053000    0.034000
     13          6           0       -3.902000   -0.301000    1.231000
     14          6           0       -5.180000   -0.865000    1.225000
     15          6           0       -5.844000   -1.087000    0.015000
     16          6           0       -5.220000   -0.738000   -1.185000
     17          6           0       -3.942000   -0.173000   -1.173000
     18          8           0        3.736000   -0.279000   -0.351000
     19          8           0        3.377000   -2.677000   -1.048000
     20          1           0        3.027000   -1.353000    2.226000
     21          1           0        4.409000   -2.280000    1.572000
     22          1           0        2.791000   -3.040000    1.687000
     23          1           0        0.222000    1.230000   -1.943000
     24          1           0        1.960000    0.798000   -1.743000
     25          1           0        0.379000    0.914000    1.914000
     26          1           0        2.096000    0.566000    1.531000
     27          1           0       -0.928000   -1.179000    0.752000
     28          1           0       -1.003000   -1.053000   -0.997000
     29          1           0       -1.766000    1.345000   -0.788000
     30          1           0       -1.713000    1.205000    0.962000
     31          1           0       -3.395000   -0.128000    2.178000
     32          1           0       -5.659000   -1.128000    2.165000
     33          1           0       -6.839000   -1.523000    0.009000
     34          1           0       -5.729000   -0.901000   -2.132000
     35          1           0       -3.465000    0.100000   -2.112000
 ---------------------------------------------------------------------
                    Distance matrix (angstroms):
                    1          2          3          4          5
     1  C    0.000000
     2  S    1.816909   0.000000
     3  N    2.766129   1.583886   0.000000
     4  C    3.687289   2.666906   1.455136   0.000000
     5  C    4.735380   3.349586   2.563488   1.586083   0.000000
     6  S    5.048575   4.162826   3.657870   2.435641   1.821072
     7  C    3.673741   3.239634   2.614361   1.588088   2.360865
     8  O    5.239715   4.431734   4.441730   3.541604   2.781421
     9  O    6.337159   5.521310   4.758081   3.351379   2.759900
    10  C    4.719025   3.896787   2.366870   1.551316   2.605185
    11  C    6.053643   5.281199   3.827468   2.671621   3.167614
    12  C    7.094407   6.413263   4.866058   3.970214   4.560546
    13  C    7.461366   7.099603   5.601514   4.801744   5.649946
    14  C    8.606817   8.272687   6.751330   6.081042   6.918598
    15  C    9.351400   8.801976   7.231261   6.619196   7.274687
    16  C    9.067832   8.264582   6.682257   6.047685   6.470373
    17  C    7.987747   7.090362   5.518442   4.759360   5.092257
    18  O    2.634069   1.500331   2.605449   3.049541   3.127434
    19  O    2.610930   1.491868   2.498221   3.827386   4.362776
    20  H    1.091621   2.416831   3.028940   3.536542   4.635873
    21  H    1.092865   2.401538   3.684330   4.623870   5.482643
    22  H    1.092891   2.400120   2.960766   4.035774   5.282007
    23  H    5.716229   4.265488   3.284651   2.303873   1.091864
    24  H    4.566189   2.980030   2.669482   2.239537   1.089008
    25  H    4.246191   4.123636   3.346396   2.300613   3.212632
    26  H    2.946911   2.845547   2.774359   2.266578   2.998144
    27  H    4.424026   3.999564   2.543797   2.139963   3.523477
    28  H    5.112961   4.059822   2.494991   2.136585   2.879953
    29  H    6.569221   5.557527   4.183408   2.935053   2.840177
    30  H    6.060038   5.526517   4.221911   2.951675   3.509613
    31  H    7.045323   6.910276   5.523220   4.698245   5.686993
    32  H    9.068774   8.927005   7.460638   6.836202   7.783447
    33  H   10.296393   9.784883   8.220550   7.672921   8.339435
    34  H    9.836280   8.912593   7.347961   6.782219   7.061584
    35  H    8.007836   6.891759   5.370326   4.619112   4.651560
                    6          7          8          9         10
     6  S    0.000000
     7  C    1.822691   0.000000
     8  O    1.481833   2.778436   0.000000
     9  O    1.483942   2.758510   2.527700   0.000000
    10  C    3.437166   2.599419   4.790374   3.785054   0.000000
    11  C    3.526725   3.172187   5.007004   3.227435   1.541949
    12  C    5.039469   4.572673   6.520828   4.605679   2.519844
    13  C    5.889262   5.137775   7.346478   5.419881   3.370292
    14  C    7.260848   6.512311   8.726225   6.745525   4.583785
    15  C    7.858880   7.293949   9.340552   7.329904   5.077386
    16  C    7.250530   6.913556   8.714105   6.755566   4.558489
    17  C    5.875906   5.636171   7.331491   5.431382   3.335748
    18  O    3.564791   3.189835   3.366910   5.040281   4.552284
    19  O    5.480004   4.675583   5.705635   6.819208   4.820463
    20  H    4.574670   3.082207   4.774740   5.771877   4.557937
    21  H    5.730355   4.529089   5.666125   7.091805   5.758273
    22  H    5.755776   4.224384   6.139624   6.944196   4.755425
    23  H    2.469229   3.217327   3.515635   2.880140   2.726290
    24  H    2.410768   2.981936   2.812632   3.573705   3.467746
    25  H    2.470186   1.091926   3.514230   2.875110   2.708270
    26  H    2.403345   1.088437   2.794838   3.556188   3.480279
    27  H    4.141246   2.865621   5.429317   4.522611   1.096756
    28  H    4.148802   3.518232   5.438580   4.533768   1.096129
    29  H    3.274544   3.498049   4.713729   2.796929   2.179836
    30  H    3.291525   2.862612   4.729610   2.805473   2.181656
    31  H    5.656012   4.725317   7.050047   5.224313   3.457431
    32  H    7.996489   7.120443   9.433517   7.474374   5.389706
    33  H    8.944878   8.359871  10.426601   8.395491   6.125171
    34  H    7.978652   7.764653   9.412340   7.489461   5.350436
    35  H    5.629947   5.647691   7.020944   5.244650   3.395601
                   11         12         13         14         15
    11  C    0.000000
    12  C    1.516703   0.000000
    13  C    2.540199   1.401845   0.000000
    14  C    3.828327   2.435623   1.396931   0.000000
    15  C    4.337139   2.820702   2.422358   1.397956   0.000000
    16  C    3.827533   2.436715   2.786602   2.413675   1.396845
    17  C    2.538195   1.402715   2.407738   2.786021   2.421641
    18  O    5.686341   7.018436   7.800144   9.073160   9.620978
    19  O    6.293003   7.261302   7.988933   9.037263   9.417267
    20  H    5.713426   6.808699   7.078684   8.282209   9.146252
    21  H    7.083747   8.165982   8.550172   9.699049  10.438942
    22  H    6.154177   6.997291   7.246124   8.275319   9.009607
    23  H    2.937816   4.176847   5.424538   6.603549   6.782227
    24  H    4.221108   5.568027   6.664497   7.909121   8.218650
    25  H    2.936084   4.188934   4.502186   5.877248   6.807050
    26  H    4.231355   5.588719   6.067758   7.421696   8.250713
    27  H    2.160917   2.736831   3.137674   4.289735   4.971789
    28  H    2.158440   2.719985   3.732786   4.734972   4.945764
    29  H    1.094924   2.142184   3.368705   4.537804   4.815550
    30  H    1.095660   2.143336   2.670603   4.046499   4.818219
    31  H    2.739158   2.155611   1.088020   2.153509   3.405268
    32  H    4.694053   3.416423   2.154840   1.087295   2.158334
    33  H    5.423479   3.907048   3.407717   2.159607   1.086350
    34  H    4.692059   3.417294   3.873977   3.401786   2.158108
    35  H    2.734659   2.155905   3.395205   3.874018   3.404811
                   16         17         18         19         20
    16  C    0.000000
    17  C    1.397374   0.000000
    18  O    9.006452   7.722603   0.000000
    19  O    8.814017   7.736498   2.522914   0.000000
    20  H    8.945734   7.842994   2.880466   3.548880   0.000000
    21  H   10.133926   9.039562   2.855671   2.843771   1.788007
    22  H    8.816105   7.857008   3.559437   2.820530   1.786669
    23  H    5.836347   4.460965   4.142432   5.100951   5.649821
    24  H    7.363631   6.008439   2.500354   3.816614   4.638777
    25  H    6.609214   5.420533   4.221720   5.536852   3.499791
    26  H    7.912075   6.656965   2.635441   4.336963   2.243289
    27  H    4.729452   3.715085   4.876423   4.900717   4.224332
    28  H    4.232925   3.072962   4.845050   4.671657   5.169007
    29  H    4.052976   2.680956   5.753290   6.534105   6.271862
    30  H    4.547956   3.380170   5.798088   6.709555   5.532509
    31  H    3.874596   3.395649   7.567681   7.922402   6.537967
    32  H    3.401076   3.873288   9.763047   9.714529   8.689128
    33  H    2.159403   3.407673  10.654002  10.335164  10.113454
    34  H    1.087409   2.154770   9.651169   9.340689   9.791016
    35  H    2.154437   1.088016   7.422881   7.460348   7.942010
                   21         22         23         24         25
    21  H    0.000000
    22  H    1.791298   0.000000
    23  H    6.496637   6.165189   0.000000
    24  H    5.144017   5.213991   1.802018   0.000000
    25  H    5.153591   4.637175   3.873107   3.985808   0.000000
    26  H    3.667610   3.675676   4.002680   3.285026   1.793288
    27  H    5.510732   4.262453   3.793258   4.298151   2.727479
    28  H    6.115148   5.054351   2.758193   3.572406   3.775306
    29  H    7.539287   6.791178   2.302041   3.885140   3.476721
    30  H    7.070800   6.231506   3.490541   4.579695   2.316776
    31  H    8.117928   6.854737   5.648849   6.701324   3.924097
    32  H   10.151028   8.676792   7.551291   8.776736   6.378888
    33  H   11.381279   9.892112   7.826048   9.267089   7.852867
    34  H   10.881190   9.578647   6.323866   7.884075   7.547980
    35  H    9.013109   7.964266   3.859978   5.482152   5.625621
                   26         27         28         29         30
    26  H    0.000000
    27  H    3.577211   0.000000
    28  H    4.314597   1.755136   0.000000
    29  H    4.571613   3.073178   2.525125   0.000000
    30  H    3.903916   2.518686   3.072514   1.756391   0.000000
    31  H    5.572372   3.037131   4.081411   3.690600   2.466712
    32  H    7.963141   4.937766   5.628695   5.476439   4.739305
    33  H    9.301324   5.967437   5.940693   5.881833   5.884392
    34  H    8.763577   5.607525   4.862757   4.749339   5.489656
    35  H    6.664332   4.034192   2.938380   2.487891   3.706751
                   31         32         33         34         35
    31  H    0.000000
    32  H    2.475048   0.000000
    33  H    4.302525   2.489329   0.000000
    34  H    4.961974   4.303561   2.490555   0.000000
    35  H    4.296625   4.961285   4.303097   2.475499   0.000000
 Symmetry turned off by external request.
 Stoichiometry    C12H16NO4S2(1-)
 Framework group  C1[X(C12H16NO4S2)]
 Deg. of freedom    99
 Full point group                 C1      NOp   1
 Rotational constants (GHZ):           0.4980993           0.1669052           0.1384993
 Leave Link  202 at Tue Sep 22 01:46:06 2020, MaxMem=  2147483648 cpu:               0.1 elap:               0.0
 (Enter /prod/apps/gaussian/g16b1/l301.exe)
 Standard basis: 6-31G(d) (6D, 7F)
 Ernie: Thresh=  0.10000D-02 Tol=  0.10000D-05 Strict=F.
   325 basis functions,   644 primitive gaussians,   325 cartesian basis functions
    80 alpha electrons       80 beta electrons
       nuclear repulsion energy      1798.3087170117 Hartrees.
 IExCor=  402 DFT=T Ex+Corr=B3LYP ExCW=0 ScaHFX=  0.200000
 ScaDFX=  0.800000  0.720000  1.000000  0.810000 ScalE2=  1.000000  1.000000
 IRadAn=      5 IRanWt=     -1 IRanGd=            0 ICorTp=0 IEmpDi=  4
 NAtoms=   35 NActive=   35 NUniq=   35 SFac= 1.00D+00 NAtFMM=   60 NAOKFM=F Big=F
 Integral buffers will be    131072 words long.
 Raffenetti 2 integral format.
 Two-electron integral symmetry is turned off.
 Using the following non-standard input for PCM:
 MSTModel=DFT MSTcharged
 --- end of non-standard input.
 MST model for solvation energy: B3LYP parametrization.
 MST cavity parameters:
 ISph   IAn     Re0     Alpha   Atom Type   QCorr
 ------------------------------------------------
   1      6     1.50     1.25      CH3        F
   2     16     1.75     1.25      S          F
   3      7     1.40     1.15      N          T
   4      6     1.50     1.25      C          F
   5      6     1.50     1.25      CH2        F
   6     16     1.75     1.25      S          F
   7      6     1.50     1.25      CH2        F
   8      8     1.40     1.25      O          F
   9      8     1.40     1.25      O          F
  10      6     1.50     1.25      CH2        F
  11      6     1.50     1.25      CH2        F
  12      6     1.50     1.25      C          F
  13      6     1.50     1.25      CH         F
  14      6     1.50     1.25      CH         F
  15      6     1.50     1.25      CH         F
  16      6     1.50     1.25      CH         F
  17      6     1.50     1.25      CH         F
  18      8     1.40     1.25      O          F
  19      8     1.40     1.25      O          F
  20      1     1.20     1.25      CH3        F
  21      1     1.20     1.25      CH3        F
  22      1     1.20     1.25      CH3        F
  23      1     1.20     1.25      CH2        F
  24      1     1.20     1.25      CH2        F
  25      1     1.20     1.25      CH2        F
  26      1     1.20     1.25      CH2        F
  27      1     1.20     1.25      CH2        F
  28      1     1.20     1.25      CH2        F
  29      1     1.20     1.25      CH2        F
  30      1     1.20     1.25      CH2        F
  31      1     1.20     1.25      CH         F
  32      1     1.20     1.25      CH         F
  33      1     1.20     1.25      CH         F
  34      1     1.20     1.25      CH         F
  35      1     1.20     1.25      CH         F
 ------------------------------------------------------------------------------
 Polarizable Continuum Model (PCM)
 =================================
 Model                : PCM.
 Atomic radii         : MST.
 Polarization charges : Total charges.
 Charge compensation  : None.
 Solution method      : On-the-fly selection.
 Cavity type          : Scaled VdW (van der Waals Surface) (Alpha=1.250).
 Cavity algorithm     : GePol (No added spheres)
                        Default sphere list used, NSphG=   35.
                        Lebedev-Laikov grids with approx.  5.0 points / Ang**2.
                        Smoothing algorithm: York/Karplus (Gamma=1.0000).
                        Polarization charges: spherical gaussians, with
                                              point-specific exponents (IZeta= 3).
                        Self-potential: point-specific (ISelfS= 7).
                        Self-field    : sphere-specific E.n sum rule (ISelfD= 2).
 1st derivatives      : Analytical E(r).r(x)/FMM algorithm (CHGder, D1EAlg=3).
                        Cavity 1st derivative terms included.
 Solvent              : Water, Eps=  78.355300 Eps(inf)=   1.777849
 ------------------------------------------------------------------------------
 GePol: Number of generator spheres                  =      35
 GePol: Total number of spheres                      =      35
 GePol: Number of exposed spheres                    =      35 (100.00%)
 GePol: Number of points                             =    2497
 GePol: Average weight of points                     =       0.14
 GePol: Minimum weight of points                     =   0.15D-10
 GePol: Maximum weight of points                     =    0.22001
 GePol: Number of points with low weight             =     171
 GePol: Fraction of low-weight points (<1% of avg)   =       6.85%
 GePol: Cavity surface area                          =    339.506 Ang**2
 GePol: Cavity volume                                =    333.648 Ang**3
 PCM non-electrostatic energy =        -0.0672395343 Hartrees.
 Nuclear repulsion after PCM non-electrostatic terms =     1798.2414774774 Hartrees.
 Leave Link  301 at Tue Sep 22 01:46:06 2020, MaxMem=  2147483648 cpu:               0.3 elap:               0.1
 (Enter /prod/apps/gaussian/g16b1/l302.exe)
 NPDir=0 NMtPBC=     1 NCelOv=     1 NCel=       1 NClECP=     1 NCelD=      1
         NCelK=      1 NCelE2=     1 NClLst=     1 CellRange=     0.0.
 One-electron integrals computed using PRISM.
 NBasis=   325 RedAO= T EigKep=  4.70D-04  NBF=   325
 NBsUse=   325 1.00D-06 EigRej= -1.00D+00 NBFU=   325
 Precomputing XC quadrature grid using
 IXCGrd= 4 IRadAn=           5 IRanWt=          -1 IRanGd=           0 AccXCQ= 0.00D+00.
 Generated NRdTot=       0 NPtTot=           0 NUsed=           0 NTot=          32
 NSgBfM=   323   323   323   323   323 MxSgAt=    35 MxSgA2=    35.
 Leave Link  302 at Tue Sep 22 01:46:06 2020, MaxMem=  2147483648 cpu:               1.7 elap:               0.4
 (Enter /prod/apps/gaussian/g16b1/l303.exe)
 DipDrv:  MaxL=1.
 Leave Link  303 at Tue Sep 22 01:46:06 2020, MaxMem=  2147483648 cpu:               0.1 elap:               0.1
 (Enter /prod/apps/gaussian/g16b1/l401.exe)
 ExpMin= 1.17D-01 ExpMax= 2.19D+04 ExpMxC= 3.30D+03 IAcc=3 IRadAn=         5 AccDes= 0.00D+00
 Harris functional with IExCor=  402 and IRadAn=       5 diagonalized for initial guess.
 HarFok:  IExCor=  402 AccDes= 0.00D+00 IRadAn=         5 IDoV= 1 UseB2=F ITyADJ=14
 ICtDFT=  3500011 ScaDFX=  1.000000  1.000000  1.000000  1.000000
 FoFCou: FMM=F IPFlag=           0 FMFlag=      100000 FMFlg1=           0
         NFxFlg=           0 DoJE=T BraDBF=F KetDBF=T FulRan=T
         wScrn=  0.000000 ICntrl=       500 IOpCl=  0 I1Cent=   200000004 NGrid=           0
         NMat0=    1 NMatS0=      1 NMatT0=    0 NMatD0=    1 NMtDS0=    0 NMtDT0=    0
 Symmetry not used in FoFCou.
 Harris En= -1619.14643182541    
 JPrj=0 DoOrth=F DoCkMO=F.
 Leave Link  401 at Tue Sep 22 01:46:09 2020, MaxMem=  2147483648 cpu:              10.0 elap:               2.5
 (Enter /prod/apps/gaussian/g16b1/l502.exe)
 Two-electron integral symmetry not used.
 Closed shell SCF:
 Using DIIS extrapolation, IDIIS=  1040.
 NGot=  2147483648 LenX=  2147267572 LenY=  2147161506
 Requested convergence on RMS density matrix=1.00D-08 within2000 cycles.
 Requested convergence on MAX density matrix=1.00D-06.
 Requested convergence on             energy=1.00D-06.
 No special actions if energy rises.

 Cycle   1  Pass 1  IDiag  1:
 FoFJK:  IHMeth= 1 ICntrl=       0 DoSepK=F KAlg= 0 I1Cent=           0 FoldK=F
 IRaf= 780000000 NMat=       1 IRICut=       1 DoRegI=T DoRafI=F ISym2E= 0 IDoP0=0 IntGTp=1.
 FoFCou: FMM=F IPFlag=           0 FMFlag=      100000 FMFlg1=           0
         NFxFlg=           0 DoJE=F BraDBF=F KetDBF=F FulRan=T
         wScrn=  0.000000 ICntrl=         0 IOpCl=  0 I1Cent=           0 NGrid=           0
         NMat0=    1 NMatS0=      1 NMatT0=    0 NMatD0=    1 NMtDS0=    0 NMtDT0=    0
 Symmetry not used in FoFCou.
 Inv3:  Mode=1 IEnd=    18705027.
 Iteration    1 A*A^-1 deviation from unit magnitude is 3.55D-15 for    234.
 Iteration    1 A*A^-1 deviation from orthogonality  is 2.34D-15 for   1833    596.
 Iteration    1 A^-1*A deviation from unit magnitude is 3.55D-15 for    601.
 Iteration    1 A^-1*A deviation from orthogonality  is 2.00D-15 for   2068   2055.
 E= -1618.20696856140    
 DIIS: error= 4.30D-02 at cycle   1 NSaved=   1.
 NSaved= 1 IEnMin= 1 EnMin= -1618.20696856140     IErMin= 1 ErrMin= 4.30D-02
 ErrMax= 4.30D-02  0.00D+00 EMaxC= 1.00D-01 BMatC= 9.50D-01 BMatP= 9.50D-01
 IDIUse=3 WtCom= 5.70D-01 WtEn= 4.30D-01
 Coeff-Com:  0.100D+01
 Coeff-En:   0.100D+01
 Coeff:      0.100D+01
 Gap=     0.223 Goal=   None    Shift=    0.000
 GapD=    0.223 DampG=1.000 DampE=0.500 DampFc=0.5000 IDamp=-1.
 Damping current iteration by 5.00D-01
 RMSDP=7.07D-03 MaxDP=4.99D-01              OVMax= 2.34D-01

 Cycle   2  Pass 1  IDiag  1:
 E= -1618.45799690947     Delta-E=       -0.251028348065 Rises=F Damp=T
 DIIS: error= 1.48D-02 at cycle   2 NSaved=   2.
 NSaved= 2 IEnMin= 2 EnMin= -1618.45799690947     IErMin= 2 ErrMin= 1.48D-02
 ErrMax= 1.48D-02  0.00D+00 EMaxC= 1.00D-01 BMatC= 9.88D-02 BMatP= 9.50D-01
 IDIUse=3 WtCom= 8.52D-01 WtEn= 1.48D-01
 Coeff-Com:  0.194D+00 0.806D+00
 Coeff-En:   0.313D+00 0.687D+00
 Coeff:      0.212D+00 0.788D+00
 Gap=     0.280 Goal=   None    Shift=    0.000
 RMSDP=1.73D-03 MaxDP=1.03D-01 DE=-2.51D-01 OVMax= 1.63D-01

 Cycle   3  Pass 1  IDiag  1:
 E= -1618.95717504750     Delta-E=       -0.499178138031 Rises=F Damp=F
 DIIS: error= 9.51D-03 at cycle   3 NSaved=   3.
 NSaved= 3 IEnMin= 3 EnMin= -1618.95717504750     IErMin= 3 ErrMin= 9.51D-03
 ErrMax= 9.51D-03  0.00D+00 EMaxC= 1.00D-01 BMatC= 5.09D-02 BMatP= 9.88D-02
 IDIUse=3 WtCom= 9.05D-01 WtEn= 9.51D-02
 Coeff-Com:  0.702D-01 0.431D+00 0.499D+00
 Coeff-En:   0.000D+00 0.000D+00 0.100D+01
 Coeff:      0.636D-01 0.390D+00 0.547D+00
 Gap=     0.218 Goal=   None    Shift=    0.000
 RMSDP=9.87D-04 MaxDP=2.93D-02 DE=-4.99D-01 OVMax= 6.80D-02

 Cycle   4  Pass 1  IDiag  1:
 E= -1618.99749782138     Delta-E=       -0.040322773881 Rises=F Damp=F
 DIIS: error= 4.62D-03 at cycle   4 NSaved=   4.
 NSaved= 4 IEnMin= 4 EnMin= -1618.99749782138     IErMin= 4 ErrMin= 4.62D-03
 ErrMax= 4.62D-03  0.00D+00 EMaxC= 1.00D-01 BMatC= 7.92D-03 BMatP= 5.09D-02
 IDIUse=3 WtCom= 9.54D-01 WtEn= 4.62D-02
 Coeff-Com:  0.634D-02 0.725D-01 0.293D+00 0.628D+00
 Coeff-En:   0.000D+00 0.000D+00 0.122D+00 0.878D+00
 Coeff:      0.604D-02 0.691D-01 0.285D+00 0.639D+00
 Gap=     0.208 Goal=   None    Shift=    0.000
 RMSDP=3.46D-04 MaxDP=1.27D-02 DE=-4.03D-02 OVMax= 2.68D-02

 Cycle   5  Pass 1  IDiag  1:
 E= -1619.00384603633     Delta-E=       -0.006348214949 Rises=F Damp=F
 DIIS: error= 1.47D-03 at cycle   5 NSaved=   5.
 NSaved= 5 IEnMin= 5 EnMin= -1619.00384603633     IErMin= 5 ErrMin= 1.47D-03
 ErrMax= 1.47D-03  0.00D+00 EMaxC= 1.00D-01 BMatC= 7.78D-04 BMatP= 7.92D-03
 IDIUse=3 WtCom= 9.85D-01 WtEn= 1.47D-02
 Coeff-Com: -0.826D-03 0.140D-01 0.126D+00 0.360D+00 0.501D+00
 Coeff-En:   0.000D+00 0.000D+00 0.000D+00 0.660D-02 0.993D+00
 Coeff:     -0.814D-03 0.138D-01 0.124D+00 0.355D+00 0.508D+00
 Gap=     0.212 Goal=   None    Shift=    0.000
 RMSDP=1.10D-04 MaxDP=8.08D-03 DE=-6.35D-03 OVMax= 6.62D-03

 Cycle   6  Pass 1  IDiag  1:
 E= -1619.00451256524     Delta-E=       -0.000666528912 Rises=F Damp=F
 DIIS: error= 2.30D-04 at cycle   6 NSaved=   6.
 NSaved= 6 IEnMin= 6 EnMin= -1619.00451256524     IErMin= 6 ErrMin= 2.30D-04
 ErrMax= 2.30D-04  0.00D+00 EMaxC= 1.00D-01 BMatC= 4.27D-05 BMatP= 7.78D-04
 IDIUse=3 WtCom= 9.98D-01 WtEn= 2.30D-03
 Coeff-Com: -0.745D-03 0.214D-02 0.419D-01 0.130D+00 0.262D+00 0.565D+00
 Coeff-En:   0.000D+00 0.000D+00 0.000D+00 0.000D+00 0.000D+00 0.100D+01
 Coeff:     -0.743D-03 0.214D-02 0.418D-01 0.130D+00 0.261D+00 0.566D+00
 Gap=     0.211 Goal=   None    Shift=    0.000
 RMSDP=2.40D-05 MaxDP=1.58D-03 DE=-6.67D-04 OVMax= 1.28D-03

 Cycle   7  Pass 1  IDiag  1:
 E= -1619.00454688960     Delta-E=       -0.000034324358 Rises=F Damp=F
 DIIS: error= 6.33D-05 at cycle   7 NSaved=   7.
 NSaved= 7 IEnMin= 7 EnMin= -1619.00454688960     IErMin= 7 ErrMin= 6.33D-05
 ErrMax= 6.33D-05  0.00D+00 EMaxC= 1.00D-01 BMatC= 2.93D-06 BMatP= 4.27D-05
 IDIUse=1 WtCom= 1.00D+00 WtEn= 0.00D+00
 Coeff-Com: -0.293D-03-0.307D-03 0.912D-02 0.308D-01 0.847D-01 0.281D+00
 Coeff-Com:  0.595D+00
 Coeff:     -0.293D-03-0.307D-03 0.912D-02 0.308D-01 0.847D-01 0.281D+00
 Coeff:      0.595D+00
 Gap=     0.211 Goal=   None    Shift=    0.000
 RMSDP=6.45D-06 MaxDP=4.38D-04 DE=-3.43D-05 OVMax= 3.06D-04

 Cycle   8  Pass 1  IDiag  1:
 E= -1619.00454934807     Delta-E=       -0.000002458467 Rises=F Damp=F
 DIIS: error= 1.72D-05 at cycle   8 NSaved=   8.
 NSaved= 8 IEnMin= 8 EnMin= -1619.00454934807     IErMin= 8 ErrMin= 1.72D-05
 ErrMax= 1.72D-05  0.00D+00 EMaxC= 1.00D-01 BMatC= 1.69D-07 BMatP= 2.93D-06
 IDIUse=1 WtCom= 1.00D+00 WtEn= 0.00D+00
 Coeff-Com: -0.885D-04-0.256D-03 0.141D-02 0.550D-02 0.216D-01 0.912D-01
 Coeff-Com:  0.269D+00 0.612D+00
 Coeff:     -0.885D-04-0.256D-03 0.141D-02 0.550D-02 0.216D-01 0.912D-01
 Coeff:      0.269D+00 0.612D+00
 Gap=     0.211 Goal=   None    Shift=    0.000
 RMSDP=1.84D-06 MaxDP=7.92D-05 DE=-2.46D-06 OVMax= 9.13D-05

 Cycle   9  Pass 1  IDiag  1:
 E= -1619.00454944021     Delta-E=       -0.000000092144 Rises=F Damp=F
 DIIS: error= 1.21D-05 at cycle   9 NSaved=   9.
 NSaved= 9 IEnMin= 9 EnMin= -1619.00454944021     IErMin= 9 ErrMin= 1.21D-05
 ErrMax= 1.21D-05  0.00D+00 EMaxC= 1.00D-01 BMatC= 5.98D-08 BMatP= 1.69D-07
 IDIUse=1 WtCom= 1.00D+00 WtEn= 0.00D+00
 Coeff-Com: -0.221D-04-0.121D-03-0.321D-03-0.555D-03 0.289D-02 0.221D-01
 Coeff-Com:  0.956D-01 0.402D+00 0.478D+00
 Coeff:     -0.221D-04-0.121D-03-0.321D-03-0.555D-03 0.289D-02 0.221D-01
 Coeff:      0.956D-01 0.402D+00 0.478D+00
 Gap=     0.211 Goal=   None    Shift=    0.000
 RMSDP=7.68D-07 MaxDP=3.05D-05 DE=-9.21D-08 OVMax= 4.13D-05

 Cycle  10  Pass 1  IDiag  1:
 E= -1619.00454948716     Delta-E=       -0.000000046948 Rises=F Damp=F
 DIIS: error= 1.76D-06 at cycle  10 NSaved=  10.
 NSaved=10 IEnMin=10 EnMin= -1619.00454948716     IErMin=10 ErrMin= 1.76D-06
 ErrMax= 1.76D-06  0.00D+00 EMaxC= 1.00D-01 BMatC= 1.85D-09 BMatP= 5.98D-08
 IDIUse=1 WtCom= 1.00D+00 WtEn= 0.00D+00
 Coeff-Com: -0.733D-05-0.319D-04-0.261D-03-0.647D-03-0.450D-04 0.443D-02
 Coeff-Com:  0.289D-01 0.155D+00 0.228D+00 0.585D+00
 Coeff:     -0.733D-05-0.319D-04-0.261D-03-0.647D-03-0.450D-04 0.443D-02
 Coeff:      0.289D-01 0.155D+00 0.228D+00 0.585D+00
 Gap=     0.211 Goal=   None    Shift=    0.000
 RMSDP=1.74D-07 MaxDP=7.94D-06 DE=-4.69D-08 OVMax= 8.62D-06

 Cycle  11  Pass 1  IDiag  1:
 E= -1619.00454948843     Delta-E=       -0.000000001276 Rises=F Damp=F
 DIIS: error= 8.63D-07 at cycle  11 NSaved=  11.
 NSaved=11 IEnMin=11 EnMin= -1619.00454948843     IErMin=11 ErrMin= 8.63D-07
 ErrMax= 8.63D-07  0.00D+00 EMaxC= 1.00D-01 BMatC= 3.21D-10 BMatP= 1.85D-09
 IDIUse=1 WtCom= 1.00D+00 WtEn= 0.00D+00
 Coeff-Com: -0.264D-05 0.214D-05-0.110D-03-0.290D-03-0.449D-03-0.684D-03
 Coeff-Com:  0.277D-02 0.295D-01 0.564D-01 0.323D+00 0.590D+00
 Coeff:     -0.264D-05 0.214D-05-0.110D-03-0.290D-03-0.449D-03-0.684D-03
 Coeff:      0.277D-02 0.295D-01 0.564D-01 0.323D+00 0.590D+00
 Gap=     0.211 Goal=   None    Shift=    0.000
 RMSDP=6.26D-08 MaxDP=2.44D-06 DE=-1.28D-09 OVMax= 3.20D-06

 Cycle  12  Pass 1  IDiag  1:
 E= -1619.00454948868     Delta-E=       -0.000000000247 Rises=F Damp=F
 DIIS: error= 2.36D-07 at cycle  12 NSaved=  12.
 NSaved=12 IEnMin=12 EnMin= -1619.00454948868     IErMin=12 ErrMin= 2.36D-07
 ErrMax= 2.36D-07  0.00D+00 EMaxC= 1.00D-01 BMatC= 2.81D-11 BMatP= 3.21D-10
 IDIUse=1 WtCom= 1.00D+00 WtEn= 0.00D+00
 Coeff-Com: -0.142D-05 0.361D-05-0.493D-04-0.129D-03-0.268D-03-0.726D-03
 Coeff-Com: -0.416D-03 0.628D-02 0.163D-01 0.143D+00 0.331D+00 0.505D+00
 Coeff:     -0.142D-05 0.361D-05-0.493D-04-0.129D-03-0.268D-03-0.726D-03
 Coeff:     -0.416D-03 0.628D-02 0.163D-01 0.143D+00 0.331D+00 0.505D+00
 Gap=     0.211 Goal=   None    Shift=    0.000
 RMSDP=1.97D-08 MaxDP=7.66D-07 DE=-2.47D-10 OVMax= 9.68D-07

 Cycle  13  Pass 1  IDiag  1:
 E= -1619.00454948871     Delta-E=       -0.000000000034 Rises=F Damp=F
 DIIS: error= 9.10D-08 at cycle  13 NSaved=  13.
 NSaved=13 IEnMin=13 EnMin= -1619.00454948871     IErMin=13 ErrMin= 9.10D-08
 ErrMax= 9.10D-08  0.00D+00 EMaxC= 1.00D-01 BMatC= 3.46D-12 BMatP= 2.81D-11
 IDIUse=1 WtCom= 1.00D+00 WtEn= 0.00D+00
 Coeff-Com: -0.551D-06 0.207D-05-0.122D-04-0.302D-04-0.865D-04-0.317D-03
 Coeff-Com: -0.656D-03-0.960D-03 0.391D-03 0.309D-01 0.971D-01 0.292D+00
 Coeff-Com:  0.582D+00
 Coeff:     -0.551D-06 0.207D-05-0.122D-04-0.302D-04-0.865D-04-0.317D-03
 Coeff:     -0.656D-03-0.960D-03 0.391D-03 0.309D-01 0.971D-01 0.292D+00
 Coeff:      0.582D+00
 Gap=     0.211 Goal=   None    Shift=    0.000
 RMSDP=6.21D-09 MaxDP=2.76D-07 DE=-3.41D-11 OVMax= 3.65D-07

 Error on total polarization charges =  0.02113
 SCF Done:  E(RB3LYP) =  -1619.00454949     A.U. after   13 cycles
            NFock= 13  Conv=0.62D-08     -V/T= 2.0067
 KE= 1.608304887359D+03 PE=-7.425801526340D+03 EE= 2.400250612014D+03
 Leave Link  502 at Tue Sep 22 01:47:29 2020, MaxMem=  2147483648 cpu:             318.6 elap:              79.7
 (Enter /prod/apps/gaussian/g16b1/l601.exe)
 Copying SCF densities to generalized density rwf, IOpCl= 0 IROHF=0.

 **********************************************************************

            Population analysis using the SCF Density.

 **********************************************************************

 Alpha  occ. eigenvalues --  -89.08450 -89.07433 -19.14326 -19.14247 -19.10754
 Alpha  occ. eigenvalues --  -19.10493 -14.27976 -10.24809 -10.21280 -10.20913
 Alpha  occ. eigenvalues --  -10.19483 -10.19319 -10.18839 -10.18830 -10.18675
 Alpha  occ. eigenvalues --  -10.18586 -10.18584 -10.18408 -10.18307  -8.11542
 Alpha  occ. eigenvalues --   -8.09835  -6.08005  -6.07894  -6.07771  -6.06367
 Alpha  occ. eigenvalues --   -6.06238  -6.06150  -1.09225  -1.06486  -0.98961
 Alpha  occ. eigenvalues --   -0.95339  -0.88767  -0.85302  -0.81846  -0.78317
 Alpha  occ. eigenvalues --   -0.74063  -0.73766  -0.72219  -0.70447  -0.66552
 Alpha  occ. eigenvalues --   -0.60568  -0.60127  -0.58158  -0.56577  -0.53612
 Alpha  occ. eigenvalues --   -0.50776  -0.49541  -0.48718  -0.48524  -0.46527
 Alpha  occ. eigenvalues --   -0.45656  -0.45299  -0.44907  -0.44642  -0.43559
 Alpha  occ. eigenvalues --   -0.43010  -0.41563  -0.41350  -0.40957  -0.40489
 Alpha  occ. eigenvalues --   -0.40211  -0.38310  -0.37584  -0.35709  -0.34816
 Alpha  occ. eigenvalues --   -0.34009  -0.33400  -0.32911  -0.32625  -0.31386
 Alpha  occ. eigenvalues --   -0.31078  -0.29764  -0.29258  -0.28772  -0.27667
 Alpha  occ. eigenvalues --   -0.26792  -0.24962  -0.24347  -0.23322  -0.21158
 Alpha virt. eigenvalues --   -0.00074   0.00036   0.04763   0.05555   0.06635
 Alpha virt. eigenvalues --    0.06982   0.08930   0.10257   0.11694   0.11895
 Alpha virt. eigenvalues --    0.12169   0.12765   0.13371   0.14436   0.14801
 Alpha virt. eigenvalues --    0.15536   0.15982   0.16052   0.16759   0.17088
 Alpha virt. eigenvalues --    0.18119   0.18489   0.19959   0.20217   0.20623
 Alpha virt. eigenvalues --    0.21898   0.23678   0.24348   0.24839   0.25525
 Alpha virt. eigenvalues --    0.27594   0.29647   0.30959   0.31773   0.33397
 Alpha virt. eigenvalues --    0.34580   0.34711   0.35832   0.36534   0.37526
 Alpha virt. eigenvalues --    0.41489   0.44277   0.45839   0.46619   0.46672
 Alpha virt. eigenvalues --    0.48971   0.50643   0.52034   0.52158   0.52916
 Alpha virt. eigenvalues --    0.53510   0.55512   0.56195   0.56396   0.56485
 Alpha virt. eigenvalues --    0.57305   0.58116   0.58760   0.59784   0.60061
 Alpha virt. eigenvalues --    0.60994   0.61301   0.61580   0.61905   0.63403
 Alpha virt. eigenvalues --    0.65384   0.66301   0.66773   0.69997   0.70841
 Alpha virt. eigenvalues --    0.72068   0.72997   0.74790   0.75455   0.76051
 Alpha virt. eigenvalues --    0.77479   0.80407   0.81207   0.81594   0.82929
 Alpha virt. eigenvalues --    0.83378   0.83757   0.84015   0.84383   0.84660
 Alpha virt. eigenvalues --    0.85406   0.86048   0.86709   0.87651   0.88334
 Alpha virt. eigenvalues --    0.89908   0.90024   0.90782   0.91159   0.91807
 Alpha virt. eigenvalues --    0.93096   0.94105   0.94653   0.95513   0.96267
 Alpha virt. eigenvalues --    0.97047   0.97630   0.99692   0.99905   1.00501
 Alpha virt. eigenvalues --    1.00852   1.01522   1.04134   1.04450   1.06146
 Alpha virt. eigenvalues --    1.07110   1.08581   1.10451   1.11230   1.11857
 Alpha virt. eigenvalues --    1.12301   1.12936   1.15786   1.17436   1.18484
 Alpha virt. eigenvalues --    1.18758   1.19581   1.21601   1.22435   1.23059
 Alpha virt. eigenvalues --    1.23660   1.26225   1.30684   1.31579   1.34900
 Alpha virt. eigenvalues --    1.36418   1.39904   1.42024   1.42616   1.43795
 Alpha virt. eigenvalues --    1.45460   1.46733   1.47894   1.48559   1.49525
 Alpha virt. eigenvalues --    1.51056   1.51604   1.59095   1.59566   1.64125
 Alpha virt. eigenvalues --    1.66487   1.69958   1.71175   1.74292   1.75207
 Alpha virt. eigenvalues --    1.76517   1.77860   1.78946   1.79902   1.80654
 Alpha virt. eigenvalues --    1.80710   1.81668   1.82458   1.83296   1.84443
 Alpha virt. eigenvalues --    1.84789   1.85765   1.86439   1.87093   1.88327
 Alpha virt. eigenvalues --    1.89202   1.90239   1.92656   1.93814   1.94290
 Alpha virt. eigenvalues --    1.96426   1.97872   1.98519   1.99549   2.02773
 Alpha virt. eigenvalues --    2.04006   2.04139   2.04600   2.06072   2.07521
 Alpha virt. eigenvalues --    2.07941   2.11405   2.12870   2.13743   2.14104
 Alpha virt. eigenvalues --    2.14770   2.15123   2.17075   2.18950   2.20329
 Alpha virt. eigenvalues --    2.21741   2.22695   2.24022   2.25895   2.26963
 Alpha virt. eigenvalues --    2.27271   2.30750   2.31042   2.32609   2.33789
 Alpha virt. eigenvalues --    2.34666   2.37752   2.42515   2.43196   2.45027
 Alpha virt. eigenvalues --    2.48012   2.48304   2.57509   2.57829   2.60771
 Alpha virt. eigenvalues --    2.66221   2.70850   2.71315   2.72224   2.72702
 Alpha virt. eigenvalues --    2.73236   2.74561   2.76859   2.77380   2.79690
 Alpha virt. eigenvalues --    2.81810   2.83354   2.92878   2.95597   3.05125
 Alpha virt. eigenvalues --    3.40870   3.80146   3.80736   3.86163   3.96529
 Alpha virt. eigenvalues --    4.00682   4.05649   4.09076   4.11439   4.11657
 Alpha virt. eigenvalues --    4.15317   4.20554   4.25081   4.27436   4.33219
 Alpha virt. eigenvalues --    4.35582   4.42072   4.55710   4.70600   4.77136
          Condensed to atoms (all electrons):
               1          2          3          4          5          6
     1  C    5.643768   0.177559  -0.071929  -0.002402  -0.000399  -0.000021
     2  S    0.177559  13.704348   0.298940   0.000184  -0.010645   0.001884
     3  N   -0.071929   0.298940   7.499764   0.271969  -0.051430   0.001525
     4  C   -0.002402   0.000184   0.271969   4.798935   0.324178  -0.083535
     5  C   -0.000399  -0.010645  -0.051430   0.324178   5.760849   0.146235
     6  S   -0.000021   0.001884   0.001525  -0.083535   0.146235  13.887806
     7  C    0.000852  -0.013065  -0.036501   0.307272  -0.199383   0.147988
     8  O    0.000004  -0.000380  -0.000110   0.001769  -0.043787   0.418137
     9  O   -0.000000   0.000007  -0.000041   0.001042  -0.042909   0.394135
    10  C   -0.000269   0.000046  -0.068876   0.354961  -0.053883   0.003876
    11  C    0.000002  -0.000026   0.004450  -0.027198  -0.001757  -0.001824
    12  C   -0.000000   0.000003  -0.000092   0.003411  -0.000098   0.000387
    13  C    0.000000  -0.000000  -0.000004   0.000057  -0.000001  -0.000010
    14  C    0.000000  -0.000000  -0.000000   0.000002  -0.000000  -0.000000
    15  C   -0.000000   0.000000   0.000000  -0.000000   0.000000   0.000000
    16  C    0.000000  -0.000000  -0.000000   0.000002   0.000000  -0.000000
    17  C   -0.000000  -0.000000  -0.000006   0.000094  -0.000008  -0.000011
    18  O   -0.058144   0.342566  -0.056752  -0.001237  -0.005445   0.005012
    19  O   -0.072762   0.437890  -0.072858   0.002502   0.000048   0.000017
    20  H    0.334688  -0.007391  -0.000774   0.000025  -0.000004  -0.000024
    21  H    0.333115  -0.002024   0.002884  -0.000004   0.000012   0.000003
    22  H    0.342766  -0.007366   0.000020   0.000012   0.000002  -0.000002
    23  H    0.000004   0.000474   0.002137  -0.024336   0.334320  -0.011296
    24  H    0.000111   0.002734  -0.005173  -0.021477   0.324959  -0.004519
    25  H   -0.000058   0.000687   0.001663  -0.022960   0.009831  -0.011527
    26  H   -0.000099   0.004802  -0.009483  -0.024071   0.004321  -0.006839
    27  H   -0.000023   0.000326   0.004959  -0.033381   0.006249  -0.000297
    28  H    0.000014   0.000202   0.005836  -0.034625  -0.006640  -0.000218
    29  H    0.000000   0.000001  -0.000000  -0.004440   0.001974   0.000885
    30  H   -0.000000   0.000009  -0.000011  -0.004148  -0.000394   0.000929
    31  H   -0.000000   0.000000   0.000000  -0.000044   0.000001  -0.000002
    32  H    0.000000  -0.000000   0.000000  -0.000000   0.000000  -0.000000
    33  H   -0.000000   0.000000  -0.000000   0.000000   0.000000   0.000000
    34  H    0.000000  -0.000000   0.000000  -0.000000   0.000000  -0.000000
    35  H   -0.000000   0.000000   0.000001  -0.000058  -0.000009  -0.000002
               7          8          9         10         11         12
     1  C    0.000852   0.000004  -0.000000  -0.000269   0.000002  -0.000000
     2  S   -0.013065  -0.000380   0.000007   0.000046  -0.000026   0.000003
     3  N   -0.036501  -0.000110  -0.000041  -0.068876   0.004450  -0.000092
     4  C    0.307272   0.001769   0.001042   0.354961  -0.027198   0.003411
     5  C   -0.199383  -0.043787  -0.042909  -0.053883  -0.001757  -0.000098
     6  S    0.147988   0.418137   0.394135   0.003876  -0.001824   0.000387
     7  C    5.767673  -0.045388  -0.043040  -0.049373  -0.002147  -0.000081
     8  O   -0.045388   8.297292  -0.047174  -0.000063  -0.000004   0.000000
     9  O   -0.043040  -0.047174   8.327818  -0.000634  -0.000286   0.000294
    10  C   -0.049373  -0.000063  -0.000634   5.166017   0.315692  -0.033995
    11  C   -0.002147  -0.000004  -0.000286   0.315692   5.218633   0.341857
    12  C   -0.000081   0.000000   0.000294  -0.033995   0.341857   4.670486
    13  C   -0.000006  -0.000000  -0.000003  -0.003592  -0.056610   0.544816
    14  C    0.000000  -0.000000  -0.000000  -0.000059   0.006621  -0.021866
    15  C    0.000000   0.000000   0.000000   0.000017   0.000314  -0.034261
    16  C   -0.000000  -0.000000  -0.000000  -0.000036   0.006521  -0.021545
    17  C   -0.000001  -0.000000  -0.000003  -0.004030  -0.057984   0.542938
    18  O   -0.004541  -0.000225   0.000001   0.000100   0.000003   0.000000
    19  O   -0.000157  -0.000000  -0.000000  -0.000062   0.000000  -0.000000
    20  H    0.000280  -0.000006   0.000000   0.000051  -0.000001   0.000000
    21  H    0.000007  -0.000000   0.000000   0.000000  -0.000000   0.000000
    22  H    0.000046   0.000000   0.000000   0.000000   0.000000  -0.000000
    23  H    0.009963   0.000802  -0.001177  -0.006643  -0.000115  -0.000179
    24  H    0.005445  -0.000185   0.001068   0.002757   0.000209   0.000005
    25  H    0.336488   0.000824  -0.001126  -0.007069   0.000085  -0.000170
    26  H    0.329536   0.001164   0.001085   0.002805   0.000223   0.000005
    27  H   -0.006934   0.000001  -0.000001   0.357639  -0.037221  -0.003075
    28  H    0.006414   0.000001  -0.000002   0.358535  -0.038498  -0.003528
    29  H   -0.000408   0.000007   0.002810  -0.035151   0.358415  -0.028674
    30  H    0.001727   0.000007   0.002778  -0.034419   0.357858  -0.029058
    31  H   -0.000010  -0.000000  -0.000000   0.000231  -0.009013  -0.044648
    32  H    0.000000  -0.000000  -0.000000  -0.000001  -0.000168   0.003641
    33  H    0.000000   0.000000   0.000000   0.000000   0.000006   0.000621
    34  H    0.000000  -0.000000  -0.000000  -0.000001  -0.000168   0.003626
    35  H    0.000001   0.000000  -0.000000   0.000262  -0.008835  -0.044968
              13         14         15         16         17         18
     1  C    0.000000   0.000000  -0.000000   0.000000  -0.000000  -0.058144
     2  S   -0.000000  -0.000000   0.000000  -0.000000  -0.000000   0.342566
     3  N   -0.000004  -0.000000   0.000000  -0.000000  -0.000006  -0.056752
     4  C    0.000057   0.000002  -0.000000   0.000002   0.000094  -0.001237
     5  C   -0.000001  -0.000000   0.000000   0.000000  -0.000008  -0.005445
     6  S   -0.000010  -0.000000   0.000000  -0.000000  -0.000011   0.005012
     7  C   -0.000006   0.000000   0.000000  -0.000000  -0.000001  -0.004541
     8  O   -0.000000  -0.000000   0.000000  -0.000000  -0.000000  -0.000225
     9  O   -0.000003  -0.000000   0.000000  -0.000000  -0.000003   0.000001
    10  C   -0.003592  -0.000059   0.000017  -0.000036  -0.004030   0.000100
    11  C   -0.056610   0.006621   0.000314   0.006521  -0.057984   0.000003
    12  C    0.544816  -0.021866  -0.034261  -0.021545   0.542938   0.000000
    13  C    4.986139   0.516845  -0.038313  -0.046626  -0.040239  -0.000000
    14  C    0.516845   4.903737   0.544248  -0.029328  -0.046770  -0.000000
    15  C   -0.038313   0.544248   4.887303   0.544217  -0.038250   0.000000
    16  C   -0.046626  -0.029328   0.544217   4.902377   0.517425  -0.000000
    17  C   -0.040239  -0.046770  -0.038250   0.517425   4.987410  -0.000000
    18  O   -0.000000  -0.000000   0.000000  -0.000000  -0.000000   8.475221
    19  O   -0.000000  -0.000000   0.000000   0.000000   0.000000  -0.049211
    20  H    0.000000  -0.000000  -0.000000   0.000000   0.000000  -0.001574
    21  H   -0.000000  -0.000000  -0.000000  -0.000000   0.000000  -0.000149
    22  H   -0.000000  -0.000000   0.000000  -0.000000  -0.000000   0.002243
    23  H    0.000000  -0.000000   0.000000  -0.000000   0.000011   0.000181
    24  H    0.000000  -0.000000   0.000000  -0.000000  -0.000000   0.014254
    25  H    0.000010  -0.000000   0.000000  -0.000000   0.000000   0.000146
    26  H   -0.000000   0.000000   0.000000  -0.000000   0.000000   0.008768
    27  H    0.003822  -0.000138  -0.000006  -0.000009  -0.000114   0.000006
    28  H   -0.000072  -0.000007  -0.000005  -0.000159   0.004284   0.000003
    29  H    0.003866  -0.000209   0.000011   0.000117  -0.004975  -0.000000
    30  H   -0.004894   0.000129   0.000010  -0.000205   0.004063  -0.000000
    31  H    0.359381  -0.045560   0.004756   0.000265   0.006075   0.000000
    32  H   -0.038638   0.360292  -0.042447   0.004488   0.000749   0.000000
    33  H    0.004553  -0.042167   0.362866  -0.042175   0.004553   0.000000
    34  H    0.000749   0.004486  -0.042451   0.360355  -0.038707   0.000000
    35  H    0.006044   0.000270   0.004748  -0.045315   0.359581   0.000000
              19         20         21         22         23         24
     1  C   -0.072762   0.334688   0.333115   0.342766   0.000004   0.000111
     2  S    0.437890  -0.007391  -0.002024  -0.007366   0.000474   0.002734
     3  N   -0.072858  -0.000774   0.002884   0.000020   0.002137  -0.005173
     4  C    0.002502   0.000025  -0.000004   0.000012  -0.024336  -0.021477
     5  C    0.000048  -0.000004   0.000012   0.000002   0.334320   0.324959
     6  S    0.000017  -0.000024   0.000003  -0.000002  -0.011296  -0.004519
     7  C   -0.000157   0.000280   0.000007   0.000046   0.009963   0.005445
     8  O   -0.000000  -0.000006  -0.000000   0.000000   0.000802  -0.000185
     9  O   -0.000000   0.000000   0.000000   0.000000  -0.001177   0.001068
    10  C   -0.000062   0.000051   0.000000   0.000000  -0.006643   0.002757
    11  C    0.000000  -0.000001  -0.000000   0.000000  -0.000115   0.000209
    12  C   -0.000000   0.000000   0.000000  -0.000000  -0.000179   0.000005
    13  C   -0.000000   0.000000  -0.000000  -0.000000   0.000000   0.000000
    14  C   -0.000000  -0.000000  -0.000000  -0.000000  -0.000000  -0.000000
    15  C    0.000000  -0.000000  -0.000000   0.000000   0.000000   0.000000
    16  C    0.000000   0.000000  -0.000000  -0.000000  -0.000000  -0.000000
    17  C    0.000000   0.000000   0.000000  -0.000000   0.000011  -0.000000
    18  O   -0.049211  -0.001574  -0.000149   0.002243   0.000181   0.014254
    19  O    8.395289   0.002308  -0.000294  -0.000379  -0.000002  -0.000460
    20  H    0.002308   0.529665  -0.024504  -0.025137   0.000000   0.000007
    21  H   -0.000294  -0.024504   0.523065  -0.023866  -0.000000   0.000001
    22  H   -0.000379  -0.025137  -0.023866   0.520002  -0.000000  -0.000005
    23  H   -0.000002   0.000000  -0.000000  -0.000000   0.494147  -0.016751
    24  H   -0.000460   0.000007   0.000001  -0.000005  -0.016751   0.476458
    25  H    0.000001  -0.000064   0.000002  -0.000001  -0.000272  -0.000263
    26  H   -0.000005   0.003680  -0.000063   0.000119  -0.000238  -0.000290
    27  H   -0.000002   0.000006   0.000001   0.000014   0.000133  -0.000108
    28  H   -0.000023   0.000000  -0.000000  -0.000000   0.002471   0.000001
    29  H    0.000000   0.000000  -0.000000   0.000000   0.003694   0.000033
    30  H    0.000000  -0.000000   0.000000  -0.000000   0.000065  -0.000015
    31  H    0.000000  -0.000000   0.000000   0.000000  -0.000000  -0.000000
    32  H    0.000000  -0.000000  -0.000000   0.000000   0.000000   0.000000
    33  H   -0.000000   0.000000   0.000000  -0.000000  -0.000000  -0.000000
    34  H    0.000000  -0.000000  -0.000000   0.000000  -0.000000  -0.000000
    35  H    0.000000  -0.000000  -0.000000   0.000000   0.000096   0.000000
              25         26         27         28         29         30
     1  C   -0.000058  -0.000099  -0.000023   0.000014   0.000000  -0.000000
     2  S    0.000687   0.004802   0.000326   0.000202   0.000001   0.000009
     3  N    0.001663  -0.009483   0.004959   0.005836  -0.000000  -0.000011
     4  C   -0.022960  -0.024071  -0.033381  -0.034625  -0.004440  -0.004148
     5  C    0.009831   0.004321   0.006249  -0.006640   0.001974  -0.000394
     6  S   -0.011527  -0.006839  -0.000297  -0.000218   0.000885   0.000929
     7  C    0.336488   0.329536  -0.006934   0.006414  -0.000408   0.001727
     8  O    0.000824   0.001164   0.000001   0.000001   0.000007   0.000007
     9  O   -0.001126   0.001085  -0.000001  -0.000002   0.002810   0.002778
    10  C   -0.007069   0.002805   0.357639   0.358535  -0.035151  -0.034419
    11  C    0.000085   0.000223  -0.037221  -0.038498   0.358415   0.357858
    12  C   -0.000170   0.000005  -0.003075  -0.003528  -0.028674  -0.029058
    13  C    0.000010  -0.000000   0.003822  -0.000072   0.003866  -0.004894
    14  C   -0.000000   0.000000  -0.000138  -0.000007  -0.000209   0.000129
    15  C    0.000000   0.000000  -0.000006  -0.000005   0.000011   0.000010
    16  C   -0.000000  -0.000000  -0.000009  -0.000159   0.000117  -0.000205
    17  C    0.000000   0.000000  -0.000114   0.004284  -0.004975   0.004063
    18  O    0.000146   0.008768   0.000006   0.000003  -0.000000  -0.000000
    19  O    0.000001  -0.000005  -0.000002  -0.000023   0.000000   0.000000
    20  H   -0.000064   0.003680   0.000006   0.000000   0.000000  -0.000000
    21  H    0.000002  -0.000063   0.000001  -0.000000  -0.000000   0.000000
    22  H   -0.000001   0.000119   0.000014  -0.000000   0.000000  -0.000000
    23  H   -0.000272  -0.000238   0.000133   0.002471   0.003694   0.000065
    24  H   -0.000263  -0.000290  -0.000108   0.000001   0.000033  -0.000015
    25  H    0.490366  -0.019127   0.002541   0.000132   0.000077   0.003627
    26  H   -0.019127   0.485734  -0.000072  -0.000093  -0.000014   0.000019
    27  H    0.002541  -0.000072   0.589829  -0.033373   0.005460  -0.004840
    28  H    0.000132  -0.000093  -0.033373   0.589303  -0.004568   0.005410
    29  H    0.000077  -0.000014   0.005460  -0.004568   0.575436  -0.036685
    30  H    0.003627   0.000019  -0.004840   0.005410  -0.036685   0.576176
    31  H    0.000076   0.000000   0.000670   0.000034   0.000070   0.005040
    32  H   -0.000000  -0.000000   0.000003   0.000000   0.000003  -0.000006
    33  H   -0.000000  -0.000000  -0.000000  -0.000000  -0.000000  -0.000000
    34  H    0.000000   0.000000   0.000000   0.000004  -0.000005   0.000003
    35  H   -0.000000  -0.000000   0.000037   0.000896   0.004642   0.000069
              31         32         33         34         35
     1  C   -0.000000   0.000000  -0.000000   0.000000  -0.000000
     2  S    0.000000  -0.000000   0.000000  -0.000000   0.000000
     3  N    0.000000   0.000000  -0.000000   0.000000   0.000001
     4  C   -0.000044  -0.000000   0.000000  -0.000000  -0.000058
     5  C    0.000001   0.000000   0.000000   0.000000  -0.000009
     6  S   -0.000002  -0.000000   0.000000  -0.000000  -0.000002
     7  C   -0.000010   0.000000   0.000000   0.000000   0.000001
     8  O   -0.000000  -0.000000   0.000000  -0.000000   0.000000
     9  O   -0.000000  -0.000000   0.000000  -0.000000  -0.000000
    10  C    0.000231  -0.000001   0.000000  -0.000001   0.000262
    11  C   -0.009013  -0.000168   0.000006  -0.000168  -0.008835
    12  C   -0.044648   0.003641   0.000621   0.003626  -0.044968
    13  C    0.359381  -0.038638   0.004553   0.000749   0.006044
    14  C   -0.045560   0.360292  -0.042167   0.004486   0.000270
    15  C    0.004756  -0.042447   0.362866  -0.042451   0.004748
    16  C    0.000265   0.004488  -0.042175   0.360355  -0.045315
    17  C    0.006075   0.000749   0.004553  -0.038707   0.359581
    18  O    0.000000   0.000000   0.000000   0.000000   0.000000
    19  O    0.000000   0.000000  -0.000000   0.000000   0.000000
    20  H   -0.000000  -0.000000   0.000000  -0.000000  -0.000000
    21  H    0.000000  -0.000000   0.000000  -0.000000  -0.000000
    22  H    0.000000   0.000000  -0.000000   0.000000   0.000000
    23  H   -0.000000   0.000000  -0.000000  -0.000000   0.000096
    24  H   -0.000000   0.000000  -0.000000  -0.000000   0.000000
    25  H    0.000076  -0.000000  -0.000000   0.000000  -0.000000
    26  H    0.000000  -0.000000  -0.000000   0.000000  -0.000000
    27  H    0.000670   0.000003  -0.000000   0.000000   0.000037
    28  H    0.000034   0.000000  -0.000000   0.000004   0.000896
    29  H    0.000070   0.000003  -0.000000  -0.000005   0.004642
    30  H    0.005040  -0.000006  -0.000000   0.000003   0.000069
    31  H    0.586112  -0.005307  -0.000167   0.000017  -0.000165
    32  H   -0.005307   0.575756  -0.005216  -0.000175   0.000016
    33  H   -0.000167  -0.005216   0.576239  -0.005215  -0.000167
    34  H    0.000017  -0.000175  -0.005215   0.575662  -0.005289
    35  H   -0.000165   0.000016  -0.000167  -0.005289   0.585520
 Mulliken charges:
               1
     1  C   -0.626777
     2  S    1.068235
     3  N   -0.720107
     4  C    0.217501
     5  C   -0.496187
     6  S    1.111308
     7  C   -0.512657
     8  O   -0.582686
     9  O   -0.594641
    10  C   -0.264833
    11  C   -0.369032
    12  C    0.154149
    13  C   -0.197273
    14  C   -0.150525
    15  C   -0.152757
    16  C   -0.150368
    17  C   -0.196084
    18  O   -0.671225
    19  O   -0.641839
    20  H    0.188768
    21  H    0.191814
[...]
 Deg. of freedom    99
 Full point group                 C1      NOp   1
 RotChk:  IX=0 Diff= 9.30D-16
 Largest Abelian subgroup         C1      NOp   1
 Largest concise Abelian subgroup C1      NOp   1
                         Standard orientation:                         
 ---------------------------------------------------------------------
 Center     Atomic      Atomic             Coordinates (Angstroms)
 Number     Number       Type             X           Y           Z
 ---------------------------------------------------------------------
      1          6           0        3.336159   -2.117498    1.521038
      2         16           0        2.956834   -1.555734   -0.164067
      3          7           0        1.387565   -1.385041   -0.299742
      4          6           0        0.719490   -0.104600   -0.119323
      5          6           0        1.042978    0.978489   -1.231810
      6         16           0        1.295381    2.256446    0.040529
      7          6           0        1.134938    0.795979    1.120030
      8          8           0        2.647426    2.861135    0.039142
      9          8           0        0.143985    3.184141    0.161080
     10          6           0       -0.786320   -0.475963   -0.081442
     11          6           0       -1.841348    0.642999    0.034056
     12          6           0       -3.244218    0.068093    0.026801
     13          6           0       -3.888011   -0.277728    1.223962
     14          6           0       -5.168438   -0.836739    1.216602
     15          6           0       -5.829473   -1.060274    0.005938
     16          6           0       -5.200324   -0.719166   -1.194548
     17          6           0       -3.920336   -0.160205   -1.181114
     18          8           0        3.755150   -0.297406   -0.335556
     19          8           0        3.387545   -2.696475   -1.024124
     20          1           0        3.033289   -1.356459    2.243584
     21          1           0        4.412236   -2.292722    1.597811
     22          1           0        2.791141   -3.044567    1.710315
     23          1           0        0.252447    1.221890   -1.944046
     24          1           0        1.987649    0.783006   -1.737362
     25          1           0        0.397035    0.920226    1.914330
     26          1           0        2.113271    0.563473    1.537725
     27          1           0       -0.916279   -1.171099    0.757053
     28          1           0       -0.985858   -1.052286   -0.992987
     29          1           0       -1.738878    1.350338   -0.795831
     30          1           0       -1.691603    1.216799    0.954878
     31          1           0       -3.382073   -0.103325    2.171166
     32          1           0       -5.650427   -1.093775    2.156295
     33          1           0       -6.826539   -1.492242   -0.001932
     34          1           0       -5.707426   -0.883784   -2.141736
     35          1           0       -3.439793    0.106927   -2.119934
 ---------------------------------------------------------------------
 Rotational constants (GHZ):           0.4980070           0.1669091           0.1384958
 Leave Link  202 at Tue Sep 22 02:06:50 2020, MaxMem=   262144000 cpu:               0.1 elap:               0.0
 (Enter /prod/apps/gaussian/g16b1/l301.exe)
 Standard basis: Aug-CC-pVDZ (5D, 7F)
 Ernie: Thresh=  0.10000D-02 Tol=  0.10000D-05 Strict=F.
 Ernie:  54 primitive shells out of 643 were deleted.
 There are   627 symmetry adapted cartesian basis functions of A   symmetry.
 There are   589 symmetry adapted basis functions of A   symmetry.
   589 basis functions,  1069 primitive gaussians,   627 cartesian basis functions
    80 alpha electrons       80 beta electrons
       nuclear repulsion energy      1798.3064753734 Hartrees.
 IExCor=    0 DFT=F Ex=HF Corr=None ExCW=0 ScaHFX=  1.000000
 ScaDFX=  1.000000  1.000000  1.000000  1.000000 ScalE2=  1.000000  1.000000
 IRadAn=      5 IRanWt=     -1 IRanGd=            0 ICorTp=0 IEmpDi=  4
 NAtoms=   35 NActive=   35 NUniq=   35 SFac= 1.00D+00 NAtFMM=   60 NAOKFM=F Big=F
 Integral buffers will be    131072 words long.
 Raffenetti 1 integral format.
 Two-electron integral symmetry is turned on.
 Leave Link  301 at Tue Sep 22 02:06:50 2020, MaxMem=   262144000 cpu:               0.2 elap:               0.1
 (Enter /prod/apps/gaussian/g16b1/l302.exe)
 NPDir=0 NMtPBC=     1 NCelOv=     1 NCel=       1 NClECP=     1 NCelD=      1
         NCelK=      1 NCelE2=     1 NClLst=     1 CellRange=     0.0.
 One-electron integrals computed using PRISM.
 One-electron integral symmetry used in STVInt
 NBasis=   589 RedAO= T EigKep=  1.86D-06  NBF=   589
 NBsUse=   589 1.00D-06 EigRej= -1.00D+00 NBFU=   589
 Leave Link  302 at Tue Sep 22 02:06:50 2020, MaxMem=   262144000 cpu:               1.8 elap:               0.5
 (Enter /prod/apps/gaussian/g16b1/l303.exe)
 DipDrv:  MaxL=1.
 Leave Link  303 at Tue Sep 22 02:06:50 2020, MaxMem=   262144000 cpu:               0.4 elap:               0.1
 (Enter /prod/apps/gaussian/g16b1/l401.exe)
 ExpMin= 2.97D-02 ExpMax= 1.11D+05 ExpMxC= 1.07D+03 IAcc=3 IRadAn=         5 AccDes= 0.00D+00
 Harris functional with IExCor=  205 and IRadAn=       5 diagonalized for initial guess.
 HarFok:  IExCor=  205 AccDes= 0.00D+00 IRadAn=         5 IDoV= 1 UseB2=F ITyADJ=14
 ICtDFT=  3500011 ScaDFX=  1.000000  1.000000  1.000000  1.000000
 FoFCou: FMM=F IPFlag=           0 FMFlag=      100000 FMFlg1=           0
         NFxFlg=           0 DoJE=T BraDBF=F KetDBF=T FulRan=T
         wScrn=  0.000000 ICntrl=       500 IOpCl=  0 I1Cent=   200000004 NGrid=           0
         NMat0=    1 NMatS0=      1 NMatT0=    0 NMatD0=    1 NMtDS0=    0 NMtDT0=    0
 Petite list used in FoFCou.
 Harris En= -1613.18218035142    
 JPrj=0 DoOrth=F DoCkMO=F.
 Leave Link  401 at Tue Sep 22 02:06:54 2020, MaxMem=   262144000 cpu:              15.3 elap:               3.8
 (Enter /prod/apps/gaussian/g16b1/l502.exe)
 Integral symmetry usage will be decided dynamically.
 Closed shell SCF:
 Using DIIS extrapolation, IDIIS=  1040.
 NGot=   262144000 LenX=   261348123 LenY=   260954367
 Requested convergence on RMS density matrix=1.00D-08 within2000 cycles.
 Requested convergence on MAX density matrix=1.00D-06.
 Requested convergence on             energy=1.00D-06.
 No special actions if energy rises.

 Cycle   1  Pass 1  IDiag  1:
 FoFJK:  IHMeth= 1 ICntrl=       0 DoSepK=F KAlg= 0 I1Cent=           0 FoldK=F
 IRaf= 920000000 NMat=       1 IRICut=       1 DoRegI=T DoRafI=F ISym2E= 0 IDoP0=0 IntGTp=1.
 FoFCou: FMM=F IPFlag=           0 FMFlag=      100000 FMFlg1=           0
         NFxFlg=           0 DoJE=F BraDBF=F KetDBF=F FulRan=T
         wScrn=  0.000000 ICntrl=         0 IOpCl=  0 I1Cent=           0 NGrid=           0
         NMat0=    1 NMatS0=      1 NMatT0=    0 NMatD0=    1 NMtDS0=    0 NMtDT0=    0
 Symmetry not used in FoFCou.
 E= -1611.68863865433    
 DIIS: error= 2.51D-02 at cycle   1 NSaved=   1.
 NSaved= 1 IEnMin= 1 EnMin= -1611.68863865433     IErMin= 1 ErrMin= 2.51D-02
 ErrMax= 2.51D-02  0.00D+00 EMaxC= 1.00D-01 BMatC= 1.35D+00 BMatP= 1.35D+00
 IDIUse=3 WtCom= 7.49D-01 WtEn= 2.51D-01
 Coeff-Com:  0.100D+01
 Coeff-En:   0.100D+01
 Coeff:      0.100D+01
 Gap=     0.448 Goal=   None    Shift=    0.000
 GapD=    0.448 DampG=2.000 DampE=0.500 DampFc=1.0000 IDamp=-1.
 RMSDP=4.28D-02 MaxDP=3.02D+00              OVMax= 1.53D-01

 Cycle   2  Pass 1  IDiag  1:
 E= -1612.39501470671     Delta-E=       -0.706376052381 Rises=F Damp=F
 DIIS: error= 1.21D-02 at cycle   2 NSaved=   2.
 NSaved= 2 IEnMin= 2 EnMin= -1612.39501470671     IErMin= 2 ErrMin= 1.21D-02
 ErrMax= 1.21D-02  0.00D+00 EMaxC= 1.00D-01 BMatC= 3.06D-01 BMatP= 1.35D+00
 IDIUse=3 WtCom= 8.79D-01 WtEn= 1.21D-01
 Coeff-Com:  0.291D+00 0.709D+00
 Coeff-En:   0.000D+00 0.100D+01
 Coeff:      0.256D+00 0.744D+00
 Gap=     0.304 Goal=   None    Shift=    0.000
 RMSDP=5.41D-03 MaxDP=6.65D-01 DE=-7.06D-01 OVMax= 6.51D-02

 Cycle   3  Pass 1  IDiag  1:
 E= -1612.62274878173     Delta-E=       -0.227734075022 Rises=F Damp=F
 DIIS: error= 2.90D-03 at cycle   3 NSaved=   3.
 NSaved= 3 IEnMin= 3 EnMin= -1612.62274878173     IErMin= 3 ErrMin= 2.90D-03
 ErrMax= 2.90D-03  0.00D+00 EMaxC= 1.00D-01 BMatC= 2.37D-02 BMatP= 3.06D-01
 IDIUse=3 WtCom= 9.71D-01 WtEn= 2.90D-02
 Coeff-Com: -0.619D-02 0.193D+00 0.814D+00
 Coeff-En:   0.000D+00 0.000D+00 0.100D+01
 Coeff:     -0.601D-02 0.187D+00 0.819D+00
 Gap=     0.307 Goal=   None    Shift=    0.000
 RMSDP=1.26D-03 MaxDP=2.01D-01 DE=-2.28D-01 OVMax= 1.75D-02

 Cycle   4  Pass 1  IDiag  1:
 E= -1612.64000948684     Delta-E=       -0.017260705109 Rises=F Damp=F
 DIIS: error= 6.97D-04 at cycle   4 NSaved=   4.
 NSaved= 4 IEnMin= 4 EnMin= -1612.64000948684     IErMin= 4 ErrMin= 6.97D-04
 ErrMax= 6.97D-04  0.00D+00 EMaxC= 1.00D-01 BMatC= 1.18D-03 BMatP= 2.37D-02
 IDIUse=3 WtCom= 9.93D-01 WtEn= 6.97D-03
 Coeff-Com: -0.144D-01 0.190D-01 0.229D+00 0.766D+00
 Coeff-En:   0.000D+00 0.000D+00 0.000D+00 0.100D+01
 Coeff:     -0.143D-01 0.188D-01 0.228D+00 0.768D+00
 Gap=     0.298 Goal=   None    Shift=    0.000
 RMSDP=5.80D-04 MaxDP=6.62D-02 DE=-1.73D-02 OVMax= 8.92D-03

 Cycle   5  Pass 1  IDiag  1:
 E= -1612.64128664555     Delta-E=       -0.001277158705 Rises=F Damp=F
 DIIS: error= 2.41D-04 at cycle   5 NSaved=   5.
 NSaved= 5 IEnMin= 5 EnMin= -1612.64128664555     IErMin= 5 ErrMin= 2.41D-04
 ErrMax= 2.41D-04  0.00D+00 EMaxC= 1.00D-01 BMatC= 7.72D-05 BMatP= 1.18D-03
 IDIUse=3 WtCom= 9.98D-01 WtEn= 2.41D-03
 Coeff-Com: -0.401D-04-0.119D-01-0.563D-01 0.552D-01 0.101D+01
 Coeff-En:   0.000D+00 0.000D+00 0.000D+00 0.000D+00 0.100D+01
 Coeff:     -0.400D-04-0.119D-01-0.561D-01 0.551D-01 0.101D+01
 Gap=     0.300 Goal=   None    Shift=    0.000
 RMSDP=1.25D-04 MaxDP=1.01D-02 DE=-1.28D-03 OVMax= 2.66D-03

 Cycle   6  Pass 1  IDiag  1:
 E= -1612.64140952524     Delta-E=       -0.000122879688 Rises=F Damp=F
 DIIS: error= 5.86D-05 at cycle   6 NSaved=   6.
 NSaved= 6 IEnMin= 6 EnMin= -1612.64140952524     IErMin= 6 ErrMin= 5.86D-05
 ErrMax= 5.86D-05  0.00D+00 EMaxC= 1.00D-01 BMatC= 1.11D-05 BMatP= 7.72D-05
 IDIUse=1 WtCom= 1.00D+00 WtEn= 0.00D+00
 Coeff-Com:  0.155D-02-0.580D-02-0.430D-01-0.643D-01 0.265D+00 0.847D+00
 Coeff:      0.155D-02-0.580D-02-0.430D-01-0.643D-01 0.265D+00 0.847D+00
 Gap=     0.300 Goal=   None    Shift=    0.000
 RMSDP=5.09D-05 MaxDP=5.22D-03 DE=-1.23D-04 OVMax= 1.08D-03

 Cycle   7  Pass 1  IDiag  1:
 E= -1612.64142751062     Delta-E=       -0.000017985382 Rises=F Damp=F
 DIIS: error= 2.22D-05 at cycle   7 NSaved=   7.
 NSaved= 7 IEnMin= 7 EnMin= -1612.64142751062     IErMin= 7 ErrMin= 2.22D-05
 ErrMax= 2.22D-05  0.00D+00 EMaxC= 1.00D-01 BMatC= 9.47D-07 BMatP= 1.11D-05
 IDIUse=1 WtCom= 1.00D+00 WtEn= 0.00D+00
 Coeff-Com:  0.236D-03 0.386D-03-0.242D-03-0.131D-01-0.717D-01 0.103D+00
 Coeff-Com:  0.981D+00
 Coeff:      0.236D-03 0.386D-03-0.242D-03-0.131D-01-0.717D-01 0.103D+00
 Coeff:      0.981D+00
 Gap=     0.301 Goal=   None    Shift=    0.000
 RMSDP=1.97D-05 MaxDP=2.57D-03 DE=-1.80D-05 OVMax= 3.94D-04

 Cycle   8  Pass 1  IDiag  1:
 E= -1612.64142974588     Delta-E=       -0.000002235258 Rises=F Damp=F
 DIIS: error= 8.16D-06 at cycle   8 NSaved=   8.
 NSaved= 8 IEnMin= 8 EnMin= -1612.64142974588     IErMin= 8 ErrMin= 8.16D-06
 ErrMax= 8.16D-06  0.00D+00 EMaxC= 1.00D-01 BMatC= 1.30D-07 BMatP= 9.47D-07
 IDIUse=1 WtCom= 1.00D+00 WtEn= 0.00D+00
 Coeff-Com: -0.183D-03 0.785D-03 0.564D-02 0.788D-02-0.364D-01-0.108D+00
 Coeff-Com: -0.589D-03 0.113D+01
 Coeff:     -0.183D-03 0.785D-03 0.564D-02 0.788D-02-0.364D-01-0.108D+00
 Coeff:     -0.589D-03 0.113D+01
 Gap=     0.300 Goal=   None    Shift=    0.000
 RMSDP=6.70D-06 MaxDP=5.74D-04 DE=-2.24D-06 OVMax= 1.70D-04

 Cycle   9  Pass 1  IDiag  1:
 E= -1612.64143013843     Delta-E=       -0.000000392547 Rises=F Damp=F
 DIIS: error= 4.70D-06 at cycle   9 NSaved=   9.
 NSaved= 9 IEnMin= 9 EnMin= -1612.64143013843     IErMin= 9 ErrMin= 4.70D-06
 ErrMax= 4.70D-06  0.00D+00 EMaxC= 1.00D-01 BMatC= 1.81D-08 BMatP= 1.30D-07
 IDIUse=1 WtCom= 1.00D+00 WtEn= 0.00D+00
 Coeff-Com: -0.603D-04 0.877D-04 0.956D-03 0.290D-02 0.371D-02-0.274D-01
 Coeff-Com: -0.128D+00 0.159D+00 0.988D+00
 Coeff:     -0.603D-04 0.877D-04 0.956D-03 0.290D-02 0.371D-02-0.274D-01
 Coeff:     -0.128D+00 0.159D+00 0.988D+00
 Gap=     0.301 Goal=   None    Shift=    0.000
 RMSDP=2.82D-06 MaxDP=2.05D-04 DE=-3.93D-07 OVMax= 9.15D-05

 Cycle  10  Pass 1  IDiag  1:
 E= -1612.64143019292     Delta-E=       -0.000000054496 Rises=F Damp=F
 DIIS: error= 2.36D-06 at cycle  10 NSaved=  10.
 NSaved=10 IEnMin=10 EnMin= -1612.64143019292     IErMin=10 ErrMin= 2.36D-06
 ErrMax= 2.36D-06  0.00D+00 EMaxC= 1.00D-01 BMatC= 3.03D-09 BMatP= 1.81D-08
 IDIUse=1 WtCom= 1.00D+00 WtEn= 0.00D+00
 Coeff-Com:  0.179D-04-0.818D-04-0.626D-03-0.949D-03 0.416D-02 0.138D-01
 Coeff-Com: -0.212D-02-0.144D+00 0.620D-01 0.107D+01
 Coeff:      0.179D-04-0.818D-04-0.626D-03-0.949D-03 0.416D-02 0.138D-01
 Coeff:     -0.212D-02-0.144D+00 0.620D-01 0.107D+01
 Gap=     0.301 Goal=   None    Shift=    0.000
 RMSDP=1.27D-06 MaxDP=9.52D-05 DE=-5.45D-08 OVMax= 5.51D-05

 Cycle  11  Pass 1  IDiag  1:
 E= -1612.64143020439     Delta-E=       -0.000000011467 Rises=F Damp=F
 DIIS: error= 1.27D-06 at cycle  11 NSaved=  11.
 NSaved=11 IEnMin=11 EnMin= -1612.64143020439     IErMin=11 ErrMin= 1.27D-06
 ErrMax= 1.27D-06  0.00D+00 EMaxC= 1.00D-01 BMatC= 8.01D-10 BMatP= 3.03D-09
 IDIUse=1 WtCom= 1.00D+00 WtEn= 0.00D+00
 Coeff-Com:  0.140D-04-0.272D-04-0.274D-03-0.736D-03-0.191D-03 0.755D-02
 Coeff-Com:  0.249D-01-0.575D-01-0.175D+00 0.162D+00 0.104D+01
 Coeff:      0.140D-04-0.272D-04-0.274D-03-0.736D-03-0.191D-03 0.755D-02
 Coeff:      0.249D-01-0.575D-01-0.175D+00 0.162D+00 0.104D+01
 Gap=     0.301 Goal=   None    Shift=    0.000
 RMSDP=6.84D-07 MaxDP=4.86D-05 DE=-1.15D-08 OVMax= 3.38D-05

 Cycle  12  Pass 1  IDiag  1:
 E= -1612.64143020787     Delta-E=       -0.000000003479 Rises=F Damp=F
 DIIS: error= 6.33D-07 at cycle  12 NSaved=  12.
 NSaved=12 IEnMin=12 EnMin= -1612.64143020787     IErMin=12 ErrMin= 6.33D-07
 ErrMax= 6.33D-07  0.00D+00 EMaxC= 1.00D-01 BMatC= 1.81D-10 BMatP= 8.01D-10
 IDIUse=1 WtCom= 1.00D+00 WtEn= 0.00D+00
 Coeff-Com: -0.397D-05 0.213D-04 0.160D-03 0.221D-03-0.119D-02-0.341D-02
 Coeff-Com:  0.249D-02 0.354D-01-0.250D-01-0.286D+00 0.379D-01 0.124D+01
 Coeff:     -0.397D-05 0.213D-04 0.160D-03 0.221D-03-0.119D-02-0.341D-02
 Coeff:      0.249D-02 0.354D-01-0.250D-01-0.286D+00 0.379D-01 0.124D+01
 Gap=     0.301 Goal=   None    Shift=    0.000
 RMSDP=4.79D-07 MaxDP=2.68D-05 DE=-3.48D-09 OVMax= 2.35D-05

 Cycle  13  Pass 1  IDiag  1:
 E= -1612.64143020884     Delta-E=       -0.000000000969 Rises=F Damp=F
 DIIS: error= 1.97D-07 at cycle  13 NSaved=  13.
 NSaved=13 IEnMin=13 EnMin= -1612.64143020884     IErMin=13 ErrMin= 1.97D-07
 ErrMax= 1.97D-07  0.00D+00 EMaxC= 1.00D-01 BMatC= 2.44D-11 BMatP= 1.81D-10
 IDIUse=1 WtCom= 1.00D+00 WtEn= 0.00D+00
 Coeff-Com: -0.277D-05 0.558D-05 0.605D-04 0.151D-03-0.501D-04-0.156D-02
 Coeff-Com: -0.430D-02 0.122D-01 0.322D-01-0.450D-01-0.197D+00 0.921D-01
 Coeff-Com:  0.111D+01
 Coeff:     -0.277D-05 0.558D-05 0.605D-04 0.151D-03-0.501D-04-0.156D-02
 Coeff:     -0.430D-02 0.122D-01 0.322D-01-0.450D-01-0.197D+00 0.921D-01
 Coeff:      0.111D+01
 Gap=     0.301 Goal=   None    Shift=    0.000
 RMSDP=1.65D-07 MaxDP=8.92D-06 DE=-9.69D-10 OVMax= 8.19D-06

 Cycle  14  Pass 1  IDiag  1:
 E= -1612.64143020897     Delta-E=       -0.000000000133 Rises=F Damp=F
 DIIS: error= 5.11D-08 at cycle  14 NSaved=  14.
 NSaved=14 IEnMin=14 EnMin= -1612.64143020897     IErMin=14 ErrMin= 5.11D-08
 ErrMax= 5.11D-08  0.00D+00 EMaxC= 1.00D-01 BMatC= 2.91D-12 BMatP= 2.44D-11
 IDIUse=1 WtCom= 1.00D+00 WtEn= 0.00D+00
 Coeff-Com:  0.233D-06-0.239D-05-0.141D-04-0.131D-04 0.142D-03 0.307D-03
 Coeff-Com: -0.668D-03-0.379D-02 0.702D-02 0.333D-01-0.299D-01-0.152D+00
 Coeff-Com:  0.122D+00 0.102D+01
 Coeff:      0.233D-06-0.239D-05-0.141D-04-0.131D-04 0.142D-03 0.307D-03
 Coeff:     -0.668D-03-0.379D-02 0.702D-02 0.333D-01-0.299D-01-0.152D+00
 Coeff:      0.122D+00 0.102D+01
 Gap=     0.301 Goal=   None    Shift=    0.000
 RMSDP=5.39D-08 MaxDP=3.74D-06 DE=-1.33D-10 OVMax= 1.85D-06

 Cycle  15  Pass 1  IDiag  1:
 E= -1612.64143020896     Delta-E=        0.000000000006 Rises=F Damp=F
 DIIS: error= 1.24D-08 at cycle  15 NSaved=  15.
 NSaved=15 IEnMin=14 EnMin= -1612.64143020897     IErMin=15 ErrMin= 1.24D-08
 ErrMax= 1.24D-08  0.00D+00 EMaxC= 1.00D-01 BMatC= 3.29D-13 BMatP= 2.91D-12
 IDIUse=1 WtCom= 1.00D+00 WtEn= 0.00D+00
 Coeff-Com:  0.398D-06-0.114D-05-0.101D-04-0.221D-04 0.241D-04 0.256D-03
 Coeff-Com:  0.508D-03-0.223D-02-0.330D-02 0.104D-01 0.220D-01-0.294D-01
 Coeff-Com: -0.132D+00 0.120D+00 0.101D+01
 Coeff:      0.398D-06-0.114D-05-0.101D-04-0.221D-04 0.241D-04 0.256D-03
 Coeff:      0.508D-03-0.223D-02-0.330D-02 0.104D-01 0.220D-01-0.294D-01
 Coeff:     -0.132D+00 0.120D+00 0.101D+01
 Gap=     0.301 Goal=   None    Shift=    0.000
 RMSDP=1.56D-08 MaxDP=2.67D-06 DE= 6.37D-12 OVMax= 4.36D-07

 Cycle  16  Pass 1  IDiag  1:
 E= -1612.64143020894     Delta-E=        0.000000000018 Rises=F Damp=F
 DIIS: error= 4.05D-09 at cycle  16 NSaved=  16.
 NSaved=16 IEnMin=14 EnMin= -1612.64143020897     IErMin=16 ErrMin= 4.05D-09
 ErrMax= 4.05D-09  0.00D+00 EMaxC= 1.00D-01 BMatC= 3.80D-14 BMatP= 3.29D-13
 IDIUse=1 WtCom= 1.00D+00 WtEn= 0.00D+00
 Coeff-Com:  0.320D-07 0.911D-07-0.779D-08-0.185D-05-0.123D-04 0.712D-05
 Coeff-Com:  0.158D-03 0.399D-04-0.126D-02-0.185D-02 0.671D-02 0.116D-01
 Coeff-Com: -0.336D-01-0.862D-01 0.150D+00 0.954D+00
 Coeff:      0.320D-07 0.911D-07-0.779D-08-0.185D-05-0.123D-04 0.712D-05
 Coeff:      0.158D-03 0.399D-04-0.126D-02-0.185D-02 0.671D-02 0.116D-01
 Coeff:     -0.336D-01-0.862D-01 0.150D+00 0.954D+00
 Gap=     0.301 Goal=   None    Shift=    0.000
 RMSDP=3.51D-09 MaxDP=6.24D-07 DE= 1.77D-11 OVMax= 8.52D-08

 SCF Done:  E(RHF) =  -1612.64143021     A.U. after   16 cycles
            NFock= 16  Conv=0.35D-08     -V/T= 2.0011
 KE= 1.610924385533D+03 PE=-7.422793536904D+03 EE= 2.400921245788D+03
 Leave Link  502 at Tue Sep 22 02:23:51 2020, MaxMem=   262144000 cpu:            4065.8 elap:            1016.6
 (Enter /prod/apps/gaussian/g16b1/l801.exe)
 ExpMin= 2.97D-02 ExpMax= 1.11D+05 ExpMxC= 1.07D+03 IAcc=3 IRadAn=         5 AccDes= 0.00D+00
 HarFok:  IExCor=  205 AccDes= 0.00D+00 IRadAn=         5 IDoV=-2 UseB2=F ITyADJ=14
 ICtDFT= 12500011 ScaDFX=  1.000000  1.000000  1.000000  1.000000
 GSVD:  LWork=        -945 too small for GESVD, short by        4050 words or        4050 for optimal perf.
 Largest valence mixing into a core orbital is  3.64D-04
 Largest core mixing into a valence orbital is  1.05D-04
 Range of M.O.s used for correlation:    28   589
 NBasis=   589 NAE=    80 NBE=    80 NFC=    27 NFV=     0
 NROrb=    562 NOA=    53 NOB=    53 NVA=   509 NVB=   509

 **** Warning!!: The largest alpha MO coefficient is  0.12094351D+03

 Leave Link  801 at Tue Sep 22 02:23:51 2020, MaxMem=   262144000 cpu:               1.0 elap:               0.3
 (Enter /prod/apps/gaussian/g16b1/l906.exe)
 FulOut=F Deriv=F AODrv=F NAtomX=    35
   MMem=           3  MDisk=          53 MDiskD=          53
  W3Min=    16914579 MinDsk=    17123203 NBas6D=         627
 NBas2D=      197721    NTT=      196878    LW2=     2000000
    MDV=   259711439 MDiskM=        5708 NBas2p=      174702
 Disk-based method using OVN memory for 53 occupieds at a time.
 Estimated scratch disk usage= 14398108078 words.
 IMap=   1   2   3   4   5   6   7   8   9  10  11  12  13  14  15  16  17  18  19  20
 IMap=  21  22  23  24  25  26  27  28  29  30  31  32  33  34  35  36  37  38  39  40
 IMap=  41  42  43  44  45  46  47  48  49  50  51  52  53
 Actual    scratch disk usage= 14175781294 words.
 JobTyp=1 Pass  1:  I=   1 to  53 NPSUse=  4 ParTrn=T ParDer=T DoDerP=F.
Erroneous write. Write -1 instead of 1117741432.
fd = 4
orig len = 2067074064 left = 1117741432
g_write
