 Entering Gaussian System, Link 0=g16
 Initial command:
 /prod/apps/gaussian/g16b1/l1.exe "/tmp/ubafar01/1460348/Gau-43765.inp" -scrdir="/tmp/ubafar01/1460348/"
 Entering Link 1 = /prod/apps/gaussian/g16b1/l1.exe PID=     43766.
  
 Copyright (c) 1988-2017, Gaussian, Inc.  All Rights Reserved.
  
 This is part of the Gaussian(R) 16 program.  It is based on
 the Gaussian(R) 09 system (copyright 2009, Gaussian, Inc.),
 the Gaussian(R) 03 system (copyright 2003, Gaussian, Inc.),
 the Gaussian(R) 98 system (copyright 1998, Gaussian, Inc.),
 the Gaussian(R) 94 system (copyright 1995, Gaussian, Inc.),
 the Gaussian 92(TM) system (copyright 1992, Gaussian, Inc.),
 the Gaussian 90(TM) system (copyright 1990, Gaussian, Inc.),
 the Gaussian 88(TM) system (copyright 1988, Gaussian, Inc.),
 the Gaussian 86(TM) system (copyright 1986, Carnegie Mellon
 University), and the Gaussian 82(TM) system (copyright 1983,
 Carnegie Mellon University). Gaussian is a federally registered
 trademark of Gaussian, Inc.
  
 This software contains proprietary and confidential information,
 including trade secrets, belonging to Gaussian, Inc.
  
 This software is provided under written license and may be
 used, copied, transmitted, or stored only in accord with that
 written license.
  
 The following legend is applicable only to US Government
 contracts under FAR:
  
                    RESTRICTED RIGHTS LEGEND
  
 Use, reproduction and disclosure by the US Government is
 subject to restrictions as set forth in subparagraphs (a)
 and (c) of the Commercial Computer Software - Restricted
 Rights clause in FAR 52.227-19.
  
 Gaussian, Inc.
 340 Quinnipiac St., Bldg. 40, Wallingford CT 06492
  
  
 ---------------------------------------------------------------
 Warning -- This program may not be used in any manner that
 competes with the business of Gaussian, Inc. or will provide
 assistance to any competitor of Gaussian, Inc.  The licensee
 of this program is prohibited from giving any competitor of
 Gaussian, Inc. access to this program.  By using this program,
 the user acknowledges that Gaussian, Inc. is engaged in the
 business of creating and licensing software in the field of
 computational chemistry and represents and warrants to the
 licensee that it is not a competitor of Gaussian, Inc. and that
 it will not use this program in any manner prohibited above.
 ---------------------------------------------------------------
  

 Cite this work as:
 Gaussian 16, Revision B.01,
 M. J. Frisch, G. W. Trucks, H. B. Schlegel, G. E. Scuseria, 
 M. A. Robb, J. R. Cheeseman, G. Scalmani, V. Barone, 
 G. A. Petersson, H. Nakatsuji, X. Li, M. Caricato, A. V. Marenich, 
 J. Bloino, B. G. Janesko, R. Gomperts, B. Mennucci, H. P. Hratchian, 
 J. V. Ortiz, A. F. Izmaylov, J. L. Sonnenberg, D. Williams-Young, 
 F. Ding, F. Lipparini, F. Egidi, J. Goings, B. Peng, A. Petrone, 
 T. Henderson, D. Ranasinghe, V. G. Zakrzewski, J. Gao, N. Rega, 
 G. Zheng, W. Liang, M. Hada, M. Ehara, K. Toyota, R. Fukuda, 
 J. Hasegawa, M. Ishida, T. Nakajima, Y. Honda, O. Kitao, H. Nakai, 
 T. Vreven, K. Throssell, J. A. Montgomery, Jr., J. E. Peralta, 
 F. Ogliaro, M. J. Bearpark, J. J. Heyd, E. N. Brothers, K. N. Kudin, 
 V. N. Staroverov, T. A. Keith, R. Kobayashi, J. Normand, 
 K. Raghavachari, A. P. Rendell, J. C. Burant, S. S. Iyengar, 
 J. Tomasi, M. Cossi, J. M. Millam, M. Klene, C. Adamo, R. Cammi, 
 J. W. Ochterski, R. L. Martin, K. Morokuma, O. Farkas, 
 J. B. Foresman, and D. J. Fox, Gaussian, Inc., Wallingford CT, 2016.
 
 ******************************************
 Gaussian 16:  ES64L-G16RevB.01 20-Dec-2017
                22-Sep-2020 
 ******************************************
 %nproc=4
 Will use up to    4 processors via shared memory.
 %Chk=SM38_m1.a.12.pdb.xyz.mst.a.w.chk
 %mem=16GB
 ----------------------------------------------------------------------
 #p b3lyp/6-31G(d) opt freq NoSymm scf=(MaxCycle=2000,NoVarAcc,NoIncFoc
 k) scrf=(iefpcm,read,solvent=water)
 ----------------------------------------------------------------------
 1/18=20,19=15,26=3,38=1,40=2/1,3;
 2/9=110,12=2,15=1,17=6,18=5,40=1/2;
 3/5=1,6=6,7=1,11=2,25=1,30=1,70=2203,71=1,72=1,74=-5/1,2,3;
 4//1;
 5/5=100002,7=2000,38=1,53=1/2;
 6/7=2,8=2,9=2,10=2,28=1/1;
 7/30=1/1,2,3,16;
 1/18=20,19=15,26=3/3(2);
 2/9=110,15=1/2;
 99//99;
 2/9=110,15=1/2;
 3/5=1,6=6,7=1,11=2,25=1,30=1,70=2205,71=1,72=1,74=-5/1,2,3;
 4/5=5,16=3,69=1/1;
 5/5=100002,7=2000,38=1,53=1/2;
 7/30=1/1,2,3,16;
 1/18=20,19=15,26=3/3(-5);
 2/9=110,15=1/2;
 6/7=2,8=2,9=2,10=2,19=2,28=1/1;
 99/9=1/99;
 Leave Link    1 at Tue Sep 22 01:46:05 2020, MaxMem=  2147483648 cpu:               0.1 elap:               0.0
 (Enter /prod/apps/gaussian/g16b1/l101.exe)
 --------------------
 SM38_m1.a.12.pdb.xyz
 --------------------
 Symbolic Z-matrix:
 Charge = -1 Multiplicity = 1
 C                     1.482     2.476     1.453 
 S                     0.293     2.031     0.174 
 N                    -0.26      0.657     0.752 
 C                    -1.118    -0.164    -0.086 
 C                    -2.316     0.589    -0.818 
 S                    -3.507    -0.58     -0.11 
 C                    -2.034    -1.045     0.85 
 O                    -4.584     0.046     0.69 
 O                    -3.895    -1.638    -1.074 
 C                    -0.382    -1.052    -1.124 
 C                     0.637    -2.075    -0.567 
 C                     2.031    -1.562    -0.255 
 C                     2.514    -1.519     1.06 
 C                     3.811    -1.08      1.34 
 C                     4.654    -0.675     0.301 
 C                     4.188    -0.717    -1.016 
 C                     2.891    -1.158    -1.288 
 O                    -0.716     3.15      0.143 
 O                     1.056     1.95     -1.119 
 H                     0.97      2.545     2.414 
 H                     1.903     3.447     1.181 
 H                     2.268     1.72      1.495 
 H                    -2.306     0.592    -1.91 
 H                    -2.49      1.591    -0.425 
 H                    -1.858    -2.121     0.871 
 H                    -2.104    -0.639     1.86 
 H                     0.11     -0.388    -1.842 
 H                    -1.142    -1.613    -1.684 
 H                     0.732    -2.869    -1.319 
 H                     0.226    -2.56      0.327 
 H                     1.866    -1.832     1.875 
 H                     4.163    -1.058     2.368 
 H                     5.664    -0.335     0.515 
 H                     4.836    -0.41     -1.833 
 H                     2.543    -1.195    -2.318 
 
 ITRead=  0  0  0  0  0  0  0  0  0  0  0  0  0  0  0  0  0  0  0  0
 ITRead=  0  0  0  0  0  0  0  0  0  0  0  0  0  0  0
 MicOpt= -1 -1 -1 -1 -1 -1 -1 -1 -1 -1 -1 -1 -1 -1 -1 -1 -1 -1 -1 -1
 MicOpt= -1 -1 -1 -1 -1 -1 -1 -1 -1 -1 -1 -1 -1 -1 -1
 NAtoms=     35 NQM=       35 NQMF=       0 NMMI=      0 NMMIF=      0
                NMic=       0 NMicF=      0.
                    Isotopes and Nuclear Properties:
 (Nuclear quadrupole moments (NQMom) in fm**2, nuclear magnetic moments (NMagM)
  in nuclear magnetons)

  Atom         1           2           3           4           5           6           7           8           9          10
 IAtWgt=          12          32          14          12          12          32          12          16          16          12
 AtmWgt=  12.0000000  31.9720718  14.0030740  12.0000000  12.0000000  31.9720718  12.0000000  15.9949146  15.9949146  12.0000000
 NucSpn=           0           0           2           0           0           0           0           0           0           0
 AtZEff=  -0.0000000  -0.0000000  -0.0000000  -0.0000000  -0.0000000  -0.0000000  -0.0000000  -0.0000000  -0.0000000  -0.0000000
 NQMom=    0.0000000   0.0000000   2.0440000   0.0000000   0.0000000   0.0000000   0.0000000   0.0000000   0.0000000   0.0000000
 NMagM=    0.0000000   0.0000000   0.4037610   0.0000000   0.0000000   0.0000000   0.0000000   0.0000000   0.0000000   0.0000000
 AtZNuc=   6.0000000  16.0000000   7.0000000   6.0000000   6.0000000  16.0000000   6.0000000   8.0000000   8.0000000   6.0000000

  Atom        11          12          13          14          15          16          17          18          19          20
 IAtWgt=          12          12          12          12          12          12          12          16          16           1
 AtmWgt=  12.0000000  12.0000000  12.0000000  12.0000000  12.0000000  12.0000000  12.0000000  15.9949146  15.9949146   1.0078250
 NucSpn=           0           0           0           0           0           0           0           0           0           1
 AtZEff=  -0.0000000  -0.0000000  -0.0000000  -0.0000000  -0.0000000  -0.0000000  -0.0000000  -0.0000000  -0.0000000  -0.0000000
 NQMom=    0.0000000   0.0000000   0.0000000   0.0000000   0.0000000   0.0000000   0.0000000   0.0000000   0.0000000   0.0000000
 NMagM=    0.0000000   0.0000000   0.0000000   0.0000000   0.0000000   0.0000000   0.0000000   0.0000000   0.0000000   2.7928460
 AtZNuc=   6.0000000   6.0000000   6.0000000   6.0000000   6.0000000   6.0000000   6.0000000   8.0000000   8.0000000   1.0000000

  Atom        21          22          23          24          25          26          27          28          29          30
 IAtWgt=           1           1           1           1           1           1           1           1           1           1
 AtmWgt=   1.0078250   1.0078250   1.0078250   1.0078250   1.0078250   1.0078250   1.0078250   1.0078250   1.0078250   1.0078250
 NucSpn=           1           1           1           1           1           1           1           1           1           1
 AtZEff=  -0.0000000  -0.0000000  -0.0000000  -0.0000000  -0.0000000  -0.0000000  -0.0000000  -0.0000000  -0.0000000  -0.0000000
 NQMom=    0.0000000   0.0000000   0.0000000   0.0000000   0.0000000   0.0000000   0.0000000   0.0000000   0.0000000   0.0000000
 NMagM=    2.7928460   2.7928460   2.7928460   2.7928460   2.7928460   2.7928460   2.7928460   2.7928460   2.7928460   2.7928460
 AtZNuc=   1.0000000   1.0000000   1.0000000   1.0000000   1.0000000   1.0000000   1.0000000   1.0000000   1.0000000   1.0000000

  Atom        31          32          33          34          35
 IAtWgt=           1           1           1           1           1
 AtmWgt=   1.0078250   1.0078250   1.0078250   1.0078250   1.0078250
 NucSpn=           1           1           1           1           1
 AtZEff=  -0.0000000  -0.0000000  -0.0000000  -0.0000000  -0.0000000
 NQMom=    0.0000000   0.0000000   0.0000000   0.0000000   0.0000000
 NMagM=    2.7928460   2.7928460   2.7928460   2.7928460   2.7928460
 AtZNuc=   1.0000000   1.0000000   1.0000000   1.0000000   1.0000000
 Leave Link  101 at Tue Sep 22 01:46:05 2020, MaxMem=  2147483648 cpu:               1.3 elap:               0.3
 (Enter /prod/apps/gaussian/g16b1/l103.exe)

 GradGradGradGradGradGradGradGradGradGradGradGradGradGradGradGradGradGrad
 Berny optimization.
 Initialization pass.
                           ----------------------------
                           !    Initial Parameters    !
                           ! (Angstroms and Degrees)  !
 --------------------------                            --------------------------
 ! Name  Definition              Value          Derivative Info.                !
 --------------------------------------------------------------------------------
 ! R1    R(1,2)                  1.8021         estimate D2E/DX2                !
 ! R2    R(1,20)                 1.0911         estimate D2E/DX2                !
 ! R3    R(1,21)                 1.0927         estimate D2E/DX2                !
 ! R4    R(1,22)                 1.0914         estimate D2E/DX2                !
 ! R5    R(2,3)                  1.5899         estimate D2E/DX2                !
 ! R6    R(2,18)                 1.5071         estimate D2E/DX2                !
 ! R7    R(2,19)                 1.5035         estimate D2E/DX2                !
 ! R8    R(3,4)                  1.4534         estimate D2E/DX2                !
 ! R9    R(4,5)                  1.5931         estimate D2E/DX2                !
 ! R10   R(4,7)                  1.5784         estimate D2E/DX2                !
 ! R11   R(4,10)                 1.5517         estimate D2E/DX2                !
 ! R12   R(5,6)                  1.8128         estimate D2E/DX2                !
 ! R13   R(5,23)                 1.092          estimate D2E/DX2                !
 ! R14   R(5,24)                 1.0903         estimate D2E/DX2                !
 ! R15   R(6,7)                  1.8187         estimate D2E/DX2                !
 ! R16   R(6,8)                  1.4805         estimate D2E/DX2                !
 ! R17   R(6,9)                  1.483          estimate D2E/DX2                !
 ! R18   R(7,25)                 1.0905         estimate D2E/DX2                !
 ! R19   R(7,26)                 1.0908         estimate D2E/DX2                !
 ! R20   R(10,11)                1.5476         estimate D2E/DX2                !
 ! R21   R(10,27)                1.0948         estimate D2E/DX2                !
 ! R22   R(10,28)                1.0981         estimate D2E/DX2                !
 ! R23   R(11,12)                1.5178         estimate D2E/DX2                !
 ! R24   R(11,29)                1.0977         estimate D2E/DX2                !
 ! R25   R(11,30)                1.097          estimate D2E/DX2                !
 ! R26   R(12,13)                1.4016         estimate D2E/DX2                !
 ! R27   R(12,17)                1.4035         estimate D2E/DX2                !
 ! R28   R(13,14)                1.3976         estimate D2E/DX2                !
 ! R29   R(13,31)                1.0872         estimate D2E/DX2                !
 ! R30   R(14,15)                1.3979         estimate D2E/DX2                !
 ! R31   R(14,32)                1.0868         estimate D2E/DX2                !
 ! R32   R(15,16)                1.3976         estimate D2E/DX2                !
 ! R33   R(15,33)                1.087          estimate D2E/DX2                !
 ! R34   R(16,17)                1.3967         estimate D2E/DX2                !
 ! R35   R(16,34)                1.087          estimate D2E/DX2                !
 ! R36   R(17,35)                1.0878         estimate D2E/DX2                !
 ! A1    A(2,1,20)             109.3368         estimate D2E/DX2                !
 ! A2    A(2,1,21)             107.275          estimate D2E/DX2                !
 ! A3    A(2,1,22)             109.3558         estimate D2E/DX2                !
 ! A4    A(20,1,21)            110.1112         estimate D2E/DX2                !
 ! A5    A(20,1,22)            110.3573         estimate D2E/DX2                !
 ! A6    A(21,1,22)            110.3433         estimate D2E/DX2                !
 ! A7    A(1,2,3)              100.6536         estimate D2E/DX2                !
 ! A8    A(1,2,18)             105.8421         estimate D2E/DX2                !
 ! A9    A(1,2,19)             106.7879         estimate D2E/DX2                !
 ! A10   A(3,2,18)             114.6004         estimate D2E/DX2                !
 ! A11   A(3,2,19)             116.2696         estimate D2E/DX2                !
 ! A12   A(18,2,19)            111.2278         estimate D2E/DX2                !
 ! A13   A(2,3,4)              118.9396         estimate D2E/DX2                !
 ! A14   A(3,4,5)              116.2217         estimate D2E/DX2                !
 ! A15   A(3,4,7)              108.4195         estimate D2E/DX2                !
 ! A16   A(3,4,10)             115.4015         estimate D2E/DX2                !
 ! A17   A(5,4,7)               95.7328         estimate D2E/DX2                !
 ! A18   A(5,4,10)             108.6516         estimate D2E/DX2                !
 ! A19   A(7,4,10)             110.6426         estimate D2E/DX2                !
 ! A20   A(4,5,6)               90.5616         estimate D2E/DX2                !
 ! A21   A(4,5,23)             116.992          estimate D2E/DX2                !
 ! A22   A(4,5,24)             112.8781         estimate D2E/DX2                !
 ! A23   A(6,5,23)             113.4733         estimate D2E/DX2                !
 ! A24   A(6,5,24)             110.3044         estimate D2E/DX2                !
 ! A25   A(23,5,24)            111.0618         estimate D2E/DX2                !
 ! A26   A(5,6,7)               80.7302         estimate D2E/DX2                !
 ! A27   A(5,6,8)              114.602          estimate D2E/DX2                !
 ! A28   A(5,6,9)              112.2144         estimate D2E/DX2                !
 ! A29   A(7,6,8)              114.3353         estimate D2E/DX2                !
 ! A30   A(7,6,9)              111.8779         estimate D2E/DX2                !
 ! A31   A(8,6,9)              117.5548         estimate D2E/DX2                !
 ! A32   A(4,7,6)               90.8192         estimate D2E/DX2                !
 ! A33   A(4,7,25)             117.9369         estimate D2E/DX2                !
 ! A34   A(4,7,26)             112.2455         estimate D2E/DX2                !
 ! A35   A(6,7,25)             113.1516         estimate D2E/DX2                !
 ! A36   A(6,7,26)             109.9755         estimate D2E/DX2                !
 ! A37   A(25,7,26)            111.0868         estimate D2E/DX2                !
 ! A38   A(4,10,11)            116.7333         estimate D2E/DX2                !
 ! A39   A(4,10,27)            107.7462         estimate D2E/DX2                !
 ! A40   A(4,10,28)            107.7716         estimate D2E/DX2                !
 ! A41   A(11,10,27)           109.9416         estimate D2E/DX2                !
 ! A42   A(11,10,28)           107.5496         estimate D2E/DX2                !
 ! A43   A(27,10,28)           106.6443         estimate D2E/DX2                !
 ! A44   A(10,11,12)           117.0835         estimate D2E/DX2                !
 ! A45   A(10,11,29)           106.7713         estimate D2E/DX2                !
 ! A46   A(10,11,30)           109.8079         estimate D2E/DX2                !
 ! A47   A(12,11,29)           107.807          estimate D2E/DX2                !
 ! A48   A(12,11,30)           109.0267         estimate D2E/DX2                !
 ! A49   A(29,11,30)           105.7194         estimate D2E/DX2                !
 ! A50   A(11,12,13)           121.3148         estimate D2E/DX2                !
 ! A51   A(11,12,17)           120.5808         estimate D2E/DX2                !
 ! A52   A(13,12,17)           118.0703         estimate D2E/DX2                !
 ! A53   A(12,13,14)           121.1589         estimate D2E/DX2                !
 ! A54   A(12,13,31)           119.2804         estimate D2E/DX2                !
 ! A55   A(14,13,31)           119.5607         estimate D2E/DX2                !
 ! A56   A(13,14,15)           120.114          estimate D2E/DX2                !
 ! A57   A(13,14,32)           119.7636         estimate D2E/DX2                !
 ! A58   A(15,14,32)           120.1221         estimate D2E/DX2                !
 ! A59   A(14,15,16)           119.3793         estimate D2E/DX2                !
 ! A60   A(14,15,33)           120.3068         estimate D2E/DX2                !
 ! A61   A(16,15,33)           120.3133         estimate D2E/DX2                !
 ! A62   A(15,16,17)           120.1739         estimate D2E/DX2                !
 ! A63   A(15,16,34)           120.0646         estimate D2E/DX2                !
 ! A64   A(17,16,34)           119.761          estimate D2E/DX2                !
 ! A65   A(12,17,16)           121.1022         estimate D2E/DX2                !
 ! A66   A(12,17,35)           119.4107         estimate D2E/DX2                !
 ! A67   A(16,17,35)           119.486          estimate D2E/DX2                !
 ! D1    D(20,1,2,3)           -58.1032         estimate D2E/DX2                !
 ! D2    D(20,1,2,18)           61.4804         estimate D2E/DX2                !
 ! D3    D(20,1,2,19)         -179.9168         estimate D2E/DX2                !
 ! D4    D(21,1,2,3)          -177.4927         estimate D2E/DX2                !
 ! D5    D(21,1,2,18)          -57.9091         estimate D2E/DX2                !
 ! D6    D(21,1,2,19)           60.6937         estimate D2E/DX2                !
 ! D7    D(22,1,2,3)            62.8294         estimate D2E/DX2                !
 ! D8    D(22,1,2,18)         -177.587          estimate D2E/DX2                !
 ! D9    D(22,1,2,19)          -58.9842         estimate D2E/DX2                !
 ! D10   D(1,2,3,4)           -170.6928         estimate D2E/DX2                !
 ! D11   D(18,2,3,4)            76.2512         estimate D2E/DX2                !
 ! D12   D(19,2,3,4)           -55.8208         estimate D2E/DX2                !
 ! D13   D(2,3,4,5)            -47.7594         estimate D2E/DX2                !
 ! D14   D(2,3,4,7)           -154.1025         estimate D2E/DX2                !
 ! D15   D(2,3,4,10)            81.183          estimate D2E/DX2                !
 ! D16   D(3,4,5,6)           -125.6311         estimate D2E/DX2                !
 ! D17   D(3,4,5,23)           117.4949         estimate D2E/DX2                !
 ! D18   D(3,4,5,24)           -13.2484         estimate D2E/DX2                !
 ! D19   D(7,4,5,6)            -11.8381         estimate D2E/DX2                !
 ! D20   D(7,4,5,23)          -128.7121         estimate D2E/DX2                !
 ! D21   D(7,4,5,24)           100.5446         estimate D2E/DX2                !
 ! D22   D(10,4,5,6)           102.2309         estimate D2E/DX2                !
 ! D23   D(10,4,5,23)          -14.6431         estimate D2E/DX2                !
 ! D24   D(10,4,5,24)         -145.3865         estimate D2E/DX2                !
 ! D25   D(3,4,7,6)            131.898          estimate D2E/DX2                !
 ! D26   D(3,4,7,25)          -111.1879         estimate D2E/DX2                !
 ! D27   D(3,4,7,26)            19.8752         estimate D2E/DX2                !
 ! D28   D(5,4,7,6)             11.8001         estimate D2E/DX2                !
 ! D29   D(5,4,7,25)           128.7142         estimate D2E/DX2                !
 ! D30   D(5,4,7,26)          -100.2227         estimate D2E/DX2                !
 ! D31   D(10,4,7,6)          -100.6136         estimate D2E/DX2                !
 ! D32   D(10,4,7,25)           16.3005         estimate D2E/DX2                !
 ! D33   D(10,4,7,26)          147.3636         estimate D2E/DX2                !
 ! D34   D(3,4,10,11)           58.9786         estimate D2E/DX2                !
 ! D35   D(3,4,10,27)          -65.2261         estimate D2E/DX2                !
 ! D36   D(3,4,10,28)         -179.9587         estimate D2E/DX2                !
 ! D37   D(5,4,10,11)         -168.4482         estimate D2E/DX2                !
 ! D38   D(5,4,10,27)           67.3471         estimate D2E/DX2                !
 ! D39   D(5,4,10,28)          -47.3855         estimate D2E/DX2                !
 ! D40   D(7,4,10,11)          -64.5724         estimate D2E/DX2                !
 ! D41   D(7,4,10,27)          171.2229         estimate D2E/DX2                !
 ! D42   D(7,4,10,28)           56.4903         estimate D2E/DX2                !
 ! D43   D(4,5,6,7)             10.3404         estimate D2E/DX2                !
 ! D44   D(4,5,6,8)            122.9521         estimate D2E/DX2                !
 ! D45   D(4,5,6,9)            -99.6081         estimate D2E/DX2                !
 ! D46   D(23,5,6,7)           130.2806         estimate D2E/DX2                !
 ! D47   D(23,5,6,8)          -117.1078         estimate D2E/DX2                !
 ! D48   D(23,5,6,9)            20.332          estimate D2E/DX2                !
 ! D49   D(24,5,6,7)          -104.379          estimate D2E/DX2                !
 ! D50   D(24,5,6,8)             8.2326         estimate D2E/DX2                !
 ! D51   D(24,5,6,9)           145.6724         estimate D2E/DX2                !
 ! D52   D(5,6,7,4)            -10.4386         estimate D2E/DX2                !
 ! D53   D(5,6,7,25)          -131.4828         estimate D2E/DX2                !
 ! D54   D(5,6,7,26)           103.6436         estimate D2E/DX2                !
 ! D55   D(8,6,7,4)           -123.3396         estimate D2E/DX2                !
 ! D56   D(8,6,7,25)           115.6162         estimate D2E/DX2                !
 ! D57   D(8,6,7,26)            -9.2573         estimate D2E/DX2                !
 ! D58   D(9,6,7,4)             99.8817         estimate D2E/DX2                !
 ! D59   D(9,6,7,25)           -21.1624         estimate D2E/DX2                !
 ! D60   D(9,6,7,26)          -146.036          estimate D2E/DX2                !
 ! D61   D(4,10,11,12)         -82.7678         estimate D2E/DX2                !
 ! D62   D(4,10,11,29)         156.3788         estimate D2E/DX2                !
 ! D63   D(4,10,11,30)          42.2177         estimate D2E/DX2                !
 ! D64   D(27,10,11,12)         40.3109         estimate D2E/DX2                !
 ! D65   D(27,10,11,29)        -80.5425         estimate D2E/DX2                !
 ! D66   D(27,10,11,30)        165.2963         estimate D2E/DX2                !
 ! D67   D(28,10,11,12)        156.0525         estimate D2E/DX2                !
 ! D68   D(28,10,11,29)         35.1991         estimate D2E/DX2                !
 ! D69   D(28,10,11,30)        -78.9621         estimate D2E/DX2                !
 ! D70   D(10,11,12,13)        113.8593         estimate D2E/DX2                !
 ! D71   D(10,11,12,17)        -68.3056         estimate D2E/DX2                !
 ! D72   D(29,11,12,13)       -125.8328         estimate D2E/DX2                !
 ! D73   D(29,11,12,17)         52.0023         estimate D2E/DX2                !
 ! D74   D(30,11,12,13)        -11.5168         estimate D2E/DX2                !
 ! D75   D(30,11,12,17)        166.3183         estimate D2E/DX2                !
 ! D76   D(11,12,13,14)        178.2501         estimate D2E/DX2                !
 ! D77   D(11,12,13,31)         -1.8266         estimate D2E/DX2                !
 ! D78   D(17,12,13,14)          0.3623         estimate D2E/DX2                !
 ! D79   D(17,12,13,31)       -179.7144         estimate D2E/DX2                !
 ! D80   D(11,12,17,16)       -178.3213         estimate D2E/DX2                !
 ! D81   D(11,12,17,35)          1.2996         estimate D2E/DX2                !
 ! D82   D(13,12,17,16)         -0.4174         estimate D2E/DX2                !
 ! D83   D(13,12,17,35)        179.2035         estimate D2E/DX2                !
 ! D84   D(12,13,14,15)         -0.0815         estimate D2E/DX2                !
 ! D85   D(12,13,14,32)       -179.8631         estimate D2E/DX2                !
 ! D86   D(31,13,14,15)        179.9953         estimate D2E/DX2                !
 ! D87   D(31,13,14,32)          0.2137         estimate D2E/DX2                !
 ! D88   D(13,14,15,16)         -0.1538         estimate D2E/DX2                !
 ! D89   D(13,14,15,33)       -179.871          estimate D2E/DX2                !
 ! D90   D(32,14,15,16)        179.627          estimate D2E/DX2                !
 ! D91   D(32,14,15,33)         -0.0902         estimate D2E/DX2                !
 ! D92   D(14,15,16,17)          0.0993         estimate D2E/DX2                !
 ! D93   D(14,15,16,34)       -179.6532         estimate D2E/DX2                !
 ! D94   D(33,15,16,17)        179.8165         estimate D2E/DX2                !
 ! D95   D(33,15,16,34)          0.064          estimate D2E/DX2                !
 ! D96   D(15,16,17,12)          0.1919         estimate D2E/DX2                !
 ! D97   D(15,16,17,35)       -179.4287         estimate D2E/DX2                !
 ! D98   D(34,16,17,12)        179.9452         estimate D2E/DX2                !
 ! D99   D(34,16,17,35)          0.3245         estimate D2E/DX2                !
 --------------------------------------------------------------------------------
 Trust Radius=3.00D-01 FncErr=1.00D-07 GrdErr=1.00D-06 EigMax=2.50D+02 EigMin=1.00D-04
 Number of steps in this run=    210 maximum allowed number of steps=    210.
 GradGradGradGradGradGradGradGradGradGradGradGradGradGradGradGradGradGrad

 Leave Link  103 at Tue Sep 22 01:46:05 2020, MaxMem=  2147483648 cpu:               0.1 elap:               0.0
 (Enter /prod/apps/gaussian/g16b1/l202.exe)
                          Input orientation:                          
 ---------------------------------------------------------------------
 Center     Atomic      Atomic             Coordinates (Angstroms)
 Number     Number       Type             X           Y           Z
 ---------------------------------------------------------------------
      1          6           0        1.482000    2.476000    1.453000
      2         16           0        0.293000    2.031000    0.174000
      3          7           0       -0.260000    0.657000    0.752000
      4          6           0       -1.118000   -0.164000   -0.086000
      5          6           0       -2.316000    0.589000   -0.818000
      6         16           0       -3.507000   -0.580000   -0.110000
      7          6           0       -2.034000   -1.045000    0.850000
      8          8           0       -4.584000    0.046000    0.690000
      9          8           0       -3.895000   -1.638000   -1.074000
     10          6           0       -0.382000   -1.052000   -1.124000
     11          6           0        0.637000   -2.075000   -0.567000
     12          6           0        2.031000   -1.562000   -0.255000
     13          6           0        2.514000   -1.519000    1.060000
     14          6           0        3.811000   -1.080000    1.340000
     15          6           0        4.654000   -0.675000    0.301000
     16          6           0        4.188000   -0.717000   -1.016000
     17          6           0        2.891000   -1.158000   -1.288000
     18          8           0       -0.716000    3.150000    0.143000
     19          8           0        1.056000    1.950000   -1.119000
     20          1           0        0.970000    2.545000    2.414000
     21          1           0        1.903000    3.447000    1.181000
     22          1           0        2.268000    1.720000    1.495000
     23          1           0       -2.306000    0.592000   -1.910000
     24          1           0       -2.490000    1.591000   -0.425000
     25          1           0       -1.858000   -2.121000    0.871000
     26          1           0       -2.104000   -0.639000    1.860000
     27          1           0        0.110000   -0.388000   -1.842000
     28          1           0       -1.142000   -1.613000   -1.684000
     29          1           0        0.732000   -2.869000   -1.319000
     30          1           0        0.226000   -2.560000    0.327000
     31          1           0        1.866000   -1.832000    1.875000
     32          1           0        4.163000   -1.058000    2.368000
     33          1           0        5.664000   -0.335000    0.515000
     34          1           0        4.836000   -0.410000   -1.833000
     35          1           0        2.543000   -1.195000   -2.318000
 ---------------------------------------------------------------------
                    Distance matrix (angstroms):
                    1          2          3          4          5
     1  C    0.000000
     2  S    1.802106   0.000000
     3  N    2.614331   1.589896   0.000000
     4  C    4.012246   2.622317   1.453427   0.000000
     5  C    4.810719   3.141705   2.587791   1.593122   0.000000
     6  S    6.055760   4.619305   3.579975   2.425068   1.812817
     7  C    5.012315   3.915824   2.460383   1.578389   2.351957
     8  O    6.579014   5.290710   4.367395   3.558010   2.777181
     9  O    7.226538   5.705998   4.670602   3.295535   2.741953
    10  C    4.749969   3.412524   2.540658   1.551671   2.554775
    11  C    5.050349   4.186485   3.163573   2.638808   3.984985
    12  C    4.418609   4.014266   3.344651   3.449517   4.882641
    13  C    4.144816   4.280226   3.539056   4.042371   5.594591
    14  C    4.252311   4.838822   4.464970   5.212252   6.706911
    15  C    4.617087   5.133896   5.111264   5.807484   7.171524
    16  C    4.859387   4.913108   4.979800   5.415196   6.636781
    17  C    4.764905   4.365406   4.169487   4.301735   5.512328
    18  O    2.646050   1.507051   2.606505   3.346138   3.168950
    19  O    2.659574   1.503522   2.627612   3.203492   3.648740
    20  H    1.091066   2.395856   2.799944   4.236558   5.006951
    21  H    1.092733   2.368798   3.556221   4.875556   5.473950
    22  H    1.091373   2.396328   2.841268   4.184975   5.257584
    23  H    5.404458   3.628854   3.358063   2.304312   1.092050
    24  H    4.481840   2.880536   2.688975   2.253293   1.090288
    25  H    5.711982   4.727760   3.207031   2.300717   3.225924
    26  H    4.767418   3.964480   2.511497   2.232652   2.953745
    27  H    4.576233   3.154252   2.820950   2.154460   2.808662
    28  H    5.783257   4.334758   3.444549   2.157262   2.641408
    29  H    6.067579   5.141184   4.207824   3.501402   4.636709
    30  H    5.310999   4.594037   3.281145   2.778079   4.205828
    31  H    4.345619   4.504498   3.460654   3.941066   5.531963
    32  H    4.529254   5.415945   5.011548   5.891546   7.405447
    33  H    5.125494   5.878935   6.011157   6.810724   8.143161
    34  H    5.511452   5.534020   5.812911   6.209883   7.292416
    35  H    5.368650   4.656140   4.551001   4.409955   5.389113
                    6          7          8          9         10
     6  S    0.000000
     7  C    1.818668   0.000000
     8  O    1.480475   2.778197   0.000000
     9  O    1.482971   2.741668   2.534220   0.000000
    10  C    3.319127   2.574069   4.706698   3.561891   0.000000
    11  C    4.429064   3.194218   5.773866   4.581162   1.547624
    12  C    5.626259   4.244118   6.872912   5.982810   2.614924
    13  C    6.205084   4.577453   7.277893   6.755990   3.657152
    14  C    7.477006   5.865607   8.495081   8.094516   4.863469
    15  C    8.171895   6.720688   9.274255   8.712255   5.247290
    16  C    7.749363   6.504062   8.968868   8.135508   4.583535
    17  C    6.531169   5.370236   7.825454   6.806320   3.278820
    18  O    4.665468   4.453650   4.989534   5.874698   4.401551
    19  O    5.314127   4.732345   6.221519   6.114587   3.328644
    20  H    6.014959   4.935404   6.329620   7.302866   5.223386
    21  H    6.866696   5.982273   7.340916   8.034865   5.547545
    22  H    6.420019   5.154460   7.099310   7.473854   4.643883
    23  H    2.460891   3.220459   3.499629   2.862991   2.649964
    24  H    2.418006   2.963454   2.831093   3.580736   3.452204
    25  H    2.460944   1.090501   3.487080   2.857566   2.702103
    26  H    2.419254   1.090796   2.826398   3.579670   3.469886
    27  H    4.014894   3.503605   5.350983   4.265249   1.094753
    28  H    3.022878   2.745805   4.498391   2.819882   1.098144
    29  H    4.966923   3.960087   6.386952   4.794217   2.140213
    30  H    4.248136   2.770623   5.482618   4.449216   2.179250
    31  H    5.863178   4.108527   6.821555   6.474825   3.828303
    32  H    8.074520   6.380227   8.974659   8.781522   5.731590
    33  H    9.195536   7.737928  10.256573   9.777383   6.305119
    34  H    8.520756   7.402609   9.762677   8.849544   5.304938
    35  H    6.469620   5.568452   7.834684   6.572034   3.162548
                   11         12         13         14         15
    11  C    0.000000
    12  C    1.517811   0.000000
    13  C    2.545465   1.401557   0.000000
    14  C    3.834182   2.438186   1.397616   0.000000
    15  C    4.341626   2.824187   2.422399   1.397925   0.000000
    16  C    3.828233   2.438400   2.784826   2.413428   1.397644
    17  C    2.537961   1.403533   2.405318   2.785474   2.422061
    18  O    5.443834   5.468762   5.750943   6.310264   6.594884
    19  O    4.084225   3.745833   4.348306   4.776778   4.674680
    20  H    5.508326   5.011660   4.553389   4.729205   5.329636
    21  H    5.928806   5.212347   5.004909   4.915229   5.033218
    22  H    4.616712   3.726955   3.277325   3.200761   3.585339
    23  H    4.192587   5.117452   6.042319   7.125712   7.411843
    24  H    4.820565   5.514504   6.075964   7.067678   7.529845
    25  H    2.880102   4.087136   4.417297   5.782837   6.694920
    26  H    3.932621   4.735333   4.768682   5.954167   6.935585
    27  H    2.179294   2.754467   3.934461   4.929644   5.032172
    28  H    2.150808   3.480312   4.572167   5.827596   6.197877
    29  H    1.097709   2.127850   3.264608   4.444215   4.777041
    30  H    1.096988   2.143071   2.618380   4.008590   4.812596
    31  H    2.744605   2.153375   1.087243   2.152848   3.404272
    32  H    4.699063   3.417538   2.154666   1.086817   2.158763
    33  H    5.428541   3.911153   3.409015   2.160847   1.086966
    34  H    4.691117   3.418364   3.871823   3.401096   2.158079
    35  H    2.733722   2.157035   3.393627   3.873243   3.403804
                   16         17         18         19         20
    16  C    0.000000
    17  C    1.396665   0.000000
    18  O    6.351865   5.798023   0.000000
    19  O    4.114963   3.613233   2.484477   0.000000
    20  H    5.723729   5.577388   2.892415   3.583784   0.000000
    21  H    5.233252   5.317718   2.832810   2.872006   1.790079
    22  H    3.991302   4.051679   3.574501   2.890474   1.791644
    23  H    6.684666   5.518894   3.645034   3.711184   5.765706
    24  H    7.090263   6.103846   2.429029   3.631065   4.576203
    25  H    6.487380   5.304870   5.442204   5.387443   5.670096
    26  H    6.918578   5.926997   4.385334   5.055983   4.460297
    27  H    4.173799   2.938329   4.140042   2.623717   5.239812
    28  H    5.445910   4.077859   5.119138   4.224381   6.208310
    29  H    4.082505   2.754952   6.361015   4.834019   6.580526
    30  H    4.571405   3.417024   5.790105   4.808317   5.565081
    31  H    3.872052   3.392561   5.872552   4.891182   4.500163
    32  H    3.401229   3.872250   6.816343   5.555239   4.814455
    33  H    2.160662   3.408470   7.279286   5.396744   5.825310
    34  H    1.087034   2.153962   6.884975   4.513069   6.458714
    35  H    2.151677   1.087829   5.962938   3.679646   6.233278
                   21         22         23         24         25
    21  H    0.000000
    22  H    1.792861   0.000000
    23  H    5.951553   5.812735   0.000000
    24  H    5.032139   5.132407   1.799189   0.000000
    25  H    6.726355   5.671555   3.910887   3.982208   0.000000
    26  H    5.763028   4.981214   3.971028   3.216072   1.798600
    27  H    5.201981   4.498466   2.608080   3.561507   3.773153
    28  H    6.563829   5.730884   2.503597   3.696999   2.701619
    29  H    6.892974   5.597929   4.642978   5.574237   3.473284
    30  H    6.294894   4.883891   4.620638   5.017266   2.198116
    31  H    5.324551   3.594817   6.132502   5.998472   3.867779
    32  H    5.177991   3.474254   7.929171   7.686381   6.294714
    33  H    5.375147   4.088550   8.382175   8.430943   7.739316
    34  H    5.706412   4.712442   7.212357   7.723778   7.419486
    35  H    5.848142   4.807475   5.183882   6.056099   5.513257
                   26         27         28         29         30
    26  H    0.000000
    27  H    4.320833   0.000000
    28  H    3.799218   1.758719   0.000000
    29  H    4.808517   2.610704   2.285309   0.000000
    30  H    3.386625   3.071742   2.610049   1.749524   0.000000
    31  H    4.145404   4.357151   4.665030   3.544427   2.369786
    32  H    6.301501   5.882160   6.698489   5.352145   4.682057
    33  H    7.889440   6.033670   7.265709   5.840320   5.878589
    34  H    7.864750   4.726060   6.099663   4.811828   5.526319
    35  H    6.273709   2.607166   3.762433   2.660827   3.771968
                   31         32         33         34         35
    31  H    0.000000
    32  H    2.473527   0.000000
    33  H    4.302954   2.491855   0.000000
    34  H    4.959057   4.303630   2.490846   0.000000
    35  H    4.294805   4.960017   4.301875   2.471700   0.000000
 Symmetry turned off by external request.
 Stoichiometry    C12H16NO4S2(1-)
 Framework group  C1[X(C12H16NO4S2)]
 Deg. of freedom    99
 Full point group                 C1      NOp   1
 Rotational constants (GHZ):           0.5338878           0.2138159           0.1754658
 Leave Link  202 at Tue Sep 22 01:46:05 2020, MaxMem=  2147483648 cpu:               0.0 elap:               0.0
 (Enter /prod/apps/gaussian/g16b1/l301.exe)
 Standard basis: 6-31G(d) (6D, 7F)
 Ernie: Thresh=  0.10000D-02 Tol=  0.10000D-05 Strict=F.
   325 basis functions,   644 primitive gaussians,   325 cartesian basis functions
    80 alpha electrons       80 beta electrons
       nuclear repulsion energy      1859.7514564091 Hartrees.
 IExCor=  402 DFT=T Ex+Corr=B3LYP ExCW=0 ScaHFX=  0.200000
 ScaDFX=  0.800000  0.720000  1.000000  0.810000 ScalE2=  1.000000  1.000000
 IRadAn=      5 IRanWt=     -1 IRanGd=            0 ICorTp=0 IEmpDi=  4
 NAtoms=   35 NActive=   35 NUniq=   35 SFac= 1.00D+00 NAtFMM=   60 NAOKFM=F Big=F
 Integral buffers will be    131072 words long.
 Raffenetti 2 integral format.
 Two-electron integral symmetry is turned off.
 Using the following non-standard input for PCM:
 MSTModel=DFT MSTcharged
 --- end of non-standard input.
 MST model for solvation energy: B3LYP parametrization.
 MST cavity parameters:
 ISph   IAn     Re0     Alpha   Atom Type   QCorr
 ------------------------------------------------
   1      6     1.50     1.25      CH3        F
   2     16     1.75     1.25      S          F
   3      7     1.40     1.15      N          T
   4      6     1.50     1.25      C          F
   5      6     1.50     1.25      CH2        F
   6     16     1.75     1.25      S          F
   7      6     1.50     1.25      CH2        F
   8      8     1.40     1.25      O          F
   9      8     1.40     1.25      O          F
  10      6     1.50     1.25      CH2        F
  11      6     1.50     1.25      CH2        F
  12      6     1.50     1.25      C          F
  13      6     1.50     1.25      CH         F
  14      6     1.50     1.25      CH         F
  15      6     1.50     1.25      CH         F
  16      6     1.50     1.25      CH         F
  17      6     1.50     1.25      CH         F
  18      8     1.40     1.25      O          F
  19      8     1.40     1.25      O          F
  20      1     1.20     1.25      CH3        F
  21      1     1.20     1.25      CH3        F
  22      1     1.20     1.25      CH3        F
  23      1     1.20     1.25      CH2        F
  24      1     1.20     1.25      CH2        F
  25      1     1.20     1.25      CH2        F
  26      1     1.20     1.25      CH2        F
  27      1     1.20     1.25      CH2        F
  28      1     1.20     1.25      CH2        F
  29      1     1.20     1.25      CH2        F
  30      1     1.20     1.25      CH2        F
  31      1     1.20     1.25      CH         F
  32      1     1.20     1.25      CH         F
  33      1     1.20     1.25      CH         F
  34      1     1.20     1.25      CH         F
  35      1     1.20     1.25      CH         F
 ------------------------------------------------------------------------------
 Polarizable Continuum Model (PCM)
 =================================
 Model                : PCM.
 Atomic radii         : MST.
 Polarization charges : Total charges.
 Charge compensation  : None.
 Solution method      : On-the-fly selection.
 Cavity type          : Scaled VdW (van der Waals Surface) (Alpha=1.250).
 Cavity algorithm     : GePol (No added spheres)
                        Default sphere list used, NSphG=   35.
                        Lebedev-Laikov grids with approx.  5.0 points / Ang**2.
                        Smoothing algorithm: York/Karplus (Gamma=1.0000).
                        Polarization charges: spherical gaussians, with
                                              point-specific exponents (IZeta= 3).
                        Self-potential: point-specific (ISelfS= 7).
                        Self-field    : sphere-specific E.n sum rule (ISelfD= 2).
 1st derivatives      : Analytical E(r).r(x)/FMM algorithm (CHGder, D1EAlg=3).
                        Cavity 1st derivative terms included.
 Solvent              : Water, Eps=  78.355300 Eps(inf)=   1.777849
 ------------------------------------------------------------------------------
 GePol: Number of generator spheres                  =      35
 GePol: Total number of spheres                      =      35
 GePol: Number of exposed spheres                    =      35 (100.00%)
 GePol: Number of points                             =    2545
 GePol: Average weight of points                     =       0.14
 GePol: Minimum weight of points                     =   0.17D-10
 GePol: Maximum weight of points                     =    0.22001
 GePol: Number of points with low weight             =     194
 GePol: Fraction of low-weight points (<1% of avg)   =       7.62%
 GePol: Cavity surface area                          =    346.933 Ang**2
 GePol: Cavity volume                                =    336.950 Ang**3
 PCM non-electrostatic energy =        -0.0672801478 Hartrees.
 Nuclear repulsion after PCM non-electrostatic terms =     1859.6841762613 Hartrees.
 Leave Link  301 at Tue Sep 22 01:46:05 2020, MaxMem=  2147483648 cpu:               0.4 elap:               0.1
 (Enter /prod/apps/gaussian/g16b1/l302.exe)
 NPDir=0 NMtPBC=     1 NCelOv=     1 NCel=       1 NClECP=     1 NCelD=      1
         NCelK=      1 NCelE2=     1 NClLst=     1 CellRange=     0.0.
 One-electron integrals computed using PRISM.
 NBasis=   325 RedAO= T EigKep=  4.74D-04  NBF=   325
 NBsUse=   325 1.00D-06 EigRej= -1.00D+00 NBFU=   325
 Precomputing XC quadrature grid using
 IXCGrd= 4 IRadAn=           5 IRanWt=          -1 IRanGd=           0 AccXCQ= 0.00D+00.
 Generated NRdTot=       0 NPtTot=           0 NUsed=           0 NTot=          32
 NSgBfM=   323   323   323   323   323 MxSgAt=    35 MxSgA2=    35.
 Leave Link  302 at Tue Sep 22 01:46:06 2020, MaxMem=  2147483648 cpu:               1.8 elap:               0.5
 (Enter /prod/apps/gaussian/g16b1/l303.exe)
 DipDrv:  MaxL=1.
 Leave Link  303 at Tue Sep 22 01:46:06 2020, MaxMem=  2147483648 cpu:               0.1 elap:               0.1
 (Enter /prod/apps/gaussian/g16b1/l401.exe)
 ExpMin= 1.17D-01 ExpMax= 2.19D+04 ExpMxC= 3.30D+03 IAcc=3 IRadAn=         5 AccDes= 0.00D+00
 Harris functional with IExCor=  402 and IRadAn=       5 diagonalized for initial guess.
 HarFok:  IExCor=  402 AccDes= 0.00D+00 IRadAn=         5 IDoV= 1 UseB2=F ITyADJ=14
 ICtDFT=  3500011 ScaDFX=  1.000000  1.000000  1.000000  1.000000
 FoFCou: FMM=F IPFlag=           0 FMFlag=      100000 FMFlg1=           0
         NFxFlg=           0 DoJE=T BraDBF=F KetDBF=T FulRan=T
         wScrn=  0.000000 ICntrl=       500 IOpCl=  0 I1Cent=   200000004 NGrid=           0
         NMat0=    1 NMatS0=      1 NMatT0=    0 NMatD0=    1 NMtDS0=    0 NMtDT0=    0
 Symmetry not used in FoFCou.
 Harris En= -1619.14848736242    
 JPrj=0 DoOrth=F DoCkMO=F.
 Leave Link  401 at Tue Sep 22 01:46:09 2020, MaxMem=  2147483648 cpu:              10.6 elap:               2.7
 (Enter /prod/apps/gaussian/g16b1/l502.exe)
 Two-electron integral symmetry not used.
 Closed shell SCF:
 Using DIIS extrapolation, IDIIS=  1040.
 NGot=  2147483648 LenX=  2147267572 LenY=  2147161506
 Requested convergence on RMS density matrix=1.00D-08 within2000 cycles.
 Requested convergence on MAX density matrix=1.00D-06.
 Requested convergence on             energy=1.00D-06.
 No special actions if energy rises.

 Cycle   1  Pass 1  IDiag  1:
 FoFJK:  IHMeth= 1 ICntrl=       0 DoSepK=F KAlg= 0 I1Cent=           0 FoldK=F
 IRaf= 830000000 NMat=       1 IRICut=       1 DoRegI=T DoRafI=F ISym2E= 0 IDoP0=0 IntGTp=1.
 FoFCou: FMM=F IPFlag=           0 FMFlag=      100000 FMFlg1=           0
         NFxFlg=           0 DoJE=F BraDBF=F KetDBF=F FulRan=T
         wScrn=  0.000000 ICntrl=         0 IOpCl=  0 I1Cent=           0 NGrid=           0
         NMat0=    1 NMatS0=      1 NMatT0=    0 NMatD0=    1 NMtDS0=    0 NMtDT0=    0
 Symmetry not used in FoFCou.
 Inv3:  Mode=1 IEnd=    19431075.
 Iteration    1 A*A^-1 deviation from unit magnitude is 3.11D-15 for   1527.
 Iteration    1 A*A^-1 deviation from orthogonality  is 4.46D-15 for   1903    628.
 Iteration    1 A^-1*A deviation from unit magnitude is 3.33D-15 for   2169.
 Iteration    1 A^-1*A deviation from orthogonality  is 3.18D-15 for   1840    826.
 E= -1618.20832731575    
 DIIS: error= 3.96D-02 at cycle   1 NSaved=   1.
 NSaved= 1 IEnMin= 1 EnMin= -1618.20832731575     IErMin= 1 ErrMin= 3.96D-02
 ErrMax= 3.96D-02  0.00D+00 EMaxC= 1.00D-01 BMatC= 9.49D-01 BMatP= 9.49D-01
 IDIUse=3 WtCom= 6.04D-01 WtEn= 3.96D-01
 Coeff-Com:  0.100D+01
 Coeff-En:   0.100D+01
 Coeff:      0.100D+01
 Gap=     0.195 Goal=   None    Shift=    0.000
 GapD=    0.195 DampG=1.000 DampE=0.500 DampFc=0.5000 IDamp=-1.
 Damping current iteration by 5.00D-01
 RMSDP=7.10D-03 MaxDP=4.98D-01              OVMax= 2.24D-01

 Cycle   2  Pass 1  IDiag  1:
 E= -1618.46589503869     Delta-E=       -0.257567722938 Rises=F Damp=T
 DIIS: error= 1.21D-02 at cycle   2 NSaved=   2.
 NSaved= 2 IEnMin= 2 EnMin= -1618.46589503869     IErMin= 2 ErrMin= 1.21D-02
 ErrMax= 1.21D-02  0.00D+00 EMaxC= 1.00D-01 BMatC= 9.42D-02 BMatP= 9.49D-01
 IDIUse=3 WtCom= 8.79D-01 WtEn= 1.21D-01
 Coeff-Com:  0.189D+00 0.811D+00
 Coeff-En:   0.305D+00 0.695D+00
 Coeff:      0.203D+00 0.797D+00
 Gap=     0.265 Goal=   None    Shift=    0.000
 RMSDP=1.68D-03 MaxDP=1.04D-01 DE=-2.58D-01 OVMax= 1.66D-01

 Cycle   3  Pass 1  IDiag  1:
 E= -1618.96016215755     Delta-E=       -0.494267118862 Rises=F Damp=F
 DIIS: error= 9.06D-03 at cycle   3 NSaved=   3.
 NSaved= 3 IEnMin= 3 EnMin= -1618.96016215755     IErMin= 3 ErrMin= 9.06D-03
 ErrMax= 9.06D-03  0.00D+00 EMaxC= 1.00D-01 BMatC= 4.89D-02 BMatP= 9.42D-02
 IDIUse=3 WtCom= 9.09D-01 WtEn= 9.06D-02
 Coeff-Com:  0.660D-01 0.432D+00 0.502D+00
 Coeff-En:   0.000D+00 0.000D+00 0.100D+01
 Coeff:      0.601D-01 0.393D+00 0.547D+00
 Gap=     0.202 Goal=   None    Shift=    0.000
 RMSDP=9.55D-04 MaxDP=2.77D-02 DE=-4.94D-01 OVMax= 5.81D-02

 Cycle   4  Pass 1  IDiag  1:
 E= -1618.99825027153     Delta-E=       -0.038088113979 Rises=F Damp=F
 DIIS: error= 3.63D-03 at cycle   4 NSaved=   4.
 NSaved= 4 IEnMin= 4 EnMin= -1618.99825027153     IErMin= 4 ErrMin= 3.63D-03
 ErrMax= 3.63D-03  0.00D+00 EMaxC= 1.00D-01 BMatC= 7.89D-03 BMatP= 4.89D-02
 IDIUse=3 WtCom= 9.64D-01 WtEn= 3.63D-02
 Coeff-Com:  0.539D-02 0.753D-01 0.298D+00 0.622D+00
 Coeff-En:   0.000D+00 0.000D+00 0.129D+00 0.871D+00
 Coeff:      0.519D-02 0.725D-01 0.291D+00 0.631D+00
 Gap=     0.193 Goal=   None    Shift=    0.000
 RMSDP=3.44D-04 MaxDP=1.35D-02 DE=-3.81D-02 OVMax= 2.32D-02

 Cycle   5  Pass 1  IDiag  1:
 E= -1619.00452898346     Delta-E=       -0.006278711932 Rises=F Damp=F
 DIIS: error= 1.05D-03 at cycle   5 NSaved=   5.
 NSaved= 5 IEnMin= 5 EnMin= -1619.00452898346     IErMin= 5 ErrMin= 1.05D-03
 ErrMax= 1.05D-03  0.00D+00 EMaxC= 1.00D-01 BMatC= 7.65D-04 BMatP= 7.89D-03
 IDIUse=3 WtCom= 9.89D-01 WtEn= 1.05D-02
 Coeff-Com: -0.116D-02 0.143D-01 0.128D+00 0.356D+00 0.503D+00
 Coeff-En:   0.000D+00 0.000D+00 0.000D+00 0.583D-02 0.994D+00
 Coeff:     -0.115D-02 0.141D-01 0.127D+00 0.352D+00 0.508D+00
 Gap=     0.197 Goal=   None    Shift=    0.000
 RMSDP=1.08D-04 MaxDP=7.88D-03 DE=-6.28D-03 OVMax= 6.65D-03

 Cycle   6  Pass 1  IDiag  1:
 E= -1619.00519407558     Delta-E=       -0.000665092123 Rises=F Damp=F
 DIIS: error= 1.78D-04 at cycle   6 NSaved=   6.
 NSaved= 6 IEnMin= 6 EnMin= -1619.00519407558     IErMin= 6 ErrMin= 1.78D-04
 ErrMax= 1.78D-04  0.00D+00 EMaxC= 1.00D-01 BMatC= 3.57D-05 BMatP= 7.65D-04
 IDIUse=3 WtCom= 9.98D-01 WtEn= 1.78D-03
 Coeff-Com: -0.815D-03 0.201D-02 0.413D-01 0.124D+00 0.251D+00 0.582D+00
 Coeff-En:   0.000D+00 0.000D+00 0.000D+00 0.000D+00 0.000D+00 0.100D+01
 Coeff:     -0.813D-03 0.201D-02 0.412D-01 0.124D+00 0.251D+00 0.583D+00
 Gap=     0.196 Goal=   None    Shift=    0.000
 RMSDP=2.26D-05 MaxDP=1.36D-03 DE=-6.65D-04 OVMax= 1.34D-03

 Cycle   7  Pass 1  IDiag  1:
 E= -1619.00522350697     Delta-E=       -0.000029431385 Rises=F Damp=F
 DIIS: error= 4.23D-05 at cycle   7 NSaved=   7.
 NSaved= 7 IEnMin= 7 EnMin= -1619.00522350697     IErMin= 7 ErrMin= 4.23D-05
 ErrMax= 4.23D-05  0.00D+00 EMaxC= 1.00D-01 BMatC= 2.55D-06 BMatP= 3.57D-05
 IDIUse=1 WtCom= 1.00D+00 WtEn= 0.00D+00
 Coeff-Com: -0.304D-03-0.267D-03 0.951D-02 0.308D-01 0.822D-01 0.286D+00
 Coeff-Com:  0.592D+00
 Coeff:     -0.304D-03-0.267D-03 0.951D-02 0.308D-01 0.822D-01 0.286D+00
 Coeff:      0.592D+00
 Gap=     0.196 Goal=   None    Shift=    0.000
 RMSDP=6.36D-06 MaxDP=3.48D-04 DE=-2.94D-05 OVMax= 2.82D-04

 Cycle   8  Pass 1  IDiag  1:
 E= -1619.00522571498     Delta-E=       -0.000002208010 Rises=F Damp=F
 DIIS: error= 2.43D-05 at cycle   8 NSaved=   8.
 NSaved= 8 IEnMin= 8 EnMin= -1619.00522571498     IErMin= 8 ErrMin= 2.43D-05
 ErrMax= 2.43D-05  0.00D+00 EMaxC= 1.00D-01 BMatC= 2.15D-07 BMatP= 2.55D-06
 IDIUse=1 WtCom= 1.00D+00 WtEn= 0.00D+00
 Coeff-Com: -0.101D-03-0.277D-03 0.193D-02 0.692D-02 0.245D-01 0.105D+00
 Coeff-Com:  0.298D+00 0.565D+00
 Coeff:     -0.101D-03-0.277D-03 0.193D-02 0.692D-02 0.245D-01 0.105D+00
 Coeff:      0.298D+00 0.565D+00
 Gap=     0.196 Goal=   None    Shift=    0.000
 RMSDP=1.89D-06 MaxDP=9.47D-05 DE=-2.21D-06 OVMax= 1.45D-04

 Cycle   9  Pass 1  IDiag  1:
 E= -1619.00522583580     Delta-E=       -0.000000120826 Rises=F Damp=F
 DIIS: error= 1.50D-05 at cycle   9 NSaved=   9.
 NSaved= 9 IEnMin= 9 EnMin= -1619.00522583580     IErMin= 9 ErrMin= 1.50D-05
 ErrMax= 1.50D-05  0.00D+00 EMaxC= 1.00D-01 BMatC= 6.68D-08 BMatP= 2.15D-07
 IDIUse=1 WtCom= 1.00D+00 WtEn= 0.00D+00
 Coeff-Com: -0.169D-04-0.121D-03-0.354D-03-0.702D-03 0.220D-02 0.203D-01
 Coeff-Com:  0.967D-01 0.380D+00 0.502D+00
 Coeff:     -0.169D-04-0.121D-03-0.354D-03-0.702D-03 0.220D-02 0.203D-01
 Coeff:      0.967D-01 0.380D+00 0.502D+00
 Gap=     0.196 Goal=   None    Shift=    0.000
 RMSDP=7.61D-07 MaxDP=4.38D-05 DE=-1.21D-07 OVMax= 5.83D-05

 Cycle  10  Pass 1  IDiag  1:
 E= -1619.00522588629     Delta-E=       -0.000000050482 Rises=F Damp=F
 DIIS: error= 1.32D-06 at cycle  10 NSaved=  10.
 NSaved=10 IEnMin=10 EnMin= -1619.00522588629     IErMin=10 ErrMin= 1.32D-06
 ErrMax= 1.32D-06  0.00D+00 EMaxC= 1.00D-01 BMatC= 1.35D-09 BMatP= 6.68D-08
 IDIUse=1 WtCom= 1.00D+00 WtEn= 0.00D+00
 Coeff-Com: -0.485D-05-0.302D-04-0.260D-03-0.653D-03-0.232D-03 0.360D-02
 Coeff-Com:  0.283D-01 0.139D+00 0.219D+00 0.611D+00
 Coeff:     -0.485D-05-0.302D-04-0.260D-03-0.653D-03-0.232D-03 0.360D-02
 Coeff:      0.283D-01 0.139D+00 0.219D+00 0.611D+00
 Gap=     0.196 Goal=   None    Shift=    0.000
 RMSDP=1.52D-07 MaxDP=5.54D-06 DE=-5.05D-08 OVMax= 6.36D-06

 Cycle  11  Pass 1  IDiag  1:
 E= -1619.00522588727     Delta-E=       -0.000000000982 Rises=F Damp=F
 DIIS: error= 4.87D-07 at cycle  11 NSaved=  11.
 NSaved=11 IEnMin=11 EnMin= -1619.00522588727     IErMin=11 ErrMin= 4.87D-07
 ErrMax= 4.87D-07  0.00D+00 EMaxC= 1.00D-01 BMatC= 2.26D-10 BMatP= 1.35D-09
 IDIUse=1 WtCom= 1.00D+00 WtEn= 0.00D+00
 Coeff-Com: -0.208D-05-0.179D-06-0.111D-03-0.282D-03-0.421D-03-0.566D-03
 Coeff-Com:  0.372D-02 0.293D-01 0.573D-01 0.320D+00 0.591D+00
 Coeff:     -0.208D-05-0.179D-06-0.111D-03-0.282D-03-0.421D-03-0.566D-03
 Coeff:      0.372D-02 0.293D-01 0.573D-01 0.320D+00 0.591D+00
 Gap=     0.196 Goal=   None    Shift=    0.000
 RMSDP=5.69D-08 MaxDP=2.20D-06 DE=-9.82D-10 OVMax= 2.43D-06

 Cycle  12  Pass 1  IDiag  1:
 E= -1619.00522588746     Delta-E=       -0.000000000190 Rises=F Damp=F
 DIIS: error= 2.13D-07 at cycle  12 NSaved=  12.
 NSaved=12 IEnMin=12 EnMin= -1619.00522588746     IErMin=12 ErrMin= 2.13D-07
 ErrMax= 2.13D-07  0.00D+00 EMaxC= 1.00D-01 BMatC= 3.14D-11 BMatP= 2.26D-10
 IDIUse=1 WtCom= 1.00D+00 WtEn= 0.00D+00
 Coeff-Com: -0.116D-05 0.321D-05-0.444D-04-0.110D-03-0.231D-03-0.665D-03
 Coeff-Com: -0.296D-03 0.476D-02 0.140D-01 0.135D+00 0.348D+00 0.500D+00
 Coeff:     -0.116D-05 0.321D-05-0.444D-04-0.110D-03-0.231D-03-0.665D-03
 Coeff:     -0.296D-03 0.476D-02 0.140D-01 0.135D+00 0.348D+00 0.500D+00
 Gap=     0.196 Goal=   None    Shift=    0.000
 RMSDP=1.95D-08 MaxDP=8.57D-07 DE=-1.90D-10 OVMax= 1.17D-06

 Cycle  13  Pass 1  IDiag  1:
 E= -1619.00522588748     Delta-E=       -0.000000000027 Rises=F Damp=F
 DIIS: error= 9.37D-08 at cycle  13 NSaved=  13.
 NSaved=13 IEnMin=13 EnMin= -1619.00522588748     IErMin=13 ErrMin= 9.37D-08
 ErrMax= 9.37D-08  0.00D+00 EMaxC= 1.00D-01 BMatC= 2.05D-12 BMatP= 3.14D-11
 IDIUse=1 WtCom= 1.00D+00 WtEn= 0.00D+00
 Coeff-Com: -0.467D-06 0.185D-05-0.124D-04-0.294D-04-0.809D-04-0.308D-03
 Coeff-Com: -0.607D-03-0.848D-03 0.723D-03 0.326D-01 0.112D+00 0.256D+00
 Coeff-Com:  0.600D+00
 Coeff:     -0.467D-06 0.185D-05-0.124D-04-0.294D-04-0.809D-04-0.308D-03
 Coeff:     -0.607D-03-0.848D-03 0.723D-03 0.326D-01 0.112D+00 0.256D+00
 Coeff:      0.600D+00
 Gap=     0.196 Goal=   None    Shift=    0.000
 RMSDP=5.09D-09 MaxDP=2.81D-07 DE=-2.73D-11 OVMax= 1.97D-07

 Error on total polarization charges =  0.01875
 SCF Done:  E(RB3LYP) =  -1619.00522589     A.U. after   13 cycles
            NFock= 13  Conv=0.51D-08     -V/T= 2.0067
 KE= 1.608287145617D+03 PE=-7.550218399196D+03 EE= 2.463241851431D+03
 Leave Link  502 at Tue Sep 22 01:47:38 2020, MaxMem=  2147483648 cpu:             359.1 elap:              89.8
 (Enter /prod/apps/gaussian/g16b1/l601.exe)
 Copying SCF densities to generalized density rwf, IOpCl= 0 IROHF=0.

 **********************************************************************

            Population analysis using the SCF Density.

 **********************************************************************

 Alpha  occ. eigenvalues --  -89.08596 -89.07172 -19.14554 -19.14392 -19.10249
 Alpha  occ. eigenvalues --  -19.10058 -14.27868 -10.24577 -10.21215 -10.20955
 Alpha  occ. eigenvalues --  -10.19538 -10.19306 -10.18718 -10.18704 -10.18569
 Alpha  occ. eigenvalues --  -10.18438 -10.18404 -10.18380 -10.18036  -8.11684
 Alpha  occ. eigenvalues --   -8.09610  -6.08148  -6.08036  -6.07912  -6.06076
 Alpha  occ. eigenvalues --   -6.06040  -6.05952  -1.09444  -1.05788  -0.99217
 Alpha  occ. eigenvalues --   -0.94225  -0.88920  -0.85083  -0.82206  -0.78014
 Alpha  occ. eigenvalues --   -0.73986  -0.73867  -0.72202  -0.70582  -0.65836
 Alpha  occ. eigenvalues --   -0.61529  -0.59913  -0.57491  -0.57260  -0.53033
 Alpha  occ. eigenvalues --   -0.50626  -0.49529  -0.48845  -0.48272  -0.45683
 Alpha  occ. eigenvalues --   -0.45384  -0.45069  -0.44615  -0.44258  -0.43268
 Alpha  occ. eigenvalues --   -0.42858  -0.42621  -0.41435  -0.41070  -0.40039
 Alpha  occ. eigenvalues --   -0.39531  -0.38494  -0.37512  -0.36051  -0.34923
 Alpha  occ. eigenvalues --   -0.33824  -0.33059  -0.33048  -0.32653  -0.31616
 Alpha  occ. eigenvalues --   -0.31252  -0.29934  -0.29075  -0.28552  -0.27212
 Alpha  occ. eigenvalues --   -0.26694  -0.25054  -0.24501  -0.23511  -0.19698
 Alpha virt. eigenvalues --   -0.00077   0.00274   0.05226   0.05773   0.06438
 Alpha virt. eigenvalues --    0.06958   0.09843   0.10591   0.11653   0.11934
 Alpha virt. eigenvalues --    0.12562   0.13212   0.13594   0.14061   0.14637
 Alpha virt. eigenvalues --    0.14866   0.16003   0.16095   0.16864   0.17433
 Alpha virt. eigenvalues --    0.17633   0.18710   0.19131   0.19564   0.20366
 Alpha virt. eigenvalues --    0.21148   0.21948   0.22398   0.24591   0.26192
 Alpha virt. eigenvalues --    0.27508   0.30703   0.31153   0.31916   0.33209
 Alpha virt. eigenvalues --    0.34430   0.35227   0.36201   0.36592   0.39364
 Alpha virt. eigenvalues --    0.40587   0.43233   0.44436   0.45238   0.46061
 Alpha virt. eigenvalues --    0.47904   0.50181   0.51454   0.53272   0.54182
 Alpha virt. eigenvalues --    0.54740   0.55116   0.55744   0.56352   0.57045
 Alpha virt. eigenvalues --    0.58056   0.59180   0.59867   0.60289   0.61125
 Alpha virt. eigenvalues --    0.61270   0.61813   0.61981   0.62423   0.64429
 Alpha virt. eigenvalues --    0.64824   0.65751   0.67324   0.68156   0.70418
 Alpha virt. eigenvalues --    0.72831   0.74086   0.75191   0.75835   0.77509
 Alpha virt. eigenvalues --    0.78058   0.79764   0.80637   0.81292   0.82088
 Alpha virt. eigenvalues --    0.82737   0.83115   0.83893   0.84527   0.84961
 Alpha virt. eigenvalues --    0.86090   0.86881   0.87191   0.87948   0.88889
 Alpha virt. eigenvalues --    0.89430   0.89684   0.91035   0.91168   0.91769
 Alpha virt. eigenvalues --    0.92923   0.93582   0.94030   0.94650   0.95618
 Alpha virt. eigenvalues --    0.95862   0.96803   0.98247   1.00228   1.01242
 Alpha virt. eigenvalues --    1.01801   1.02277   1.04251   1.05694   1.06331
 Alpha virt. eigenvalues --    1.06661   1.08009   1.09811   1.10635   1.11738
 Alpha virt. eigenvalues --    1.12565   1.14540   1.15787   1.17340   1.17491
 Alpha virt. eigenvalues --    1.17709   1.19426   1.21155   1.22675   1.25327
 Alpha virt. eigenvalues --    1.26048   1.28342   1.28727   1.29906   1.31599
 Alpha virt. eigenvalues --    1.36685   1.37218   1.42939   1.43297   1.44420
 Alpha virt. eigenvalues --    1.45489   1.46787   1.48755   1.49604   1.51795
 Alpha virt. eigenvalues --    1.52043   1.53640   1.57991   1.62610   1.64789
 Alpha virt. eigenvalues --    1.68774   1.70754   1.72069   1.74007   1.76281
 Alpha virt. eigenvalues --    1.76899   1.78104   1.78581   1.79520   1.80061
 Alpha virt. eigenvalues --    1.80806   1.81038   1.82024   1.82127   1.83957
 Alpha virt. eigenvalues --    1.84097   1.85732   1.86163   1.87173   1.87743
 Alpha virt. eigenvalues --    1.88659   1.90178   1.90954   1.92479   1.93138
 Alpha virt. eigenvalues --    1.94454   1.97547   1.98451   2.01337   2.03218
 Alpha virt. eigenvalues --    2.04267   2.04437   2.05276   2.06599   2.08683
 Alpha virt. eigenvalues --    2.10145   2.12792   2.13830   2.14423   2.14833
 Alpha virt. eigenvalues --    2.15513   2.16701   2.18267   2.18747   2.20303
 Alpha virt. eigenvalues --    2.20712   2.21097   2.22123   2.27134   2.27763
 Alpha virt. eigenvalues --    2.28299   2.30259   2.31110   2.31695   2.32702
 Alpha virt. eigenvalues --    2.34064   2.38861   2.41535   2.42441   2.44919
 Alpha virt. eigenvalues --    2.50047   2.54006   2.58417   2.58930   2.60854
 Alpha virt. eigenvalues --    2.65486   2.69747   2.70834   2.72216   2.73551
 Alpha virt. eigenvalues --    2.74399   2.74810   2.76116   2.77463   2.79818
 Alpha virt. eigenvalues --    2.81281   2.82341   2.89567   2.92534   3.05817
 Alpha virt. eigenvalues --    3.40825   3.80005   3.83532   3.87967   3.95654
 Alpha virt. eigenvalues --    3.99754   4.03598   4.09654   4.10856   4.13330
 Alpha virt. eigenvalues --    4.16224   4.21346   4.25625   4.27009   4.33528
 Alpha virt. eigenvalues --    4.34222   4.44611   4.54426   4.70084   4.76423
          Condensed to atoms (all electrons):
               1          2          3          4          5          6
     1  C    5.628263   0.163945  -0.069726   0.005399  -0.000309   0.000013
     2  S    0.163945  13.754379   0.294467  -0.025785  -0.014401   0.000838
     3  N   -0.069726   0.294467   7.460146   0.335759  -0.047960   0.003086
     4  C    0.005399  -0.025785   0.335759   4.781598   0.309649  -0.088326
     5  C   -0.000309  -0.014401  -0.047960   0.309649   5.796729   0.134859
     6  S    0.000013   0.000838   0.003086  -0.088326   0.134859  13.907696
     7  C   -0.000173  -0.000939  -0.063387   0.335709  -0.180638   0.131382
     8  O   -0.000000  -0.000068  -0.000169   0.002626  -0.046070   0.423790
     9  O   -0.000000  -0.000006  -0.000033   0.001399  -0.045379   0.400694
    10  C   -0.000256  -0.008851  -0.073770   0.345172  -0.064157   0.012011
    11  C    0.000029  -0.001064   0.001324  -0.030656   0.004634  -0.000177
    12  C   -0.000209   0.002162   0.001598  -0.003964   0.000041  -0.000013
    13  C   -0.000892   0.001062   0.002648   0.000574   0.000000   0.000001
    14  C   -0.001077  -0.000226  -0.000297  -0.000007  -0.000000   0.000000
    15  C   -0.000310   0.000026   0.000034   0.000002   0.000000  -0.000000
    16  C    0.000012   0.000016  -0.000009  -0.000002  -0.000000  -0.000000
    17  C    0.000038   0.001307  -0.000630  -0.000385  -0.000009   0.000001
    18  O   -0.063151   0.387576  -0.062544  -0.007184  -0.002360   0.000055
    19  O   -0.059732   0.391914  -0.063035   0.000333  -0.001016   0.000030
    20  H    0.338374  -0.000208   0.000781  -0.000074   0.000001  -0.000001
    21  H    0.347729  -0.012110   0.003218  -0.000100   0.000010  -0.000000
    22  H    0.332506  -0.002204  -0.000412  -0.000045   0.000003  -0.000000
    23  H    0.000002  -0.000082   0.001821  -0.022982   0.339337  -0.011509
    24  H    0.000017   0.001480  -0.005730  -0.022936   0.320608   0.000745
    25  H    0.000002  -0.000006   0.001753  -0.022500   0.009315  -0.010574
    26  H   -0.000048   0.000961   0.006187  -0.022225   0.004043   0.000711
    27  H    0.000039   0.002304  -0.005445  -0.027392  -0.006906  -0.000262
    28  H    0.000001   0.000604   0.004811  -0.030078  -0.004178   0.007095
    29  H   -0.000000   0.000044   0.000090   0.004259  -0.000119  -0.000021
    30  H   -0.000000  -0.000010   0.000051  -0.007418   0.000184   0.000053
    31  H   -0.000006   0.000110   0.001225  -0.000043   0.000005   0.000003
    32  H   -0.000010  -0.000002  -0.000005   0.000001  -0.000000  -0.000000
    33  H   -0.000002  -0.000000   0.000000  -0.000000   0.000000  -0.000000
    34  H   -0.000000  -0.000001  -0.000000   0.000000   0.000000   0.000000
    35  H   -0.000001   0.000046   0.000011   0.000067   0.000002  -0.000000
               7          8          9         10         11         12
     1  C   -0.000173  -0.000000  -0.000000  -0.000256   0.000029  -0.000209
     2  S   -0.000939  -0.000068  -0.000006  -0.008851  -0.001064   0.002162
     3  N   -0.063387  -0.000169  -0.000033  -0.073770   0.001324   0.001598
     4  C    0.335709   0.002626   0.001399   0.345172  -0.030656  -0.003964
     5  C   -0.180638  -0.046070  -0.045379  -0.064157   0.004634   0.000041
     6  S    0.131382   0.423790   0.400694   0.012011  -0.000177  -0.000013
     7  C    5.760490  -0.046098  -0.045897  -0.069534  -0.008122  -0.000234
     8  O   -0.046098   8.285133  -0.045854  -0.000099   0.000000   0.000000
     9  O   -0.045897  -0.045854   8.321922  -0.002686  -0.000003  -0.000001
    10  C   -0.069534  -0.000099  -0.002686   5.205489   0.334465  -0.030355
    11  C   -0.008122   0.000000  -0.000003   0.334465   5.171115   0.357907
    12  C   -0.000234   0.000000  -0.000001  -0.030355   0.357907   4.632279
    13  C    0.000037  -0.000000   0.000000   0.000000  -0.051606   0.545700
    14  C    0.000001  -0.000000   0.000000  -0.000138   0.007117  -0.022179
    15  C    0.000000   0.000000  -0.000000   0.000009   0.000269  -0.034159
    16  C    0.000000   0.000000   0.000000   0.000090   0.006250  -0.019345
    17  C   -0.000008  -0.000000   0.000000  -0.005298  -0.063756   0.536892
    18  O   -0.000182   0.000001  -0.000000  -0.000161   0.000002  -0.000002
    19  O   -0.000046  -0.000000  -0.000000  -0.001497  -0.000318  -0.000527
    20  H   -0.000015   0.000000  -0.000000   0.000008  -0.000000  -0.000003
    21  H    0.000001   0.000000   0.000000   0.000003   0.000000   0.000002
    22  H    0.000007  -0.000000   0.000000  -0.000010  -0.000007  -0.000038
    23  H    0.010074   0.000748  -0.000523  -0.004467   0.000112  -0.000004
    24  H    0.001912   0.000065   0.001023   0.003898  -0.000088   0.000001
    25  H    0.338025   0.000709   0.000037  -0.006112   0.001205   0.000186
    26  H    0.318357  -0.000400   0.001103   0.005185  -0.000031  -0.000007
    27  H    0.005210   0.000001   0.000064   0.359662  -0.037918  -0.006397
    28  H   -0.004643   0.000025   0.005854   0.340213  -0.031952   0.003793
    29  H    0.000155  -0.000000  -0.000003  -0.033792   0.360678  -0.031984
    30  H    0.003097   0.000001   0.000000  -0.039309   0.360437  -0.033897
    31  H    0.000058   0.000000   0.000000   0.000106  -0.010707  -0.041640
    32  H   -0.000000  -0.000000   0.000000   0.000001  -0.000166   0.003652
    33  H   -0.000000   0.000000  -0.000000   0.000000   0.000006   0.000623
    34  H    0.000000  -0.000000  -0.000000  -0.000000  -0.000168   0.003541
    35  H    0.000000   0.000000  -0.000000   0.001176  -0.008917  -0.045069
              13         14         15         16         17         18
     1  C   -0.000892  -0.001077  -0.000310   0.000012   0.000038  -0.063151
     2  S    0.001062  -0.000226   0.000026   0.000016   0.001307   0.387576
     3  N    0.002648  -0.000297   0.000034  -0.000009  -0.000630  -0.062544
     4  C    0.000574  -0.000007   0.000002  -0.000002  -0.000385  -0.007184
     5  C    0.000000  -0.000000   0.000000  -0.000000  -0.000009  -0.002360
     6  S    0.000001   0.000000  -0.000000  -0.000000   0.000001   0.000055
     7  C    0.000037   0.000001   0.000000   0.000000  -0.000008  -0.000182
     8  O   -0.000000  -0.000000   0.000000   0.000000  -0.000000   0.000001
     9  O    0.000000   0.000000  -0.000000   0.000000   0.000000  -0.000000
    10  C    0.000000  -0.000138   0.000009   0.000090  -0.005298  -0.000161
    11  C   -0.051606   0.007117   0.000269   0.006250  -0.063756   0.000002
    12  C    0.545700  -0.022179  -0.034159  -0.019345   0.536892  -0.000002
    13  C    4.998102   0.509514  -0.038212  -0.046730  -0.041233   0.000000
    14  C    0.509514   4.909887   0.543344  -0.029651  -0.047405  -0.000000
    15  C   -0.038212   0.543344   4.891593   0.543033  -0.037816   0.000000
    16  C   -0.046730  -0.029651   0.543033   4.899734   0.518637  -0.000000
    17  C   -0.041233  -0.047405  -0.037816   0.518637   5.005651   0.000000
    18  O    0.000000  -0.000000   0.000000  -0.000000   0.000000   8.449079
    19  O   -0.000190   0.000022  -0.000010  -0.000224   0.002047  -0.063176
    20  H   -0.000002   0.000012   0.000001   0.000001   0.000000  -0.000948
    21  H    0.000019   0.000003   0.000004  -0.000004  -0.000004   0.000516
    22  H    0.002397   0.004786   0.001295  -0.000038  -0.000251   0.001964
    23  H   -0.000000   0.000000  -0.000000  -0.000000  -0.000000  -0.000263
    24  H    0.000000   0.000000  -0.000000   0.000000   0.000000   0.019382
    25  H   -0.000037  -0.000000   0.000000  -0.000000   0.000003  -0.000000
    26  H    0.000001   0.000000  -0.000000  -0.000000   0.000000  -0.000037
    27  H    0.000175  -0.000002  -0.000002  -0.000165   0.003391  -0.000111
    28  H   -0.000095   0.000002  -0.000000   0.000003   0.000158   0.000002
    29  H    0.002499  -0.000253   0.000031   0.000017  -0.005815   0.000000
    30  H   -0.004648   0.000198   0.000003  -0.000186   0.004585   0.000000
    31  H    0.357253  -0.046923   0.004777   0.000257   0.006406   0.000000
    32  H   -0.038440   0.360054  -0.042641   0.004506   0.000726  -0.000000
    33  H    0.004534  -0.042400   0.362559  -0.042111   0.004575   0.000000
    34  H    0.000745   0.004528  -0.042578   0.360640  -0.039188  -0.000000
    35  H    0.006163   0.000278   0.004752  -0.045018   0.358495   0.000000
              19         20         21         22         23         24
     1  C   -0.059732   0.338374   0.347729   0.332506   0.000002   0.000017
     2  S    0.391914  -0.000208  -0.012110  -0.002204  -0.000082   0.001480
     3  N   -0.063035   0.000781   0.003218  -0.000412   0.001821  -0.005730
     4  C    0.000333  -0.000074  -0.000100  -0.000045  -0.022982  -0.022936
     5  C   -0.001016   0.000001   0.000010   0.000003   0.339337   0.320608
     6  S    0.000030  -0.000001  -0.000000  -0.000000  -0.011509   0.000745
     7  C   -0.000046  -0.000015   0.000001   0.000007   0.010074   0.001912
     8  O   -0.000000   0.000000   0.000000  -0.000000   0.000748   0.000065
     9  O   -0.000000  -0.000000   0.000000   0.000000  -0.000523   0.001023
    10  C   -0.001497   0.000008   0.000003  -0.000010  -0.004467   0.003898
    11  C   -0.000318  -0.000000   0.000000  -0.000007   0.000112  -0.000088
    12  C   -0.000527  -0.000003   0.000002  -0.000038  -0.000004   0.000001
    13  C   -0.000190  -0.000002   0.000019   0.002397  -0.000000   0.000000
    14  C    0.000022   0.000012   0.000003   0.004786   0.000000   0.000000
    15  C   -0.000010   0.000001   0.000004   0.001295  -0.000000  -0.000000
    16  C   -0.000224   0.000001  -0.000004  -0.000038  -0.000000   0.000000
    17  C    0.002047   0.000000  -0.000004  -0.000251  -0.000000   0.000000
    18  O   -0.063176  -0.000948   0.000516   0.001964  -0.000263   0.019382
    19  O    8.438106   0.001976  -0.000396  -0.000552  -0.000047  -0.000215
    20  H    0.001976   0.509109  -0.021911  -0.024091  -0.000000   0.000011
    21  H   -0.000396  -0.021911   0.509179  -0.020818  -0.000000   0.000004
    22  H   -0.000552  -0.024091  -0.020818   0.509140   0.000000  -0.000007
    23  H   -0.000047  -0.000000  -0.000000   0.000000   0.488904  -0.018787
    24  H   -0.000215   0.000011   0.000004  -0.000007  -0.018787   0.473399
    25  H    0.000001   0.000000  -0.000000  -0.000000  -0.000296  -0.000221
    26  H    0.000006   0.000010   0.000001  -0.000001  -0.000278   0.000106
    27  H    0.011263  -0.000004   0.000001   0.000011   0.003360  -0.000141
    28  H    0.000056  -0.000000  -0.000000   0.000000  -0.000297   0.000147
    29  H   -0.000004  -0.000000   0.000000   0.000000  -0.000017   0.000002
    30  H   -0.000008   0.000000   0.000000  -0.000000   0.000014  -0.000002
    31  H   -0.000000   0.000001   0.000001  -0.000000  -0.000000  -0.000000
    32  H    0.000000   0.000000  -0.000000   0.000077   0.000000  -0.000000
    33  H   -0.000000  -0.000000   0.000000   0.000006   0.000000   0.000000
    34  H   -0.000004   0.000000   0.000000  -0.000001   0.000000  -0.000000
    35  H   -0.000062   0.000000   0.000000  -0.000001   0.000000  -0.000000
              25         26         27         28         29         30
     1  C    0.000002  -0.000048   0.000039   0.000001  -0.000000  -0.000000
     2  S   -0.000006   0.000961   0.002304   0.000604   0.000044  -0.000010
     3  N    0.001753   0.006187  -0.005445   0.004811   0.000090   0.000051
     4  C   -0.022500  -0.022225  -0.027392  -0.030078   0.004259  -0.007418
     5  C    0.009315   0.004043  -0.006906  -0.004178  -0.000119   0.000184
     6  S   -0.010574   0.000711  -0.000262   0.007095  -0.000021   0.000053
     7  C    0.338025   0.318357   0.005210  -0.004643   0.000155   0.003097
     8  O    0.000709  -0.000400   0.000001   0.000025  -0.000000   0.000001
     9  O    0.000037   0.001103   0.000064   0.005854  -0.000003   0.000000
    10  C   -0.006112   0.005185   0.359662   0.340213  -0.033792  -0.039309
    11  C    0.001205  -0.000031  -0.037918  -0.031952   0.360678   0.360437
    12  C    0.000186  -0.000007  -0.006397   0.003793  -0.031984  -0.033897
    13  C   -0.000037   0.000001   0.000175  -0.000095   0.002499  -0.004648
    14  C   -0.000000   0.000000  -0.000002   0.000002  -0.000253   0.000198
    15  C    0.000000  -0.000000  -0.000002  -0.000000   0.000031   0.000003
    16  C   -0.000000  -0.000000  -0.000165   0.000003   0.000017  -0.000186
    17  C    0.000003   0.000000   0.003391   0.000158  -0.005815   0.004585
    18  O   -0.000000  -0.000037  -0.000111   0.000002   0.000000   0.000000
    19  O    0.000001   0.000006   0.011263   0.000056  -0.000004  -0.000008
    20  H    0.000000   0.000010  -0.000004  -0.000000  -0.000000   0.000000
    21  H   -0.000000   0.000001   0.000001  -0.000000   0.000000   0.000000
    22  H   -0.000000  -0.000001   0.000011   0.000000   0.000000  -0.000000
    23  H   -0.000296  -0.000278   0.003360  -0.000297  -0.000017   0.000014
    24  H   -0.000221   0.000106  -0.000141   0.000147   0.000002  -0.000002
    25  H    0.483817  -0.017738   0.000185  -0.000279  -0.000246   0.005557
    26  H   -0.017738   0.494150  -0.000122  -0.000034   0.000005  -0.000328
    27  H    0.000185  -0.000122   0.561462  -0.030674  -0.000126   0.004576
    28  H   -0.000279  -0.000034  -0.030674   0.605420  -0.007281  -0.000059
    29  H   -0.000246   0.000005  -0.000126  -0.007281   0.585363  -0.033942
    30  H    0.005557  -0.000328   0.004576  -0.000059  -0.033942   0.582916
    31  H    0.000037   0.000018   0.000015  -0.000012   0.000104   0.006888
    32  H   -0.000000   0.000000   0.000000  -0.000000   0.000003  -0.000009
    33  H    0.000000  -0.000000  -0.000000   0.000000  -0.000000  -0.000000
    34  H    0.000000   0.000000   0.000005  -0.000000  -0.000003   0.000003
    35  H    0.000000  -0.000000   0.002177  -0.000159   0.002936   0.000053
              31         32         33         34         35
     1  C   -0.000006  -0.000010  -0.000002  -0.000000  -0.000001
     2  S    0.000110  -0.000002  -0.000000  -0.000001   0.000046
     3  N    0.001225  -0.000005   0.000000  -0.000000   0.000011
     4  C   -0.000043   0.000001  -0.000000   0.000000   0.000067
     5  C    0.000005  -0.000000   0.000000   0.000000   0.000002
     6  S    0.000003  -0.000000  -0.000000   0.000000  -0.000000
     7  C    0.000058  -0.000000  -0.000000   0.000000   0.000000
     8  O    0.000000  -0.000000   0.000000  -0.000000   0.000000
     9  O    0.000000   0.000000  -0.000000  -0.000000  -0.000000
    10  C    0.000106   0.000001   0.000000  -0.000000   0.001176
    11  C   -0.010707  -0.000166   0.000006  -0.000168  -0.008917
    12  C   -0.041640   0.003652   0.000623   0.003541  -0.045069
    13  C    0.357253  -0.038440   0.004534   0.000745   0.006163
    14  C   -0.046923   0.360054  -0.042400   0.004528   0.000278
    15  C    0.004777  -0.042641   0.362559  -0.042578   0.004752
    16  C    0.000257   0.004506  -0.042111   0.360640  -0.045018
    17  C    0.006406   0.000726   0.004575  -0.039188   0.358495
    18  O    0.000000  -0.000000   0.000000  -0.000000   0.000000
    19  O   -0.000000   0.000000  -0.000000  -0.000004  -0.000062
    20  H    0.000001   0.000000  -0.000000   0.000000   0.000000
    21  H    0.000001  -0.000000   0.000000   0.000000   0.000000
    22  H   -0.000000   0.000077   0.000006  -0.000001  -0.000001
    23  H   -0.000000   0.000000   0.000000   0.000000   0.000000
    24  H   -0.000000  -0.000000   0.000000  -0.000000  -0.000000
    25  H    0.000037  -0.000000   0.000000   0.000000   0.000000
    26  H    0.000018   0.000000  -0.000000   0.000000  -0.000000
    27  H    0.000015   0.000000  -0.000000   0.000005   0.002177
    28  H   -0.000012  -0.000000   0.000000  -0.000000  -0.000159
    29  H    0.000104   0.000003  -0.000000  -0.000003   0.002936
    30  H    0.006888  -0.000009  -0.000000   0.000003   0.000053
    31  H    0.587572  -0.005357  -0.000166   0.000016  -0.000167
    32  H   -0.005357   0.577033  -0.005223  -0.000176   0.000017
    33  H   -0.000166  -0.005223   0.577877  -0.005195  -0.000168
    34  H    0.000016  -0.000176  -0.005195   0.577367  -0.005336
    35  H   -0.000167   0.000017  -0.000168  -0.005336   0.587107
 Mulliken charges:
               1
     1  C   -0.620469
     2  S    1.062720
     3  N   -0.725858
     4  C    0.189556
     5  C   -0.505921
     6  S    1.087820
     7  C   -0.484602
     8  O   -0.574340
     9  O   -0.591712
    10  C   -0.267001
    11  C   -0.359897
    12  C    0.181648
    13  C   -0.209340
    14  C   -0.149186
    15  C   -0.156003
    16  C   -0.149712
    17  C   -0.201115
    18  O   -0.658459
    19  O   -0.654696
    20  H    0.196973
    21  H    0.194652
[...]
 Framework group  C1[X(C12H16NO4S2)]
 Deg. of freedom    99
 Full point group                 C1      NOp   1
 RotChk:  IX=0 Diff= 3.66D-16
 Largest Abelian subgroup         C1      NOp   1
 Largest concise Abelian subgroup C1      NOp   1
                         Standard orientation:                         
 ---------------------------------------------------------------------
 Center     Atomic      Atomic             Coordinates (Angstroms)
 Number     Number       Type             X           Y           Z
 ---------------------------------------------------------------------
      1          6           0        1.511961    2.700902    0.964361
      2         16           0        0.291430    2.020548   -0.173104
      3          7           0       -0.216961    0.764229    0.658588
      4          6           0       -1.085872   -0.204094    0.009285
      5          6           0       -2.319921    0.391162   -0.802826
      6         16           0       -3.465486   -0.647800    0.143154
      7          6           0       -1.954504   -0.915686    1.117889
      8          8           0       -4.528387    0.097302    0.856097
      9          8           0       -3.864541   -1.865727   -0.604107
     10          6           0       -0.366328   -1.253552   -0.879503
     11          6           0        0.689357   -2.147509   -0.184875
     12          6           0        2.082097   -1.569422   -0.017650
     13          6           0        2.605908   -1.286831    1.251678
     14          6           0        3.902942   -0.788169    1.403805
     15          6           0        4.704405   -0.563722    0.281411
     16          6           0        4.197447   -0.845539   -0.990620
     17          6           0        2.901574   -1.344982   -1.135096
     18          8           0       -0.738193    3.102421   -0.368120
     19          8           0        1.014706    1.719578   -1.457002
     20          1           0        1.029338    2.933705    1.914938
     21          1           0        1.905579    3.612894    0.509907
     22          1           0        2.313007    1.974737    1.112613
     23          1           0       -2.344679    0.199952   -1.877418
     24          1           0       -2.499712    1.444478   -0.588437
     25          1           0       -1.757412   -1.968733    1.323890
     26          1           0       -1.999931   -0.337788    2.042049
     27          1           0        0.090118   -0.721992   -1.720665
     28          1           0       -1.133312   -1.914724   -1.303422
     29          1           0        0.774865   -3.061606   -0.786975
     30          1           0        0.316054   -2.471057    0.794231
     31          1           0        1.989995   -1.458189    2.131375
     32          1           0        4.287056   -0.579639    2.399087
     33          1           0        5.713958   -0.178587    0.396450
     34          1           0        4.813604   -0.681596   -1.870968
     35          1           0        2.522023   -1.569360   -2.129663
 ---------------------------------------------------------------------
 Rotational constants (GHZ):           0.5338544           0.2138168           0.1754675
 Leave Link  202 at Tue Sep 22 02:14:34 2020, MaxMem=   262144000 cpu:               0.1 elap:               0.0
 (Enter /prod/apps/gaussian/g16b1/l301.exe)
 Standard basis: Aug-CC-pVDZ (5D, 7F)
 Ernie: Thresh=  0.10000D-02 Tol=  0.10000D-05 Strict=F.
 Ernie:  54 primitive shells out of 643 were deleted.
 There are   627 symmetry adapted cartesian basis functions of A   symmetry.
 There are   589 symmetry adapted basis functions of A   symmetry.
   589 basis functions,  1069 primitive gaussians,   627 cartesian basis functions
    80 alpha electrons       80 beta electrons
       nuclear repulsion energy      1859.7218697523 Hartrees.
 IExCor=    0 DFT=F Ex=HF Corr=None ExCW=0 ScaHFX=  1.000000
 ScaDFX=  1.000000  1.000000  1.000000  1.000000 ScalE2=  1.000000  1.000000
 IRadAn=      5 IRanWt=     -1 IRanGd=            0 ICorTp=0 IEmpDi=  4
 NAtoms=   35 NActive=   35 NUniq=   35 SFac= 1.00D+00 NAtFMM=   60 NAOKFM=F Big=F
 Integral buffers will be    131072 words long.
 Raffenetti 1 integral format.
 Two-electron integral symmetry is turned on.
 Leave Link  301 at Tue Sep 22 02:14:34 2020, MaxMem=   262144000 cpu:               0.2 elap:               0.1
 (Enter /prod/apps/gaussian/g16b1/l302.exe)
 NPDir=0 NMtPBC=     1 NCelOv=     1 NCel=       1 NClECP=     1 NCelD=      1
         NCelK=      1 NCelE2=     1 NClLst=     1 CellRange=     0.0.
 One-electron integrals computed using PRISM.
 One-electron integral symmetry used in STVInt
 NBasis=   589 RedAO= T EigKep=  1.83D-06  NBF=   589
 NBsUse=   589 1.00D-06 EigRej= -1.00D+00 NBFU=   589
 Leave Link  302 at Tue Sep 22 02:14:35 2020, MaxMem=   262144000 cpu:               1.8 elap:               0.5
 (Enter /prod/apps/gaussian/g16b1/l303.exe)
 DipDrv:  MaxL=1.
 Leave Link  303 at Tue Sep 22 02:14:35 2020, MaxMem=   262144000 cpu:               0.4 elap:               0.1
 (Enter /prod/apps/gaussian/g16b1/l401.exe)
 ExpMin= 2.97D-02 ExpMax= 1.11D+05 ExpMxC= 1.07D+03 IAcc=3 IRadAn=         5 AccDes= 0.00D+00
 Harris functional with IExCor=  205 and IRadAn=       5 diagonalized for initial guess.
 HarFok:  IExCor=  205 AccDes= 0.00D+00 IRadAn=         5 IDoV= 1 UseB2=F ITyADJ=14
 ICtDFT=  3500011 ScaDFX=  1.000000  1.000000  1.000000  1.000000
 FoFCou: FMM=F IPFlag=           0 FMFlag=      100000 FMFlg1=           0
         NFxFlg=           0 DoJE=T BraDBF=F KetDBF=T FulRan=T
         wScrn=  0.000000 ICntrl=       500 IOpCl=  0 I1Cent=   200000004 NGrid=           0
         NMat0=    1 NMatS0=      1 NMatT0=    0 NMatD0=    1 NMtDS0=    0 NMtDT0=    0
 Petite list used in FoFCou.
 Harris En= -1613.18484566253    
 JPrj=0 DoOrth=F DoCkMO=F.
 Leave Link  401 at Tue Sep 22 02:14:39 2020, MaxMem=   262144000 cpu:              15.9 elap:               4.0
 (Enter /prod/apps/gaussian/g16b1/l502.exe)
 Integral symmetry usage will be decided dynamically.
 Closed shell SCF:
 Using DIIS extrapolation, IDIIS=  1040.
 NGot=   262144000 LenX=   261348123 LenY=   260954367
 Requested convergence on RMS density matrix=1.00D-08 within2000 cycles.
 Requested convergence on MAX density matrix=1.00D-06.
 Requested convergence on             energy=1.00D-06.
 No special actions if energy rises.

 Cycle   1  Pass 1  IDiag  1:
 FoFJK:  IHMeth= 1 ICntrl=       0 DoSepK=F KAlg= 0 I1Cent=           0 FoldK=F
 IRaf= 940000000 NMat=       1 IRICut=       1 DoRegI=T DoRafI=F ISym2E= 0 IDoP0=0 IntGTp=1.
 FoFCou: FMM=F IPFlag=           0 FMFlag=      100000 FMFlg1=           0
         NFxFlg=           0 DoJE=F BraDBF=F KetDBF=F FulRan=T
         wScrn=  0.000000 ICntrl=         0 IOpCl=  0 I1Cent=           0 NGrid=           0
         NMat0=    1 NMatS0=      1 NMatT0=    0 NMatD0=    1 NMtDS0=    0 NMtDT0=    0
 Symmetry not used in FoFCou.
 E= -1611.68993950025    
 DIIS: error= 1.56D-02 at cycle   1 NSaved=   1.
 NSaved= 1 IEnMin= 1 EnMin= -1611.68993950025     IErMin= 1 ErrMin= 1.56D-02
 ErrMax= 1.56D-02  0.00D+00 EMaxC= 1.00D-01 BMatC= 1.35D+00 BMatP= 1.35D+00
 IDIUse=3 WtCom= 8.44D-01 WtEn= 1.56D-01
 Coeff-Com:  0.100D+01
 Coeff-En:   0.100D+01
 Coeff:      0.100D+01
 Gap=     0.447 Goal=   None    Shift=    0.000
 GapD=    0.447 DampG=2.000 DampE=0.500 DampFc=1.0000 IDamp=-1.
 RMSDP=4.53D-02 MaxDP=3.82D+00              OVMax= 1.54D-01

 Cycle   2  Pass 1  IDiag  1:
 E= -1612.39582375636     Delta-E=       -0.705884256108 Rises=F Damp=F
 DIIS: error= 1.10D-02 at cycle   2 NSaved=   2.
 NSaved= 2 IEnMin= 2 EnMin= -1612.39582375636     IErMin= 2 ErrMin= 1.10D-02
 ErrMax= 1.10D-02  0.00D+00 EMaxC= 1.00D-01 BMatC= 3.08D-01 BMatP= 1.35D+00
 IDIUse=3 WtCom= 8.90D-01 WtEn= 1.10D-01
 Coeff-Com:  0.292D+00 0.708D+00
 Coeff-En:   0.000D+00 0.100D+01
 Coeff:      0.260D+00 0.740D+00
 Gap=     0.314 Goal=   None    Shift=    0.000
 RMSDP=5.62D-03 MaxDP=1.14D+00 DE=-7.06D-01 OVMax= 5.98D-02

 Cycle   3  Pass 1  IDiag  1:
 E= -1612.62912267412     Delta-E=       -0.233298917768 Rises=F Damp=F
 DIIS: error= 2.97D-03 at cycle   3 NSaved=   3.
 NSaved= 3 IEnMin= 3 EnMin= -1612.62912267412     IErMin= 3 ErrMin= 2.97D-03
 ErrMax= 2.97D-03  0.00D+00 EMaxC= 1.00D-01 BMatC= 2.18D-02 BMatP= 3.08D-01
 IDIUse=3 WtCom= 9.70D-01 WtEn= 2.97D-02
 Coeff-Com: -0.787D-02 0.183D+00 0.825D+00
 Coeff-En:   0.000D+00 0.000D+00 0.100D+01
 Coeff:     -0.763D-02 0.178D+00 0.830D+00
 Gap=     0.303 Goal=   None    Shift=    0.000
 RMSDP=1.47D-03 MaxDP=3.29D-01 DE=-2.33D-01 OVMax= 1.59D-02

 Cycle   4  Pass 1  IDiag  1:
 E= -1612.64538124194     Delta-E=       -0.016258567811 Rises=F Damp=F
 DIIS: error= 5.65D-04 at cycle   4 NSaved=   4.
 NSaved= 4 IEnMin= 4 EnMin= -1612.64538124194     IErMin= 4 ErrMin= 5.65D-04
 ErrMax= 5.65D-04  0.00D+00 EMaxC= 1.00D-01 BMatC= 1.04D-03 BMatP= 2.18D-02
 IDIUse=3 WtCom= 9.94D-01 WtEn= 5.65D-03
 Coeff-Com: -0.140D-01 0.168D-01 0.223D+00 0.774D+00
 Coeff-En:   0.000D+00 0.000D+00 0.000D+00 0.100D+01
 Coeff:     -0.140D-01 0.167D-01 0.221D+00 0.776D+00
 Gap=     0.299 Goal=   None    Shift=    0.000
 RMSDP=3.82D-04 MaxDP=3.31D-02 DE=-1.63D-02 OVMax= 7.99D-03

 Cycle   5  Pass 1  IDiag  1:
 E= -1612.64652134990     Delta-E=       -0.001140107963 Rises=F Damp=F
 DIIS: error= 2.91D-04 at cycle   5 NSaved=   5.
 NSaved= 5 IEnMin= 5 EnMin= -1612.64652134990     IErMin= 5 ErrMin= 2.91D-04
 ErrMax= 2.91D-04  0.00D+00 EMaxC= 1.00D-01 BMatC= 7.34D-05 BMatP= 1.04D-03
 IDIUse=3 WtCom= 9.97D-01 WtEn= 2.91D-03
 Coeff-Com: -0.109D-03-0.115D-01-0.550D-01 0.638D-01 0.100D+01
 Coeff-En:   0.000D+00 0.000D+00 0.000D+00 0.000D+00 0.100D+01
 Coeff:     -0.109D-03-0.114D-01-0.549D-01 0.636D-01 0.100D+01
 Gap=     0.301 Goal=   None    Shift=    0.000
 RMSDP=1.27D-04 MaxDP=1.43D-02 DE=-1.14D-03 OVMax= 2.46D-03

 Cycle   6  Pass 1  IDiag  1:
 E= -1612.64663774344     Delta-E=       -0.000116393545 Rises=F Damp=F
 DIIS: error= 5.18D-05 at cycle   6 NSaved=   6.
 NSaved= 6 IEnMin= 6 EnMin= -1612.64663774344     IErMin= 6 ErrMin= 5.18D-05
 ErrMax= 5.18D-05  0.00D+00 EMaxC= 1.00D-01 BMatC= 1.06D-05 BMatP= 7.34D-05
 IDIUse=1 WtCom= 1.00D+00 WtEn= 0.00D+00
 Coeff-Com:  0.154D-02-0.546D-02-0.427D-01-0.652D-01 0.262D+00 0.850D+00
 Coeff:      0.154D-02-0.546D-02-0.427D-01-0.652D-01 0.262D+00 0.850D+00
 Gap=     0.300 Goal=   None    Shift=    0.000
 RMSDP=3.52D-05 MaxDP=2.11D-03 DE=-1.16D-04 OVMax= 1.03D-03

 Cycle   7  Pass 1  IDiag  1:
 E= -1612.64665450981     Delta-E=       -0.000016766371 Rises=F Damp=F
 DIIS: error= 1.75D-05 at cycle   7 NSaved=   7.
 NSaved= 7 IEnMin= 7 EnMin= -1612.64665450981     IErMin= 7 ErrMin= 1.75D-05
 ErrMax= 1.75D-05  0.00D+00 EMaxC= 1.00D-01 BMatC= 8.16D-07 BMatP= 1.06D-05
 IDIUse=1 WtCom= 1.00D+00 WtEn= 0.00D+00
 Coeff-Com:  0.239D-03 0.324D-03-0.559D-03-0.135D-01-0.645D-01 0.100D+00
 Coeff-Com:  0.978D+00
 Coeff:      0.239D-03 0.324D-03-0.559D-03-0.135D-01-0.645D-01 0.100D+00
 Coeff:      0.978D+00
 Gap=     0.301 Goal=   None    Shift=    0.000
 RMSDP=1.22D-05 MaxDP=1.13D-03 DE=-1.68D-05 OVMax= 3.67D-04

 Cycle   8  Pass 1  IDiag  1:
 E= -1612.64665634994     Delta-E=       -0.000001840128 Rises=F Damp=F
 DIIS: error= 6.95D-06 at cycle   8 NSaved=   8.
 NSaved= 8 IEnMin= 8 EnMin= -1612.64665634994     IErMin= 8 ErrMin= 6.95D-06
 ErrMax= 6.95D-06  0.00D+00 EMaxC= 1.00D-01 BMatC= 1.07D-07 BMatP= 8.16D-07
 IDIUse=1 WtCom= 1.00D+00 WtEn= 0.00D+00
 Coeff-Com: -0.170D-03 0.711D-03 0.536D-02 0.742D-02-0.357D-01-0.105D+00
 Coeff-Com:  0.315D-01 0.110D+01
 Coeff:     -0.170D-03 0.711D-03 0.536D-02 0.742D-02-0.357D-01-0.105D+00
 Coeff:      0.315D-01 0.110D+01
 Gap=     0.301 Goal=   None    Shift=    0.000
 RMSDP=5.61D-06 MaxDP=4.45D-04 DE=-1.84D-06 OVMax= 1.42D-04

 Cycle   9  Pass 1  IDiag  1:
 E= -1612.64665662744     Delta-E=       -0.000000277494 Rises=F Damp=F
 DIIS: error= 2.97D-06 at cycle   9 NSaved=   9.
 NSaved= 9 IEnMin= 9 EnMin= -1612.64665662744     IErMin= 9 ErrMin= 2.97D-06
 ErrMax= 2.97D-06  0.00D+00 EMaxC= 1.00D-01 BMatC= 1.36D-08 BMatP= 1.07D-07
 IDIUse=1 WtCom= 1.00D+00 WtEn= 0.00D+00
 Coeff-Com: -0.594D-04 0.106D-03 0.108D-02 0.294D-02 0.147D-02-0.298D-01
 Coeff-Com: -0.115D+00 0.201D+00 0.939D+00
 Coeff:     -0.594D-04 0.106D-03 0.108D-02 0.294D-02 0.147D-02-0.298D-01
 Coeff:     -0.115D+00 0.201D+00 0.939D+00
 Gap=     0.301 Goal=   None    Shift=    0.000
 RMSDP=1.91D-06 MaxDP=1.44D-04 DE=-2.77D-07 OVMax= 4.28D-05

 Cycle  10  Pass 1  IDiag  1:
 E= -1612.64665665551     Delta-E=       -0.000000028069 Rises=F Damp=F
 DIIS: error= 6.39D-07 at cycle  10 NSaved=  10.
 NSaved=10 IEnMin=10 EnMin= -1612.64665665551     IErMin=10 ErrMin= 6.39D-07
 ErrMax= 6.39D-07  0.00D+00 EMaxC= 1.00D-01 BMatC= 1.48D-09 BMatP= 1.36D-08
 IDIUse=1 WtCom= 1.00D+00 WtEn= 0.00D+00
 Coeff-Com:  0.449D-05-0.450D-04-0.322D-03-0.253D-03 0.365D-02 0.588D-02
 Coeff-Com: -0.222D-01-0.764D-01 0.168D+00 0.922D+00
 Coeff:      0.449D-05-0.450D-04-0.322D-03-0.253D-03 0.365D-02 0.588D-02
 Coeff:     -0.222D-01-0.764D-01 0.168D+00 0.922D+00
 Gap=     0.301 Goal=   None    Shift=    0.000
 RMSDP=7.72D-07 MaxDP=7.50D-05 DE=-2.81D-08 OVMax= 1.56D-05

 Cycle  11  Pass 1  IDiag  1:
 E= -1612.64665665841     Delta-E=       -0.000000002908 Rises=F Damp=F
 DIIS: error= 2.49D-07 at cycle  11 NSaved=  11.
 NSaved=11 IEnMin=11 EnMin= -1612.64665665841     IErMin=11 ErrMin= 2.49D-07
 ErrMax= 2.49D-07  0.00D+00 EMaxC= 1.00D-01 BMatC= 2.11D-10 BMatP= 1.48D-09
 IDIUse=1 WtCom= 1.00D+00 WtEn= 0.00D+00
 Coeff-Com:  0.867D-05-0.209D-04-0.210D-03-0.483D-03 0.478D-03 0.541D-02
 Coeff-Com:  0.113D-01-0.442D-01-0.911D-01 0.186D+00 0.933D+00
 Coeff:      0.867D-05-0.209D-04-0.210D-03-0.483D-03 0.478D-03 0.541D-02
 Coeff:      0.113D-01-0.442D-01-0.911D-01 0.186D+00 0.933D+00
 Gap=     0.301 Goal=   None    Shift=    0.000
 RMSDP=2.76D-07 MaxDP=2.46D-05 DE=-2.91D-09 OVMax= 5.65D-06

 Cycle  12  Pass 1  IDiag  1:
 E= -1612.64665665883     Delta-E=       -0.000000000417 Rises=F Damp=F
 DIIS: error= 9.34D-08 at cycle  12 NSaved=  12.
 NSaved=12 IEnMin=12 EnMin= -1612.64665665883     IErMin=12 ErrMin= 9.34D-08
 ErrMax= 9.34D-08  0.00D+00 EMaxC= 1.00D-01 BMatC= 2.14D-11 BMatP= 2.11D-10
 IDIUse=1 WtCom= 1.00D+00 WtEn= 0.00D+00
 Coeff-Com:  0.753D-07 0.415D-05 0.224D-04-0.328D-06-0.357D-03-0.371D-03
 Coeff-Com:  0.285D-02 0.637D-02-0.238D-01-0.922D-01 0.553D-01 0.105D+01
 Coeff:      0.753D-07 0.415D-05 0.224D-04-0.328D-06-0.357D-03-0.371D-03
 Coeff:      0.285D-02 0.637D-02-0.238D-01-0.922D-01 0.553D-01 0.105D+01
 Gap=     0.301 Goal=   None    Shift=    0.000
 RMSDP=9.33D-08 MaxDP=6.44D-06 DE=-4.17D-10 OVMax= 2.94D-06

 Cycle  13  Pass 1  IDiag  1:
 E= -1612.64665665883     Delta-E=       -0.000000000002 Rises=F Damp=F
 DIIS: error= 5.09D-08 at cycle  13 NSaved=  13.
 NSaved=13 IEnMin=13 EnMin= -1612.64665665883     IErMin=13 ErrMin= 5.09D-08
 ErrMax= 5.09D-08  0.00D+00 EMaxC= 1.00D-01 BMatC= 3.72D-12 BMatP= 2.14D-11
 IDIUse=1 WtCom= 1.00D+00 WtEn= 0.00D+00
 Coeff-Com: -0.123D-05 0.359D-05 0.331D-04 0.685D-04-0.113D-03-0.820D-03
 Coeff-Com: -0.123D-02 0.712D-02 0.986D-02-0.368D-01-0.125D+00 0.121D+00
 Coeff-Com:  0.103D+01
 Coeff:     -0.123D-05 0.359D-05 0.331D-04 0.685D-04-0.113D-03-0.820D-03
 Coeff:     -0.123D-02 0.712D-02 0.986D-02-0.368D-01-0.125D+00 0.121D+00
 Coeff:      0.103D+01
 Gap=     0.301 Goal=   None    Shift=    0.000
 RMSDP=3.77D-08 MaxDP=4.52D-06 DE=-2.27D-12 OVMax= 1.75D-06

 Cycle  14  Pass 1  IDiag  1:
 E= -1612.64665665890     Delta-E=       -0.000000000071 Rises=F Damp=F
 DIIS: error= 2.53D-08 at cycle  14 NSaved=  14.
 NSaved=14 IEnMin=14 EnMin= -1612.64665665890     IErMin=14 ErrMin= 2.53D-08
 ErrMax= 2.53D-08  0.00D+00 EMaxC= 1.00D-01 BMatC= 7.66D-13 BMatP= 3.72D-12
 IDIUse=1 WtCom= 1.00D+00 WtEn= 0.00D+00
 Coeff-Com: -0.144D-06-0.328D-06 0.252D-06 0.696D-05 0.433D-04-0.279D-04
 Coeff-Com: -0.584D-03-0.326D-03 0.514D-02 0.118D-01-0.259D-01-0.157D+00
 Coeff-Com:  0.136D+00 0.103D+01
 Coeff:     -0.144D-06-0.328D-06 0.252D-06 0.696D-05 0.433D-04-0.279D-04
 Coeff:     -0.584D-03-0.326D-03 0.514D-02 0.118D-01-0.259D-01-0.157D+00
 Coeff:      0.136D+00 0.103D+01
 Gap=     0.301 Goal=   None    Shift=    0.000
 RMSDP=1.93D-08 MaxDP=1.16D-06 DE=-7.09D-11 OVMax= 9.79D-07

 Cycle  15  Pass 1  IDiag  1:
 E= -1612.64665665892     Delta-E=       -0.000000000016 Rises=F Damp=F
 DIIS: error= 1.37D-08 at cycle  15 NSaved=  15.
 NSaved=15 IEnMin=15 EnMin= -1612.64665665892     IErMin=15 ErrMin= 1.37D-08
 ErrMax= 1.37D-08  0.00D+00 EMaxC= 1.00D-01 BMatC= 1.72D-13 BMatP= 7.66D-13
 IDIUse=1 WtCom= 1.00D+00 WtEn= 0.00D+00
 Coeff-Com:  0.277D-06-0.890D-06-0.769D-05-0.157D-04 0.307D-04 0.194D-03
 Coeff-Com:  0.246D-03-0.175D-02-0.177D-02 0.989D-02 0.255D-01-0.393D-01
 Coeff-Com: -0.216D+00 0.670D-01 0.116D+01
 Coeff:      0.277D-06-0.890D-06-0.769D-05-0.157D-04 0.307D-04 0.194D-03
 Coeff:      0.246D-03-0.175D-02-0.177D-02 0.989D-02 0.255D-01-0.393D-01
 Coeff:     -0.216D+00 0.670D-01 0.116D+01
 Gap=     0.301 Goal=   None    Shift=    0.000
 RMSDP=1.29D-08 MaxDP=7.21D-07 DE=-1.59D-11 OVMax= 6.17D-07

 Cycle  16  Pass 1  IDiag  1:
 E= -1612.64665665888     Delta-E=        0.000000000038 Rises=F Damp=F
 DIIS: error= 5.53D-09 at cycle  16 NSaved=  16.
 NSaved=16 IEnMin=15 EnMin= -1612.64665665892     IErMin=16 ErrMin= 5.53D-09
 ErrMax= 5.53D-09  0.00D+00 EMaxC= 1.00D-01 BMatC= 3.06D-14 BMatP= 1.72D-13
 IDIUse=1 WtCom= 1.00D+00 WtEn= 0.00D+00
 Coeff-Com:  0.248D-07 0.651D-07-0.507D-07-0.175D-05-0.981D-05 0.925D-05
 Coeff-Com:  0.135D-03 0.145D-04-0.113D-02-0.216D-02 0.554D-02 0.322D-01
 Coeff-Com: -0.349D-01-0.221D+00 0.551D-01 0.117D+01
 Coeff:      0.248D-07 0.651D-07-0.507D-07-0.175D-05-0.981D-05 0.925D-05
 Coeff:      0.135D-03 0.145D-04-0.113D-02-0.216D-02 0.554D-02 0.322D-01
 Coeff:     -0.349D-01-0.221D+00 0.551D-01 0.117D+01
 Gap=     0.301 Goal=   None    Shift=    0.000
 RMSDP=8.57D-09 MaxDP=8.14D-07 DE= 3.77D-11 OVMax= 3.06D-07

 SCF Done:  E(RHF) =  -1612.64665666     A.U. after   16 cycles
            NFock= 16  Conv=0.86D-08     -V/T= 2.0011
 KE= 1.610911323154D+03 PE=-7.546663690889D+03 EE= 2.463383841324D+03
 Leave Link  502 at Tue Sep 22 02:34:27 2020, MaxMem=   262144000 cpu:            4750.6 elap:            1188.5
 (Enter /prod/apps/gaussian/g16b1/l801.exe)
 ExpMin= 2.97D-02 ExpMax= 1.11D+05 ExpMxC= 1.07D+03 IAcc=3 IRadAn=         5 AccDes= 0.00D+00
 HarFok:  IExCor=  205 AccDes= 0.00D+00 IRadAn=         5 IDoV=-2 UseB2=F ITyADJ=14
 ICtDFT= 12500011 ScaDFX=  1.000000  1.000000  1.000000  1.000000
 GSVD:  LWork=        -945 too small for GESVD, short by        4050 words or        4050 for optimal perf.
 Largest valence mixing into a core orbital is  3.64D-04
 Largest core mixing into a valence orbital is  1.11D-04
 Range of M.O.s used for correlation:    28   589
 NBasis=   589 NAE=    80 NBE=    80 NFC=    27 NFV=     0
 NROrb=    562 NOA=    53 NOB=    53 NVA=   509 NVB=   509

 **** Warning!!: The largest alpha MO coefficient is  0.88581220D+02

 Leave Link  801 at Tue Sep 22 02:34:28 2020, MaxMem=   262144000 cpu:               2.4 elap:               0.8
 (Enter /prod/apps/gaussian/g16b1/l906.exe)
 FulOut=F Deriv=F AODrv=F NAtomX=    35
   MMem=           3  MDisk=          53 MDiskD=          53
  W3Min=    16914579 MinDsk=    17123203 NBas6D=         627
 NBas2D=      197721    NTT=      196878    LW2=     2000000
    MDV=   259627649 MDiskM=        5706 NBas2p=      182315
 Disk-based method using OVN memory for 53 occupieds at a time.
 Estimated scratch disk usage= 15014332235 words.
 IMap=   1   2   3   4   5   6   7   8   9  10  11  12  13  14  15  16  17  18  19  20
 IMap=  21  22  23  24  25  26  27  28  29  30  31  32  33  34  35  36  37  38  39  40
 IMap=  41  42  43  44  45  46  47  48  49  50  51  52  53
 Actual    scratch disk usage= 14793520459 words.
 JobTyp=1 Pass  1:  I=   1 to  53 NPSUse=  4 ParTrn=T ParDer=T DoDerP=F.
Erroneous write. Write -1 instead of 1105792.
fd = 4
orig len = 8384512 left = 1105792
g_write
