 Entering Gaussian System, Link 0=g16
 Initial command:
 /prod/apps/gaussian/g16b1/l1.exe "/tmp/ubafar01/1460354/Gau-77512.inp" -scrdir="/tmp/ubafar01/1460354/"
 Entering Link 1 = /prod/apps/gaussian/g16b1/l1.exe PID=     77514.
  
 Copyright (c) 1988-2017, Gaussian, Inc.  All Rights Reserved.
  
 This is part of the Gaussian(R) 16 program.  It is based on
 the Gaussian(R) 09 system (copyright 2009, Gaussian, Inc.),
 the Gaussian(R) 03 system (copyright 2003, Gaussian, Inc.),
 the Gaussian(R) 98 system (copyright 1998, Gaussian, Inc.),
 the Gaussian(R) 94 system (copyright 1995, Gaussian, Inc.),
 the Gaussian 92(TM) system (copyright 1992, Gaussian, Inc.),
 the Gaussian 90(TM) system (copyright 1990, Gaussian, Inc.),
 the Gaussian 88(TM) system (copyright 1988, Gaussian, Inc.),
 the Gaussian 86(TM) system (copyright 1986, Carnegie Mellon
 University), and the Gaussian 82(TM) system (copyright 1983,
 Carnegie Mellon University). Gaussian is a federally registered
 trademark of Gaussian, Inc.
  
 This software contains proprietary and confidential information,
 including trade secrets, belonging to Gaussian, Inc.
  
 This software is provided under written license and may be
 used, copied, transmitted, or stored only in accord with that
 written license.
  
 The following legend is applicable only to US Government
 contracts under FAR:
  
                    RESTRICTED RIGHTS LEGEND
  
 Use, reproduction and disclosure by the US Government is
 subject to restrictions as set forth in subparagraphs (a)
 and (c) of the Commercial Computer Software - Restricted
 Rights clause in FAR 52.227-19.
  
 Gaussian, Inc.
 340 Quinnipiac St., Bldg. 40, Wallingford CT 06492
  
  
 ---------------------------------------------------------------
 Warning -- This program may not be used in any manner that
 competes with the business of Gaussian, Inc. or will provide
 assistance to any competitor of Gaussian, Inc.  The licensee
 of this program is prohibited from giving any competitor of
 Gaussian, Inc. access to this program.  By using this program,
 the user acknowledges that Gaussian, Inc. is engaged in the
 business of creating and licensing software in the field of
 computational chemistry and represents and warrants to the
 licensee that it is not a competitor of Gaussian, Inc. and that
 it will not use this program in any manner prohibited above.
 ---------------------------------------------------------------
  

 Cite this work as:
 Gaussian 16, Revision B.01,
 M. J. Frisch, G. W. Trucks, H. B. Schlegel, G. E. Scuseria, 
 M. A. Robb, J. R. Cheeseman, G. Scalmani, V. Barone, 
 G. A. Petersson, H. Nakatsuji, X. Li, M. Caricato, A. V. Marenich, 
 J. Bloino, B. G. Janesko, R. Gomperts, B. Mennucci, H. P. Hratchian, 
 J. V. Ortiz, A. F. Izmaylov, J. L. Sonnenberg, D. Williams-Young, 
 F. Ding, F. Lipparini, F. Egidi, J. Goings, B. Peng, A. Petrone, 
 T. Henderson, D. Ranasinghe, V. G. Zakrzewski, J. Gao, N. Rega, 
 G. Zheng, W. Liang, M. Hada, M. Ehara, K. Toyota, R. Fukuda, 
 J. Hasegawa, M. Ishida, T. Nakajima, Y. Honda, O. Kitao, H. Nakai, 
 T. Vreven, K. Throssell, J. A. Montgomery, Jr., J. E. Peralta, 
 F. Ogliaro, M. J. Bearpark, J. J. Heyd, E. N. Brothers, K. N. Kudin, 
 V. N. Staroverov, T. A. Keith, R. Kobayashi, J. Normand, 
 K. Raghavachari, A. P. Rendell, J. C. Burant, S. S. Iyengar, 
 J. Tomasi, M. Cossi, J. M. Millam, M. Klene, C. Adamo, R. Cammi, 
 J. W. Ochterski, R. L. Martin, K. Morokuma, O. Farkas, 
 J. B. Foresman, and D. J. Fox, Gaussian, Inc., Wallingford CT, 2016.
 
 ******************************************
 Gaussian 16:  ES64L-G16RevB.01 20-Dec-2017
                22-Sep-2020 
 ******************************************
 %nproc=4
 Will use up to    4 processors via shared memory.
 %Chk=SM38_m1.a.8.pdb.xyz.mst.a.w.chk
 %mem=16GB
 ----------------------------------------------------------------------
 #p b3lyp/6-31G(d) opt freq NoSymm scf=(MaxCycle=2000,NoVarAcc,NoIncFoc
 k) scrf=(iefpcm,read,solvent=water)
 ----------------------------------------------------------------------
 1/18=20,19=15,26=3,38=1,40=2/1,3;
 2/9=110,12=2,15=1,17=6,18=5,40=1/2;
 3/5=1,6=6,7=1,11=2,25=1,30=1,70=2203,71=1,72=1,74=-5/1,2,3;
 4//1;
 5/5=100002,7=2000,38=1,53=1/2;
 6/7=2,8=2,9=2,10=2,28=1/1;
 7/30=1/1,2,3,16;
 1/18=20,19=15,26=3/3(2);
 2/9=110,15=1/2;
 99//99;
 2/9=110,15=1/2;
 3/5=1,6=6,7=1,11=2,25=1,30=1,70=2205,71=1,72=1,74=-5/1,2,3;
 4/5=5,16=3,69=1/1;
 5/5=100002,7=2000,38=1,53=1/2;
 7/30=1/1,2,3,16;
 1/18=20,19=15,26=3/3(-5);
 2/9=110,15=1/2;
 6/7=2,8=2,9=2,10=2,19=2,28=1/1;
 99/9=1/99;
 Leave Link    1 at Tue Sep 22 01:46:06 2020, MaxMem=  2147483648 cpu:               0.1 elap:               0.0
 (Enter /prod/apps/gaussian/g16b1/l101.exe)
 -------------------
 SM38_m1.a.8.pdb.xyz
 -------------------
 Symbolic Z-matrix:
 Charge = -1 Multiplicity = 1
 C                     1.545     2.644    -1.205 
 S                     0.428     1.991     0.049 
 N                    -0.145     0.718    -0.714 
 C                    -1.049    -0.179    -0.013 
 C                    -1.913    -0.949    -1.086 
 S                    -3.434    -0.582    -0.159 
 C                    -2.284     0.508     0.72 
 O                    -4.474     0.122    -0.945 
 O                    -3.866    -1.732     0.672 
 C                    -0.378    -1.18      0.967 
 C                     0.659    -2.158     0.358 
 C                     2.087    -1.66      0.238 
 C                     2.88     -1.488     1.383 
 C                     4.204    -1.054     1.286 
 C                     4.766    -0.79      0.034 
 C                     3.993    -0.966    -1.116 
 C                     2.667    -1.398    -1.012 
 O                     1.267     1.721     1.268 
 O                    -0.583     3.075     0.319 
 H                     2.324     1.908    -1.41 
 H                     1.985     3.559    -0.802 
 H                     0.981     2.866    -2.112 
 H                    -1.736    -2.017    -1.218 
 H                    -1.931    -0.433    -2.047 
 H                    -2.335     0.413     1.807 
 H                    -2.434     1.542     0.41 
 H                    -1.173    -1.782     1.424 
 H                     0.084    -0.604     1.775 
 H                     0.315    -2.499    -0.626 
 H                     0.668    -3.051     0.996 
 H                     2.456    -1.698     2.363 
 H                     4.798    -0.928     2.188 
 H                     5.797    -0.456    -0.044 
 H                     4.42     -0.771    -2.096 
 H                     2.073    -1.532    -1.912 
 
 ITRead=  0  0  0  0  0  0  0  0  0  0  0  0  0  0  0  0  0  0  0  0
 ITRead=  0  0  0  0  0  0  0  0  0  0  0  0  0  0  0
 MicOpt= -1 -1 -1 -1 -1 -1 -1 -1 -1 -1 -1 -1 -1 -1 -1 -1 -1 -1 -1 -1
 MicOpt= -1 -1 -1 -1 -1 -1 -1 -1 -1 -1 -1 -1 -1 -1 -1
 NAtoms=     35 NQM=       35 NQMF=       0 NMMI=      0 NMMIF=      0
                NMic=       0 NMicF=      0.
                    Isotopes and Nuclear Properties:
 (Nuclear quadrupole moments (NQMom) in fm**2, nuclear magnetic moments (NMagM)
  in nuclear magnetons)

  Atom         1           2           3           4           5           6           7           8           9          10
 IAtWgt=          12          32          14          12          12          32          12          16          16          12
 AtmWgt=  12.0000000  31.9720718  14.0030740  12.0000000  12.0000000  31.9720718  12.0000000  15.9949146  15.9949146  12.0000000
 NucSpn=           0           0           2           0           0           0           0           0           0           0
 AtZEff=  -0.0000000  -0.0000000  -0.0000000  -0.0000000  -0.0000000  -0.0000000  -0.0000000  -0.0000000  -0.0000000  -0.0000000
 NQMom=    0.0000000   0.0000000   2.0440000   0.0000000   0.0000000   0.0000000   0.0000000   0.0000000   0.0000000   0.0000000
 NMagM=    0.0000000   0.0000000   0.4037610   0.0000000   0.0000000   0.0000000   0.0000000   0.0000000   0.0000000   0.0000000
 AtZNuc=   6.0000000  16.0000000   7.0000000   6.0000000   6.0000000  16.0000000   6.0000000   8.0000000   8.0000000   6.0000000

  Atom        11          12          13          14          15          16          17          18          19          20
 IAtWgt=          12          12          12          12          12          12          12          16          16           1
 AtmWgt=  12.0000000  12.0000000  12.0000000  12.0000000  12.0000000  12.0000000  12.0000000  15.9949146  15.9949146   1.0078250
 NucSpn=           0           0           0           0           0           0           0           0           0           1
 AtZEff=  -0.0000000  -0.0000000  -0.0000000  -0.0000000  -0.0000000  -0.0000000  -0.0000000  -0.0000000  -0.0000000  -0.0000000
 NQMom=    0.0000000   0.0000000   0.0000000   0.0000000   0.0000000   0.0000000   0.0000000   0.0000000   0.0000000   0.0000000
 NMagM=    0.0000000   0.0000000   0.0000000   0.0000000   0.0000000   0.0000000   0.0000000   0.0000000   0.0000000   2.7928460
 AtZNuc=   6.0000000   6.0000000   6.0000000   6.0000000   6.0000000   6.0000000   6.0000000   8.0000000   8.0000000   1.0000000

  Atom        21          22          23          24          25          26          27          28          29          30
 IAtWgt=           1           1           1           1           1           1           1           1           1           1
 AtmWgt=   1.0078250   1.0078250   1.0078250   1.0078250   1.0078250   1.0078250   1.0078250   1.0078250   1.0078250   1.0078250
 NucSpn=           1           1           1           1           1           1           1           1           1           1
 AtZEff=  -0.0000000  -0.0000000  -0.0000000  -0.0000000  -0.0000000  -0.0000000  -0.0000000  -0.0000000  -0.0000000  -0.0000000
 NQMom=    0.0000000   0.0000000   0.0000000   0.0000000   0.0000000   0.0000000   0.0000000   0.0000000   0.0000000   0.0000000
 NMagM=    2.7928460   2.7928460   2.7928460   2.7928460   2.7928460   2.7928460   2.7928460   2.7928460   2.7928460   2.7928460
 AtZNuc=   1.0000000   1.0000000   1.0000000   1.0000000   1.0000000   1.0000000   1.0000000   1.0000000   1.0000000   1.0000000

  Atom        31          32          33          34          35
 IAtWgt=           1           1           1           1           1
 AtmWgt=   1.0078250   1.0078250   1.0078250   1.0078250   1.0078250
 NucSpn=           1           1           1           1           1
 AtZEff=  -0.0000000  -0.0000000  -0.0000000  -0.0000000  -0.0000000
 NQMom=    0.0000000   0.0000000   0.0000000   0.0000000   0.0000000
 NMagM=    2.7928460   2.7928460   2.7928460   2.7928460   2.7928460
 AtZNuc=   1.0000000   1.0000000   1.0000000   1.0000000   1.0000000
 Leave Link  101 at Tue Sep 22 01:46:06 2020, MaxMem=  2147483648 cpu:               1.3 elap:               0.3
 (Enter /prod/apps/gaussian/g16b1/l103.exe)

 GradGradGradGradGradGradGradGradGradGradGradGradGradGradGradGradGradGrad
 Berny optimization.
 Initialization pass.
                           ----------------------------
                           !    Initial Parameters    !
                           ! (Angstroms and Degrees)  !
 --------------------------                            --------------------------
 ! Name  Definition              Value          Derivative Info.                !
 --------------------------------------------------------------------------------
 ! R1    R(1,2)                  1.8018         estimate D2E/DX2                !
 ! R2    R(1,20)                 1.0911         estimate D2E/DX2                !
 ! R3    R(1,21)                 1.0924         estimate D2E/DX2                !
 ! R4    R(1,22)                 1.0909         estimate D2E/DX2                !
 ! R5    R(2,3)                  1.5909         estimate D2E/DX2                !
 ! R6    R(2,18)                 1.5043         estimate D2E/DX2                !
 ! R7    R(2,19)                 1.5067         estimate D2E/DX2                !
 ! R8    R(3,4)                  1.4537         estimate D2E/DX2                !
 ! R9    R(4,5)                  1.5782         estimate D2E/DX2                !
 ! R10   R(4,7)                  1.592          estimate D2E/DX2                !
 ! R11   R(4,10)                 1.5533         estimate D2E/DX2                !
 ! R12   R(5,6)                  1.8186         estimate D2E/DX2                !
 ! R13   R(5,23)                 1.0906         estimate D2E/DX2                !
 ! R14   R(5,24)                 1.0909         estimate D2E/DX2                !
 ! R15   R(6,7)                  1.812          estimate D2E/DX2                !
 ! R16   R(6,8)                  1.4816         estimate D2E/DX2                !
 ! R17   R(6,9)                  1.4831         estimate D2E/DX2                !
 ! R18   R(7,25)                 1.0923         estimate D2E/DX2                !
 ! R19   R(7,26)                 1.0898         estimate D2E/DX2                !
 ! R20   R(10,11)                1.5501         estimate D2E/DX2                !
 ! R21   R(10,27)                1.0969         estimate D2E/DX2                !
 ! R22   R(10,28)                1.0946         estimate D2E/DX2                !
 ! R23   R(11,12)                1.5171         estimate D2E/DX2                !
 ! R24   R(11,29)                1.0968         estimate D2E/DX2                !
 ! R25   R(11,30)                1.0975         estimate D2E/DX2                !
 ! R26   R(12,13)                1.4034         estimate D2E/DX2                !
 ! R27   R(12,17)                1.4027         estimate D2E/DX2                !
 ! R28   R(13,14)                1.3967         estimate D2E/DX2                !
 ! R29   R(13,31)                1.0882         estimate D2E/DX2                !
 ! R30   R(14,15)                1.3975         estimate D2E/DX2                !
 ! R31   R(14,32)                1.0873         estimate D2E/DX2                !
 ! R32   R(15,16)                1.3968         estimate D2E/DX2                !
 ! R33   R(15,33)                1.0866         estimate D2E/DX2                !
 ! R34   R(16,17)                1.3985         estimate D2E/DX2                !
 ! R35   R(16,34)                1.0866         estimate D2E/DX2                !
 ! R36   R(17,35)                1.0866         estimate D2E/DX2                !
 ! A1    A(2,1,20)             109.2013         estimate D2E/DX2                !
 ! A2    A(2,1,21)             107.2484         estimate D2E/DX2                !
 ! A3    A(2,1,22)             109.3834         estimate D2E/DX2                !
 ! A4    A(20,1,21)            110.2889         estimate D2E/DX2                !
 ! A5    A(20,1,22)            110.4981         estimate D2E/DX2                !
 ! A6    A(21,1,22)            110.153          estimate D2E/DX2                !
 ! A7    A(1,2,3)              100.3398         estimate D2E/DX2                !
 ! A8    A(1,2,18)             106.4553         estimate D2E/DX2                !
 ! A9    A(1,2,19)             106.2575         estimate D2E/DX2                !
 ! A10   A(3,2,18)             116.4817         estimate D2E/DX2                !
 ! A11   A(3,2,19)             114.8319         estimate D2E/DX2                !
 ! A12   A(18,2,19)            110.9882         estimate D2E/DX2                !
 ! A13   A(2,3,4)              119.1073         estimate D2E/DX2                !
 ! A14   A(3,4,5)              108.2791         estimate D2E/DX2                !
 ! A15   A(3,4,7)              115.9867         estimate D2E/DX2                !
 ! A16   A(3,4,10)             115.6747         estimate D2E/DX2                !
 ! A17   A(5,4,7)               95.6752         estimate D2E/DX2                !
 ! A18   A(5,4,10)             110.5505         estimate D2E/DX2                !
 ! A19   A(7,4,10)             108.8276         estimate D2E/DX2                !
 ! A20   A(4,5,6)               90.7363         estimate D2E/DX2                !
 ! A21   A(4,5,23)             118.1143         estimate D2E/DX2                !
 ! A22   A(4,5,24)             112.159          estimate D2E/DX2                !
 ! A23   A(6,5,23)             113.2691         estimate D2E/DX2                !
 ! A24   A(6,5,24)             109.8628         estimate D2E/DX2                !
 ! A25   A(23,5,24)            111.0546         estimate D2E/DX2                !
 ! A26   A(5,6,7)               80.6692         estimate D2E/DX2                !
 ! A27   A(5,6,8)              114.3652         estimate D2E/DX2                !
 ! A28   A(5,6,9)              111.884          estimate D2E/DX2                !
 ! A29   A(7,6,8)              114.6472         estimate D2E/DX2                !
 ! A30   A(7,6,9)              112.3024         estimate D2E/DX2                !
 ! A31   A(8,6,9)              117.4666         estimate D2E/DX2                !
 ! A32   A(4,7,6)               90.5385         estimate D2E/DX2                !
 ! A33   A(4,7,25)             117.185          estimate D2E/DX2                !
 ! A34   A(4,7,26)             112.6577         estimate D2E/DX2                !
 ! A35   A(6,7,25)             113.6275         estimate D2E/DX2                !
 ! A36   A(6,7,26)             110.2058         estimate D2E/DX2                !
 ! A37   A(25,7,26)            111.0476         estimate D2E/DX2                !
 ! A38   A(4,10,11)            116.598          estimate D2E/DX2                !
 ! A39   A(4,10,27)            107.6644         estimate D2E/DX2                !
 ! A40   A(4,10,28)            107.996          estimate D2E/DX2                !
 ! A41   A(11,10,27)           107.5944         estimate D2E/DX2                !
 ! A42   A(11,10,28)           109.8567         estimate D2E/DX2                !
 ! A43   A(27,10,28)           106.688          estimate D2E/DX2                !
 ! A44   A(10,11,12)           116.9798         estimate D2E/DX2                !
 ! A45   A(10,11,29)           109.8055         estimate D2E/DX2                !
 ! A46   A(10,11,30)           106.8854         estimate D2E/DX2                !
 ! A47   A(12,11,29)           109.046          estimate D2E/DX2                !
 ! A48   A(12,11,30)           107.779          estimate D2E/DX2                !
 ! A49   A(29,11,30)           105.732          estimate D2E/DX2                !
 ! A50   A(11,12,13)           120.5026         estimate D2E/DX2                !
 ! A51   A(11,12,17)           121.3999         estimate D2E/DX2                !
 ! A52   A(13,12,17)           118.0689         estimate D2E/DX2                !
 ! A53   A(12,13,14)           121.1365         estimate D2E/DX2                !
 ! A54   A(12,13,31)           119.4014         estimate D2E/DX2                !
 ! A55   A(14,13,31)           119.462          estimate D2E/DX2                !
 ! A56   A(13,14,15)           120.1412         estimate D2E/DX2                !
 ! A57   A(13,14,32)           119.7522         estimate D2E/DX2                !
 ! A58   A(15,14,32)           120.1056         estimate D2E/DX2                !
 ! A59   A(14,15,16)           119.422          estimate D2E/DX2                !
 ! A60   A(14,15,33)           120.2625         estimate D2E/DX2                !
 ! A61   A(16,15,33)           120.3146         estimate D2E/DX2                !
 ! A62   A(15,16,17)           120.161          estimate D2E/DX2                !
 ! A63   A(15,16,34)           120.1622         estimate D2E/DX2                !
 ! A64   A(17,16,34)           119.6764         estimate D2E/DX2                !
 ! A65   A(12,17,16)           121.0666         estimate D2E/DX2                !
 ! A66   A(12,17,35)           119.276          estimate D2E/DX2                !
 ! A67   A(16,17,35)           119.6573         estimate D2E/DX2                !
 ! D1    D(20,1,2,3)           -62.3083         estimate D2E/DX2                !
 ! D2    D(20,1,2,18)           59.4623         estimate D2E/DX2                !
 ! D3    D(20,1,2,19)          177.8322         estimate D2E/DX2                !
 ! D4    D(21,1,2,3)           178.1802         estimate D2E/DX2                !
 ! D5    D(21,1,2,18)          -60.0492         estimate D2E/DX2                !
 ! D6    D(21,1,2,19)           58.3207         estimate D2E/DX2                !
 ! D7    D(22,1,2,3)            58.7301         estimate D2E/DX2                !
 ! D8    D(22,1,2,18)         -179.4992         estimate D2E/DX2                !
 ! D9    D(22,1,2,19)          -61.1294         estimate D2E/DX2                !
 ! D10   D(1,2,3,4)            175.9975         estimate D2E/DX2                !
 ! D11   D(18,2,3,4)            61.6299         estimate D2E/DX2                !
 ! D12   D(19,2,3,4)           -70.5498         estimate D2E/DX2                !
 ! D13   D(2,3,4,5)            156.5453         estimate D2E/DX2                !
 ! D14   D(2,3,4,7)             50.472          estimate D2E/DX2                !
 ! D15   D(2,3,4,10)           -78.7759         estimate D2E/DX2                !
 ! D16   D(3,4,5,6)           -132.1644         estimate D2E/DX2                !
 ! D17   D(3,4,5,23)           110.7834         estimate D2E/DX2                !
 ! D18   D(3,4,5,24)           -20.3174         estimate D2E/DX2                !
 ! D19   D(7,4,5,6)            -12.3927         estimate D2E/DX2                !
 ! D20   D(7,4,5,23)          -129.4449         estimate D2E/DX2                !
 ! D21   D(7,4,5,24)            99.4542         estimate D2E/DX2                !
 ! D22   D(10,4,5,6)           100.1646         estimate D2E/DX2                !
 ! D23   D(10,4,5,23)          -16.8875         estimate D2E/DX2                !
 ! D24   D(10,4,5,24)         -147.9884         estimate D2E/DX2                !
 ! D25   D(3,4,7,6)            125.9594         estimate D2E/DX2                !
 ! D26   D(3,4,7,25)          -116.9495         estimate D2E/DX2                !
 ! D27   D(3,4,7,26)            13.736          estimate D2E/DX2                !
 ! D28   D(5,4,7,6)             12.4386         estimate D2E/DX2                !
 ! D29   D(5,4,7,25)           129.5297         estimate D2E/DX2                !
 ! D30   D(5,4,7,26)           -99.7848         estimate D2E/DX2                !
 ! D31   D(10,4,7,6)          -101.5521         estimate D2E/DX2                !
 ! D32   D(10,4,7,25)           15.539          estimate D2E/DX2                !
 ! D33   D(10,4,7,26)          146.2245         estimate D2E/DX2                !
 ! D34   D(3,4,10,11)          -59.4069         estimate D2E/DX2                !
 ! D35   D(3,4,10,27)          179.6467         estimate D2E/DX2                !
 ! D36   D(3,4,10,28)           64.7919         estimate D2E/DX2                !
 ! D37   D(5,4,10,11)           64.0888         estimate D2E/DX2                !
 ! D38   D(5,4,10,27)          -56.8576         estimate D2E/DX2                !
 ! D39   D(5,4,10,28)         -171.7124         estimate D2E/DX2                !
 ! D40   D(7,4,10,11)          167.9402         estimate D2E/DX2                !
 ! D41   D(7,4,10,27)           46.9938         estimate D2E/DX2                !
 ! D42   D(7,4,10,28)          -67.861          estimate D2E/DX2                !
 ! D43   D(4,5,6,7)             10.9616         estimate D2E/DX2                !
 ! D44   D(4,5,6,8)            123.8868         estimate D2E/DX2                !
 ! D45   D(4,5,6,9)            -99.4309         estimate D2E/DX2                !
 ! D46   D(23,5,6,7)           132.1949         estimate D2E/DX2                !
 ! D47   D(23,5,6,8)          -114.8798         estimate D2E/DX2                !
 ! D48   D(23,5,6,9)            21.8024         estimate D2E/DX2                !
 ! D49   D(24,5,6,7)          -102.9742         estimate D2E/DX2                !
 ! D50   D(24,5,6,8)             9.951          estimate D2E/DX2                !
 ! D51   D(24,5,6,9)           146.6333         estimate D2E/DX2                !
 ! D52   D(5,6,7,4)            -10.8649         estimate D2E/DX2                !
 ! D53   D(5,6,7,25)          -131.0506         estimate D2E/DX2                !
 ! D54   D(5,6,7,26)           103.5892         estimate D2E/DX2                !
 ! D55   D(8,6,7,4)           -123.4839         estimate D2E/DX2                !
 ! D56   D(8,6,7,25)           116.3305         estimate D2E/DX2                !
 ! D57   D(8,6,7,26)            -9.0298         estimate D2E/DX2                !
 ! D58   D(9,6,7,4)             99.0651         estimate D2E/DX2                !
 ! D59   D(9,6,7,25)           -21.1205         estimate D2E/DX2                !
 ! D60   D(9,6,7,26)          -146.4808         estimate D2E/DX2                !
 ! D61   D(4,10,11,12)          85.8294         estimate D2E/DX2                !
 ! D62   D(4,10,11,29)         -39.0978         estimate D2E/DX2                !
 ! D63   D(4,10,11,30)        -153.3331         estimate D2E/DX2                !
 ! D64   D(27,10,11,12)       -153.187          estimate D2E/DX2                !
 ! D65   D(27,10,11,29)         81.8858         estimate D2E/DX2                !
 ! D66   D(27,10,11,30)        -32.3495         estimate D2E/DX2                !
 ! D67   D(28,10,11,12)        -37.4134         estimate D2E/DX2                !
 ! D68   D(28,10,11,29)       -162.3406         estimate D2E/DX2                !
 ! D69   D(28,10,11,30)         83.4241         estimate D2E/DX2                !
 ! D70   D(10,11,12,13)         70.9887         estimate D2E/DX2                !
 ! D71   D(10,11,12,17)       -110.9943         estimate D2E/DX2                !
 ! D72   D(29,11,12,13)       -163.7031         estimate D2E/DX2                !
 ! D73   D(29,11,12,17)         14.3139         estimate D2E/DX2                !
 ! D74   D(30,11,12,13)        -49.3772         estimate D2E/DX2                !
 ! D75   D(30,11,12,17)        128.6398         estimate D2E/DX2                !
 ! D76   D(11,12,13,14)        178.802          estimate D2E/DX2                !
 ! D77   D(11,12,13,31)         -1.1033         estimate D2E/DX2                !
 ! D78   D(17,12,13,14)          0.7201         estimate D2E/DX2                !
 ! D79   D(17,12,13,31)       -179.1851         estimate D2E/DX2                !
 ! D80   D(11,12,17,16)       -178.642          estimate D2E/DX2                !
 ! D81   D(11,12,17,35)          1.4798         estimate D2E/DX2                !
 ! D82   D(13,12,17,16)         -0.5783         estimate D2E/DX2                !
 ! D83   D(13,12,17,35)        179.5435         estimate D2E/DX2                !
 ! D84   D(12,13,14,15)         -0.3928         estimate D2E/DX2                !
 ! D85   D(12,13,14,32)        179.9768         estimate D2E/DX2                !
 ! D86   D(31,13,14,15)        179.5123         estimate D2E/DX2                !
 ! D87   D(31,13,14,32)         -0.1181         estimate D2E/DX2                !
 ! D88   D(13,14,15,16)         -0.0947         estimate D2E/DX2                !
 ! D89   D(13,14,15,33)       -179.7612         estimate D2E/DX2                !
 ! D90   D(32,14,15,16)        179.5344         estimate D2E/DX2                !
 ! D91   D(32,14,15,33)         -0.1321         estimate D2E/DX2                !
 ! D92   D(14,15,16,17)          0.2343         estimate D2E/DX2                !
 ! D93   D(14,15,16,34)       -179.5683         estimate D2E/DX2                !
 ! D94   D(33,15,16,17)        179.9006         estimate D2E/DX2                !
 ! D95   D(33,15,16,34)          0.098          estimate D2E/DX2                !
 ! D96   D(15,16,17,12)          0.1094         estimate D2E/DX2                !
 ! D97   D(15,16,17,35)        179.9871         estimate D2E/DX2                !
 ! D98   D(34,16,17,12)        179.913          estimate D2E/DX2                !
 ! D99   D(34,16,17,35)         -0.2093         estimate D2E/DX2                !
 --------------------------------------------------------------------------------
 Trust Radius=3.00D-01 FncErr=1.00D-07 GrdErr=1.00D-06 EigMax=2.50D+02 EigMin=1.00D-04
 Number of steps in this run=    210 maximum allowed number of steps=    210.
 GradGradGradGradGradGradGradGradGradGradGradGradGradGradGradGradGradGrad

 Leave Link  103 at Tue Sep 22 01:46:06 2020, MaxMem=  2147483648 cpu:               0.1 elap:               0.0
 (Enter /prod/apps/gaussian/g16b1/l202.exe)
                          Input orientation:                          
 ---------------------------------------------------------------------
 Center     Atomic      Atomic             Coordinates (Angstroms)
 Number     Number       Type             X           Y           Z
 ---------------------------------------------------------------------
      1          6           0        1.545000    2.644000   -1.205000
      2         16           0        0.428000    1.991000    0.049000
      3          7           0       -0.145000    0.718000   -0.714000
      4          6           0       -1.049000   -0.179000   -0.013000
      5          6           0       -1.913000   -0.949000   -1.086000
      6         16           0       -3.434000   -0.582000   -0.159000
      7          6           0       -2.284000    0.508000    0.720000
      8          8           0       -4.474000    0.122000   -0.945000
      9          8           0       -3.866000   -1.732000    0.672000
     10          6           0       -0.378000   -1.180000    0.967000
     11          6           0        0.659000   -2.158000    0.358000
     12          6           0        2.087000   -1.660000    0.238000
     13          6           0        2.880000   -1.488000    1.383000
     14          6           0        4.204000   -1.054000    1.286000
     15          6           0        4.766000   -0.790000    0.034000
     16          6           0        3.993000   -0.966000   -1.116000
     17          6           0        2.667000   -1.398000   -1.012000
     18          8           0        1.267000    1.721000    1.268000
     19          8           0       -0.583000    3.075000    0.319000
     20          1           0        2.324000    1.908000   -1.410000
     21          1           0        1.985000    3.559000   -0.802000
     22          1           0        0.981000    2.866000   -2.112000
     23          1           0       -1.736000   -2.017000   -1.218000
     24          1           0       -1.931000   -0.433000   -2.047000
     25          1           0       -2.335000    0.413000    1.807000
     26          1           0       -2.434000    1.542000    0.410000
     27          1           0       -1.173000   -1.782000    1.424000
     28          1           0        0.084000   -0.604000    1.775000
     29          1           0        0.315000   -2.499000   -0.626000
     30          1           0        0.668000   -3.051000    0.996000
     31          1           0        2.456000   -1.698000    2.363000
     32          1           0        4.798000   -0.928000    2.188000
     33          1           0        5.797000   -0.456000   -0.044000
     34          1           0        4.420000   -0.771000   -2.096000
     35          1           0        2.073000   -1.532000   -1.912000
 ---------------------------------------------------------------------
                    Distance matrix (angstroms):
                    1          2          3          4          5
     1  C    0.000000
     2  S    1.801836   0.000000
     3  N    2.608957   1.590920   0.000000
     4  C    4.014851   2.625695   1.453694   0.000000
     5  C    4.988143   3.925826   2.458271   1.578203   0.000000
     6  S    6.024254   4.645281   3.579881   2.423211   1.818642
     7  C    4.788461   3.162985   2.583753   1.592006   2.349920
     8  O    6.531190   5.339551   4.375936   3.562282   2.779504
     9  O    7.207734   5.717280   4.665762   3.288848   2.741872
    10  C    4.799843   3.398176   2.546066   1.553268   2.573790
    11  C    5.127101   4.166898   3.172850   2.640331   3.187789
    12  C    4.571699   4.014698   3.397501   3.477191   4.272996
    13  C    5.055036   4.460415   4.291208   4.370279   5.418425
    14  C    5.191393   5.006033   5.104291   5.481518   6.561638
    15  C    4.868503   5.152905   5.191482   5.847201   6.774121
    16  C    4.362651   4.776013   4.485588   5.220895   5.906101
    17  C    4.199273   4.198114   3.531799   4.036412   4.602551
    18  O    2.654231   1.504255   2.632124   3.258039   4.773114
    19  O    2.652682   1.506677   2.610437   3.303921   4.464919
    20  H    1.091129   2.393822   2.827804   4.205271   5.120507
    21  H    1.092353   2.367926   3.551890   4.878557   5.966333
    22  H    1.090885   2.396112   2.799318   4.218854   4.897156
    23  H    5.700004   4.727817   3.203985   2.302659   1.090586
    24  H    4.717994   3.979180   2.508283   2.231501   1.090918
    25  H    5.394804   3.635219   3.353292   2.305788   3.225303
    26  H    4.433404   2.919412   2.679902   2.249221   2.952040
    27  H    5.821395   4.323119   3.446422   2.156375   2.746195
    28  H    4.643751   3.135512   2.827587   2.158995   3.506045
    29  H    5.319642   4.541860   3.250913   2.760193   2.752832
    30  H    6.168189   5.135774   4.217870   3.494933   3.926154
    31  H    5.693286   4.803759   4.697892   4.498640   5.616472
    32  H    5.903697   5.673868   5.963570   6.292282   7.467064
    33  H    5.388639   5.901069   6.093812   6.851672   7.795698
    34  H    4.552113   5.307140   4.996626   5.882118   6.415503
    35  H    4.268209   4.354661   3.378939   3.896626   4.112221
                    6          7          8          9         10
     6  S    0.000000
     7  C    1.811972   0.000000
     8  O    1.481557   2.778007   0.000000
     9  O    1.483134   2.742741   2.534101   0.000000
    10  C    3.311286   2.557966   4.704058   3.543709   0.000000
    11  C    4.416301   3.987461   5.765752   4.555842   1.550075
    12  C    5.639249   4.902876   6.900850   5.969234   2.614970
    13  C    6.562408   5.575884   7.879911   6.787752   3.298861
    14  C    7.787802   6.697339   9.037036   8.121673   4.594819
    15  C    8.204908   7.201243   9.336369   8.706654   5.242454
    16  C    7.498242   6.704051   8.538330   8.096146   4.846682
    17  C    6.214150   5.580776   7.301286   6.754813   3.638130
    18  O    5.425822   3.792265   6.357142   6.214991   3.348496
    19  O    4.661581   3.105429   5.045571   5.831805   4.308939
    20  H    6.396848   5.265982   7.044063   7.476659   4.742012
    21  H    6.850321   5.463465   7.317930   8.025058   5.583122
    22  H    5.932549   4.923476   6.216788   7.237794   5.262817
    23  H    2.462501   3.229826   3.485182   2.861857   2.705357
    24  H    2.417799   2.943871   2.826531   3.581143   3.471889
    25  H    2.462312   1.092335   3.497643   2.869357   2.659530
    26  H    2.415603   1.089842   2.830905   3.583063   3.456395
    27  H    3.009653   2.640840   4.487090   2.796472   1.096940
    28  H    4.014619   2.820814   5.357316   4.253410   1.094570
    29  H    4.236506   4.196256   5.468631   4.444531   2.181206
    30  H    4.925078   4.632166   6.346304   4.733064   2.143735
    31  H    6.503694   5.480281   7.891778   6.544335   3.201358
    32  H    8.567027   7.373727   9.843179   8.832303   5.324032
    33  H    9.232576   8.174078  10.326632   9.773147   6.298962
    34  H    8.091539   7.383042   9.012518   8.788808   5.707018
    35  H    5.856839   5.483837   6.821584   6.479875   3.797360
                   11         12         13         14         15
    11  C    0.000000
    12  C    1.517099   0.000000
    13  C    2.536211   1.403374   0.000000
    14  C    3.827143   2.438694   1.396689   0.000000
    15  C    4.340950   2.824103   2.421570   1.397514   0.000000
    16  C    3.835244   2.438809   2.785005   2.412855   1.396784
    17  C    2.546873   1.402692   2.406137   2.785948   2.422722
    18  O    4.030435   3.628286   3.593421   4.040658   4.480053
    19  O    5.378510   5.436514   5.826271   6.395240   6.605396
    20  H    4.736075   3.937346   4.432020   4.424507   3.915061
    21  H    5.982304   5.322590   5.572025   5.528424   5.229403
    22  H    5.607598   5.218277   5.897333   6.107416   5.683122
    23  H    2.870485   4.106424   5.324706   6.517744   6.734169
    24  H    3.932906   4.782372   6.001970   7.009476   7.021953
    25  H    4.204007   5.129637   5.566848   6.721760   7.417206
    26  H    4.822795   5.542728   6.194048   7.181200   7.577572
    27  H    2.152663   3.471178   4.063856   5.427813   6.179635
    28  H    2.180236   2.736698   2.958502   4.173251   4.998680
    29  H    1.096756   2.142522   3.411367   4.568160   4.813282
    30  H    1.097531   2.126736   2.735997   4.071290   4.778197
    31  H    2.731453   2.157135   1.088244   2.151783   3.403646
    32  H    4.689682   3.418749   2.154147   1.087344   2.158653
    33  H    5.427472   3.910657   3.407381   2.159665   1.086555
    34  H    4.700107   3.417714   3.871580   3.400687   2.158003
    35  H    2.746666   2.153852   3.392670   3.872577   3.404369
                   16         17         18         19         20
    16  C    0.000000
    17  C    1.398469   0.000000
    18  O    4.509379   4.109326   0.000000
    19  O    6.271258   5.686984   2.481213   0.000000
    20  H    3.336446   3.347490   2.885117   3.577985   0.000000
    21  H    4.960472   5.008101   2.859837   2.843505   1.791755
    22  H    4.974775   4.715325   3.580115   2.898196   1.792824
    23  H    5.825500   4.451068   5.401004   5.442448   5.650318
    24  H    6.020351   4.810827   5.084894   4.440847   4.898068
    25  H    7.105572   6.020505   3.869856   3.517086   5.855800
    26  H    7.065767   6.056887   3.803368   2.405114   5.107340
    27  H    5.814208   4.563677   4.271878   5.015932   5.820366
    28  H    4.875367   3.881970   2.657473   4.012464   4.633786
    29  H    4.014707   2.625472   4.722493   5.724413   4.906362
    30  H    4.456837   3.280316   4.817133   6.288975   5.755246
    31  H    3.873194   3.394871   3.781839   6.016227   5.220746
    32  H    3.400865   3.873249   4.509053   6.962207   5.206647
    33  H    2.159560   3.409001   5.194379   7.300968   4.417712
    34  H    1.086625   2.154343   5.240989   6.756771   3.469993
    35  H    2.154152   1.086643   4.619962   5.766814   3.485485
                   21         22         23         24         25
    21  H    0.000000
    22  H    1.790074   0.000000
    23  H    6.716448   5.659065   0.000000
    24  H    5.728974   4.400837   1.798422   0.000000
    25  H    5.946982   5.689607   3.926108   3.966390   0.000000
    26  H    5.006475   4.446986   3.975433   3.192254   1.798903
    27  H    6.591989   6.224702   2.711523   3.800290   2.512958
    28  H    5.252171   5.287181   3.777171   4.324020   2.624285
    29  H    6.286433   5.606690   2.188467   3.366320   4.628362
    30  H    6.975629   6.690928   3.427852   4.782110   4.655645
    31  H    6.154276   6.559828   5.522516   6.347763   5.264897
    32  H    6.081631   6.888681   7.448484   7.966159   7.267952
    33  H    5.588035   6.205334   7.782100   7.983390   8.385153
    34  H    5.133475   5.005472   6.341903   6.360177   7.890836
    35  H    5.211346   4.535953   3.901966   4.154280   6.086415
                   26         27         28         29         30
    26  H    0.000000
    27  H    3.696930   0.000000
    28  H    3.578947   1.758105   0.000000
    29  H    4.995996   2.632629   3.067440   0.000000
    30  H    5.573280   2.276582   2.633573   1.749342   0.000000
    31  H    6.182549   3.749456   2.677492   3.762925   2.626070
    32  H    7.846274   6.079955   4.743136   5.521225   4.794256
    33  H    8.482186   7.245288   5.997419   5.879192   5.841427
    34  H    7.655542   6.685370   5.814931   4.690193   5.369950
    35  H    5.929098   4.661321   4.290836   2.383159   3.569012
                   31         32         33         34         35
    31  H    0.000000
    32  H    2.471536   0.000000
    33  H    4.300988   2.490504   0.000000
    34  H    4.959769   4.303509   2.491196   0.000000
    35  H    4.295331   4.959883   4.302950   2.474143   0.000000
 Symmetry turned off by external request.
 Stoichiometry    C12H16NO4S2(1-)
 Framework group  C1[X(C12H16NO4S2)]
 Deg. of freedom    99
 Full point group                 C1      NOp   1
 Rotational constants (GHZ):           0.5322688           0.2126268           0.1741632
 Leave Link  202 at Tue Sep 22 01:46:06 2020, MaxMem=  2147483648 cpu:               0.0 elap:               0.0
 (Enter /prod/apps/gaussian/g16b1/l301.exe)
 Standard basis: 6-31G(d) (6D, 7F)
 Ernie: Thresh=  0.10000D-02 Tol=  0.10000D-05 Strict=F.
   325 basis functions,   644 primitive gaussians,   325 cartesian basis functions
    80 alpha electrons       80 beta electrons
       nuclear repulsion energy      1857.4125803348 Hartrees.
 IExCor=  402 DFT=T Ex+Corr=B3LYP ExCW=0 ScaHFX=  0.200000
 ScaDFX=  0.800000  0.720000  1.000000  0.810000 ScalE2=  1.000000  1.000000
 IRadAn=      5 IRanWt=     -1 IRanGd=            0 ICorTp=0 IEmpDi=  4
 NAtoms=   35 NActive=   35 NUniq=   35 SFac= 1.00D+00 NAtFMM=   60 NAOKFM=F Big=F
 Integral buffers will be    131072 words long.
 Raffenetti 2 integral format.
 Two-electron integral symmetry is turned off.
 Using the following non-standard input for PCM:
 MSTModel=DFT MSTcharged
 --- end of non-standard input.
 MST model for solvation energy: B3LYP parametrization.
 MST cavity parameters:
 ISph   IAn     Re0     Alpha   Atom Type   QCorr
 ------------------------------------------------
   1      6     1.50     1.25      CH3        F
   2     16     1.75     1.25      S          F
   3      7     1.40     1.15      N          T
   4      6     1.50     1.25      C          F
   5      6     1.50     1.25      CH2        F
   6     16     1.75     1.25      S          F
   7      6     1.50     1.25      CH2        F
   8      8     1.40     1.25      O          F
   9      8     1.40     1.25      O          F
  10      6     1.50     1.25      CH2        F
  11      6     1.50     1.25      CH2        F
  12      6     1.50     1.25      C          F
  13      6     1.50     1.25      CH         F
  14      6     1.50     1.25      CH         F
  15      6     1.50     1.25      CH         F
  16      6     1.50     1.25      CH         F
  17      6     1.50     1.25      CH         F
  18      8     1.40     1.25      O          F
  19      8     1.40     1.25      O          F
  20      1     1.20     1.25      CH3        F
  21      1     1.20     1.25      CH3        F
  22      1     1.20     1.25      CH3        F
  23      1     1.20     1.25      CH2        F
  24      1     1.20     1.25      CH2        F
  25      1     1.20     1.25      CH2        F
  26      1     1.20     1.25      CH2        F
  27      1     1.20     1.25      CH2        F
  28      1     1.20     1.25      CH2        F
  29      1     1.20     1.25      CH2        F
  30      1     1.20     1.25      CH2        F
  31      1     1.20     1.25      CH         F
  32      1     1.20     1.25      CH         F
  33      1     1.20     1.25      CH         F
  34      1     1.20     1.25      CH         F
  35      1     1.20     1.25      CH         F
 ------------------------------------------------------------------------------
 Polarizable Continuum Model (PCM)
 =================================
 Model                : PCM.
 Atomic radii         : MST.
 Polarization charges : Total charges.
 Charge compensation  : None.
 Solution method      : On-the-fly selection.
 Cavity type          : Scaled VdW (van der Waals Surface) (Alpha=1.250).
 Cavity algorithm     : GePol (No added spheres)
                        Default sphere list used, NSphG=   35.
                        Lebedev-Laikov grids with approx.  5.0 points / Ang**2.
                        Smoothing algorithm: York/Karplus (Gamma=1.0000).
                        Polarization charges: spherical gaussians, with
                                              point-specific exponents (IZeta= 3).
                        Self-potential: point-specific (ISelfS= 7).
                        Self-field    : sphere-specific E.n sum rule (ISelfD= 2).
 1st derivatives      : Analytical E(r).r(x)/FMM algorithm (CHGder, D1EAlg=3).
                        Cavity 1st derivative terms included.
 Solvent              : Water, Eps=  78.355300 Eps(inf)=   1.777849
 ------------------------------------------------------------------------------
 GePol: Number of generator spheres                  =      35
 GePol: Total number of spheres                      =      35
 GePol: Number of exposed spheres                    =      35 (100.00%)
 GePol: Number of points                             =    2553
 GePol: Average weight of points                     =       0.14
 GePol: Minimum weight of points                     =   0.27D-10
 GePol: Maximum weight of points                     =    0.22001
 GePol: Number of points with low weight             =     160
 GePol: Fraction of low-weight points (<1% of avg)   =       6.27%
 GePol: Cavity surface area                          =    347.134 Ang**2
 GePol: Cavity volume                                =    335.827 Ang**3
 PCM non-electrostatic energy =        -0.0673023173 Hartrees.
 Nuclear repulsion after PCM non-electrostatic terms =     1857.3452780175 Hartrees.
 Leave Link  301 at Tue Sep 22 01:46:06 2020, MaxMem=  2147483648 cpu:               0.3 elap:               0.1
 (Enter /prod/apps/gaussian/g16b1/l302.exe)
 NPDir=0 NMtPBC=     1 NCelOv=     1 NCel=       1 NClECP=     1 NCelD=      1
         NCelK=      1 NCelE2=     1 NClLst=     1 CellRange=     0.0.
 One-electron integrals computed using PRISM.
 NBasis=   325 RedAO= T EigKep=  4.74D-04  NBF=   325
 NBsUse=   325 1.00D-06 EigRej= -1.00D+00 NBFU=   325
 Precomputing XC quadrature grid using
 IXCGrd= 4 IRadAn=           5 IRanWt=          -1 IRanGd=           0 AccXCQ= 0.00D+00.
 Generated NRdTot=       0 NPtTot=           0 NUsed=           0 NTot=          32
 NSgBfM=   323   323   323   323   323 MxSgAt=    35 MxSgA2=    35.
 Leave Link  302 at Tue Sep 22 01:46:07 2020, MaxMem=  2147483648 cpu:               1.8 elap:               0.5
 (Enter /prod/apps/gaussian/g16b1/l303.exe)
 DipDrv:  MaxL=1.
 Leave Link  303 at Tue Sep 22 01:46:07 2020, MaxMem=  2147483648 cpu:               0.1 elap:               0.1
 (Enter /prod/apps/gaussian/g16b1/l401.exe)
 ExpMin= 1.17D-01 ExpMax= 2.19D+04 ExpMxC= 3.30D+03 IAcc=3 IRadAn=         5 AccDes= 0.00D+00
 Harris functional with IExCor=  402 and IRadAn=       5 diagonalized for initial guess.
 HarFok:  IExCor=  402 AccDes= 0.00D+00 IRadAn=         5 IDoV= 1 UseB2=F ITyADJ=14
 ICtDFT=  3500011 ScaDFX=  1.000000  1.000000  1.000000  1.000000
 FoFCou: FMM=F IPFlag=           0 FMFlag=      100000 FMFlg1=           0
         NFxFlg=           0 DoJE=T BraDBF=F KetDBF=T FulRan=T
         wScrn=  0.000000 ICntrl=       500 IOpCl=  0 I1Cent=   200000004 NGrid=           0
         NMat0=    1 NMatS0=      1 NMatT0=    0 NMatD0=    1 NMtDS0=    0 NMtDT0=    0
 Symmetry not used in FoFCou.
 Harris En= -1619.14875754029    
 JPrj=0 DoOrth=F DoCkMO=F.
 Leave Link  401 at Tue Sep 22 01:46:10 2020, MaxMem=  2147483648 cpu:              10.7 elap:               2.7
 (Enter /prod/apps/gaussian/g16b1/l502.exe)
 Two-electron integral symmetry not used.
 Closed shell SCF:
 Using DIIS extrapolation, IDIIS=  1040.
 NGot=  2147483648 LenX=  2147267572 LenY=  2147161506
 Requested convergence on RMS density matrix=1.00D-08 within2000 cycles.
 Requested convergence on MAX density matrix=1.00D-06.
 Requested convergence on             energy=1.00D-06.
 No special actions if energy rises.

 Cycle   1  Pass 1  IDiag  1:
 FoFJK:  IHMeth= 1 ICntrl=       0 DoSepK=F KAlg= 0 I1Cent=           0 FoldK=F
 IRaf= 830000000 NMat=       1 IRICut=       1 DoRegI=T DoRafI=F ISym2E= 0 IDoP0=0 IntGTp=1.
 FoFCou: FMM=F IPFlag=           0 FMFlag=      100000 FMFlg1=           0
         NFxFlg=           0 DoJE=F BraDBF=F KetDBF=F FulRan=T
         wScrn=  0.000000 ICntrl=         0 IOpCl=  0 I1Cent=           0 NGrid=           0
         NMat0=    1 NMatS0=      1 NMatT0=    0 NMatD0=    1 NMtDS0=    0 NMtDT0=    0
 Symmetry not used in FoFCou.
 Inv3:  Mode=1 IEnd=    19553427.
 Iteration    1 A*A^-1 deviation from unit magnitude is 3.33D-15 for   1273.
 Iteration    1 A*A^-1 deviation from orthogonality  is 3.94D-15 for   1828    939.
 Iteration    1 A^-1*A deviation from unit magnitude is 3.55D-15 for   2175.
 Iteration    1 A^-1*A deviation from orthogonality  is 9.13D-15 for   2528   2051.
 E= -1618.20855140782    
 DIIS: error= 3.62D-02 at cycle   1 NSaved=   1.
 NSaved= 1 IEnMin= 1 EnMin= -1618.20855140782     IErMin= 1 ErrMin= 3.62D-02
 ErrMax= 3.62D-02  0.00D+00 EMaxC= 1.00D-01 BMatC= 9.48D-01 BMatP= 9.48D-01
 IDIUse=3 WtCom= 6.38D-01 WtEn= 3.62D-01
 Coeff-Com:  0.100D+01
 Coeff-En:   0.100D+01
 Coeff:      0.100D+01
 Gap=     0.197 Goal=   None    Shift=    0.000
 GapD=    0.197 DampG=1.000 DampE=0.500 DampFc=0.5000 IDamp=-1.
 Damping current iteration by 5.00D-01
 RMSDP=7.10D-03 MaxDP=4.98D-01              OVMax= 2.24D-01

 Cycle   2  Pass 1  IDiag  1:
 E= -1618.46601094568     Delta-E=       -0.257459537865 Rises=F Damp=T
 DIIS: error= 1.08D-02 at cycle   2 NSaved=   2.
 NSaved= 2 IEnMin= 2 EnMin= -1618.46601094568     IErMin= 2 ErrMin= 1.08D-02
 ErrMax= 1.08D-02  0.00D+00 EMaxC= 1.00D-01 BMatC= 9.42D-02 BMatP= 9.48D-01
 IDIUse=3 WtCom= 8.92D-01 WtEn= 1.08D-01
 Coeff-Com:  0.189D+00 0.811D+00
 Coeff-En:   0.306D+00 0.694D+00
 Coeff:      0.202D+00 0.798D+00
 Gap=     0.265 Goal=   None    Shift=    0.000
 RMSDP=1.69D-03 MaxDP=1.05D-01 DE=-2.57D-01 OVMax= 1.67D-01

 Cycle   3  Pass 1  IDiag  1:
 E= -1618.95972182075     Delta-E=       -0.493710875066 Rises=F Damp=F
 DIIS: error= 8.30D-03 at cycle   3 NSaved=   3.
 NSaved= 3 IEnMin= 3 EnMin= -1618.95972182075     IErMin= 3 ErrMin= 8.30D-03
 ErrMax= 8.30D-03  0.00D+00 EMaxC= 1.00D-01 BMatC= 4.97D-02 BMatP= 9.42D-02
 IDIUse=3 WtCom= 9.17D-01 WtEn= 8.30D-02
 Coeff-Com:  0.653D-01 0.434D+00 0.501D+00
 Coeff-En:   0.000D+00 0.000D+00 0.100D+01
 Coeff:      0.598D-01 0.398D+00 0.542D+00
 Gap=     0.203 Goal=   None    Shift=    0.000
 RMSDP=9.52D-04 MaxDP=2.75D-02 DE=-4.94D-01 OVMax= 5.89D-02

 Cycle   4  Pass 1  IDiag  1:
 E= -1618.99864059769     Delta-E=       -0.038918776941 Rises=F Damp=F
 DIIS: error= 3.08D-03 at cycle   4 NSaved=   4.
 NSaved= 4 IEnMin= 4 EnMin= -1618.99864059769     IErMin= 4 ErrMin= 3.08D-03
 ErrMax= 3.08D-03  0.00D+00 EMaxC= 1.00D-01 BMatC= 7.52D-03 BMatP= 4.97D-02
 IDIUse=3 WtCom= 9.69D-01 WtEn= 3.08D-02
 Coeff-Com:  0.459D-02 0.768D-01 0.292D+00 0.626D+00
 Coeff-En:   0.000D+00 0.000D+00 0.119D+00 0.881D+00
 Coeff:      0.445D-02 0.744D-01 0.287D+00 0.634D+00
 Gap=     0.194 Goal=   None    Shift=    0.000
 RMSDP=3.37D-04 MaxDP=1.38D-02 DE=-3.89D-02 OVMax= 2.13D-02

 Cycle   5  Pass 1  IDiag  1:
 E= -1619.00461467357     Delta-E=       -0.005974075885 Rises=F Damp=F
 DIIS: error= 9.00D-04 at cycle   5 NSaved=   5.
 NSaved= 5 IEnMin= 5 EnMin= -1619.00461467357     IErMin= 5 ErrMin= 9.00D-04
 ErrMax= 9.00D-04  0.00D+00 EMaxC= 1.00D-01 BMatC= 7.54D-04 BMatP= 7.52D-03
 IDIUse=3 WtCom= 9.91D-01 WtEn= 9.00D-03
 Coeff-Com: -0.154D-02 0.149D-01 0.126D+00 0.357D+00 0.504D+00
 Coeff-En:   0.000D+00 0.000D+00 0.000D+00 0.969D-02 0.990D+00
 Coeff:     -0.153D-02 0.148D-01 0.125D+00 0.354D+00 0.509D+00
 Gap=     0.198 Goal=   None    Shift=    0.000
 RMSDP=1.07D-04 MaxDP=7.84D-03 DE=-5.97D-03 OVMax= 6.60D-03

 Cycle   6  Pass 1  IDiag  1:
 E= -1619.00527130061     Delta-E=       -0.000656627037 Rises=F Damp=F
 DIIS: error= 1.67D-04 at cycle   6 NSaved=   6.
 NSaved= 6 IEnMin= 6 EnMin= -1619.00527130061     IErMin= 6 ErrMin= 1.67D-04
 ErrMax= 1.67D-04  0.00D+00 EMaxC= 1.00D-01 BMatC= 3.50D-05 BMatP= 7.54D-04
 IDIUse=3 WtCom= 9.98D-01 WtEn= 1.67D-03
 Coeff-Com: -0.948D-03 0.225D-02 0.404D-01 0.125D+00 0.251D+00 0.583D+00
 Coeff-En:   0.000D+00 0.000D+00 0.000D+00 0.000D+00 0.000D+00 0.100D+01
 Coeff:     -0.946D-03 0.225D-02 0.403D-01 0.125D+00 0.250D+00 0.583D+00
 Gap=     0.197 Goal=   None    Shift=    0.000
 RMSDP=2.25D-05 MaxDP=1.35D-03 DE=-6.57D-04 OVMax= 1.33D-03

 Cycle   7  Pass 1  IDiag  1:
 E= -1619.00530016210     Delta-E=       -0.000028861489 Rises=F Damp=F
 DIIS: error= 5.22D-05 at cycle   7 NSaved=   7.
 NSaved= 7 IEnMin= 7 EnMin= -1619.00530016210     IErMin= 7 ErrMin= 5.22D-05
 ErrMax= 5.22D-05  0.00D+00 EMaxC= 1.00D-01 BMatC= 2.59D-06 BMatP= 3.50D-05
 IDIUse=1 WtCom= 1.00D+00 WtEn= 0.00D+00
 Coeff-Com: -0.341D-03-0.198D-03 0.938D-02 0.312D-01 0.825D-01 0.287D+00
 Coeff-Com:  0.590D+00
 Coeff:     -0.341D-03-0.198D-03 0.938D-02 0.312D-01 0.825D-01 0.287D+00
 Coeff:      0.590D+00
 Gap=     0.197 Goal=   None    Shift=    0.000
 RMSDP=6.38D-06 MaxDP=3.42D-04 DE=-2.89D-05 OVMax= 2.80D-04

 Cycle   8  Pass 1  IDiag  1:
 E= -1619.00530237465     Delta-E=       -0.000002212549 Rises=F Damp=F
 DIIS: error= 2.69D-05 at cycle   8 NSaved=   8.
 NSaved= 8 IEnMin= 8 EnMin= -1619.00530237465     IErMin= 8 ErrMin= 2.69D-05
 ErrMax= 2.69D-05  0.00D+00 EMaxC= 1.00D-01 BMatC= 2.36D-07 BMatP= 2.59D-06
 IDIUse=1 WtCom= 1.00D+00 WtEn= 0.00D+00
 Coeff-Com: -0.114D-03-0.265D-03 0.198D-02 0.731D-02 0.253D-01 0.108D+00
 Coeff-Com:  0.304D+00 0.554D+00
 Coeff:     -0.114D-03-0.265D-03 0.198D-02 0.731D-02 0.253D-01 0.108D+00
 Coeff:      0.304D+00 0.554D+00
 Gap=     0.197 Goal=   None    Shift=    0.000
 RMSDP=1.94D-06 MaxDP=1.01D-04 DE=-2.21D-06 OVMax= 1.53D-04

 Cycle   9  Pass 1  IDiag  1:
 E= -1619.00530251032     Delta-E=       -0.000000135671 Rises=F Damp=F
 DIIS: error= 1.49D-05 at cycle   9 NSaved=   9.
 NSaved= 9 IEnMin= 9 EnMin= -1619.00530251032     IErMin= 9 ErrMin= 1.49D-05
 ErrMax= 1.49D-05  0.00D+00 EMaxC= 1.00D-01 BMatC= 6.68D-08 BMatP= 2.36D-07
 IDIUse=1 WtCom= 1.00D+00 WtEn= 0.00D+00
 Coeff-Com: -0.168D-04-0.123D-03-0.356D-03-0.716D-03 0.216D-02 0.203D-01
 Coeff-Com:  0.967D-01 0.370D+00 0.512D+00
 Coeff:     -0.168D-04-0.123D-03-0.356D-03-0.716D-03 0.216D-02 0.203D-01
 Coeff:      0.967D-01 0.370D+00 0.512D+00
 Gap=     0.197 Goal=   None    Shift=    0.000
 RMSDP=7.61D-07 MaxDP=4.40D-05 DE=-1.36D-07 OVMax= 5.87D-05

 Cycle  10  Pass 1  IDiag  1:
 E= -1619.00530256090     Delta-E=       -0.000000050582 Rises=F Damp=F
 DIIS: error= 1.20D-06 at cycle  10 NSaved=  10.
 NSaved=10 IEnMin=10 EnMin= -1619.00530256090     IErMin=10 ErrMin= 1.20D-06
 ErrMax= 1.20D-06  0.00D+00 EMaxC= 1.00D-01 BMatC= 1.32D-09 BMatP= 6.68D-08
 IDIUse=1 WtCom= 1.00D+00 WtEn= 0.00D+00
 Coeff-Com: -0.432D-05-0.313D-04-0.257D-03-0.657D-03-0.244D-03 0.355D-02
 Coeff-Com:  0.281D-01 0.134D+00 0.221D+00 0.614D+00
 Coeff:     -0.432D-05-0.313D-04-0.257D-03-0.657D-03-0.244D-03 0.355D-02
 Coeff:      0.281D-01 0.134D+00 0.221D+00 0.614D+00
 Gap=     0.197 Goal=   None    Shift=    0.000
 RMSDP=1.51D-07 MaxDP=5.30D-06 DE=-5.06D-08 OVMax= 6.04D-06

 Cycle  11  Pass 1  IDiag  1:
 E= -1619.00530256186     Delta-E=       -0.000000000955 Rises=F Damp=F
 DIIS: error= 4.64D-07 at cycle  11 NSaved=  11.
 NSaved=11 IEnMin=11 EnMin= -1619.00530256186     IErMin=11 ErrMin= 4.64D-07
 ErrMax= 4.64D-07  0.00D+00 EMaxC= 1.00D-01 BMatC= 2.25D-10 BMatP= 1.32D-09
 IDIUse=1 WtCom= 1.00D+00 WtEn= 0.00D+00
 Coeff-Com: -0.177D-05-0.793D-06-0.109D-03-0.285D-03-0.423D-03-0.580D-03
 Coeff-Com:  0.370D-02 0.283D-01 0.575D-01 0.321D+00 0.591D+00
 Coeff:     -0.177D-05-0.793D-06-0.109D-03-0.285D-03-0.423D-03-0.580D-03
 Coeff:      0.370D-02 0.283D-01 0.575D-01 0.321D+00 0.591D+00
 Gap=     0.197 Goal=   None    Shift=    0.000
 RMSDP=5.71D-08 MaxDP=2.31D-06 DE=-9.55D-10 OVMax= 2.57D-06

 Cycle  12  Pass 1  IDiag  1:
 E= -1619.00530256204     Delta-E=       -0.000000000186 Rises=F Damp=F
 DIIS: error= 2.18D-07 at cycle  12 NSaved=  12.
 NSaved=12 IEnMin=12 EnMin= -1619.00530256204     IErMin=12 ErrMin= 2.18D-07
 ErrMax= 2.18D-07  0.00D+00 EMaxC= 1.00D-01 BMatC= 3.20D-11 BMatP= 2.25D-10
 IDIUse=1 WtCom= 1.00D+00 WtEn= 0.00D+00
 Coeff-Com: -0.102D-05 0.296D-05-0.437D-04-0.111D-03-0.231D-03-0.671D-03
 Coeff-Com: -0.294D-03 0.459D-02 0.139D-01 0.135D+00 0.349D+00 0.498D+00
 Coeff:     -0.102D-05 0.296D-05-0.437D-04-0.111D-03-0.231D-03-0.671D-03
 Coeff:     -0.294D-03 0.459D-02 0.139D-01 0.135D+00 0.349D+00 0.498D+00
 Gap=     0.197 Goal=   None    Shift=    0.000
 RMSDP=1.96D-08 MaxDP=7.52D-07 DE=-1.86D-10 OVMax= 1.20D-06

 Cycle  13  Pass 1  IDiag  1:
 E= -1619.00530256206     Delta-E=       -0.000000000014 Rises=F Damp=F
 DIIS: error= 8.86D-08 at cycle  13 NSaved=  13.
 NSaved=13 IEnMin=13 EnMin= -1619.00530256206     IErMin=13 ErrMin= 8.86D-08
 ErrMax= 8.86D-08  0.00D+00 EMaxC= 1.00D-01 BMatC= 2.00D-12 BMatP= 3.20D-11
 IDIUse=1 WtCom= 1.00D+00 WtEn= 0.00D+00
 Coeff-Com: -0.416D-06 0.177D-05-0.120D-04-0.291D-04-0.798D-04-0.307D-03
 Coeff-Com: -0.606D-03-0.862D-03 0.563D-03 0.321D-01 0.112D+00 0.253D+00
 Coeff-Com:  0.605D+00
 Coeff:     -0.416D-06 0.177D-05-0.120D-04-0.291D-04-0.798D-04-0.307D-03
 Coeff:     -0.606D-03-0.862D-03 0.563D-03 0.321D-01 0.112D+00 0.253D+00
 Coeff:      0.605D+00
 Gap=     0.197 Goal=   None    Shift=    0.000
 RMSDP=5.02D-09 MaxDP=2.88D-07 DE=-1.41D-11 OVMax= 1.99D-07

 Error on total polarization charges =  0.01870
 SCF Done:  E(RB3LYP) =  -1619.00530256     A.U. after   13 cycles
            NFock= 13  Conv=0.50D-08     -V/T= 2.0067
 KE= 1.608281839762D+03 PE=-7.545615840834D+03 EE= 2.460983420493D+03
 Leave Link  502 at Tue Sep 22 01:47:39 2020, MaxMem=  2147483648 cpu:             357.6 elap:              89.5
 (Enter /prod/apps/gaussian/g16b1/l601.exe)
 Copying SCF densities to generalized density rwf, IOpCl= 0 IROHF=0.

 **********************************************************************

            Population analysis using the SCF Density.

 **********************************************************************

 Alpha  occ. eigenvalues --  -89.08568 -89.07167 -19.14526 -19.14380 -19.10160
 Alpha  occ. eigenvalues --  -19.10108 -14.27943 -10.24588 -10.21229 -10.20917
 Alpha  occ. eigenvalues --  -10.19555 -10.19302 -10.18713 -10.18701 -10.18552
 Alpha  occ. eigenvalues --  -10.18440 -10.18421 -10.18390 -10.18071  -8.11659
 Alpha  occ. eigenvalues --   -8.09603  -6.08123  -6.08011  -6.07887  -6.06059
 Alpha  occ. eigenvalues --   -6.06044  -6.05946  -1.09398  -1.05761  -0.99168
 Alpha  occ. eigenvalues --   -0.94180  -0.88930  -0.85078  -0.82235  -0.78010
 Alpha  occ. eigenvalues --   -0.73986  -0.73880  -0.72187  -0.70554  -0.65823
 Alpha  occ. eigenvalues --   -0.61570  -0.59926  -0.57461  -0.57257  -0.53057
 Alpha  occ. eigenvalues --   -0.50620  -0.49503  -0.48854  -0.48224  -0.45674
 Alpha  occ. eigenvalues --   -0.45392  -0.45110  -0.44588  -0.44292  -0.43224
 Alpha  occ. eigenvalues --   -0.42832  -0.42637  -0.41423  -0.41020  -0.39997
 Alpha  occ. eigenvalues --   -0.39523  -0.38531  -0.37523  -0.35990  -0.35033
 Alpha  occ. eigenvalues --   -0.33806  -0.33138  -0.33033  -0.32615  -0.31588
 Alpha  occ. eigenvalues --   -0.31260  -0.29885  -0.29161  -0.28350  -0.27244
 Alpha  occ. eigenvalues --   -0.26640  -0.25026  -0.24486  -0.23562  -0.19788
 Alpha virt. eigenvalues --   -0.00081   0.00240   0.05299   0.05811   0.06453
 Alpha virt. eigenvalues --    0.06969   0.09843   0.10490   0.11641   0.11985
 Alpha virt. eigenvalues --    0.12544   0.13127   0.13495   0.14104   0.14668
 Alpha virt. eigenvalues --    0.14893   0.15963   0.16096   0.16900   0.17394
 Alpha virt. eigenvalues --    0.17539   0.18817   0.19155   0.19599   0.20187
 Alpha virt. eigenvalues --    0.21108   0.21739   0.22465   0.24553   0.26211
 Alpha virt. eigenvalues --    0.27594   0.30665   0.31107   0.31959   0.33258
 Alpha virt. eigenvalues --    0.34358   0.35182   0.36153   0.36425   0.39230
 Alpha virt. eigenvalues --    0.40298   0.43531   0.44577   0.45085   0.46303
 Alpha virt. eigenvalues --    0.47934   0.50109   0.51631   0.53426   0.54242
 Alpha virt. eigenvalues --    0.54465   0.54964   0.55636   0.56095   0.56980
 Alpha virt. eigenvalues --    0.58090   0.59240   0.59883   0.60328   0.61008
 Alpha virt. eigenvalues --    0.61267   0.61714   0.61952   0.62486   0.64572
 Alpha virt. eigenvalues --    0.64643   0.65584   0.66912   0.68478   0.70435
 Alpha virt. eigenvalues --    0.72659   0.74071   0.74691   0.76108   0.77267
 Alpha virt. eigenvalues --    0.78006   0.79748   0.80798   0.81555   0.82039
 Alpha virt. eigenvalues --    0.82641   0.83211   0.83763   0.84584   0.84989
 Alpha virt. eigenvalues --    0.86271   0.86971   0.87191   0.87914   0.88874
 Alpha virt. eigenvalues --    0.89330   0.89722   0.91075   0.91125   0.91751
 Alpha virt. eigenvalues --    0.92838   0.93492   0.93870   0.94487   0.95181
 Alpha virt. eigenvalues --    0.95744   0.96466   0.98552   1.00000   1.00812
 Alpha virt. eigenvalues --    1.01833   1.02363   1.04184   1.04909   1.05931
 Alpha virt. eigenvalues --    1.06353   1.08221   1.09613   1.10445   1.12135
 Alpha virt. eigenvalues --    1.12316   1.14638   1.15660   1.17229   1.17426
 Alpha virt. eigenvalues --    1.17902   1.19373   1.20741   1.22638   1.24907
 Alpha virt. eigenvalues --    1.26052   1.28609   1.28719   1.30127   1.31536
 Alpha virt. eigenvalues --    1.35924   1.37125   1.42633   1.43545   1.44061
 Alpha virt. eigenvalues --    1.45489   1.46858   1.48826   1.49586   1.51864
 Alpha virt. eigenvalues --    1.52119   1.53595   1.57882   1.62607   1.64554
 Alpha virt. eigenvalues --    1.68352   1.71392   1.71856   1.73460   1.75747
 Alpha virt. eigenvalues --    1.76643   1.78074   1.78580   1.79414   1.79965
 Alpha virt. eigenvalues --    1.80828   1.80915   1.81745   1.82118   1.83969
 Alpha virt. eigenvalues --    1.84008   1.85411   1.85884   1.87233   1.87659
 Alpha virt. eigenvalues --    1.88582   1.90181   1.91267   1.92474   1.93412
 Alpha virt. eigenvalues --    1.94307   1.97366   1.98437   2.01808   2.03407
 Alpha virt. eigenvalues --    2.04291   2.04579   2.05367   2.06515   2.08683
 Alpha virt. eigenvalues --    2.10046   2.12645   2.13890   2.14300   2.14805
 Alpha virt. eigenvalues --    2.15437   2.16606   2.18272   2.18461   2.20427
 Alpha virt. eigenvalues --    2.20588   2.20957   2.22142   2.27032   2.27469
 Alpha virt. eigenvalues --    2.28105   2.30218   2.30975   2.31635   2.32886
 Alpha virt. eigenvalues --    2.34058   2.38843   2.41236   2.42542   2.44824
 Alpha virt. eigenvalues --    2.50140   2.54108   2.58332   2.58905   2.61004
 Alpha virt. eigenvalues --    2.65584   2.69662   2.70728   2.72226   2.73815
 Alpha virt. eigenvalues --    2.74291   2.74838   2.75911   2.77156   2.79561
 Alpha virt. eigenvalues --    2.81279   2.82349   2.89749   2.92641   3.05691
 Alpha virt. eigenvalues --    3.40808   3.80026   3.83197   3.88080   3.95731
 Alpha virt. eigenvalues --    3.99669   4.01606   4.09786   4.10484   4.13110
 Alpha virt. eigenvalues --    4.16058   4.20234   4.24941   4.26748   4.33377
 Alpha virt. eigenvalues --    4.34407   4.44301   4.54449   4.69843   4.77036
          Condensed to atoms (all electrons):
               1          2          3          4          5          6
     1  C    5.626825   0.162159  -0.070082   0.005295  -0.000181   0.000014
     2  S    0.162159  13.756941   0.292173  -0.024522  -0.000976   0.000646
     3  N   -0.070082   0.292173   7.459247   0.339143  -0.063970   0.002938
     4  C    0.005295  -0.024522   0.339143   4.779302   0.334460  -0.087307
     5  C   -0.000181  -0.000976  -0.063970   0.334460   5.766140   0.127670
     6  S    0.000014   0.000646   0.002938  -0.087307   0.127670  13.914287
     7  C   -0.000276  -0.016045  -0.049220   0.310351  -0.180108   0.134434
     8  O   -0.000000  -0.000053  -0.000165   0.002672  -0.046160   0.423886
     9  O   -0.000000  -0.000008  -0.000033   0.001293  -0.045612   0.399167
    10  C   -0.000259  -0.008441  -0.074533   0.344118  -0.069876   0.011522
    11  C    0.000023  -0.001043   0.002670  -0.029543  -0.008266  -0.000193
    12  C   -0.000223   0.001841   0.000134  -0.003600  -0.000182  -0.000011
    13  C    0.000035   0.000551  -0.000302  -0.000261  -0.000007   0.000001
    14  C    0.000015  -0.000021  -0.000003  -0.000001   0.000000  -0.000000
    15  C   -0.000103   0.000058   0.000022   0.000001   0.000000  -0.000000
    16  C   -0.000817  -0.000031  -0.000267  -0.000009   0.000001   0.000000
    17  C   -0.001005   0.001788   0.002459   0.000577   0.000039   0.000001
    18  O   -0.060551   0.392420  -0.062496  -0.001056  -0.000058  -0.000003
    19  O   -0.061629   0.388768  -0.061496  -0.007645  -0.000189   0.000206
    20  H    0.332833  -0.001348  -0.000413  -0.000050   0.000006  -0.000001
    21  H    0.348319  -0.012123   0.003242  -0.000097   0.000001  -0.000000
    22  H    0.338083  -0.000584   0.000889  -0.000081  -0.000012   0.000001
    23  H    0.000002  -0.000005   0.001677  -0.021986   0.338081  -0.010514
    24  H   -0.000056   0.000927   0.006233  -0.022227   0.318199   0.000671
    25  H    0.000001   0.000023   0.001814  -0.022751   0.010186  -0.011973
    26  H   -0.000050   0.001628  -0.005318  -0.022512   0.001996   0.000606
    27  H    0.000002   0.000537   0.004767  -0.029770  -0.004627   0.007329
    28  H    0.000046   0.002698  -0.005262  -0.027233   0.005177  -0.000381
    29  H   -0.000001   0.000003   0.000131  -0.007562   0.002970   0.000065
    30  H   -0.000000   0.000046   0.000093   0.004178   0.000172  -0.000024
    31  H   -0.000000   0.000030   0.000007   0.000057   0.000000  -0.000000
    32  H    0.000000  -0.000001  -0.000000   0.000000   0.000000   0.000000
    33  H   -0.000000   0.000000   0.000000  -0.000000  -0.000000  -0.000000
    34  H   -0.000016  -0.000003  -0.000006   0.000001  -0.000000  -0.000000
    35  H   -0.000017   0.000171   0.001878  -0.000045   0.000040   0.000004
               7          8          9         10         11         12
     1  C   -0.000276  -0.000000  -0.000000  -0.000259   0.000023  -0.000223
     2  S   -0.016045  -0.000053  -0.000008  -0.008441  -0.001043   0.001841
     3  N   -0.049220  -0.000165  -0.000033  -0.074533   0.002670   0.000134
     4  C    0.310351   0.002672   0.001293   0.344118  -0.029543  -0.003600
     5  C   -0.180108  -0.046160  -0.045612  -0.069876  -0.008266  -0.000182
     6  S    0.134434   0.423886   0.399167   0.011522  -0.000193  -0.000011
     7  C    5.791481  -0.045998  -0.045238  -0.064671   0.004723   0.000015
     8  O   -0.045998   8.286539  -0.046014  -0.000100   0.000000   0.000000
     9  O   -0.045238  -0.046014   8.323004  -0.002828  -0.000005  -0.000001
    10  C   -0.064671  -0.000100  -0.002828   5.209779   0.331284  -0.029412
    11  C    0.004723   0.000000  -0.000005   0.331284   5.172877   0.357881
    12  C    0.000015   0.000000  -0.000001  -0.029412   0.357881   4.636676
    13  C   -0.000006  -0.000000   0.000000  -0.005722  -0.063120   0.538070
    14  C   -0.000000   0.000000   0.000000   0.000058   0.006283  -0.019695
    15  C    0.000000   0.000000  -0.000000   0.000011   0.000277  -0.034180
    16  C   -0.000000  -0.000000   0.000000  -0.000135   0.007067  -0.022076
    17  C    0.000002  -0.000000   0.000000  -0.000154  -0.052178   0.544150
    18  O   -0.001365  -0.000000  -0.000000  -0.000249  -0.000580   0.000203
    19  O    0.000155   0.000000  -0.000000  -0.000226   0.000004  -0.000002
    20  H    0.000002   0.000000   0.000000  -0.000002  -0.000006   0.000049
    21  H    0.000009   0.000000   0.000000   0.000004   0.000000   0.000000
    22  H    0.000003  -0.000000  -0.000000   0.000006  -0.000000  -0.000001
    23  H    0.009233   0.000697   0.000030  -0.006177   0.001202   0.000188
    24  H    0.003914  -0.000392   0.001111   0.005254  -0.000043  -0.000007
    25  H    0.339518   0.000745  -0.000504  -0.004257   0.000103  -0.000003
    26  H    0.322297  -0.000035   0.001041   0.003892  -0.000085   0.000000
    27  H   -0.004429   0.000027   0.006247   0.339787  -0.031855   0.003599
    28  H   -0.006731   0.000001   0.000071   0.359578  -0.038659  -0.005894
    29  H    0.000211   0.000001  -0.000001  -0.039922   0.360669  -0.033163
    30  H   -0.000116  -0.000000  -0.000003  -0.033721   0.361074  -0.032541
    31  H    0.000002   0.000000  -0.000000   0.001144  -0.008962  -0.045171
    32  H    0.000000  -0.000000  -0.000000  -0.000000  -0.000168   0.003563
    33  H    0.000000   0.000000  -0.000000   0.000000   0.000006   0.000618
    34  H   -0.000000  -0.000000   0.000000   0.000001  -0.000167   0.003655
    35  H    0.000007   0.000000   0.000000   0.000079  -0.010490  -0.042057
              13         14         15         16         17         18
     1  C    0.000035   0.000015  -0.000103  -0.000817  -0.001005  -0.060551
     2  S    0.000551  -0.000021   0.000058  -0.000031   0.001788   0.392420
     3  N   -0.000302  -0.000003   0.000022  -0.000267   0.002459  -0.062496
     4  C   -0.000261  -0.000001   0.000001  -0.000009   0.000577  -0.001056
     5  C   -0.000007   0.000000   0.000000   0.000001   0.000039  -0.000058
     6  S    0.000001  -0.000000  -0.000000   0.000000   0.000001  -0.000003
     7  C   -0.000006  -0.000000   0.000000  -0.000000   0.000002  -0.001365
     8  O   -0.000000   0.000000   0.000000  -0.000000  -0.000000  -0.000000
     9  O    0.000000   0.000000  -0.000000   0.000000   0.000000  -0.000000
    10  C   -0.005722   0.000058   0.000011  -0.000135  -0.000154  -0.000249
    11  C   -0.063120   0.006283   0.000277   0.007067  -0.052178  -0.000580
    12  C    0.538070  -0.019695  -0.034180  -0.022076   0.544150   0.000203
    13  C    5.002720   0.518748  -0.037834  -0.047420  -0.040687   0.001871
    14  C    0.518748   4.899976   0.543248  -0.029541  -0.046757  -0.000145
    15  C   -0.037834   0.543248   4.889802   0.544384  -0.037833  -0.000017
    16  C   -0.047420  -0.029541   0.544384   4.910323   0.509069   0.000041
    17  C   -0.040687  -0.046757  -0.037833   0.509069   4.997631  -0.000460
    18  O    0.001871  -0.000145  -0.000017   0.000041  -0.000460   8.439760
    19  O    0.000000  -0.000000   0.000000  -0.000000   0.000000  -0.064087
    20  H   -0.000121  -0.000074   0.000394   0.003674   0.002519  -0.000685
    21  H   -0.000001  -0.000001   0.000001   0.000000   0.000013  -0.000239
    22  H   -0.000000   0.000000   0.000000   0.000007   0.000005   0.002014
    23  H    0.000002  -0.000000   0.000000  -0.000000  -0.000034   0.000001
    24  H    0.000000  -0.000000  -0.000000   0.000000  -0.000001   0.000006
    25  H   -0.000000  -0.000000  -0.000000   0.000000  -0.000000  -0.000020
    26  H    0.000000   0.000000  -0.000000   0.000000   0.000000   0.000074
    27  H    0.000196   0.000003  -0.000000   0.000003  -0.000097   0.000060
    28  H    0.003511  -0.000176  -0.000003  -0.000008   0.000185   0.010287
    29  H    0.004514  -0.000192   0.000004   0.000187  -0.004668  -0.000009
    30  H   -0.005872   0.000044   0.000027  -0.000248   0.002785  -0.000005
    31  H    0.358391  -0.045072   0.004767   0.000276   0.006169  -0.000075
    32  H   -0.039154   0.360535  -0.042514   0.004524   0.000742  -0.000003
    33  H    0.004594  -0.042195   0.362621  -0.042462   0.004544  -0.000000
    34  H    0.000729   0.004513  -0.042648   0.359982  -0.038558   0.000000
    35  H    0.006381   0.000251   0.004775  -0.046681   0.357134  -0.000002
              19         20         21         22         23         24
     1  C   -0.061629   0.332833   0.348319   0.338083   0.000002  -0.000056
     2  S    0.388768  -0.001348  -0.012123  -0.000584  -0.000005   0.000927
     3  N   -0.061496  -0.000413   0.003242   0.000889   0.001677   0.006233
     4  C   -0.007645  -0.000050  -0.000097  -0.000081  -0.021986  -0.022227
     5  C   -0.000189   0.000006   0.000001  -0.000012   0.338081   0.318199
     6  S    0.000206  -0.000001  -0.000000   0.000001  -0.010514   0.000671
     7  C    0.000155   0.000002   0.000009   0.000003   0.009233   0.003914
     8  O    0.000000   0.000000   0.000000  -0.000000   0.000697  -0.000392
     9  O   -0.000000   0.000000   0.000000  -0.000000   0.000030   0.001111
    10  C   -0.000226  -0.000002   0.000004   0.000006  -0.006177   0.005254
    11  C    0.000004  -0.000006   0.000000  -0.000000   0.001202  -0.000043
    12  C   -0.000002   0.000049   0.000000  -0.000001   0.000188  -0.000007
    13  C    0.000000  -0.000121  -0.000001  -0.000000   0.000002   0.000000
    14  C   -0.000000  -0.000074  -0.000001   0.000000  -0.000000  -0.000000
    15  C    0.000000   0.000394   0.000001   0.000000   0.000000  -0.000000
    16  C   -0.000000   0.003674   0.000000   0.000007  -0.000000   0.000000
    17  C    0.000000   0.002519   0.000013   0.000005  -0.000034  -0.000001
    18  O   -0.064087  -0.000685  -0.000239   0.002014   0.000001   0.000006
    19  O    8.445629   0.001932   0.000294  -0.000872  -0.000000  -0.000028
    20  H    0.001932   0.510011  -0.021018  -0.023957  -0.000000  -0.000001
    21  H    0.000294  -0.021018   0.508451  -0.021758  -0.000000   0.000001
    22  H   -0.000872  -0.023957  -0.021758   0.509568   0.000000   0.000012
    23  H   -0.000000  -0.000000  -0.000000   0.000000   0.483261  -0.017817
    24  H   -0.000028  -0.000001   0.000001   0.000012  -0.017817   0.494386
    25  H   -0.000420   0.000000  -0.000000  -0.000000  -0.000293  -0.000275
    26  H    0.017229  -0.000006   0.000005   0.000010  -0.000221   0.000145
    27  H    0.000000   0.000000  -0.000000  -0.000000  -0.000287  -0.000039
    28  H   -0.000197   0.000008   0.000001  -0.000004   0.000178  -0.000121
    29  H    0.000000  -0.000000  -0.000000   0.000000   0.005542  -0.000336
    30  H    0.000000   0.000000   0.000000   0.000000  -0.000238   0.000005
    31  H    0.000000  -0.000000   0.000000   0.000000   0.000000  -0.000000
    32  H   -0.000000  -0.000000   0.000000   0.000000   0.000000   0.000000
    33  H    0.000000   0.000000   0.000000  -0.000000   0.000000  -0.000000
    34  H   -0.000000   0.000138  -0.000000   0.000000  -0.000000   0.000000
    35  H    0.000000   0.000038   0.000002   0.000001   0.000035   0.000021
              25         26         27         28         29         30
     1  C    0.000001  -0.000050   0.000002   0.000046  -0.000001  -0.000000
     2  S    0.000023   0.001628   0.000537   0.002698   0.000003   0.000046
     3  N    0.001814  -0.005318   0.004767  -0.005262   0.000131   0.000093
     4  C   -0.022751  -0.022512  -0.029770  -0.027233  -0.007562   0.004178
     5  C    0.010186   0.001996  -0.004627   0.005177   0.002970   0.000172
     6  S   -0.011973   0.000606   0.007329  -0.000381   0.000065  -0.000024
     7  C    0.339518   0.322297  -0.004429  -0.006731   0.000211  -0.000116
     8  O    0.000745  -0.000035   0.000027   0.000001   0.000001  -0.000000
     9  O   -0.000504   0.001041   0.006247   0.000071  -0.000001  -0.000003
    10  C   -0.004257   0.003892   0.339787   0.359578  -0.039922  -0.033721
    11  C    0.000103  -0.000085  -0.031855  -0.038659   0.360669   0.361074
    12  C   -0.000003   0.000000   0.003599  -0.005894  -0.033163  -0.032541
    13  C   -0.000000   0.000000   0.000196   0.003511   0.004514  -0.005872
    14  C   -0.000000   0.000000   0.000003  -0.000176  -0.000192   0.000044
    15  C   -0.000000  -0.000000  -0.000000  -0.000003   0.000004   0.000027
    16  C    0.000000   0.000000   0.000003  -0.000008   0.000187  -0.000248
    17  C   -0.000000   0.000000  -0.000097   0.000185  -0.004668   0.002785
    18  O   -0.000020   0.000074   0.000060   0.010287  -0.000009  -0.000005
    19  O   -0.000420   0.017229   0.000000  -0.000197   0.000000   0.000000
    20  H    0.000000  -0.000006   0.000000   0.000008  -0.000000   0.000000
    21  H   -0.000000   0.000005  -0.000000   0.000001  -0.000000   0.000000
    22  H   -0.000000   0.000010  -0.000000  -0.000004   0.000000   0.000000
    23  H   -0.000293  -0.000221  -0.000287   0.000178   0.005542  -0.000238
    24  H   -0.000275   0.000145  -0.000039  -0.000121  -0.000336   0.000005
    25  H    0.489564  -0.018752  -0.000361   0.003343   0.000014  -0.000016
    26  H   -0.018752   0.471619   0.000144  -0.000100  -0.000002   0.000002
    27  H   -0.000361   0.000144   0.603989  -0.030240   0.000398  -0.007762
    28  H    0.003343  -0.000100  -0.030240   0.562379   0.004546   0.000293
    29  H    0.000014  -0.000002   0.000398   0.004546   0.582105  -0.034048
    30  H   -0.000016   0.000002  -0.007762   0.000293  -0.034048   0.585437
    31  H    0.000000  -0.000000  -0.000162   0.001864   0.000055   0.003264
    32  H    0.000000  -0.000000  -0.000000   0.000005   0.000003  -0.000003
    33  H   -0.000000   0.000000   0.000000  -0.000000  -0.000000  -0.000000
    34  H    0.000000  -0.000000  -0.000000   0.000000  -0.000008   0.000003
    35  H   -0.000000  -0.000000  -0.000012   0.000019   0.006673   0.000096
              31         32         33         34         35
     1  C   -0.000000   0.000000  -0.000000  -0.000016  -0.000017
     2  S    0.000030  -0.000001   0.000000  -0.000003   0.000171
     3  N    0.000007  -0.000000   0.000000  -0.000006   0.001878
     4  C    0.000057   0.000000  -0.000000   0.000001  -0.000045
     5  C    0.000000   0.000000  -0.000000  -0.000000   0.000040
     6  S   -0.000000   0.000000  -0.000000  -0.000000   0.000004
     7  C    0.000002   0.000000   0.000000  -0.000000   0.000007
     8  O    0.000000  -0.000000   0.000000  -0.000000   0.000000
     9  O   -0.000000  -0.000000  -0.000000   0.000000   0.000000
    10  C    0.001144  -0.000000   0.000000   0.000001   0.000079
    11  C   -0.008962  -0.000168   0.000006  -0.000167  -0.010490
    12  C   -0.045171   0.003563   0.000618   0.003655  -0.042057
    13  C    0.358391  -0.039154   0.004594   0.000729   0.006381
    14  C   -0.045072   0.360535  -0.042195   0.004513   0.000251
    15  C    0.004767  -0.042514   0.362621  -0.042648   0.004775
    16  C    0.000276   0.004524  -0.042462   0.359982  -0.046681
    17  C    0.006169   0.000742   0.004544  -0.038558   0.357134
    18  O   -0.000075  -0.000003  -0.000000   0.000000  -0.000002
    19  O    0.000000  -0.000000   0.000000  -0.000000   0.000000
    20  H   -0.000000  -0.000000   0.000000   0.000138   0.000038
    21  H    0.000000   0.000000   0.000000  -0.000000   0.000002
    22  H    0.000000   0.000000  -0.000000   0.000000   0.000001
    23  H    0.000000   0.000000   0.000000  -0.000000   0.000035
    24  H   -0.000000   0.000000  -0.000000   0.000000   0.000021
    25  H    0.000000   0.000000  -0.000000   0.000000  -0.000000
    26  H   -0.000000  -0.000000   0.000000  -0.000000  -0.000000
    27  H   -0.000162  -0.000000   0.000000  -0.000000  -0.000012
    28  H    0.001864   0.000005  -0.000000   0.000000   0.000019
    29  H    0.000055   0.000003  -0.000000  -0.000008   0.006673
    30  H    0.003264  -0.000003  -0.000000   0.000003   0.000096
    31  H    0.587923  -0.005346  -0.000169   0.000017  -0.000167
    32  H   -0.005346   0.577376  -0.005206  -0.000176   0.000016
    33  H   -0.000169  -0.005206   0.578090  -0.005255  -0.000165
    34  H    0.000017  -0.000176  -0.005255   0.577305  -0.005341
    35  H   -0.000167   0.000016  -0.000165  -0.005341   0.587265
 Mulliken charges:
               1
     1  C   -0.618385
     2  S    1.061797
     3  N   -0.725951
     4  C    0.186808
     5  C   -0.484913
     6  S    1.086956
     7  C   -0.502153
     8  O   -0.575649
     9  O   -0.591719
    10  C   -0.265832
    11  C   -0.360780
    12  C    0.177573
    13  C   -0.199807
    14  C   -0.149800
    15  C   -0.155261
    16  C   -0.149841
    17  C   -0.207381
    18  O   -0.654632
    19  O   -0.657427
    20  H    0.196076
    21  H    0.194896
[...]
 Framework group  C1[X(C12H16NO4S2)]
 Deg. of freedom    99
 Full point group                 C1      NOp   1
 RotChk:  IX=0 Diff= 1.23D-15
 Largest Abelian subgroup         C1      NOp   1
 Largest concise Abelian subgroup C1      NOp   1
                         Standard orientation:                         
 ---------------------------------------------------------------------
 Center     Atomic      Atomic             Coordinates (Angstroms)
 Number     Number       Type             X           Y           Z
 ---------------------------------------------------------------------
      1          6           0       -1.346414    2.839488    1.008398
      2         16           0       -0.301284    2.019964   -0.209066
      3          7           0        0.256136    0.810540    0.661277
      4          6           0        1.100488   -0.188090    0.026606
      5          6           0        1.978428   -0.876382    1.142794
      6         16           0        3.474495   -0.664683    0.131570
      7          6           0        2.329717    0.373048   -0.816188
      8          8           0        4.567386    0.074974    0.803916
      9          8           0        3.833500   -1.909760   -0.591196
     10          6           0        0.358211   -1.257175   -0.820203
     11          6           0       -0.688023   -2.126929   -0.077950
     12          6           0       -2.092384   -1.565191    0.039086
     13          6           0       -2.921649   -1.480169   -1.090478
     14          6           0       -4.224902   -0.988680   -0.993248
     15          6           0       -4.729656   -0.576088    0.243343
     16          6           0       -3.919215   -0.662764    1.378176
     17          6           0       -2.614570   -1.154139    1.273497
     18          8           0       -1.195290    1.659322   -1.363712
     19          8           0        0.735156    3.030792   -0.623844
     20          1           0       -2.142684    2.159208    1.314964
     21          1           0       -1.769501    3.724632    0.528092
     22          1           0       -0.741716    3.130971    1.868534
     23          1           0        1.769225   -1.917989    1.390734
     24          1           0        2.051082   -0.266344    2.044524
     25          1           0        2.335750    0.165756   -1.888074
     26          1           0        2.526944    1.426470   -0.620056
     27          1           0        1.114085   -1.932955   -1.240114
     28          1           0       -0.113859   -0.749397   -1.667626
     29          1           0       -0.318708   -2.378676    0.923348
     30          1           0       -0.751780   -3.079235   -0.619902
     31          1           0       -2.542635   -1.806151   -2.056877
     32          1           0       -4.848165   -0.932677   -1.882042
     33          1           0       -5.744620   -0.195983    0.321806
     34          1           0       -4.302297   -0.352481    2.347006
     35          1           0       -1.991639   -1.217611    2.162378
 ---------------------------------------------------------------------
 Rotational constants (GHZ):           0.5322985           0.2126273           0.1741653
 Leave Link  202 at Tue Sep 22 02:16:25 2020, MaxMem=   262144000 cpu:               0.1 elap:               0.0
 (Enter /prod/apps/gaussian/g16b1/l301.exe)
 Standard basis: Aug-CC-pVDZ (5D, 7F)
 Ernie: Thresh=  0.10000D-02 Tol=  0.10000D-05 Strict=F.
 Ernie:  54 primitive shells out of 643 were deleted.
 There are   627 symmetry adapted cartesian basis functions of A   symmetry.
 There are   589 symmetry adapted basis functions of A   symmetry.
   589 basis functions,  1069 primitive gaussians,   627 cartesian basis functions
    80 alpha electrons       80 beta electrons
       nuclear repulsion energy      1857.4449330853 Hartrees.
 IExCor=    0 DFT=F Ex=HF Corr=None ExCW=0 ScaHFX=  1.000000
 ScaDFX=  1.000000  1.000000  1.000000  1.000000 ScalE2=  1.000000  1.000000
 IRadAn=      5 IRanWt=     -1 IRanGd=            0 ICorTp=0 IEmpDi=  4
 NAtoms=   35 NActive=   35 NUniq=   35 SFac= 1.00D+00 NAtFMM=   60 NAOKFM=F Big=F
 Integral buffers will be    131072 words long.
 Raffenetti 1 integral format.
 Two-electron integral symmetry is turned on.
 Leave Link  301 at Tue Sep 22 02:16:25 2020, MaxMem=   262144000 cpu:               0.2 elap:               0.1
 (Enter /prod/apps/gaussian/g16b1/l302.exe)
 NPDir=0 NMtPBC=     1 NCelOv=     1 NCel=       1 NClECP=     1 NCelD=      1
         NCelK=      1 NCelE2=     1 NClLst=     1 CellRange=     0.0.
 One-electron integrals computed using PRISM.
 One-electron integral symmetry used in STVInt
 NBasis=   589 RedAO= T EigKep=  1.82D-06  NBF=   589
 NBsUse=   589 1.00D-06 EigRej= -1.00D+00 NBFU=   589
 Leave Link  302 at Tue Sep 22 02:16:26 2020, MaxMem=   262144000 cpu:               1.7 elap:               0.4
 (Enter /prod/apps/gaussian/g16b1/l303.exe)
 DipDrv:  MaxL=1.
 Leave Link  303 at Tue Sep 22 02:16:26 2020, MaxMem=   262144000 cpu:               0.4 elap:               0.1
 (Enter /prod/apps/gaussian/g16b1/l401.exe)
 ExpMin= 2.97D-02 ExpMax= 1.11D+05 ExpMxC= 1.07D+03 IAcc=3 IRadAn=         5 AccDes= 0.00D+00
 Harris functional with IExCor=  205 and IRadAn=       5 diagonalized for initial guess.
 HarFok:  IExCor=  205 AccDes= 0.00D+00 IRadAn=         5 IDoV= 1 UseB2=F ITyADJ=14
 ICtDFT=  3500011 ScaDFX=  1.000000  1.000000  1.000000  1.000000
 FoFCou: FMM=F IPFlag=           0 FMFlag=      100000 FMFlg1=           0
         NFxFlg=           0 DoJE=T BraDBF=F KetDBF=T FulRan=T
         wScrn=  0.000000 ICntrl=       500 IOpCl=  0 I1Cent=   200000004 NGrid=           0
         NMat0=    1 NMatS0=      1 NMatT0=    0 NMatD0=    1 NMtDS0=    0 NMtDT0=    0
 Petite list used in FoFCou.
 Harris En= -1613.18480283151    
 JPrj=0 DoOrth=F DoCkMO=F.
 Leave Link  401 at Tue Sep 22 02:16:30 2020, MaxMem=   262144000 cpu:              15.7 elap:               3.9
 (Enter /prod/apps/gaussian/g16b1/l502.exe)
 Integral symmetry usage will be decided dynamically.
 Closed shell SCF:
 Using DIIS extrapolation, IDIIS=  1040.
 NGot=   262144000 LenX=   261348123 LenY=   260954367
 Requested convergence on RMS density matrix=1.00D-08 within2000 cycles.
 Requested convergence on MAX density matrix=1.00D-06.
 Requested convergence on             energy=1.00D-06.
 No special actions if energy rises.

 Cycle   1  Pass 1  IDiag  1:
 FoFJK:  IHMeth= 1 ICntrl=       0 DoSepK=F KAlg= 0 I1Cent=           0 FoldK=F
 IRaf= 940000000 NMat=       1 IRICut=       1 DoRegI=T DoRafI=F ISym2E= 0 IDoP0=0 IntGTp=1.
 FoFCou: FMM=F IPFlag=           0 FMFlag=      100000 FMFlg1=           0
         NFxFlg=           0 DoJE=F BraDBF=F KetDBF=F FulRan=T
         wScrn=  0.000000 ICntrl=         0 IOpCl=  0 I1Cent=           0 NGrid=           0
         NMat0=    1 NMatS0=      1 NMatT0=    0 NMatD0=    1 NMtDS0=    0 NMtDT0=    0
 Symmetry not used in FoFCou.
 E= -1611.68829857669    
 DIIS: error= 1.69D-02 at cycle   1 NSaved=   1.
 NSaved= 1 IEnMin= 1 EnMin= -1611.68829857669     IErMin= 1 ErrMin= 1.69D-02
 ErrMax= 1.69D-02  0.00D+00 EMaxC= 1.00D-01 BMatC= 1.35D+00 BMatP= 1.35D+00
 IDIUse=3 WtCom= 8.31D-01 WtEn= 1.69D-01
 Coeff-Com:  0.100D+01
 Coeff-En:   0.100D+01
 Coeff:      0.100D+01
 Gap=     0.452 Goal=   None    Shift=    0.000
 GapD=    0.452 DampG=2.000 DampE=0.500 DampFc=1.0000 IDamp=-1.
 RMSDP=4.58D-02 MaxDP=3.86D+00              OVMax= 1.55D-01

 Cycle   2  Pass 1  IDiag  1:
 E= -1612.39439502857     Delta-E=       -0.706096451879 Rises=F Damp=F
 DIIS: error= 1.01D-02 at cycle   2 NSaved=   2.
 NSaved= 2 IEnMin= 2 EnMin= -1612.39439502857     IErMin= 2 ErrMin= 1.01D-02
 ErrMax= 1.01D-02  0.00D+00 EMaxC= 1.00D-01 BMatC= 3.09D-01 BMatP= 1.35D+00
 IDIUse=3 WtCom= 8.99D-01 WtEn= 1.01D-01
 Coeff-Com:  0.293D+00 0.707D+00
 Coeff-En:   0.000D+00 0.100D+01
 Coeff:      0.263D+00 0.737D+00
 Gap=     0.317 Goal=   None    Shift=    0.000
 RMSDP=5.59D-03 MaxDP=1.20D+00 DE=-7.06D-01 OVMax= 5.94D-02

 Cycle   3  Pass 1  IDiag  1:
 E= -1612.62915718495     Delta-E=       -0.234762156380 Rises=F Damp=F
 DIIS: error= 2.57D-03 at cycle   3 NSaved=   3.
 NSaved= 3 IEnMin= 3 EnMin= -1612.62915718495     IErMin= 3 ErrMin= 2.57D-03
 ErrMax= 2.57D-03  0.00D+00 EMaxC= 1.00D-01 BMatC= 2.13D-02 BMatP= 3.09D-01
 IDIUse=3 WtCom= 9.74D-01 WtEn= 2.57D-02
 Coeff-Com: -0.772D-02 0.181D+00 0.827D+00
 Coeff-En:   0.000D+00 0.000D+00 0.100D+01
 Coeff:     -0.752D-02 0.176D+00 0.832D+00
 Gap=     0.306 Goal=   None    Shift=    0.000
 RMSDP=1.46D-03 MaxDP=3.15D-01 DE=-2.35D-01 OVMax= 1.54D-02

 Cycle   4  Pass 1  IDiag  1:
 E= -1612.64503978695     Delta-E=       -0.015882602001 Rises=F Damp=F
 DIIS: error= 5.13D-04 at cycle   4 NSaved=   4.
 NSaved= 4 IEnMin= 4 EnMin= -1612.64503978695     IErMin= 4 ErrMin= 5.13D-04
 ErrMax= 5.13D-04  0.00D+00 EMaxC= 1.00D-01 BMatC= 1.04D-03 BMatP= 2.13D-02
 IDIUse=3 WtCom= 9.95D-01 WtEn= 5.13D-03
 Coeff-Com: -0.141D-01 0.166D-01 0.224D+00 0.774D+00
 Coeff-En:   0.000D+00 0.000D+00 0.000D+00 0.100D+01
 Coeff:     -0.140D-01 0.165D-01 0.223D+00 0.775D+00
 Gap=     0.301 Goal=   None    Shift=    0.000
 RMSDP=3.81D-04 MaxDP=3.38D-02 DE=-1.59D-02 OVMax= 7.62D-03

 Cycle   5  Pass 1  IDiag  1:
 E= -1612.64618308222     Delta-E=       -0.001143295265 Rises=F Damp=F
 DIIS: error= 2.07D-04 at cycle   5 NSaved=   5.
 NSaved= 5 IEnMin= 5 EnMin= -1612.64618308222     IErMin= 5 ErrMin= 2.07D-04
 ErrMax= 2.07D-04  0.00D+00 EMaxC= 1.00D-01 BMatC= 7.40D-05 BMatP= 1.04D-03
 IDIUse=3 WtCom= 9.98D-01 WtEn= 2.07D-03
 Coeff-Com: -0.152D-03-0.112D-01-0.545D-01 0.653D-01 0.100D+01
 Coeff-En:   0.000D+00 0.000D+00 0.000D+00 0.000D+00 0.100D+01
 Coeff:     -0.152D-03-0.112D-01-0.544D-01 0.652D-01 0.100D+01
 Gap=     0.303 Goal=   None    Shift=    0.000
 RMSDP=1.24D-04 MaxDP=1.19D-02 DE=-1.14D-03 OVMax= 2.50D-03

 Cycle   6  Pass 1  IDiag  1:
 E= -1612.64629996577     Delta-E=       -0.000116883555 Rises=F Damp=F
 DIIS: error= 5.39D-05 at cycle   6 NSaved=   6.
 NSaved= 6 IEnMin= 6 EnMin= -1612.64629996577     IErMin= 6 ErrMin= 5.39D-05
 ErrMax= 5.39D-05  0.00D+00 EMaxC= 1.00D-01 BMatC= 1.08D-05 BMatP= 7.40D-05
 IDIUse=1 WtCom= 1.00D+00 WtEn= 0.00D+00
 Coeff-Com:  0.155D-02-0.541D-02-0.431D-01-0.655D-01 0.264D+00 0.849D+00
 Coeff:      0.155D-02-0.541D-02-0.431D-01-0.655D-01 0.264D+00 0.849D+00
 Gap=     0.303 Goal=   None    Shift=    0.000
 RMSDP=3.57D-05 MaxDP=2.15D-03 DE=-1.17D-04 OVMax= 9.85D-04

 Cycle   7  Pass 1  IDiag  1:
 E= -1612.64631706485     Delta-E=       -0.000017099079 Rises=F Damp=F
 DIIS: error= 2.02D-05 at cycle   7 NSaved=   7.
 NSaved= 7 IEnMin= 7 EnMin= -1612.64631706485     IErMin= 7 ErrMin= 2.02D-05
 ErrMax= 2.02D-05  0.00D+00 EMaxC= 1.00D-01 BMatC= 8.23D-07 BMatP= 1.08D-05
 IDIUse=1 WtCom= 1.00D+00 WtEn= 0.00D+00
 Coeff-Com:  0.242D-03 0.314D-03-0.616D-03-0.136D-01-0.642D-01 0.987D-01
 Coeff-Com:  0.979D+00
 Coeff:      0.242D-03 0.314D-03-0.616D-03-0.136D-01-0.642D-01 0.987D-01
 Coeff:      0.979D+00
 Gap=     0.303 Goal=   None    Shift=    0.000
 RMSDP=1.25D-05 MaxDP=1.21D-03 DE=-1.71D-05 OVMax= 3.68D-04

 Cycle   8  Pass 1  IDiag  1:
 E= -1612.64631892617     Delta-E=       -0.000001861320 Rises=F Damp=F
 DIIS: error= 6.04D-06 at cycle   8 NSaved=   8.
 NSaved= 8 IEnMin= 8 EnMin= -1612.64631892617     IErMin= 8 ErrMin= 6.04D-06
 ErrMax= 6.04D-06  0.00D+00 EMaxC= 1.00D-01 BMatC= 1.08D-07 BMatP= 8.23D-07
 IDIUse=1 WtCom= 1.00D+00 WtEn= 0.00D+00
 Coeff-Com: -0.170D-03 0.699D-03 0.538D-02 0.743D-02-0.356D-01-0.104D+00
 Coeff-Com:  0.283D-01 0.110D+01
 Coeff:     -0.170D-03 0.699D-03 0.538D-02 0.743D-02-0.356D-01-0.104D+00
 Coeff:      0.283D-01 0.110D+01
 Gap=     0.303 Goal=   None    Shift=    0.000
 RMSDP=5.61D-06 MaxDP=4.31D-04 DE=-1.86D-06 OVMax= 1.46D-04

 Cycle   9  Pass 1  IDiag  1:
 E= -1612.64631920680     Delta-E=       -0.000000280629 Rises=F Damp=F
 DIIS: error= 2.91D-06 at cycle   9 NSaved=   9.
 NSaved= 9 IEnMin= 9 EnMin= -1612.64631920680     IErMin= 9 ErrMin= 2.91D-06
 ErrMax= 2.91D-06  0.00D+00 EMaxC= 1.00D-01 BMatC= 1.39D-08 BMatP= 1.08D-07
 IDIUse=1 WtCom= 1.00D+00 WtEn= 0.00D+00
 Coeff-Com: -0.605D-04 0.107D-03 0.111D-02 0.299D-02 0.133D-02-0.299D-01
 Coeff-Com: -0.116D+00 0.205D+00 0.935D+00
 Coeff:     -0.605D-04 0.107D-03 0.111D-02 0.299D-02 0.133D-02-0.299D-01
 Coeff:     -0.116D+00 0.205D+00 0.935D+00
 Gap=     0.303 Goal=   None    Shift=    0.000
 RMSDP=1.99D-06 MaxDP=1.55D-04 DE=-2.81D-07 OVMax= 4.32D-05

 Cycle  10  Pass 1  IDiag  1:
 E= -1612.64631923534     Delta-E=       -0.000000028534 Rises=F Damp=F
 DIIS: error= 6.67D-07 at cycle  10 NSaved=  10.
 NSaved=10 IEnMin=10 EnMin= -1612.64631923534     IErMin=10 ErrMin= 6.67D-07
 ErrMax= 6.67D-07  0.00D+00 EMaxC= 1.00D-01 BMatC= 1.54D-09 BMatP= 1.39D-08
 IDIUse=1 WtCom= 1.00D+00 WtEn= 0.00D+00
 Coeff-Com:  0.425D-05-0.442D-04-0.321D-03-0.241D-03 0.368D-02 0.577D-02
 Coeff-Com: -0.227D-01-0.764D-01 0.173D+00 0.918D+00
 Coeff:      0.425D-05-0.442D-04-0.321D-03-0.241D-03 0.368D-02 0.577D-02
 Coeff:     -0.227D-01-0.764D-01 0.173D+00 0.918D+00
 Gap=     0.303 Goal=   None    Shift=    0.000
 RMSDP=7.66D-07 MaxDP=6.85D-05 DE=-2.85D-08 OVMax= 1.52D-05

 Cycle  11  Pass 1  IDiag  1:
 E= -1612.64631923839     Delta-E=       -0.000000003052 Rises=F Damp=F
 DIIS: error= 2.77D-07 at cycle  11 NSaved=  11.
 NSaved=11 IEnMin=11 EnMin= -1612.64631923839     IErMin=11 ErrMin= 2.77D-07
 ErrMax= 2.77D-07  0.00D+00 EMaxC= 1.00D-01 BMatC= 2.13D-10 BMatP= 1.54D-09
 IDIUse=1 WtCom= 1.00D+00 WtEn= 0.00D+00
 Coeff-Com:  0.873D-05-0.206D-04-0.211D-03-0.484D-03 0.476D-03 0.536D-02
 Coeff-Com:  0.115D-01-0.444D-01-0.910D-01 0.179D+00 0.940D+00
 Coeff:      0.873D-05-0.206D-04-0.211D-03-0.484D-03 0.476D-03 0.536D-02
 Coeff:      0.115D-01-0.444D-01-0.910D-01 0.179D+00 0.940D+00
 Gap=     0.303 Goal=   None    Shift=    0.000
 RMSDP=2.92D-07 MaxDP=2.96D-05 DE=-3.05D-09 OVMax= 5.67D-06

 Cycle  12  Pass 1  IDiag  1:
 E= -1612.64631923873     Delta-E=       -0.000000000343 Rises=F Damp=F
 DIIS: error= 7.99D-08 at cycle  12 NSaved=  12.
 NSaved=12 IEnMin=12 EnMin= -1612.64631923873     IErMin=12 ErrMin= 7.99D-08
 ErrMax= 7.99D-08  0.00D+00 EMaxC= 1.00D-01 BMatC= 2.18D-11 BMatP= 2.13D-10
 IDIUse=1 WtCom= 1.00D+00 WtEn= 0.00D+00
 Coeff-Com:  0.626D-07 0.416D-05 0.231D-04 0.848D-06-0.360D-03-0.392D-03
 Coeff-Com:  0.285D-02 0.655D-02-0.237D-01-0.929D-01 0.517D-01 0.106D+01
 Coeff:      0.626D-07 0.416D-05 0.231D-04 0.848D-06-0.360D-03-0.392D-03
 Coeff:      0.285D-02 0.655D-02-0.237D-01-0.929D-01 0.517D-01 0.106D+01
 Gap=     0.303 Goal=   None    Shift=    0.000
 RMSDP=9.26D-08 MaxDP=6.11D-06 DE=-3.43D-10 OVMax= 3.07D-06

 Cycle  13  Pass 1  IDiag  1:
 E= -1612.64631923883     Delta-E=       -0.000000000102 Rises=F Damp=F
 DIIS: error= 5.09D-08 at cycle  13 NSaved=  13.
 NSaved=13 IEnMin=13 EnMin= -1612.64631923883     IErMin=13 ErrMin= 5.09D-08
 ErrMax= 5.09D-08  0.00D+00 EMaxC= 1.00D-01 BMatC= 3.75D-12 BMatP= 2.18D-11
 IDIUse=1 WtCom= 1.00D+00 WtEn= 0.00D+00
 Coeff-Com: -0.125D-05 0.355D-05 0.335D-04 0.696D-04-0.113D-03-0.823D-03
 Coeff-Com: -0.127D-02 0.720D-02 0.994D-02-0.360D-01-0.127D+00 0.118D+00
 Coeff-Com:  0.103D+01
 Coeff:     -0.125D-05 0.355D-05 0.335D-04 0.696D-04-0.113D-03-0.823D-03
 Coeff:     -0.127D-02 0.720D-02 0.994D-02-0.360D-01-0.127D+00 0.118D+00
 Coeff:      0.103D+01
 Gap=     0.303 Goal=   None    Shift=    0.000
 RMSDP=3.76D-08 MaxDP=5.05D-06 DE=-1.02D-10 OVMax= 1.83D-06

 Cycle  14  Pass 1  IDiag  1:
 E= -1612.64631923882     Delta-E=        0.000000000016 Rises=F Damp=F
 DIIS: error= 2.24D-08 at cycle  14 NSaved=  14.
 NSaved=14 IEnMin=13 EnMin= -1612.64631923883     IErMin=14 ErrMin= 2.24D-08
 ErrMax= 2.24D-08  0.00D+00 EMaxC= 1.00D-01 BMatC= 7.59D-13 BMatP= 3.75D-12
 IDIUse=1 WtCom= 1.00D+00 WtEn= 0.00D+00
 Coeff-Com: -0.144D-06-0.327D-06 0.248D-06 0.701D-05 0.430D-04-0.275D-04
 Coeff-Com: -0.580D-03-0.332D-03 0.508D-02 0.117D-01-0.250D-01-0.156D+00
 Coeff-Com:  0.137D+00 0.103D+01
 Coeff:     -0.144D-06-0.327D-06 0.248D-06 0.701D-05 0.430D-04-0.275D-04
 Coeff:     -0.580D-03-0.332D-03 0.508D-02 0.117D-01-0.250D-01-0.156D+00
 Coeff:      0.137D+00 0.103D+01
 Gap=     0.303 Goal=   None    Shift=    0.000
 RMSDP=1.88D-08 MaxDP=1.32D-06 DE= 1.59D-11 OVMax= 1.01D-06

 Cycle  15  Pass 1  IDiag  1:
 E= -1612.64631923886     Delta-E=       -0.000000000042 Rises=F Damp=F
 DIIS: error= 1.28D-08 at cycle  15 NSaved=  15.
 NSaved=15 IEnMin=15 EnMin= -1612.64631923886     IErMin=15 ErrMin= 1.28D-08
 ErrMax= 1.28D-08  0.00D+00 EMaxC= 1.00D-01 BMatC= 1.67D-13 BMatP= 7.59D-13
 IDIUse=1 WtCom= 1.00D+00 WtEn= 0.00D+00
 Coeff-Com:  0.273D-06-0.862D-06-0.759D-05-0.154D-04 0.302D-04 0.188D-03
 Coeff-Com:  0.248D-03-0.173D-02-0.172D-02 0.947D-02 0.252D-01-0.390D-01
 Coeff-Com: -0.212D+00 0.736D-01 0.115D+01
 Coeff:      0.273D-06-0.862D-06-0.759D-05-0.154D-04 0.302D-04 0.188D-03
 Coeff:      0.248D-03-0.173D-02-0.172D-02 0.947D-02 0.252D-01-0.390D-01
 Coeff:     -0.212D+00 0.736D-01 0.115D+01
 Gap=     0.303 Goal=   None    Shift=    0.000
 RMSDP=1.21D-08 MaxDP=6.74D-07 DE=-4.23D-11 OVMax= 6.29D-07

 Cycle  16  Pass 1  IDiag  1:
 E= -1612.64631923881     Delta-E=        0.000000000048 Rises=F Damp=F
 DIIS: error= 5.52D-09 at cycle  16 NSaved=  16.
 NSaved=16 IEnMin=15 EnMin= -1612.64631923886     IErMin=16 ErrMin= 5.52D-09
 ErrMax= 5.52D-09  0.00D+00 EMaxC= 1.00D-01 BMatC= 2.98D-14 BMatP= 1.67D-13
 IDIUse=1 WtCom= 1.00D+00 WtEn= 0.00D+00
 Coeff-Com:  0.261D-07 0.581D-07-0.988D-07-0.180D-05-0.937D-05 0.978D-05
 Coeff-Com:  0.134D-03 0.453D-05-0.110D-02-0.209D-02 0.553D-02 0.312D-01
 Coeff-Com: -0.358D-01-0.216D+00 0.618D-01 0.116D+01
 Coeff:      0.261D-07 0.581D-07-0.988D-07-0.180D-05-0.937D-05 0.978D-05
 Coeff:      0.134D-03 0.453D-05-0.110D-02-0.209D-02 0.553D-02 0.312D-01
 Coeff:     -0.358D-01-0.216D+00 0.618D-01 0.116D+01
 Gap=     0.303 Goal=   None    Shift=    0.000
 RMSDP=5.14D-09 MaxDP=3.43D-07 DE= 4.77D-11 OVMax= 3.12D-07

 SCF Done:  E(RHF) =  -1612.64631924     A.U. after   16 cycles
            NFock= 16  Conv=0.51D-08     -V/T= 2.0011
 KE= 1.610907297474D+03 PE=-7.542154640646D+03 EE= 2.461156090848D+03
 Leave Link  502 at Tue Sep 22 02:35:28 2020, MaxMem=   262144000 cpu:            4551.1 elap:            1137.9
 (Enter /prod/apps/gaussian/g16b1/l801.exe)
 ExpMin= 2.97D-02 ExpMax= 1.11D+05 ExpMxC= 1.07D+03 IAcc=3 IRadAn=         5 AccDes= 0.00D+00
 HarFok:  IExCor=  205 AccDes= 0.00D+00 IRadAn=         5 IDoV=-2 UseB2=F ITyADJ=14
 ICtDFT= 12500011 ScaDFX=  1.000000  1.000000  1.000000  1.000000
 GSVD:  LWork=        -945 too small for GESVD, short by        4050 words or        4050 for optimal perf.
 Largest valence mixing into a core orbital is  3.64D-04
 Largest core mixing into a valence orbital is  1.11D-04
 Range of M.O.s used for correlation:    28   589
 NBasis=   589 NAE=    80 NBE=    80 NFC=    27 NFV=     0
 NROrb=    562 NOA=    53 NOB=    53 NVA=   509 NVB=   509

 **** Warning!!: The largest alpha MO coefficient is  0.89157962D+02

 Leave Link  801 at Tue Sep 22 02:35:28 2020, MaxMem=   262144000 cpu:               1.0 elap:               0.3
 (Enter /prod/apps/gaussian/g16b1/l906.exe)
 FulOut=F Deriv=F AODrv=F NAtomX=    35
   MMem=           3  MDisk=          53 MDiskD=          53
  W3Min=    16914579 MinDsk=    17123203 NBas6D=         627
 NBas2D=      197721    NTT=      196878    LW2=     2000000
    MDV=   259629755 MDiskM=        5706 NBas2p=      182176
 Disk-based method using OVN memory for 53 occupieds at a time.
 Estimated scratch disk usage= 15002894752 words.
 IMap=   1   2   3   4   5   6   7   8   9  10  11  12  13  14  15  16  17  18  19  20
 IMap=  21  22  23  24  25  26  27  28  29  30  31  32  33  34  35  36  37  38  39  40
 IMap=  41  42  43  44  45  46  47  48  49  50  51  52  53
 Actual    scratch disk usage= 14782241184 words.
 JobTyp=1 Pass  1:  I=   1 to  53 NPSUse=  4 ParTrn=T ParDer=T DoDerP=F.
Erroneous write. Write -1 instead of 1045032.
fd = 4
orig len = 8384512 left = 1045032
g_write
