 Entering Gaussian System, Link 0=g16
 Initial command:
 /prod/apps/gaussian/g16b1/l1.exe "/tmp/ubafar01/1459135/Gau-68918.inp" -scrdir="/tmp/ubafar01/1459135/"
 Entering Link 1 = /prod/apps/gaussian/g16b1/l1.exe PID=     68919.
  
 Copyright (c) 1988-2017, Gaussian, Inc.  All Rights Reserved.
  
 This is part of the Gaussian(R) 16 program.  It is based on
 the Gaussian(R) 09 system (copyright 2009, Gaussian, Inc.),
 the Gaussian(R) 03 system (copyright 2003, Gaussian, Inc.),
 the Gaussian(R) 98 system (copyright 1998, Gaussian, Inc.),
 the Gaussian(R) 94 system (copyright 1995, Gaussian, Inc.),
 the Gaussian 92(TM) system (copyright 1992, Gaussian, Inc.),
 the Gaussian 90(TM) system (copyright 1990, Gaussian, Inc.),
 the Gaussian 88(TM) system (copyright 1988, Gaussian, Inc.),
 the Gaussian 86(TM) system (copyright 1986, Carnegie Mellon
 University), and the Gaussian 82(TM) system (copyright 1983,
 Carnegie Mellon University). Gaussian is a federally registered
 trademark of Gaussian, Inc.
  
 This software contains proprietary and confidential information,
 including trade secrets, belonging to Gaussian, Inc.
  
 This software is provided under written license and may be
 used, copied, transmitted, or stored only in accord with that
 written license.
  
 The following legend is applicable only to US Government
 contracts under FAR:
  
                    RESTRICTED RIGHTS LEGEND
  
 Use, reproduction and disclosure by the US Government is
 subject to restrictions as set forth in subparagraphs (a)
 and (c) of the Commercial Computer Software - Restricted
 Rights clause in FAR 52.227-19.
  
 Gaussian, Inc.
 340 Quinnipiac St., Bldg. 40, Wallingford CT 06492
  
  
 ---------------------------------------------------------------
 Warning -- This program may not be used in any manner that
 competes with the business of Gaussian, Inc. or will provide
 assistance to any competitor of Gaussian, Inc.  The licensee
 of this program is prohibited from giving any competitor of
 Gaussian, Inc. access to this program.  By using this program,
 the user acknowledges that Gaussian, Inc. is engaged in the
 business of creating and licensing software in the field of
 computational chemistry and represents and warrants to the
 licensee that it is not a competitor of Gaussian, Inc. and that
 it will not use this program in any manner prohibited above.
 ---------------------------------------------------------------
  

 Cite this work as:
 Gaussian 16, Revision B.01,
 M. J. Frisch, G. W. Trucks, H. B. Schlegel, G. E. Scuseria, 
 M. A. Robb, J. R. Cheeseman, G. Scalmani, V. Barone, 
 G. A. Petersson, H. Nakatsuji, X. Li, M. Caricato, A. V. Marenich, 
 J. Bloino, B. G. Janesko, R. Gomperts, B. Mennucci, H. P. Hratchian, 
 J. V. Ortiz, A. F. Izmaylov, J. L. Sonnenberg, D. Williams-Young, 
 F. Ding, F. Lipparini, F. Egidi, J. Goings, B. Peng, A. Petrone, 
 T. Henderson, D. Ranasinghe, V. G. Zakrzewski, J. Gao, N. Rega, 
 G. Zheng, W. Liang, M. Hada, M. Ehara, K. Toyota, R. Fukuda, 
 J. Hasegawa, M. Ishida, T. Nakajima, Y. Honda, O. Kitao, H. Nakai, 
 T. Vreven, K. Throssell, J. A. Montgomery, Jr., J. E. Peralta, 
 F. Ogliaro, M. J. Bearpark, J. J. Heyd, E. N. Brothers, K. N. Kudin, 
 V. N. Staroverov, T. A. Keith, R. Kobayashi, J. Normand, 
 K. Raghavachari, A. P. Rendell, J. C. Burant, S. S. Iyengar, 
 J. Tomasi, M. Cossi, J. M. Millam, M. Klene, C. Adamo, R. Cammi, 
 J. W. Ochterski, R. L. Martin, K. Morokuma, O. Farkas, 
 J. B. Foresman, and D. J. Fox, Gaussian, Inc., Wallingford CT, 2016.
 
 ******************************************
 Gaussian 16:  ES64L-G16RevB.01 20-Dec-2017
                15-Sep-2020 
 ******************************************
 %nproc=4
 Will use up to    4 processors via shared memory.
 %Chk=SM38_m0.n.2.pdb.xyz.mst.n.w.chk
 %mem=16GB
 ----------------------------------------------------------------------
 #p b3lyp/6-31G(d) opt freq NoSymm scf=(MaxCycle=2000,NoVarAcc,NoIncFoc
 k) scrf=(iefpcm,read,solvent=water) MaxDisk=20GB
 ----------------------------------------------------------------------
 1/18=20,19=15,26=3,38=1,40=2/1,3;
 2/9=110,12=2,15=1,17=6,18=5,40=1/2;
 3/5=1,6=6,7=1,11=2,25=1,30=1,70=2203,71=1,72=1,74=-5/1,2,3;
 4//1;
 5/5=100002,7=2000,38=1,53=1/2;
 6/7=2,8=2,9=2,10=2,28=1/1;
 7/30=1/1,2,3,16;
 1/18=20,19=15,26=3/3(2);
 2/9=110,15=1/2;
 99//99;
 2/9=110,15=1/2;
 3/5=1,6=6,7=1,11=2,25=1,30=1,70=2205,71=1,72=1,74=-5/1,2,3;
 4/5=5,16=3,69=1/1;
 5/5=100002,7=2000,38=1,53=1/2;
 7/30=1/1,2,3,16;
 1/18=20,19=15,26=3/3(-5);
 2/9=110,15=1/2;
 6/7=2,8=2,9=2,10=2,19=2,28=1/1;
 99/9=1/99;
 Leave Link    1 at Tue Sep 15 07:25:06 2020, MaxMem=  2147483648 cpu:               0.2 elap:               0.0
 (Enter /prod/apps/gaussian/g16b1/l101.exe)
 -------------------
 SM38_m0.n.2.pdb.xyz
 -------------------
 Symbolic Z-matrix:
 Charge =  0 Multiplicity = 1
 C                     3.387     2.834    -0.241 
 S                     1.705     2.28      0.026 
 N                     1.73      0.788    -0.771 
 C                     0.865    -0.319    -0.297 
 C                     1.434    -0.899     1.036 
 S                     2.312    -2.196     0.107 
 C                     1.222    -1.544    -1.202 
 O                     3.731    -1.859    -0.126 
 O                     1.987    -3.572     0.53 
 C                    -0.627     0.059    -0.284 
 C                    -1.607    -1.029     0.19 
 C                    -3.042    -0.554     0.115 
 C                    -3.779    -0.688    -1.069 
 C                    -5.093    -0.224    -1.151 
 C                    -5.692     0.384    -0.045 
 C                    -4.967     0.521     1.141 
 C                    -3.654     0.056     1.218 
 O                     1.496     2.008     1.459 
 O                     0.798     3.23     -0.643 
 H                     4.064     2.123     0.226 
 H                     3.473     3.819     0.219 
 H                     3.566     2.9      -1.313 
 H                     1.606     0.957    -1.771 
 H                     0.671    -1.361     1.662 
 H                     2.069    -0.238     1.619 
 H                     0.387    -2.225    -1.362 
 H                     1.731    -1.325    -2.14 
 H                    -0.896     0.37     -1.299 
 H                    -0.742     0.938     0.357 
 H                    -1.373    -1.312     1.222 
 H                    -1.494    -1.93     -0.422 
 H                    -3.321    -1.165    -1.932 
 H                    -5.649    -0.341    -2.076 
 H                    -6.715     0.742    -0.106 
 H                    -5.427     0.987     2.008 
 H                    -3.097     0.161     2.145 
 
 ITRead=  0  0  0  0  0  0  0  0  0  0  0  0  0  0  0  0  0  0  0  0
 ITRead=  0  0  0  0  0  0  0  0  0  0  0  0  0  0  0  0
 MicOpt= -1 -1 -1 -1 -1 -1 -1 -1 -1 -1 -1 -1 -1 -1 -1 -1 -1 -1 -1 -1
 MicOpt= -1 -1 -1 -1 -1 -1 -1 -1 -1 -1 -1 -1 -1 -1 -1 -1
 NAtoms=     36 NQM=       36 NQMF=       0 NMMI=      0 NMMIF=      0
                NMic=       0 NMicF=      0.
                    Isotopes and Nuclear Properties:
 (Nuclear quadrupole moments (NQMom) in fm**2, nuclear magnetic moments (NMagM)
  in nuclear magnetons)

  Atom         1           2           3           4           5           6           7           8           9          10
 IAtWgt=          12          32          14          12          12          32          12          16          16          12
 AtmWgt=  12.0000000  31.9720718  14.0030740  12.0000000  12.0000000  31.9720718  12.0000000  15.9949146  15.9949146  12.0000000
 NucSpn=           0           0           2           0           0           0           0           0           0           0
 AtZEff=  -0.0000000  -0.0000000  -0.0000000  -0.0000000  -0.0000000  -0.0000000  -0.0000000  -0.0000000  -0.0000000  -0.0000000
 NQMom=    0.0000000   0.0000000   2.0440000   0.0000000   0.0000000   0.0000000   0.0000000   0.0000000   0.0000000   0.0000000
 NMagM=    0.0000000   0.0000000   0.4037610   0.0000000   0.0000000   0.0000000   0.0000000   0.0000000   0.0000000   0.0000000
 AtZNuc=   6.0000000  16.0000000   7.0000000   6.0000000   6.0000000  16.0000000   6.0000000   8.0000000   8.0000000   6.0000000

  Atom        11          12          13          14          15          16          17          18          19          20
 IAtWgt=          12          12          12          12          12          12          12          16          16           1
 AtmWgt=  12.0000000  12.0000000  12.0000000  12.0000000  12.0000000  12.0000000  12.0000000  15.9949146  15.9949146   1.0078250
 NucSpn=           0           0           0           0           0           0           0           0           0           1
 AtZEff=  -0.0000000  -0.0000000  -0.0000000  -0.0000000  -0.0000000  -0.0000000  -0.0000000  -0.0000000  -0.0000000  -0.0000000
 NQMom=    0.0000000   0.0000000   0.0000000   0.0000000   0.0000000   0.0000000   0.0000000   0.0000000   0.0000000   0.0000000
 NMagM=    0.0000000   0.0000000   0.0000000   0.0000000   0.0000000   0.0000000   0.0000000   0.0000000   0.0000000   2.7928460
 AtZNuc=   6.0000000   6.0000000   6.0000000   6.0000000   6.0000000   6.0000000   6.0000000   8.0000000   8.0000000   1.0000000

  Atom        21          22          23          24          25          26          27          28          29          30
 IAtWgt=           1           1           1           1           1           1           1           1           1           1
 AtmWgt=   1.0078250   1.0078250   1.0078250   1.0078250   1.0078250   1.0078250   1.0078250   1.0078250   1.0078250   1.0078250
 NucSpn=           1           1           1           1           1           1           1           1           1           1
 AtZEff=  -0.0000000  -0.0000000  -0.0000000  -0.0000000  -0.0000000  -0.0000000  -0.0000000  -0.0000000  -0.0000000  -0.0000000
 NQMom=    0.0000000   0.0000000   0.0000000   0.0000000   0.0000000   0.0000000   0.0000000   0.0000000   0.0000000   0.0000000
 NMagM=    2.7928460   2.7928460   2.7928460   2.7928460   2.7928460   2.7928460   2.7928460   2.7928460   2.7928460   2.7928460
 AtZNuc=   1.0000000   1.0000000   1.0000000   1.0000000   1.0000000   1.0000000   1.0000000   1.0000000   1.0000000   1.0000000

  Atom        31          32          33          34          35          36
 IAtWgt=           1           1           1           1           1           1
 AtmWgt=   1.0078250   1.0078250   1.0078250   1.0078250   1.0078250   1.0078250
 NucSpn=           1           1           1           1           1           1
 AtZEff=  -0.0000000  -0.0000000  -0.0000000  -0.0000000  -0.0000000  -0.0000000
 NQMom=    0.0000000   0.0000000   0.0000000   0.0000000   0.0000000   0.0000000
 NMagM=    2.7928460   2.7928460   2.7928460   2.7928460   2.7928460   2.7928460
 AtZNuc=   1.0000000   1.0000000   1.0000000   1.0000000   1.0000000   1.0000000
 Leave Link  101 at Tue Sep 15 07:25:07 2020, MaxMem=  2147483648 cpu:               1.3 elap:               0.3
 (Enter /prod/apps/gaussian/g16b1/l103.exe)

 GradGradGradGradGradGradGradGradGradGradGradGradGradGradGradGradGradGrad
 Berny optimization.
 Initialization pass.
                           ----------------------------
                           !    Initial Parameters    !
                           ! (Angstroms and Degrees)  !
 --------------------------                            --------------------------
 ! Name  Definition              Value          Derivative Info.                !
 --------------------------------------------------------------------------------
 ! R1    R(1,2)                  1.7909         estimate D2E/DX2                !
 ! R2    R(1,20)                 1.0872         estimate D2E/DX2                !
 ! R3    R(1,21)                 1.0905         estimate D2E/DX2                !
 ! R4    R(1,22)                 1.0888         estimate D2E/DX2                !
 ! R5    R(2,3)                  1.6917         estimate D2E/DX2                !
 ! R6    R(2,18)                 1.4735         estimate D2E/DX2                !
 ! R7    R(2,19)                 1.474          estimate D2E/DX2                !
 ! R8    R(3,4)                  1.4827         estimate D2E/DX2                !
 ! R9    R(3,23)                 1.0217         estimate D2E/DX2                !
 ! R10   R(4,5)                  1.5611         estimate D2E/DX2                !
 ! R11   R(4,7)                  1.5643         estimate D2E/DX2                !
 ! R12   R(4,10)                 1.5392         estimate D2E/DX2                !
 ! R13   R(5,6)                  1.821          estimate D2E/DX2                !
 ! R14   R(5,24)                 1.0897         estimate D2E/DX2                !
 ! R15   R(5,25)                 1.0863         estimate D2E/DX2                !
 ! R16   R(6,7)                  1.8239         estimate D2E/DX2                !
 ! R17   R(6,8)                  1.477          estimate D2E/DX2                !
 ! R18   R(6,9)                  1.4758         estimate D2E/DX2                !
 ! R19   R(7,26)                 1.0893         estimate D2E/DX2                !
 ! R20   R(7,27)                 1.0894         estimate D2E/DX2                !
 ! R21   R(10,11)                1.5391         estimate D2E/DX2                !
 ! R22   R(10,28)                1.0951         estimate D2E/DX2                !
 ! R23   R(10,29)                1.094          estimate D2E/DX2                !
 ! R24   R(11,12)                1.5134         estimate D2E/DX2                !
 ! R25   R(11,30)                1.0954         estimate D2E/DX2                !
 ! R26   R(11,31)                1.095          estimate D2E/DX2                !
 ! R27   R(12,13)                1.4011         estimate D2E/DX2                !
 ! R28   R(12,17)                1.4012         estimate D2E/DX2                !
 ! R29   R(13,14)                1.3959         estimate D2E/DX2                !
 ! R30   R(13,32)                1.0872         estimate D2E/DX2                !
 ! R31   R(14,15)                1.397          estimate D2E/DX2                !
 ! R32   R(14,33)                1.0856         estimate D2E/DX2                !
 ! R33   R(15,16)                1.3968         estimate D2E/DX2                !
 ! R34   R(15,34)                1.0855         estimate D2E/DX2                !
 ! R35   R(16,17)                1.395          estimate D2E/DX2                !
 ! R36   R(16,35)                1.0865         estimate D2E/DX2                !
 ! R37   R(17,36)                1.0866         estimate D2E/DX2                !
 ! A1    A(2,1,20)             108.5724         estimate D2E/DX2                !
 ! A2    A(2,1,21)             106.8932         estimate D2E/DX2                !
 ! A3    A(2,1,22)             108.6586         estimate D2E/DX2                !
 ! A4    A(20,1,21)            111.1254         estimate D2E/DX2                !
 ! A5    A(20,1,22)            111.1113         estimate D2E/DX2                !
 ! A6    A(21,1,22)            110.3394         estimate D2E/DX2                !
 ! A7    A(1,2,3)              100.8772         estimate D2E/DX2                !
 ! A8    A(1,2,18)             109.5914         estimate D2E/DX2                !
 ! A9    A(1,2,19)             108.112          estimate D2E/DX2                !
 ! A10   A(3,2,18)             107.3056         estimate D2E/DX2                !
 ! A11   A(3,2,19)             111.3265         estimate D2E/DX2                !
 ! A12   A(18,2,19)            118.2349         estimate D2E/DX2                !
 ! A13   A(2,3,4)              119.95           estimate D2E/DX2                !
 ! A14   A(2,3,23)             108.2659         estimate D2E/DX2                !
 ! A15   A(4,3,23)             111.4434         estimate D2E/DX2                !
 ! A16   A(3,4,5)              109.7386         estimate D2E/DX2                !
 ! A17   A(3,4,7)              105.4608         estimate D2E/DX2                !
 ! A18   A(3,4,10)             112.6349         estimate D2E/DX2                !
 ! A19   A(5,4,7)               96.8846         estimate D2E/DX2                !
 ! A20   A(5,4,10)             115.9343         estimate D2E/DX2                !
 ! A21   A(7,4,10)             114.7346         estimate D2E/DX2                !
 ! A22   A(4,5,6)               90.2718         estimate D2E/DX2                !
 ! A23   A(4,5,24)             113.1308         estimate D2E/DX2                !
 ! A24   A(4,5,25)             116.4397         estimate D2E/DX2                !
 ! A25   A(6,5,24)             109.1893         estimate D2E/DX2                !
 ! A26   A(6,5,25)             115.1722         estimate D2E/DX2                !
 ! A27   A(24,5,25)            111.0367         estimate D2E/DX2                !
 ! A28   A(5,6,7)               79.8275         estimate D2E/DX2                !
 ! A29   A(5,6,8)              112.4076         estimate D2E/DX2                !
 ! A30   A(5,6,9)              114.3102         estimate D2E/DX2                !
 ! A31   A(7,6,8)              112.2951         estimate D2E/DX2                !
 ! A32   A(7,6,9)              114.0418         estimate D2E/DX2                !
 ! A33   A(8,6,9)              118.0045         estimate D2E/DX2                !
 ! A34   A(4,7,6)               90.064          estimate D2E/DX2                !
 ! A35   A(4,7,26)             113.5533         estimate D2E/DX2                !
 ! A36   A(4,7,27)             116.5714         estimate D2E/DX2                !
 ! A37   A(6,7,26)             109.8788         estimate D2E/DX2                !
 ! A38   A(6,7,27)             114.2405         estimate D2E/DX2                !
 ! A39   A(26,7,27)            110.9372         estimate D2E/DX2                !
 ! A40   A(4,10,11)            116.5008         estimate D2E/DX2                !
 ! A41   A(4,10,28)            107.4585         estimate D2E/DX2                !
 ! A42   A(4,10,29)            107.7086         estimate D2E/DX2                !
 ! A43   A(11,10,28)           109.2558         estimate D2E/DX2                !
 ! A44   A(11,10,29)           108.7            estimate D2E/DX2                !
 ! A45   A(28,10,29)           106.8022         estimate D2E/DX2                !
 ! A46   A(10,11,12)           111.5067         estimate D2E/DX2                !
 ! A47   A(10,11,30)           109.6798         estimate D2E/DX2                !
 ! A48   A(10,11,31)           110.1096         estimate D2E/DX2                !
 ! A49   A(12,11,30)           109.2887         estimate D2E/DX2                !
 ! A50   A(12,11,31)           109.1711         estimate D2E/DX2                !
 ! A51   A(30,11,31)           106.9731         estimate D2E/DX2                !
 ! A52   A(11,12,13)           120.7057         estimate D2E/DX2                !
 ! A53   A(11,12,17)           120.782          estimate D2E/DX2                !
 ! A54   A(13,12,17)           118.4977         estimate D2E/DX2                !
 ! A55   A(12,13,14)           120.8643         estimate D2E/DX2                !
 ! A56   A(12,13,32)           119.4165         estimate D2E/DX2                !
 ! A57   A(14,13,32)           119.7183         estimate D2E/DX2                !
 ! A58   A(13,14,15)           120.1163         estimate D2E/DX2                !
 ! A59   A(13,14,33)           119.7585         estimate D2E/DX2                !
 ! A60   A(15,14,33)           120.1247         estimate D2E/DX2                !
 ! A61   A(14,15,16)           119.4949         estimate D2E/DX2                !
 ! A62   A(14,15,34)           120.2053         estimate D2E/DX2                !
 ! A63   A(16,15,34)           120.2989         estimate D2E/DX2                !
 ! A64   A(15,16,17)           120.1789         estimate D2E/DX2                !
 ! A65   A(15,16,35)           119.992          estimate D2E/DX2                !
 ! A66   A(17,16,35)           119.8286         estimate D2E/DX2                !
 ! A67   A(12,17,16)           120.8478         estimate D2E/DX2                !
 ! A68   A(12,17,36)           119.3255         estimate D2E/DX2                !
 ! A69   A(16,17,36)           119.8257         estimate D2E/DX2                !
 ! D1    D(20,1,2,3)           -61.5325         estimate D2E/DX2                !
 ! D2    D(20,1,2,18)           51.4167         estimate D2E/DX2                !
 ! D3    D(20,1,2,19)         -178.4363         estimate D2E/DX2                !
 ! D4    D(21,1,2,3)           178.5072         estimate D2E/DX2                !
 ! D5    D(21,1,2,18)          -68.5436         estimate D2E/DX2                !
 ! D6    D(21,1,2,19)           61.6034         estimate D2E/DX2                !
 ! D7    D(22,1,2,3)            59.432          estimate D2E/DX2                !
 ! D8    D(22,1,2,18)          172.3812         estimate D2E/DX2                !
 ! D9    D(22,1,2,19)          -57.4718         estimate D2E/DX2                !
 ! D10   D(1,2,3,4)            149.3917         estimate D2E/DX2                !
 ! D11   D(1,2,3,23)           -81.2262         estimate D2E/DX2                !
 ! D12   D(18,2,3,4)            34.7146         estimate D2E/DX2                !
 ! D13   D(18,2,3,23)          164.0966         estimate D2E/DX2                !
 ! D14   D(19,2,3,4)           -96.0981         estimate D2E/DX2                !
 ! D15   D(19,2,3,23)           33.2839         estimate D2E/DX2                !
 ! D16   D(2,3,4,5)            -73.0449         estimate D2E/DX2                !
 ! D17   D(2,3,4,7)           -176.4231         estimate D2E/DX2                !
 ! D18   D(2,3,4,10)            57.7256         estimate D2E/DX2                !
 ! D19   D(23,3,4,5)           159.0074         estimate D2E/DX2                !
 ! D20   D(23,3,4,7)            55.6292         estimate D2E/DX2                !
 ! D21   D(23,3,4,10)          -70.2222         estimate D2E/DX2                !
 ! D22   D(3,4,5,6)            -95.2297         estimate D2E/DX2                !
 ! D23   D(3,4,5,24)           153.7037         estimate D2E/DX2                !
 ! D24   D(3,4,5,25)            23.2854         estimate D2E/DX2                !
 ! D25   D(7,4,5,6)             13.9542         estimate D2E/DX2                !
 ! D26   D(7,4,5,24)           -97.1124         estimate D2E/DX2                !
 ! D27   D(7,4,5,25)           132.4692         estimate D2E/DX2                !
 ! D28   D(10,4,5,6)           135.7819         estimate D2E/DX2                !
 ! D29   D(10,4,5,24)           24.7153         estimate D2E/DX2                !
 ! D30   D(10,4,5,25)         -105.703          estimate D2E/DX2                !
 ! D31   D(3,4,7,6)             98.7962         estimate D2E/DX2                !
 ! D32   D(3,4,7,26)          -149.4005         estimate D2E/DX2                !
 ! D33   D(3,4,7,27)           -18.5659         estimate D2E/DX2                !
 ! D34   D(5,4,7,6)            -13.9314         estimate D2E/DX2                !
 ! D35   D(5,4,7,26)            97.8719         estimate D2E/DX2                !
 ! D36   D(5,4,7,27)          -131.2935         estimate D2E/DX2                !
 ! D37   D(10,4,7,6)          -136.6584         estimate D2E/DX2                !
 ! D38   D(10,4,7,26)          -24.855          estimate D2E/DX2                !
 ! D39   D(10,4,7,27)          105.9795         estimate D2E/DX2                !
 ! D40   D(3,4,10,11)          179.8215         estimate D2E/DX2                !
 ! D41   D(3,4,10,28)           56.9258         estimate D2E/DX2                !
 ! D42   D(3,4,10,29)          -57.8156         estimate D2E/DX2                !
 ! D43   D(5,4,10,11)          -52.6129         estimate D2E/DX2                !
 ! D44   D(5,4,10,28)         -175.5087         estimate D2E/DX2                !
 ! D45   D(5,4,10,29)           69.75           estimate D2E/DX2                !
 ! D46   D(7,4,10,11)           59.1516         estimate D2E/DX2                !
 ! D47   D(7,4,10,28)          -63.7441         estimate D2E/DX2                !
 ! D48   D(7,4,10,29)         -178.4855         estimate D2E/DX2                !
 ! D49   D(4,5,6,7)            -12.041          estimate D2E/DX2                !
 ! D50   D(4,5,6,8)             98.0145         estimate D2E/DX2                !
 ! D51   D(4,5,6,9)           -123.9495         estimate D2E/DX2                !
 ! D52   D(24,5,6,7)           102.642          estimate D2E/DX2                !
 ! D53   D(24,5,6,8)          -147.3025         estimate D2E/DX2                !
 ! D54   D(24,5,6,9)            -9.2665         estimate D2E/DX2                !
 ! D55   D(25,5,6,7)          -131.6588         estimate D2E/DX2                !
 ! D56   D(25,5,6,8)           -21.6033         estimate D2E/DX2                !
 ! D57   D(25,5,6,9)           116.4327         estimate D2E/DX2                !
 ! D58   D(5,6,7,4)             12.0157         estimate D2E/DX2                !
 ! D59   D(5,6,7,26)          -103.1555         estimate D2E/DX2                !
 ! D60   D(5,6,7,27)           131.4266         estimate D2E/DX2                !
 ! D61   D(8,6,7,4)            -98.166          estimate D2E/DX2                !
 ! D62   D(8,6,7,26)           146.6628         estimate D2E/DX2                !
 ! D63   D(8,6,7,27)            21.2449         estimate D2E/DX2                !
 ! D64   D(9,6,7,4)            124.2216         estimate D2E/DX2                !
 ! D65   D(9,6,7,26)             9.0504         estimate D2E/DX2                !
 ! D66   D(9,6,7,27)          -116.3675         estimate D2E/DX2                !
 ! D67   D(4,10,11,12)        -178.1366         estimate D2E/DX2                !
 ! D68   D(4,10,11,30)          60.6648         estimate D2E/DX2                !
 ! D69   D(4,10,11,31)         -56.794          estimate D2E/DX2                !
 ! D70   D(28,10,11,12)        -56.1797         estimate D2E/DX2                !
 ! D71   D(28,10,11,30)       -177.3783         estimate D2E/DX2                !
 ! D72   D(28,10,11,31)         65.1629         estimate D2E/DX2                !
 ! D73   D(29,10,11,12)         60.0202         estimate D2E/DX2                !
 ! D74   D(29,10,11,30)        -61.1784         estimate D2E/DX2                !
 ! D75   D(29,10,11,31)       -178.6372         estimate D2E/DX2                !
 ! D76   D(10,11,12,13)         86.7817         estimate D2E/DX2                !
 ! D77   D(10,11,12,17)        -91.805          estimate D2E/DX2                !
 ! D78   D(30,11,12,13)       -151.7922         estimate D2E/DX2                !
 ! D79   D(30,11,12,17)         29.6211         estimate D2E/DX2                !
 ! D80   D(31,11,12,13)        -35.105          estimate D2E/DX2                !
 ! D81   D(31,11,12,17)        146.3083         estimate D2E/DX2                !
 ! D82   D(11,12,13,14)       -178.5578         estimate D2E/DX2                !
 ! D83   D(11,12,13,32)          1.7867         estimate D2E/DX2                !
 ! D84   D(17,12,13,14)          0.0606         estimate D2E/DX2                !
 ! D85   D(17,12,13,32)       -179.5949         estimate D2E/DX2                !
 ! D86   D(11,12,17,16)        178.5718         estimate D2E/DX2                !
 ! D87   D(11,12,17,36)         -1.7813         estimate D2E/DX2                !
 ! D88   D(13,12,17,16)         -0.0455         estimate D2E/DX2                !
 ! D89   D(13,12,17,36)        179.6014         estimate D2E/DX2                !
 ! D90   D(12,13,14,15)          0.0156         estimate D2E/DX2                !
 ! D91   D(12,13,14,33)       -179.7347         estimate D2E/DX2                !
 ! D92   D(32,13,14,15)        179.6701         estimate D2E/DX2                !
 ! D93   D(32,13,14,33)         -0.0802         estimate D2E/DX2                !
 ! D94   D(13,14,15,16)         -0.1074         estimate D2E/DX2                !
 ! D95   D(13,14,15,34)       -179.7701         estimate D2E/DX2                !
 ! D96   D(33,14,15,16)        179.642          estimate D2E/DX2                !
 ! D97   D(33,14,15,34)         -0.0207         estimate D2E/DX2                !
 ! D98   D(14,15,16,17)          0.1224         estimate D2E/DX2                !
 ! D99   D(14,15,16,35)       -179.6197         estimate D2E/DX2                !
 ! D100  D(34,15,16,17)        179.7848         estimate D2E/DX2                !
 ! D101  D(34,15,16,35)          0.0426         estimate D2E/DX2                !
 ! D102  D(15,16,17,12)         -0.0459         estimate D2E/DX2                !
 ! D103  D(15,16,17,36)       -179.691          estimate D2E/DX2                !
 ! D104  D(35,16,17,12)        179.6967         estimate D2E/DX2                !
 ! D105  D(35,16,17,36)          0.0516         estimate D2E/DX2                !
 --------------------------------------------------------------------------------
 Trust Radius=3.00D-01 FncErr=1.00D-07 GrdErr=1.00D-06 EigMax=2.50D+02 EigMin=1.00D-04
 Number of steps in this run=    216 maximum allowed number of steps=    216.
 GradGradGradGradGradGradGradGradGradGradGradGradGradGradGradGradGradGrad

 Leave Link  103 at Tue Sep 15 07:25:07 2020, MaxMem=  2147483648 cpu:               0.1 elap:               0.0
 (Enter /prod/apps/gaussian/g16b1/l202.exe)
                          Input orientation:                          
 ---------------------------------------------------------------------
 Center     Atomic      Atomic             Coordinates (Angstroms)
 Number     Number       Type             X           Y           Z
 ---------------------------------------------------------------------
      1          6           0        3.387000    2.834000   -0.241000
      2         16           0        1.705000    2.280000    0.026000
      3          7           0        1.730000    0.788000   -0.771000
      4          6           0        0.865000   -0.319000   -0.297000
      5          6           0        1.434000   -0.899000    1.036000
      6         16           0        2.312000   -2.196000    0.107000
      7          6           0        1.222000   -1.544000   -1.202000
      8          8           0        3.731000   -1.859000   -0.126000
      9          8           0        1.987000   -3.572000    0.530000
     10          6           0       -0.627000    0.059000   -0.284000
     11          6           0       -1.607000   -1.029000    0.190000
     12          6           0       -3.042000   -0.554000    0.115000
     13          6           0       -3.779000   -0.688000   -1.069000
     14          6           0       -5.093000   -0.224000   -1.151000
     15          6           0       -5.692000    0.384000   -0.045000
     16          6           0       -4.967000    0.521000    1.141000
     17          6           0       -3.654000    0.056000    1.218000
     18          8           0        1.496000    2.008000    1.459000
     19          8           0        0.798000    3.230000   -0.643000
     20          1           0        4.064000    2.123000    0.226000
     21          1           0        3.473000    3.819000    0.219000
     22          1           0        3.566000    2.900000   -1.313000
     23          1           0        1.606000    0.957000   -1.771000
     24          1           0        0.671000   -1.361000    1.662000
     25          1           0        2.069000   -0.238000    1.619000
     26          1           0        0.387000   -2.225000   -1.362000
     27          1           0        1.731000   -1.325000   -2.140000
     28          1           0       -0.896000    0.370000   -1.299000
     29          1           0       -0.742000    0.938000    0.357000
     30          1           0       -1.373000   -1.312000    1.222000
     31          1           0       -1.494000   -1.930000   -0.422000
     32          1           0       -3.321000   -1.165000   -1.932000
     33          1           0       -5.649000   -0.341000   -2.076000
     34          1           0       -6.715000    0.742000   -0.106000
     35          1           0       -5.427000    0.987000    2.008000
     36          1           0       -3.097000    0.161000    2.145000
 ---------------------------------------------------------------------
                    Distance matrix (angstroms):
                    1          2          3          4          5
     1  C    0.000000
     2  S    1.790902   0.000000
     3  N    2.685641   1.691715   0.000000
     4  C    4.037949   2.750405   1.482683   0.000000
     5  C    4.402298   3.346578   2.489746   1.561105   0.000000
     6  S    5.155350   4.517697   3.164469   2.404195   1.821026
     7  C    4.977713   4.045275   2.425294   1.564321   2.338720
     8  O    4.706996   4.610759   3.380331   3.258036   2.747372
     9  O    6.602369   5.880429   4.557220   3.539043   2.776108
    10  C    4.880028   3.235300   2.514768   1.539194   2.628286
    11  C    6.328394   4.684626   3.919257   2.617643   3.159161
    12  C    7.275804   5.529330   5.035667   3.935685   4.582777
    13  C    8.027554   6.331059   5.711082   4.722169   5.625915
    14  C    9.060346   7.339492   6.908102   6.019643   6.916670
    15  C    9.405804   7.636456   7.468358   6.599391   7.320828
    16  C    8.777768   6.989484   6.969709   6.065119   6.557456
    17  C    7.708544   5.923337   5.786139   4.780922   5.180048
    18  O    2.673604   1.473484   2.552657   2.982721   2.938269
    19  O    2.649781   1.474012   2.616939   3.566456   4.502464
    20  H    1.087170   2.372663   2.867715   4.058386   4.087234
    21  H    1.090514   2.351934   3.633884   4.918431   5.204280
    22  H    1.088844   2.375004   2.850474   4.323149   4.949306
    23  H    3.005992   2.233683   1.021732   2.085649   3.369506
    24  H    5.347531   4.123413   3.414553   2.227348   1.089720
    25  H    3.825429   3.001744   2.622918   2.264339   1.086294
    26  H    5.987497   4.894762   3.351283   2.235072   2.933409
    27  H    4.862697   4.205741   2.517723   2.271264   3.218177
    28  H    5.053192   3.488399   2.710975   2.140057   3.534330
    29  H    4.582691   2.810397   2.721336   2.142478   2.927556
    30  H    6.479760   4.879238   4.243897   2.881329   2.843310
    31  H    6.822948   5.306449   4.231253   2.859340   3.429564
    32  H    7.990541   6.400193   5.538477   4.572913   5.611578
    33  H    9.751777   8.085132   7.578081   6.752594   7.756597
    34  H   10.317223   8.560331   8.471267   7.656279   8.390664
    35  H    9.282026   7.514359   7.680175   6.827000   7.181581
    36  H    7.408116   5.660347   5.674162   4.678804   4.783664
                    6          7          8          9         10
     6  S    0.000000
     7  C    1.823920   0.000000
     8  O    1.476963   2.748105   0.000000
     9  O    1.475781   2.774497   2.531055   0.000000
    10  C    3.725000   2.613644   4.764016   4.547500   0.000000
    11  C    4.089907   3.194703   5.411377   4.415799   1.539097
    12  C    5.600138   4.571245   6.901785   5.879744   2.523330
    13  C    6.384146   5.075473   7.659020   6.642365   3.333067
    14  C    7.765653   6.451684   9.032543   8.010073   4.558172
    15  C    8.410917   7.270435   9.686616   8.657228   5.081040
    16  C    7.838054   6.932359   9.106311   8.092224   4.591260
    17  C    6.472942   5.673780   7.746727   6.742152   3.379163
    18  O    4.490810   4.446651   4.739318   5.678074   3.368053
    19  O    5.682972   4.825281   5.896414   7.004060   3.494960
    20  H    4.662341   4.854177   4.011373   6.069544   5.150308
    21  H    6.127046   5.987321   5.694319   7.545316   5.585751
    22  H    5.436739   5.025514   4.907573   6.912067   5.168304
    23  H    3.737209   2.593495   3.892494   5.094272   2.829110
    24  H    2.410006   2.922257   3.578903   2.811014   2.736443
    25  H    2.485751   3.221969   2.904292   3.508305   3.313312
    26  H    2.421658   1.089305   3.583851   2.820297   2.721569
    27  H    2.478954   1.089443   2.888140   3.499063   3.304596
    28  H    4.341942   2.856349   5.268159   5.215007   1.095129
    29  H    4.383078   3.528187   5.297568   5.274227   1.093959
    30  H    3.950178   3.558599   5.307271   4.108049   2.168915
    31  H    3.851783   2.852026   5.233859   3.964824   2.174133
    32  H    6.078747   4.616859   7.312590   6.326923   3.386992
    33  H    8.460735   7.030059   9.700063   8.691323   5.347125
    34  H    9.495470   8.332045  10.764967   9.733442   6.128778
    35  H    8.581224   7.805079   9.824593   8.828157   5.399486
    36  H    6.242289   5.723914   7.473916   6.510804   3.465739
                   11         12         13         14         15
    11  C    0.000000
    12  C    1.513432   0.000000
    13  C    2.533564   1.401064   0.000000
    14  C    3.820799   2.432747   1.395928   0.000000
    15  C    4.328859   2.815660   2.420192   1.397033   0.000000
    16  C    3.820537   2.431856   2.785162   2.413331   1.396778
    17  C    2.534604   1.401161   2.408221   2.785908   2.419958
    18  O    4.523532   5.381786   6.440871   7.430265   7.521086
    19  O    4.961552   5.444155   6.039961   6.847778   7.111780
    20  H    6.488192   7.594332   8.431571   9.552758   9.913481
    21  H    7.022133   7.847240   8.635016   9.570742   9.791126
    22  H    6.667532   7.591769   8.178160   9.206731   9.677223
    23  H    4.255947   5.238704   5.674245   6.830502   7.521184
    24  H    2.732452   4.102539   5.264389   6.513788   6.815177
    25  H    4.022524   5.337058   6.451895   7.679019   7.961715
    26  H    2.795560   4.090454   4.450143   5.837715   6.745043
    27  H    4.081514   5.334885   5.649151   6.982643   7.900040
    28  H    2.163294   2.731023   3.079603   4.241409   4.957250
    29  H    2.155273   2.752204   3.728367   4.749264   4.997101
    30  H    1.095385   2.141395   3.380369   4.544587   4.809934
    31  H    1.095041   2.139638   2.680000   4.049034   4.808319
    32  H    2.731149   2.154384   1.087227   2.153004   3.403206
    33  H    4.684641   3.412081   2.152059   1.085564   2.156950
    34  H    5.414399   3.901203   3.404756   2.157792   1.085548
    35  H    4.686340   3.412676   3.871622   3.399611   2.156071
    36  H    2.730975   2.152940   3.393482   3.872448   3.402918
                   16         17         18         19         20
    16  C    0.000000
    17  C    1.395035   0.000000
    18  O    6.639478   5.512793   0.000000
    19  O    6.614874   5.775630   2.529603   0.000000
    20  H    9.217515   8.051340   2.850989   3.556314   0.000000
    21  H    9.108265   8.121102   2.953955   2.871514   1.796036
    22  H    9.192053   8.162273   3.572751   2.866989   1.794507
    23  H    7.202372   6.116659   3.398470   2.663039   3.374808
    24  H    5.966608   4.572816   3.474478   5.138719   5.070779
    25  H    7.092944   5.744560   2.323455   4.331179   3.390397
    26  H    6.516966   5.309335   5.206363   5.517509   5.911614
    27  H    7.683481   6.494732   4.910898   4.884621   4.788481
    28  H    4.748625   3.747059   4.001409   3.388152   5.477247
    29  H    4.317311   3.162118   2.714396   2.936812   4.951669
    30  H    4.035255   2.659775   4.394284   5.368541   6.507858
    31  H    4.529028   3.361457   5.290190   5.650461   6.909275
    32  H    3.872369   3.394736   6.691061   6.159846   8.366967
    33  H    3.399597   3.871443   8.310539   7.507952  10.281676
    34  H    2.158554   3.404893   8.454141   7.932445  10.872177
    35  H    1.086483   2.152763   7.019385   7.128077   9.723431
    36  H    2.152793   1.086556   4.997765   5.688825   7.668893
                   21         22         23         24         25
    21  H    0.000000
    22  H    1.788920   0.000000
    23  H    3.954344   2.797608   0.000000
    24  H    6.063485   5.948762   4.246509   0.000000
    25  H    4.515580   4.548041   3.624154   1.793706   0.000000
    26  H    6.967991   6.031092   3.431962   3.157804   3.957733
    27  H    5.921164   4.679934   2.315018   3.947164   3.927581
    28  H    5.769583   5.129380   2.612921   3.770858   4.204238
    29  H    5.107390   5.019682   3.168888   2.997498   3.298081
    30  H    7.128596   6.968564   4.793835   2.091396   3.627458
    31  H    7.624498   7.051693   4.445736   3.058438   4.441116
    32  H    8.696292   8.021107   5.366948   5.375064   6.520815
    33  H   10.285111   9.798085   7.376507   7.413194   8.557521
    34  H   10.647483  10.574156   8.488668   7.880446   9.005259
    35  H    9.509508   9.775616   7.984036   6.543579   7.605390
    36  H    7.762431   7.990961   6.171457   4.092383   5.208016
                   26         27         28         29         30
    26  H    0.000000
    27  H    1.794887   0.000000
    28  H    2.895528   3.237504   0.000000
    29  H    3.772820   4.179941   1.757463   0.000000
    30  H    3.257027   4.575809   3.067914   2.491764   0.000000
    31  H    2.123390   3.703805   2.533127   3.065578   1.760483
    32  H    3.898431   5.058811   2.938969   4.038981   3.709990
    33  H    6.363376   7.445586   4.868291   5.624409   5.486695
    34  H    7.798656   8.929981   5.951672   5.994123   5.875327
    35  H    7.448251   8.590007   5.643306   4.967638   4.726321
    36  H    5.489107   6.624123   4.092581   3.057237   2.448231
                   31         32         33         34         35
    31  H    0.000000
    32  H    2.490633   0.000000
    33  H    4.746015   2.473721   0.000000
    34  H    5.873524   4.300019   2.488000   0.000000
    35  H    5.466469   4.958824   4.300224   2.487562   0.000000
    36  H    3.678502   4.293062   4.957978   4.300522   2.475873
                   36
    36  H    0.000000
 Symmetry turned off by external request.
 Stoichiometry    C12H17NO4S2
 Framework group  C1[X(C12H17NO4S2)]
 Deg. of freedom   102
 Full point group                 C1      NOp   1
 Rotational constants (GHZ):           0.4150138           0.1889269           0.1436989
 Leave Link  202 at Tue Sep 15 07:25:07 2020, MaxMem=  2147483648 cpu:               0.0 elap:               0.0
 (Enter /prod/apps/gaussian/g16b1/l301.exe)
 Standard basis: 6-31G(d) (6D, 7F)
 Ernie: Thresh=  0.10000D-02 Tol=  0.10000D-05 Strict=F.
   327 basis functions,   648 primitive gaussians,   327 cartesian basis functions
    80 alpha electrons       80 beta electrons
       nuclear repulsion energy      1821.5450369400 Hartrees.
 IExCor=  402 DFT=T Ex+Corr=B3LYP ExCW=0 ScaHFX=  0.200000
 ScaDFX=  0.800000  0.720000  1.000000  0.810000 ScalE2=  1.000000  1.000000
 IRadAn=      5 IRanWt=     -1 IRanGd=            0 ICorTp=0 IEmpDi=  4
 NAtoms=   36 NActive=   36 NUniq=   36 SFac= 1.00D+00 NAtFMM=   60 NAOKFM=F Big=F
 Integral buffers will be    131072 words long.
 Raffenetti 2 integral format.
 Two-electron integral symmetry is turned off.
 Using the following non-standard input for PCM:
 MSTModel=DFT cav
 --- end of non-standard input.
 MST model for solvation energy: B3LYP parametrization.
 MST cavity parameters:
 ISph   IAn     Re0     Alpha   Atom Type   QCorr
 ------------------------------------------------
   1      6     1.50     1.25      CH3        F
   2     16     1.75     1.25      S          F
   3      7     1.50     1.25      NH         F
   4      6     1.50     1.25      C          F
   5      6     1.50     1.25      CH2        F
   6     16     1.75     1.25      S          F
   7      6     1.50     1.25      CH2        F
   8      8     1.40     1.25      O          F
   9      8     1.40     1.25      O          F
  10      6     1.50     1.25      CH2        F
  11      6     1.50     1.25      CH2        F
  12      6     1.50     1.25      C          F
  13      6     1.50     1.25      CH         F
  14      6     1.50     1.25      CH         F
  15      6     1.50     1.25      CH         F
  16      6     1.50     1.25      CH         F
  17      6     1.50     1.25      CH         F
  18      8     1.40     1.25      O          F
  19      8     1.40     1.25      O          F
  20      1     1.20     1.25      CH3        F
  21      1     1.20     1.25      CH3        F
  22      1     1.20     1.25      CH3        F
  23      1     0.90     1.25      NH         F
  24      1     1.20     1.25      CH2        F
  25      1     1.20     1.25      CH2        F
  26      1     1.20     1.25      CH2        F
  27      1     1.20     1.25      CH2        F
  28      1     1.20     1.25      CH2        F
  29      1     1.20     1.25      CH2        F
  30      1     1.20     1.25      CH2        F
  31      1     1.20     1.25      CH2        F
  32      1     1.20     1.25      CH         F
  33      1     1.20     1.25      CH         F
  34      1     1.20     1.25      CH         F
  35      1     1.20     1.25      CH         F
  36      1     1.20     1.25      CH         F
 ------------------------------------------------------------------------------
 Polarizable Continuum Model (PCM)
 =================================
 Model                : PCM.
 Atomic radii         : MST.
 Polarization charges : Total charges.
 Charge compensation  : None.
 Solution method      : On-the-fly selection.
 Cavity type          : Scaled VdW (van der Waals Surface) (Alpha=1.250).
 Cavity algorithm     : GePol (No added spheres)
                        Default sphere list used, NSphG=   36.
                        Lebedev-Laikov grids with approx.  5.0 points / Ang**2.
                        Smoothing algorithm: York/Karplus (Gamma=1.0000).
                        Polarization charges: spherical gaussians, with
                                              point-specific exponents (IZeta= 3).
                        Self-potential: point-specific (ISelfS= 7).
                        Self-field    : sphere-specific E.n sum rule (ISelfD= 2).
 1st derivatives      : Analytical E(r).r(x)/FMM algorithm (CHGder, D1EAlg=3).
                        Cavity 1st derivative terms included.
 Solvent              : Water, Eps=  78.355300 Eps(inf)=   1.777849
 ------------------------------------------------------------------------------
 GePol: Number of generator spheres                  =      36
 GePol: Total number of spheres                      =      36
 GePol: Number of exposed spheres                    =      36 (100.00%)
 GePol: Number of points                             =    2586
 GePol: Average weight of points                     =       0.13
 GePol: Minimum weight of points                     =   0.24D-10
 GePol: Maximum weight of points                     =    0.22001
 GePol: Number of points with low weight             =     179
 GePol: Fraction of low-weight points (<1% of avg)   =       6.92%
 GePol: Cavity surface area                          =    347.762 Ang**2
 GePol: Cavity volume                                =    337.794 Ang**3
 PCM non-electrostatic energy =         0.0030569050 Hartrees.
 Nuclear repulsion after PCM non-electrostatic terms =     1821.5480938451 Hartrees.
 Leave Link  301 at Tue Sep 15 07:25:07 2020, MaxMem=  2147483648 cpu:               0.3 elap:               0.1
 (Enter /prod/apps/gaussian/g16b1/l302.exe)
 NPDir=0 NMtPBC=     1 NCelOv=     1 NCel=       1 NClECP=     1 NCelD=      1
         NCelK=      1 NCelE2=     1 NClLst=     1 CellRange=     0.0.
 One-electron integrals computed using PRISM.
 NBasis=   327 RedAO= T EigKep=  4.67D-04  NBF=   327
 NBsUse=   327 1.00D-06 EigRej= -1.00D+00 NBFU=   327
 Precomputing XC quadrature grid using
 IXCGrd= 4 IRadAn=           5 IRanWt=          -1 IRanGd=           0 AccXCQ= 0.00D+00.
 Generated NRdTot=       0 NPtTot=           0 NUsed=           0 NTot=          32
 NSgBfM=   326   326   326   326   326 MxSgAt=    36 MxSgA2=    36.
 Leave Link  302 at Tue Sep 15 07:25:07 2020, MaxMem=  2147483648 cpu:               1.8 elap:               0.5
 (Enter /prod/apps/gaussian/g16b1/l303.exe)
 DipDrv:  MaxL=1.
 Leave Link  303 at Tue Sep 15 07:25:07 2020, MaxMem=  2147483648 cpu:               0.1 elap:               0.1
 (Enter /prod/apps/gaussian/g16b1/l401.exe)
 ExpMin= 1.17D-01 ExpMax= 2.19D+04 ExpMxC= 3.30D+03 IAcc=3 IRadAn=         5 AccDes= 0.00D+00
 Harris functional with IExCor=  402 and IRadAn=       5 diagonalized for initial guess.
 HarFok:  IExCor=  402 AccDes= 0.00D+00 IRadAn=         5 IDoV= 1 UseB2=F ITyADJ=14
 ICtDFT=  3500011 ScaDFX=  1.000000  1.000000  1.000000  1.000000
 FoFCou: FMM=F IPFlag=           0 FMFlag=      100000 FMFlg1=           0
         NFxFlg=           0 DoJE=T BraDBF=F KetDBF=T FulRan=T
         wScrn=  0.000000 ICntrl=       500 IOpCl=  0 I1Cent=   200000004 NGrid=           0
         NMat0=    1 NMatS0=      1 NMatT0=    0 NMatD0=    1 NMtDS0=    0 NMtDT0=    0
 Symmetry not used in FoFCou.
 Harris En= -1619.49217396717    
 JPrj=0 DoOrth=F DoCkMO=F.
 Leave Link  401 at Tue Sep 15 07:25:10 2020, MaxMem=  2147483648 cpu:              10.1 elap:               2.6
 (Enter /prod/apps/gaussian/g16b1/l502.exe)
 Two-electron integral symmetry not used.
 Closed shell SCF:
 Using DIIS extrapolation, IDIIS=  1040.
 NGot=  2147483648 LenX=  2147264911 LenY=  2147157541
 Requested convergence on RMS density matrix=1.00D-08 within2000 cycles.
 Requested convergence on MAX density matrix=1.00D-06.
 Requested convergence on             energy=1.00D-06.
 No special actions if energy rises.

 Cycle   1  Pass 1  IDiag  1:
 FoFJK:  IHMeth= 1 ICntrl=       0 DoSepK=F KAlg= 0 I1Cent=           0 FoldK=F
 IRaf= 790000000 NMat=       1 IRICut=       1 DoRegI=T DoRafI=F ISym2E= 0 IDoP0=0 IntGTp=1.
 FoFCou: FMM=F IPFlag=           0 FMFlag=      100000 FMFlg1=           0
         NFxFlg=           0 DoJE=F BraDBF=F KetDBF=F FulRan=T
         wScrn=  0.000000 ICntrl=         0 IOpCl=  0 I1Cent=           0 NGrid=           0
         NMat0=    1 NMatS0=      1 NMatT0=    0 NMatD0=    1 NMtDS0=    0 NMtDT0=    0
 Symmetry not used in FoFCou.
 Inv3:  Mode=1 IEnd=    20062188.
 Iteration    1 A*A^-1 deviation from unit magnitude is 2.89D-15 for   1507.
 Iteration    1 A*A^-1 deviation from orthogonality  is 2.48D-15 for   1738    139.
 Iteration    1 A^-1*A deviation from unit magnitude is 3.55D-15 for   1507.
 Iteration    1 A^-1*A deviation from orthogonality  is 1.83D-15 for   2052   1964.
 E= -1618.65435587107    
 DIIS: error= 3.04D-02 at cycle   1 NSaved=   1.
 NSaved= 1 IEnMin= 1 EnMin= -1618.65435587107     IErMin= 1 ErrMin= 3.04D-02
 ErrMax= 3.04D-02  0.00D+00 EMaxC= 1.00D-01 BMatC= 9.10D-01 BMatP= 9.10D-01
 IDIUse=3 WtCom= 6.96D-01 WtEn= 3.04D-01
 Coeff-Com:  0.100D+01
 Coeff-En:   0.100D+01
 Coeff:      0.100D+01
 Gap=     0.330 Goal=   None    Shift=    0.000
 GapD=    0.330 DampG=1.000 DampE=0.500 DampFc=0.5000 IDamp=-1.
 Damping current iteration by 5.00D-01
 RMSDP=6.92D-03 MaxDP=5.44D-01              OVMax= 2.21D-01

 Cycle   2  Pass 1  IDiag  1:
 E= -1618.87121936992     Delta-E=       -0.216863498856 Rises=F Damp=T
 DIIS: error= 1.59D-02 at cycle   2 NSaved=   2.
 NSaved= 2 IEnMin= 2 EnMin= -1618.87121936992     IErMin= 2 ErrMin= 1.59D-02
 ErrMax= 1.59D-02  0.00D+00 EMaxC= 1.00D-01 BMatC= 1.12D-01 BMatP= 9.10D-01
 IDIUse=3 WtCom= 8.41D-01 WtEn= 1.59D-01
 Coeff-Com:  0.212D+00 0.788D+00
 Coeff-En:   0.341D+00 0.659D+00
 Coeff:      0.232D+00 0.768D+00
 Gap=     0.272 Goal=   None    Shift=    0.000
 RMSDP=1.80D-03 MaxDP=1.05D-01 DE=-2.17D-01 OVMax= 1.69D-01

 Cycle   3  Pass 1  IDiag  1:
 E= -1619.36432709760     Delta-E=       -0.493107727677 Rises=F Damp=F
 DIIS: error= 1.07D-02 at cycle   3 NSaved=   3.
 NSaved= 3 IEnMin= 3 EnMin= -1619.36432709760     IErMin= 3 ErrMin= 1.07D-02
 ErrMax= 1.07D-02  0.00D+00 EMaxC= 1.00D-01 BMatC= 5.98D-02 BMatP= 1.12D-01
 IDIUse=3 WtCom= 8.93D-01 WtEn= 1.07D-01
 Coeff-Com:  0.798D-01 0.434D+00 0.486D+00
 Coeff-En:   0.000D+00 0.000D+00 0.100D+01
 Coeff:      0.712D-01 0.388D+00 0.541D+00
 Gap=     0.242 Goal=   None    Shift=    0.000
 RMSDP=1.02D-03 MaxDP=3.10D-02 DE=-4.93D-01 OVMax= 6.51D-02

 Cycle   4  Pass 1  IDiag  1:
 E= -1619.41193808931     Delta-E=       -0.047610991706 Rises=F Damp=F
 DIIS: error= 3.75D-03 at cycle   4 NSaved=   4.
 NSaved= 4 IEnMin= 4 EnMin= -1619.41193808931     IErMin= 4 ErrMin= 3.75D-03
 ErrMax= 3.75D-03  0.00D+00 EMaxC= 1.00D-01 BMatC= 8.32D-03 BMatP= 5.98D-02
 IDIUse=3 WtCom= 9.63D-01 WtEn= 3.75D-02
 Coeff-Com:  0.541D-02 0.638D-01 0.283D+00 0.647D+00
 Coeff-En:   0.000D+00 0.000D+00 0.110D+00 0.890D+00
 Coeff:      0.521D-02 0.614D-01 0.277D+00 0.656D+00
 Gap=     0.241 Goal=   None    Shift=    0.000
 RMSDP=3.24D-04 MaxDP=1.33D-02 DE=-4.76D-02 OVMax= 2.17D-02

 Cycle   5  Pass 1  IDiag  1:
 E= -1619.41882254728     Delta-E=       -0.006884457973 Rises=F Damp=F
 DIIS: error= 7.80D-04 at cycle   5 NSaved=   5.
 NSaved= 5 IEnMin= 5 EnMin= -1619.41882254728     IErMin= 5 ErrMin= 7.80D-04
 ErrMax= 7.80D-04  0.00D+00 EMaxC= 1.00D-01 BMatC= 5.44D-04 BMatP= 8.32D-03
 IDIUse=3 WtCom= 9.92D-01 WtEn= 7.80D-03
 Coeff-Com: -0.124D-02 0.123D-01 0.118D+00 0.344D+00 0.527D+00
 Coeff-En:   0.000D+00 0.000D+00 0.000D+00 0.000D+00 0.100D+01
 Coeff:     -0.123D-02 0.122D-01 0.117D+00 0.342D+00 0.530D+00
 Gap=     0.241 Goal=   None    Shift=    0.000
 RMSDP=8.88D-05 MaxDP=4.97D-03 DE=-6.88D-03 OVMax= 5.23D-03

 Cycle   6  Pass 1  IDiag  1:
 E= -1619.41928832411     Delta-E=       -0.000465776835 Rises=F Damp=F
 DIIS: error= 2.75D-04 at cycle   6 NSaved=   6.
 NSaved= 6 IEnMin= 6 EnMin= -1619.41928832411     IErMin= 6 ErrMin= 2.75D-04
 ErrMax= 2.75D-04  0.00D+00 EMaxC= 1.00D-01 BMatC= 4.29D-05 BMatP= 5.44D-04
 IDIUse=3 WtCom= 9.97D-01 WtEn= 2.75D-03
 Coeff-Com: -0.100D-02 0.208D-02 0.413D-01 0.131D+00 0.285D+00 0.542D+00
 Coeff-En:   0.000D+00 0.000D+00 0.000D+00 0.000D+00 0.000D+00 0.100D+01
 Coeff:     -0.100D-02 0.207D-02 0.412D-01 0.130D+00 0.285D+00 0.543D+00
 Gap=     0.241 Goal=   None    Shift=    0.000
 RMSDP=2.31D-05 MaxDP=1.24D-03 DE=-4.66D-04 OVMax= 1.41D-03

 Cycle   7  Pass 1  IDiag  1:
 E= -1619.41931945472     Delta-E=       -0.000031130610 Rises=F Damp=F
 DIIS: error= 9.33D-05 at cycle   7 NSaved=   7.
 NSaved= 7 IEnMin= 7 EnMin= -1619.41931945472     IErMin= 7 ErrMin= 9.33D-05
 ErrMax= 9.33D-05  0.00D+00 EMaxC= 1.00D-01 BMatC= 5.34D-06 BMatP= 4.29D-05
 IDIUse=1 WtCom= 1.00D+00 WtEn= 0.00D+00
 Coeff-Com: -0.468D-03-0.138D-03 0.116D-01 0.390D-01 0.112D+00 0.319D+00
 Coeff-Com:  0.519D+00
 Coeff:     -0.468D-03-0.138D-03 0.116D-01 0.390D-01 0.112D+00 0.319D+00
 Coeff:      0.519D+00
 Gap=     0.241 Goal=   None    Shift=    0.000
 RMSDP=7.76D-06 MaxDP=4.36D-04 DE=-3.11D-05 OVMax= 4.51D-04

 Cycle   8  Pass 1  IDiag  1:
 E= -1619.41932341532     Delta-E=       -0.000003960592 Rises=F Damp=F
 DIIS: error= 3.05D-05 at cycle   8 NSaved=   8.
 NSaved= 8 IEnMin= 8 EnMin= -1619.41932341532     IErMin= 8 ErrMin= 3.05D-05
 ErrMax= 3.05D-05  0.00D+00 EMaxC= 1.00D-01 BMatC= 4.32D-07 BMatP= 5.34D-06
 IDIUse=1 WtCom= 1.00D+00 WtEn= 0.00D+00
 Coeff-Com: -0.163D-03-0.272D-03 0.221D-02 0.834D-02 0.336D-01 0.122D+00
 Coeff-Com:  0.285D+00 0.549D+00
 Coeff:     -0.163D-03-0.272D-03 0.221D-02 0.834D-02 0.336D-01 0.122D+00
 Coeff:      0.285D+00 0.549D+00
 Gap=     0.241 Goal=   None    Shift=    0.000
 RMSDP=2.38D-06 MaxDP=1.15D-04 DE=-3.96D-06 OVMax= 1.21D-04

 Cycle   9  Pass 1  IDiag  1:
 E= -1619.41932373322     Delta-E=       -0.000000317901 Rises=F Damp=F
 DIIS: error= 7.62D-06 at cycle   9 NSaved=   9.
 NSaved= 9 IEnMin= 9 EnMin= -1619.41932373322     IErMin= 9 ErrMin= 7.62D-06
 ErrMax= 7.62D-06  0.00D+00 EMaxC= 1.00D-01 BMatC= 4.07D-08 BMatP= 4.32D-07
 IDIUse=1 WtCom= 1.00D+00 WtEn= 0.00D+00
 Coeff-Com: -0.291D-04-0.108D-03-0.371D-03-0.755D-03 0.298D-02 0.216D-01
 Coeff-Com:  0.791D-01 0.285D+00 0.612D+00
 Coeff:     -0.291D-04-0.108D-03-0.371D-03-0.755D-03 0.298D-02 0.216D-01
 Coeff:      0.791D-01 0.285D+00 0.612D+00
 Gap=     0.241 Goal=   None    Shift=    0.000
 RMSDP=6.55D-07 MaxDP=3.24D-05 DE=-3.18D-07 OVMax= 2.65D-05

 Cycle  10  Pass 1  IDiag  1:
 E= -1619.41932376678     Delta-E=       -0.000000033559 Rises=F Damp=F
 DIIS: error= 1.80D-06 at cycle  10 NSaved=  10.
 NSaved=10 IEnMin=10 EnMin= -1619.41932376678     IErMin=10 ErrMin= 1.80D-06
 ErrMax= 1.80D-06  0.00D+00 EMaxC= 1.00D-01 BMatC= 1.64D-09 BMatP= 4.07D-08
 IDIUse=1 WtCom= 1.00D+00 WtEn= 0.00D+00
 Coeff-Com: -0.932D-05-0.271D-04-0.260D-03-0.663D-03-0.184D-04 0.458D-02
 Coeff-Com:  0.239D-01 0.106D+00 0.272D+00 0.594D+00
 Coeff:     -0.932D-05-0.271D-04-0.260D-03-0.663D-03-0.184D-04 0.458D-02
 Coeff:      0.239D-01 0.106D+00 0.272D+00 0.594D+00
 Gap=     0.241 Goal=   None    Shift=    0.000
 RMSDP=1.65D-07 MaxDP=8.83D-06 DE=-3.36D-08 OVMax= 1.01D-05

 Cycle  11  Pass 1  IDiag  1:
 E= -1619.41932376782     Delta-E=       -0.000000001046 Rises=F Damp=F
 DIIS: error= 8.13D-07 at cycle  11 NSaved=  11.
 NSaved=11 IEnMin=11 EnMin= -1619.41932376782     IErMin=11 ErrMin= 8.13D-07
 ErrMax= 8.13D-07  0.00D+00 EMaxC= 1.00D-01 BMatC= 4.09D-10 BMatP= 1.64D-09
 IDIUse=1 WtCom= 1.00D+00 WtEn= 0.00D+00
 Coeff-Com: -0.300D-05 0.959D-06-0.117D-03-0.309D-03-0.451D-03-0.283D-03
 Coeff-Com:  0.349D-02 0.248D-01 0.764D-01 0.353D+00 0.543D+00
 Coeff:     -0.300D-05 0.959D-06-0.117D-03-0.309D-03-0.451D-03-0.283D-03
 Coeff:      0.349D-02 0.248D-01 0.764D-01 0.353D+00 0.543D+00
 Gap=     0.241 Goal=   None    Shift=    0.000
 RMSDP=6.66D-08 MaxDP=3.57D-06 DE=-1.05D-09 OVMax= 4.16D-06

 Cycle  12  Pass 1  IDiag  1:
 E= -1619.41932376813     Delta-E=       -0.000000000304 Rises=F Damp=F
 DIIS: error= 3.02D-07 at cycle  12 NSaved=  12.
 NSaved=12 IEnMin=12 EnMin= -1619.41932376813     IErMin=12 ErrMin= 3.02D-07
 ErrMax= 3.02D-07  0.00D+00 EMaxC= 1.00D-01 BMatC= 4.04D-11 BMatP= 4.09D-10
 IDIUse=1 WtCom= 1.00D+00 WtEn= 0.00D+00
 Coeff-Com: -0.137D-05 0.353D-05-0.476D-04-0.123D-03-0.277D-03-0.641D-03
 Coeff-Com: -0.313D-03 0.417D-02 0.175D-01 0.144D+00 0.312D+00 0.523D+00
 Coeff:     -0.137D-05 0.353D-05-0.476D-04-0.123D-03-0.277D-03-0.641D-03
 Coeff:     -0.313D-03 0.417D-02 0.175D-01 0.144D+00 0.312D+00 0.523D+00
 Gap=     0.241 Goal=   None    Shift=    0.000
 RMSDP=2.16D-08 MaxDP=9.07D-07 DE=-3.04D-10 OVMax= 1.23D-06

 Cycle  13  Pass 1  IDiag  1:
 E= -1619.41932376814     Delta-E=       -0.000000000019 Rises=F Damp=F
 DIIS: error= 7.34D-08 at cycle  13 NSaved=  13.
 NSaved=13 IEnMin=13 EnMin= -1619.41932376814     IErMin=13 ErrMin= 7.34D-08
 ErrMax= 7.34D-08  0.00D+00 EMaxC= 1.00D-01 BMatC= 3.00D-12 BMatP= 4.04D-11
 IDIUse=1 WtCom= 1.00D+00 WtEn= 0.00D+00
 Coeff-Com: -0.506D-06 0.204D-05-0.127D-04-0.311D-04-0.993D-04-0.322D-03
 Coeff-Com: -0.603D-03-0.708D-03 0.612D-04 0.332D-01 0.993D-01 0.270D+00
 Coeff-Com:  0.599D+00
 Coeff:     -0.506D-06 0.204D-05-0.127D-04-0.311D-04-0.993D-04-0.322D-03
 Coeff:     -0.603D-03-0.708D-03 0.612D-04 0.332D-01 0.993D-01 0.270D+00
 Coeff:      0.599D+00
 Gap=     0.241 Goal=   None    Shift=    0.000
 RMSDP=6.13D-09 MaxDP=2.86D-07 DE=-1.86D-11 OVMax= 3.76D-07

 Error on total polarization charges =  0.01940
 SCF Done:  E(RB3LYP) =  -1619.41932377     A.U. after   13 cycles
            NFock= 13  Conv=0.61D-08     -V/T= 2.0066
 KE= 1.608801339752D+03 PE=-7.449324121784D+03 EE= 2.399555364419D+03
 Leave Link  502 at Tue Sep 15 07:26:29 2020, MaxMem=  2147483648 cpu:             314.3 elap:              78.6
 (Enter /prod/apps/gaussian/g16b1/l601.exe)
 Copying SCF densities to generalized density rwf, IOpCl= 0 IROHF=0.

 **********************************************************************

            Population analysis using the SCF Density.

 **********************************************************************

 Alpha  occ. eigenvalues --  -89.12445 -89.09655 -19.15588 -19.15420 -19.15375
 Alpha  occ. eigenvalues --  -19.15278 -14.37480 -10.27567 -10.23047 -10.22530
 Alpha  occ. eigenvalues --  -10.22290 -10.19821 -10.19809 -10.19387 -10.18994
 Alpha  occ. eigenvalues --  -10.18980 -10.18850 -10.18810 -10.18798  -8.15017
 Alpha  occ. eigenvalues --   -8.12727  -6.11517  -6.11452  -6.11282  -6.09177
 Alpha  occ. eigenvalues --   -6.09076  -6.08977  -1.12036  -1.10560  -1.00942
 Alpha  occ. eigenvalues --   -1.00267  -0.94772  -0.85961  -0.85375  -0.79385
 Alpha  occ. eigenvalues --   -0.77663  -0.74335  -0.73678  -0.72308  -0.67781
 Alpha  occ. eigenvalues --   -0.63568  -0.60863  -0.60410  -0.58363  -0.57003
 Alpha  occ. eigenvalues --   -0.54104  -0.52202  -0.50866  -0.50322  -0.49397
 Alpha  occ. eigenvalues --   -0.49298  -0.47845  -0.46790  -0.46170  -0.45252
 Alpha  occ. eigenvalues --   -0.44361  -0.43715  -0.43284  -0.43077  -0.42466
 Alpha  occ. eigenvalues --   -0.41735  -0.41104  -0.40543  -0.38498  -0.37868
 Alpha  occ. eigenvalues --   -0.36136  -0.35382  -0.34945  -0.33989  -0.33686
 Alpha  occ. eigenvalues --   -0.33443  -0.32954  -0.32510  -0.31828  -0.31167
 Alpha  occ. eigenvalues --   -0.30649  -0.29423  -0.27808  -0.25191  -0.24359
 Alpha virt. eigenvalues --   -0.00295  -0.00235   0.03358   0.03988   0.05241
 Alpha virt. eigenvalues --    0.06170   0.06906   0.07531   0.08855   0.09528
 Alpha virt. eigenvalues --    0.10005   0.10112   0.10524   0.11238   0.12845
 Alpha virt. eigenvalues --    0.13974   0.14084   0.15071   0.15694   0.15918
 Alpha virt. eigenvalues --    0.16193   0.16881   0.17933   0.18382   0.19352
 Alpha virt. eigenvalues --    0.19881   0.20669   0.21270   0.22291   0.23889
 Alpha virt. eigenvalues --    0.24253   0.26288   0.28141   0.29032   0.30820
 Alpha virt. eigenvalues --    0.33562   0.33900   0.34430   0.35392   0.35773
 Alpha virt. eigenvalues --    0.36241   0.40438   0.41390   0.43297   0.45656
 Alpha virt. eigenvalues --    0.46316   0.47248   0.48873   0.49487   0.50389
 Alpha virt. eigenvalues --    0.51706   0.52627   0.53325   0.54357   0.54844
 Alpha virt. eigenvalues --    0.55499   0.56004   0.57317   0.59166   0.59531
 Alpha virt. eigenvalues --    0.59907   0.60476   0.60602   0.61398   0.61525
 Alpha virt. eigenvalues --    0.62749   0.63827   0.65165   0.66526   0.68127
 Alpha virt. eigenvalues --    0.68361   0.69791   0.70480   0.72181   0.72704
 Alpha virt. eigenvalues --    0.73814   0.76420   0.77946   0.79065   0.79648
 Alpha virt. eigenvalues --    0.80546   0.81002   0.82342   0.83078   0.83465
 Alpha virt. eigenvalues --    0.83887   0.84365   0.84829   0.84956   0.86694
 Alpha virt. eigenvalues --    0.87134   0.87244   0.87834   0.88234   0.89580
 Alpha virt. eigenvalues --    0.90482   0.91378   0.92135   0.92400   0.93345
 Alpha virt. eigenvalues --    0.94609   0.95941   0.96289   0.96926   0.97370
 Alpha virt. eigenvalues --    0.99087   0.99765   1.00654   1.01561   1.01919
 Alpha virt. eigenvalues --    1.03529   1.04193   1.04805   1.06908   1.07782
 Alpha virt. eigenvalues --    1.10385   1.11523   1.12724   1.12755   1.16156
 Alpha virt. eigenvalues --    1.16620   1.17148   1.17847   1.19075   1.19487
 Alpha virt. eigenvalues --    1.19816   1.22648   1.24065   1.25959   1.28641
 Alpha virt. eigenvalues --    1.31710   1.33499   1.36012   1.38013   1.39042
 Alpha virt. eigenvalues --    1.42344   1.43173   1.45232   1.46174   1.47181
 Alpha virt. eigenvalues --    1.48339   1.49176   1.51340   1.51903   1.58060
 Alpha virt. eigenvalues --    1.61222   1.62272   1.66801   1.68367   1.69990
 Alpha virt. eigenvalues --    1.71629   1.72839   1.73379   1.73687   1.76466
 Alpha virt. eigenvalues --    1.78375   1.79274   1.79540   1.79764   1.80243
 Alpha virt. eigenvalues --    1.80581   1.81124   1.82237   1.83504   1.83784
 Alpha virt. eigenvalues --    1.84762   1.86694   1.88896   1.91015   1.92074
 Alpha virt. eigenvalues --    1.93266   1.94006   1.95616   1.97789   1.98411
 Alpha virt. eigenvalues --    1.99550   2.00959   2.02402   2.02770   2.04110
 Alpha virt. eigenvalues --    2.05793   2.06304   2.07844   2.08682   2.10077
 Alpha virt. eigenvalues --    2.13250   2.13730   2.14178   2.14838   2.15155
 Alpha virt. eigenvalues --    2.16819   2.18918   2.20678   2.21677   2.22257
 Alpha virt. eigenvalues --    2.24017   2.26416   2.26850   2.29107   2.30234
 Alpha virt. eigenvalues --    2.30779   2.31391   2.31912   2.34981   2.37076
 Alpha virt. eigenvalues --    2.40363   2.41210   2.47204   2.54543   2.55549
 Alpha virt. eigenvalues --    2.57836   2.58131   2.66147   2.67603   2.70367
 Alpha virt. eigenvalues --    2.71916   2.72421   2.73474   2.73999   2.74459
 Alpha virt. eigenvalues --    2.76884   2.77340   2.80657   2.81428   2.88550
 Alpha virt. eigenvalues --    2.94199   3.05051   3.41002   3.76189   3.78787
 Alpha virt. eigenvalues --    3.86846   3.94267   3.95213   4.03395   4.04878
 Alpha virt. eigenvalues --    4.09036   4.11546   4.15118   4.20134   4.20988
 Alpha virt. eigenvalues --    4.23973   4.32973   4.34106   4.41147   4.50390
 Alpha virt. eigenvalues --    4.70256   4.73355
          Condensed to atoms (all electrons):
               1          2          3          4          5          6
     1  C    5.517067   0.239895  -0.058937   0.002838  -0.000048   0.000012
     2  S    0.239895  13.623060   0.130216  -0.018652  -0.005936   0.000959
     3  N   -0.058937   0.130216   7.392741   0.236653  -0.061105   0.011442
     4  C    0.002838  -0.018652   0.236653   4.888569   0.347714  -0.105551
     5  C   -0.000048  -0.005936  -0.061105   0.347714   5.681776   0.150841
     6  S    0.000012   0.000959   0.011442  -0.105551   0.150841  13.877150
     7  C   -0.000208   0.000440  -0.054774   0.339069  -0.183135   0.138174
     8  O   -0.000047   0.000193   0.000020  -0.000293  -0.044359   0.421372
     9  O   -0.000000  -0.000002  -0.000048   0.002772  -0.046186   0.429451
    10  C   -0.000194   0.002338  -0.057133   0.362290  -0.046330   0.002717
    11  C    0.000001   0.000023   0.004102  -0.028316  -0.006201  -0.000169
    12  C   -0.000000  -0.000041  -0.000094   0.003709   0.000149   0.000001
    13  C   -0.000000  -0.000001  -0.000003   0.000099  -0.000005   0.000000
    14  C   -0.000000   0.000000  -0.000000   0.000002  -0.000000  -0.000000
    15  C    0.000000   0.000000   0.000000  -0.000000   0.000000   0.000000
    16  C   -0.000000  -0.000000  -0.000000   0.000002  -0.000000  -0.000000
    17  C   -0.000000  -0.000023  -0.000001   0.000077  -0.000002   0.000001
    18  O   -0.055863   0.405066  -0.050316   0.007696  -0.004741  -0.000243
    19  O   -0.060966   0.435061  -0.051385  -0.003943  -0.000126   0.000009
    20  H    0.342581  -0.005322   0.000672  -0.000048   0.000010   0.000142
    21  H    0.355232  -0.016402   0.002674  -0.000038  -0.000005   0.000002
    22  H    0.343319  -0.004089  -0.000083  -0.000072   0.000005  -0.000007
    23  H   -0.000451  -0.003803   0.289625  -0.021546   0.004588  -0.000384
    24  H   -0.000004   0.000040   0.003274  -0.027838   0.334718  -0.006103
    25  H   -0.000587   0.002491  -0.004933  -0.019569   0.341261  -0.009822
    26  H    0.000001   0.000025   0.003290  -0.026844   0.004648  -0.004851
    27  H   -0.000003   0.000063  -0.004855  -0.021453   0.008599  -0.009725
    28  H    0.000016   0.000178  -0.001387  -0.032850   0.005210  -0.000085
    29  H    0.000089   0.011852  -0.007148  -0.030451  -0.005132  -0.000195
    30  H    0.000000  -0.000017  -0.000002  -0.005224   0.001263  -0.000073
    31  H   -0.000000   0.000018   0.000007  -0.004507  -0.000403  -0.000099
    32  H    0.000000  -0.000000   0.000001  -0.000060   0.000000   0.000000
    33  H   -0.000000  -0.000000   0.000000  -0.000000  -0.000000  -0.000000
    34  H    0.000000   0.000000  -0.000000   0.000000   0.000000  -0.000000
    35  H    0.000000  -0.000000   0.000000  -0.000000  -0.000000  -0.000000
    36  H   -0.000000  -0.000003   0.000000  -0.000040  -0.000002   0.000000
               7          8          9         10         11         12
     1  C   -0.000208  -0.000047  -0.000000  -0.000194   0.000001  -0.000000
     2  S    0.000440   0.000193  -0.000002   0.002338   0.000023  -0.000041
     3  N   -0.054774   0.000020  -0.000048  -0.057133   0.004102  -0.000094
     4  C    0.339069  -0.000293   0.002772   0.362290  -0.028316   0.003709
     5  C   -0.183135  -0.044359  -0.046186  -0.046330  -0.006201   0.000149
     6  S    0.138174   0.421372   0.429451   0.002717  -0.000169   0.000001
     7  C    5.703337  -0.044625  -0.045797  -0.044785  -0.005897   0.000040
     8  O   -0.044625   8.279816  -0.046915  -0.000083  -0.000002   0.000000
     9  O   -0.045797  -0.046915   8.266057  -0.000196   0.000013   0.000000
    10  C   -0.044785  -0.000083  -0.000196   5.123536   0.336806  -0.037557
    11  C   -0.005897  -0.000002   0.000013   0.336806   5.189617   0.350837
    12  C    0.000040   0.000000   0.000000  -0.037557   0.350837   4.654124
    13  C    0.000006  -0.000000   0.000000  -0.004285  -0.059075   0.544839
    14  C   -0.000000  -0.000000  -0.000000  -0.000016   0.006496  -0.021470
    15  C    0.000000   0.000000   0.000000   0.000017   0.000357  -0.034317
    16  C   -0.000000  -0.000000  -0.000000  -0.000057   0.006710  -0.022176
    17  C   -0.000004  -0.000000   0.000000  -0.004250  -0.056429   0.548106
    18  O    0.000179  -0.000000  -0.000000  -0.007464  -0.000082   0.000002
    19  O   -0.000106  -0.000000  -0.000000   0.003034   0.000043   0.000001
    20  H    0.000009   0.000143   0.000000  -0.000001  -0.000000  -0.000000
    21  H    0.000001  -0.000000   0.000000   0.000004  -0.000000   0.000000
    22  H   -0.000004   0.000000   0.000000   0.000011   0.000000  -0.000000
    23  H   -0.006313   0.000003   0.000001  -0.000565  -0.000067   0.000001
    24  H    0.005109   0.001164   0.001033  -0.006674   0.002034   0.000034
    25  H    0.008302  -0.000234   0.000590   0.000919   0.000111  -0.000002
    26  H    0.334301   0.001109   0.000694  -0.005634   0.001671  -0.000029
    27  H    0.344659  -0.000190   0.000660   0.000768   0.000075   0.000000
    28  H   -0.006485   0.000001   0.000002   0.367215  -0.036862  -0.002046
    29  H    0.004954   0.000001   0.000002   0.363086  -0.036439  -0.000735
    30  H   -0.000188   0.000001  -0.000031  -0.036416   0.359827  -0.027733
    31  H    0.001505   0.000001   0.000014  -0.038296   0.361000  -0.027743
    32  H   -0.000003   0.000000   0.000000   0.000245  -0.008970  -0.045094
    33  H   -0.000000  -0.000000   0.000000  -0.000001  -0.000175   0.003649
    34  H    0.000000   0.000000   0.000000   0.000000   0.000006   0.000622
    35  H   -0.000000  -0.000000  -0.000000  -0.000001  -0.000175   0.003674
    36  H    0.000000   0.000000   0.000000   0.000136  -0.009425  -0.044280
              13         14         15         16         17         18
     1  C   -0.000000  -0.000000   0.000000  -0.000000  -0.000000  -0.055863
     2  S   -0.000001   0.000000   0.000000  -0.000000  -0.000023   0.405066
     3  N   -0.000003  -0.000000   0.000000  -0.000000  -0.000001  -0.050316
     4  C    0.000099   0.000002  -0.000000   0.000002   0.000077   0.007696
     5  C   -0.000005  -0.000000   0.000000  -0.000000  -0.000002  -0.004741
     6  S    0.000000  -0.000000   0.000000  -0.000000   0.000001  -0.000243
     7  C    0.000006  -0.000000   0.000000  -0.000000  -0.000004   0.000179
     8  O   -0.000000  -0.000000   0.000000  -0.000000  -0.000000  -0.000000
     9  O    0.000000  -0.000000   0.000000  -0.000000   0.000000  -0.000000
    10  C   -0.004285  -0.000016   0.000017  -0.000057  -0.004250  -0.007464
    11  C   -0.059075   0.006496   0.000357   0.006710  -0.056429  -0.000082
    12  C    0.544839  -0.021470  -0.034317  -0.022176   0.548106   0.000002
    13  C    4.981007   0.519363  -0.038409  -0.046909  -0.040157  -0.000000
    14  C    0.519363   4.898486   0.544218  -0.028845  -0.046586  -0.000000
    15  C   -0.038409   0.544218   4.884584   0.544558  -0.038406   0.000000
    16  C   -0.046909  -0.028845   0.544558   4.900259   0.518201  -0.000000
    17  C   -0.040157  -0.046586  -0.038406   0.518201   4.977751  -0.000001
    18  O   -0.000000  -0.000000   0.000000  -0.000000  -0.000001   8.323529
    19  O   -0.000000  -0.000000  -0.000000   0.000000   0.000000  -0.044422
    20  H    0.000000   0.000000  -0.000000   0.000000  -0.000000  -0.000223
    21  H    0.000000   0.000000  -0.000000   0.000000   0.000000  -0.000338
    22  H    0.000000   0.000000  -0.000000  -0.000000   0.000000   0.001594
    23  H   -0.000000  -0.000000  -0.000000   0.000000   0.000000   0.001228
    24  H   -0.000000  -0.000000   0.000000  -0.000000  -0.000005  -0.000111
    25  H    0.000000  -0.000000  -0.000000   0.000000   0.000000   0.010447
    26  H   -0.000001  -0.000000   0.000000  -0.000000   0.000001   0.000001
    27  H    0.000000   0.000000  -0.000000  -0.000000   0.000000   0.000004
    28  H    0.003984  -0.000153  -0.000004  -0.000008  -0.000044   0.000116
    29  H   -0.000027  -0.000015  -0.000006  -0.000124   0.003799   0.005935
    30  H    0.003935  -0.000202   0.000010   0.000126  -0.004342   0.000016
    31  H   -0.004236   0.000107   0.000012  -0.000206   0.003615  -0.000002
    32  H    0.360039  -0.044704   0.004742   0.000271   0.005957   0.000000
    33  H   -0.038747   0.360742  -0.042282   0.004493   0.000765  -0.000000
    34  H    0.004587  -0.042159   0.363241  -0.042101   0.004572   0.000000
    35  H    0.000763   0.004489  -0.042387   0.360598  -0.038594  -0.000000
    36  H    0.006038   0.000264   0.004743  -0.045104   0.359923   0.000001
              19         20         21         22         23         24
     1  C   -0.060966   0.342581   0.355232   0.343319  -0.000451  -0.000004
     2  S    0.435061  -0.005322  -0.016402  -0.004089  -0.003803   0.000040
     3  N   -0.051385   0.000672   0.002674  -0.000083   0.289625   0.003274
     4  C   -0.003943  -0.000048  -0.000038  -0.000072  -0.021546  -0.027838
     5  C   -0.000126   0.000010  -0.000005   0.000005   0.004588   0.334718
     6  S    0.000009   0.000142   0.000002  -0.000007  -0.000384  -0.006103
     7  C   -0.000106   0.000009   0.000001  -0.000004  -0.006313   0.005109
     8  O   -0.000000   0.000143  -0.000000   0.000000   0.000003   0.001164
     9  O   -0.000000   0.000000   0.000000   0.000000   0.000001   0.001033
    10  C    0.003034  -0.000001   0.000004   0.000011  -0.000565  -0.006674
    11  C    0.000043  -0.000000  -0.000000   0.000000  -0.000067   0.002034
    12  C    0.000001  -0.000000   0.000000  -0.000000   0.000001   0.000034
    13  C   -0.000000   0.000000   0.000000   0.000000  -0.000000  -0.000000
    14  C   -0.000000   0.000000   0.000000   0.000000  -0.000000  -0.000000
    15  C   -0.000000  -0.000000  -0.000000  -0.000000  -0.000000   0.000000
    16  C    0.000000   0.000000   0.000000  -0.000000   0.000000  -0.000000
    17  C    0.000000  -0.000000   0.000000   0.000000   0.000000  -0.000005
    18  O   -0.044422  -0.000223  -0.000338   0.001594   0.001228  -0.000111
    19  O    8.291327   0.001781   0.000259  -0.000661   0.000565   0.000002
    20  H    0.001781   0.468012  -0.017332  -0.020482   0.000033   0.000000
    21  H    0.000259  -0.017332   0.461963  -0.018074  -0.000052   0.000000
    22  H   -0.000661  -0.020482  -0.018074   0.468022   0.000112   0.000000
    23  H    0.000565   0.000033  -0.000052   0.000112   0.316960  -0.000085
    24  H    0.000002   0.000000   0.000000   0.000000  -0.000085   0.472563
    25  H    0.000031   0.000124   0.000010   0.000006   0.000050  -0.013916
    26  H    0.000001  -0.000000  -0.000000  -0.000000   0.000061  -0.000037
    27  H   -0.000005  -0.000000   0.000000  -0.000003   0.003560  -0.000209
    28  H    0.000137  -0.000000  -0.000000  -0.000002   0.002889   0.000129
    29  H   -0.001138   0.000000   0.000002  -0.000004  -0.000314   0.000573
    30  H   -0.000000   0.000000   0.000000  -0.000000   0.000005   0.006144
    31  H   -0.000000   0.000000  -0.000000   0.000000  -0.000008   0.000165
    32  H   -0.000000  -0.000000  -0.000000  -0.000000  -0.000000   0.000000
    33  H    0.000000  -0.000000  -0.000000   0.000000  -0.000000   0.000000
    34  H   -0.000000   0.000000   0.000000  -0.000000   0.000000  -0.000000
    35  H   -0.000000  -0.000000  -0.000000   0.000000  -0.000000  -0.000000
    36  H   -0.000000  -0.000000  -0.000000  -0.000000  -0.000000   0.000022
              25         26         27         28         29         30
     1  C   -0.000587   0.000001  -0.000003   0.000016   0.000089   0.000000
     2  S    0.002491   0.000025   0.000063   0.000178   0.011852  -0.000017
     3  N   -0.004933   0.003290  -0.004855  -0.001387  -0.007148  -0.000002
     4  C   -0.019569  -0.026844  -0.021453  -0.032850  -0.030451  -0.005224
     5  C    0.341261   0.004648   0.008599   0.005210  -0.005132   0.001263
     6  S   -0.009822  -0.004851  -0.009725  -0.000085  -0.000195  -0.000073
     7  C    0.008302   0.334301   0.344659  -0.006485   0.004954  -0.000188
     8  O   -0.000234   0.001109  -0.000190   0.000001   0.000001   0.000001
     9  O    0.000590   0.000694   0.000660   0.000002   0.000002  -0.000031
    10  C    0.000919  -0.005634   0.000768   0.367215   0.363086  -0.036416
    11  C    0.000111   0.001671   0.000075  -0.036862  -0.036439   0.359827
    12  C   -0.000002  -0.000029   0.000000  -0.002046  -0.000735  -0.027733
    13  C    0.000000  -0.000001   0.000000   0.003984  -0.000027   0.003935
    14  C   -0.000000  -0.000000   0.000000  -0.000153  -0.000015  -0.000202
    15  C   -0.000000   0.000000  -0.000000  -0.000004  -0.000006   0.000010
    16  C    0.000000  -0.000000  -0.000000  -0.000008  -0.000124   0.000126
    17  C    0.000000   0.000001   0.000000  -0.000044   0.003799  -0.004342
    18  O    0.010447   0.000001   0.000004   0.000116   0.005935   0.000016
    19  O    0.000031   0.000001  -0.000005   0.000137  -0.001138  -0.000000
    20  H    0.000124  -0.000000  -0.000000  -0.000000   0.000000   0.000000
    21  H    0.000010  -0.000000   0.000000  -0.000000   0.000002   0.000000
    22  H    0.000006  -0.000000  -0.000003  -0.000002  -0.000004  -0.000000
    23  H    0.000050   0.000061   0.003560   0.002889  -0.000314   0.000005
    24  H   -0.013916  -0.000037  -0.000209   0.000129   0.000573   0.006144
    25  H    0.439653  -0.000214  -0.000282  -0.000071   0.000243  -0.000002
    26  H   -0.000214   0.465419  -0.014540   0.000590   0.000183   0.000007
    27  H   -0.000282  -0.014540   0.456052   0.000334  -0.000068  -0.000004
    28  H   -0.000071   0.000590   0.000334   0.560332  -0.032833   0.005278
    29  H    0.000243   0.000183  -0.000068  -0.032833   0.541658  -0.004799
    30  H   -0.000002   0.000007  -0.000004   0.005278  -0.004799   0.566455
    31  H    0.000004   0.006321   0.000008  -0.004379   0.005076  -0.034902
    32  H   -0.000000   0.000068   0.000001   0.000848   0.000041   0.000067
    33  H    0.000000  -0.000000  -0.000000   0.000004   0.000000   0.000003
    34  H   -0.000000  -0.000000  -0.000000  -0.000000  -0.000000  -0.000000
    35  H    0.000000   0.000000   0.000000   0.000000   0.000003  -0.000006
    36  H    0.000000   0.000000  -0.000000   0.000032   0.000649   0.005299
              31         32         33         34         35         36
     1  C   -0.000000   0.000000  -0.000000   0.000000   0.000000  -0.000000
     2  S    0.000018  -0.000000  -0.000000   0.000000  -0.000000  -0.000003
     3  N    0.000007   0.000001   0.000000  -0.000000   0.000000   0.000000
     4  C   -0.004507  -0.000060  -0.000000   0.000000  -0.000000  -0.000040
     5  C   -0.000403   0.000000  -0.000000   0.000000  -0.000000  -0.000002
     6  S   -0.000099   0.000000  -0.000000  -0.000000  -0.000000   0.000000
     7  C    0.001505  -0.000003  -0.000000   0.000000  -0.000000   0.000000
     8  O    0.000001   0.000000  -0.000000   0.000000  -0.000000   0.000000
     9  O    0.000014   0.000000   0.000000   0.000000  -0.000000   0.000000
    10  C   -0.038296   0.000245  -0.000001   0.000000  -0.000001   0.000136
    11  C    0.361000  -0.008970  -0.000175   0.000006  -0.000175  -0.009425
[...]
    33  H   -0.000009   0.000348  -0.000600   0.006046   0.000021   0.000257
    34  H   -0.000008  -0.000174   0.000022   0.000805  -0.000409  -0.000036
    35  H   -0.000011   0.000228  -0.000724   0.004010   0.001193   0.000263
    36  H    0.001209  -0.001371  -0.001746   0.063021  -0.012048  -0.004276
               7          8          9         10         11         12
     1  C   -0.043336   0.005504   0.000145  -0.082049   0.005883  -0.007891
     2  S   -0.417939   0.015150   0.002730   1.442589  -0.017462  -0.093802
     3  N   -0.314035   0.037961   0.053429   3.574176   0.107966  -0.371996
     4  C   -1.861618   0.161778  -0.107399 -15.751468  -3.337071   3.632839
     5  C   -0.622748   0.068601   0.118420   0.793217   0.198689  -0.299747
     6  S    0.913783  -0.377157  -0.270089  -0.323452  -0.243582   0.135413
     7  C   10.514154  -0.001507   0.065801  -2.427203  -0.480213   0.250773
     8  O   -0.001507   9.295739   0.052790  -0.020078   0.000348  -0.002226
     9  O    0.065801   0.052790   9.243017  -0.025214   0.039191  -0.021599
    10  C   -2.427203  -0.020078  -0.025214  20.094957   0.554281  -1.777106
    11  C   -0.480213   0.000348   0.039191   0.554281  14.839276  -4.919661
    12  C    0.250773  -0.002226  -0.021599  -1.777106  -4.919661  18.663044
    13  C   -0.181304   0.000417   0.003730  -0.341152   0.405537  -7.031688
    14  C   -0.040347  -0.000036  -0.000092   0.099693  -0.777228   3.097865
    15  C    0.005813   0.000005   0.000115  -0.105412   0.341398  -3.863114
    16  C   -0.012637  -0.000018  -0.000251   0.144608  -0.774752   3.219278
    17  C    0.080195   0.000342   0.002104  -0.547806   0.142169  -6.865199
    18  O   -0.068065   0.001194  -0.000275   0.039806   0.059706  -0.006397
    19  O    0.008382  -0.000013  -0.000008  -0.262755  -0.011777   0.005629
    20  H   -0.006926  -0.002824  -0.000214   0.046024   0.001851  -0.003087
    21  H    0.006251   0.000841   0.000195   0.019794  -0.002318  -0.000413
    22  H   -0.016639  -0.001035  -0.000543  -0.069703   0.001127   0.002137
    23  H   -0.083725   0.005235   0.004489  -0.108247   0.015754   0.000956
    24  H   -0.481664   0.022682   0.058443   0.417662   0.269505  -0.105912
    25  H    0.193962  -0.000835  -0.005283   0.219651  -0.013414  -0.018410
    26  H    0.151845   0.009913   0.041361  -0.048331   0.079987   0.015058
    27  H    0.102682  -0.003249  -0.006799   0.073348   0.003076  -0.008921
    28  H   -0.051007  -0.000573  -0.002466  -0.472175   0.138402  -0.241522
    29  H    0.046872  -0.000064   0.001169   0.592368   0.079876  -0.217841
    30  H    0.300188  -0.003942  -0.011223  -0.311634  -0.684246   0.203201
    31  H   -0.121556   0.001605  -0.003637   0.261647  -0.592643   0.059635
    32  H    0.007128   0.000217   0.001249   0.074939  -0.269628   0.860739
    33  H   -0.000693  -0.000005  -0.000045   0.008872   0.001681  -0.151193
    34  H    0.000188   0.000001   0.000005  -0.007269   0.003179   0.096017
    35  H   -0.001121  -0.000004  -0.000034   0.002362   0.005382  -0.159996
    36  H    0.005737   0.000260   0.000897   0.062594  -0.192084   0.807466
              13         14         15         16         17         18
     1  C    0.000955   0.000204  -0.000311  -0.000203  -0.002099  -0.092894
     2  S    0.012208   0.007406  -0.007849   0.005439  -0.027891  -0.088390
     3  N    0.027591  -0.017504   0.004141  -0.007199   0.053081   0.076130
     4  C   -0.408496   0.213112  -0.054931   0.164691  -0.363980  -0.236761
     5  C    0.016293  -0.001501  -0.006799   0.015067  -0.076712   0.117487
     6  S   -0.028303  -0.000186  -0.000370   0.001934  -0.011700  -0.004833
     7  C   -0.181304  -0.040347   0.005813  -0.012637   0.080195  -0.068065
     8  O    0.000417  -0.000036   0.000005  -0.000018   0.000342   0.001194
     9  O    0.003730  -0.000092   0.000115  -0.000251   0.002104  -0.000275
    10  C   -0.341152   0.099693  -0.105412   0.144608  -0.547806   0.039806
    11  C    0.405537  -0.777228   0.341398  -0.774752   0.142169   0.059706
    12  C   -7.031688   3.097865  -3.863114   3.219278  -6.865199  -0.006397
    13  C   17.271152  -4.443690   3.437190  -3.926473   1.436133   0.002429
    14  C   -4.443690  11.541049  -3.393070   3.826137  -3.958927   0.000621
    15  C    3.437190  -3.393070   9.132610  -3.403756   3.470582  -0.000456
    16  C   -3.926473   3.826137  -3.403756  11.295132  -4.431115  -0.000869
    17  C    1.436133  -3.958927   3.470582  -4.431115  17.148054  -0.012741
    18  O    0.002429   0.000621  -0.000456  -0.000869  -0.012741   9.291157
    19  O    0.000144  -0.002443   0.001435  -0.002213   0.002258   0.039273
    20  H    0.000648  -0.000097   0.000026  -0.000232   0.000631   0.027983
    21  H   -0.000045  -0.000004   0.000002   0.000053   0.000177  -0.016330
    22  H   -0.000269   0.000296  -0.000089   0.000079  -0.001178   0.008876
    23  H    0.005715  -0.000157  -0.000521   0.001590   0.003335   0.010409
    24  H    0.050843   0.005644  -0.002012  -0.005111  -0.022739   0.027819
    25  H   -0.008362  -0.000527  -0.000442   0.004072  -0.003979   0.020643
    26  H   -0.016295  -0.010349   0.002136  -0.003028   0.039517  -0.000463
    27  H   -0.007860   0.000319  -0.000326   0.000033  -0.003610  -0.001341
    28  H    0.058287  -0.012049   0.019570  -0.048689   0.038563   0.002718
    29  H    0.084857  -0.067375   0.043496  -0.031790   0.106057   0.027125
    30  H   -0.385158  -0.094223   0.010807   0.132028   0.279785  -0.006536
    31  H    0.220171   0.157008  -0.007695  -0.051833  -0.357670   0.003844
    32  H   -1.254654   0.384079  -0.156968   0.131815  -0.090783  -0.000157
    33  H    0.669667  -0.797414   0.328181  -0.254810   0.130382  -0.000005
    34  H   -0.141911   0.376681  -0.605247   0.380146  -0.139465  -0.000018
    35  H    0.125616  -0.236876   0.325287  -0.747438   0.631880   0.000118
    36  H   -0.085402   0.122995  -0.154785   0.367905  -1.224750  -0.001029
              19         20         21         22         23         24
     1  C   -0.113408   0.328831   0.273735   0.339365  -0.009501   0.001752
     2  S   -0.096679  -0.049918   0.147280  -0.031507  -0.178040   0.081958
     3  N   -0.095281  -0.009851   0.055243  -0.149169   0.338844   0.198582
     4  C    0.432243  -0.015650  -0.083232   0.194611   0.229251  -0.510439
     5  C   -0.021207  -0.030561   0.012778  -0.012936   0.000779   0.282404
     6  S    0.003343   0.003377  -0.004516   0.010051  -0.022343  -0.266941
     7  C    0.008382  -0.006926   0.006251  -0.016639  -0.083725  -0.481664
     8  O   -0.000013  -0.002824   0.000841  -0.001035   0.005235   0.022682
     9  O   -0.000008  -0.000214   0.000195  -0.000543   0.004489   0.058443
    10  C   -0.262755   0.046024   0.019794  -0.069703  -0.108247   0.417662
    11  C   -0.011777   0.001851  -0.002318   0.001127   0.015754   0.269505
    12  C    0.005629  -0.003087  -0.000413   0.002137   0.000956  -0.105912
    13  C    0.000144   0.000648  -0.000045  -0.000269   0.005715   0.050843
    14  C   -0.002443  -0.000097  -0.000004   0.000296  -0.000157   0.005644
    15  C    0.001435   0.000026   0.000002  -0.000089  -0.000521  -0.002012
    16  C   -0.002213  -0.000232   0.000053   0.000079   0.001590  -0.005111
    17  C    0.002258   0.000631   0.000177  -0.001178   0.003335  -0.022739
    18  O    0.039273   0.027983  -0.016330   0.008876   0.010409   0.027819
    19  O    9.200231   0.009035  -0.025571   0.025062   0.047827  -0.003657
    20  H    0.009035   0.858105  -0.109268  -0.078340   0.007729   0.002502
    21  H   -0.025571  -0.109268   0.810723  -0.126771  -0.003231   0.001400
    22  H    0.025062  -0.078340  -0.126771   0.883787   0.008001  -0.002585
    23  H    0.047827   0.007729  -0.003231   0.008001   0.789659   0.008772
    24  H   -0.003657   0.002502   0.001400  -0.002585   0.008772   1.640461
    25  H   -0.000579  -0.008874  -0.001777   0.003464  -0.003425  -0.254080
    26  H   -0.001356   0.001336   0.001002  -0.002822   0.016284  -0.002462
    27  H    0.000394  -0.004118  -0.001182   0.004336  -0.009349  -0.008129
    28  H    0.013384   0.000135  -0.001676   0.003943  -0.007915  -0.005312
    29  H    0.010727   0.001497   0.003487  -0.001683  -0.018736   0.030281
    30  H    0.001567  -0.000400  -0.000421   0.000035  -0.007439  -0.201941
    31  H   -0.001423  -0.000227  -0.000073   0.000614  -0.004128   0.027176
    32  H    0.000264   0.000025   0.000012  -0.000102   0.000377   0.001505
    33  H   -0.000127  -0.000006   0.000002   0.000011  -0.000027  -0.000251
    34  H    0.000035   0.000001   0.000000  -0.000004   0.000038  -0.000017
    35  H   -0.000277  -0.000020  -0.000004   0.000019  -0.000054   0.000832
    36  H    0.000367   0.000252  -0.000010  -0.000042   0.000157  -0.002761
              25         26         27         28         29         30
     1  C   -0.010437  -0.003576  -0.000383   0.016875  -0.047253  -0.003598
     2  S   -0.030867  -0.004476  -0.027299  -0.029145   0.080486  -0.050926
     3  N    0.120646   0.173771  -0.092255  -0.249110   0.151691  -0.056347
     4  C   -0.515542   0.016227  -0.033168   0.313020  -0.992480   0.284008
     5  C    0.306779  -0.155840   0.198023   0.115296  -0.042083  -0.059000
     6  S   -0.004634  -0.135340   0.010356   0.026641   0.005771   0.093962
     7  C    0.193962   0.151845   0.102682  -0.051007   0.046872   0.300188
     8  O   -0.000835   0.009913  -0.003249  -0.000573  -0.000064  -0.003942
     9  O   -0.005283   0.041361  -0.006799  -0.002466   0.001169  -0.011223
    10  C    0.219651  -0.048331   0.073348  -0.472175   0.592368  -0.311634
    11  C   -0.013414   0.079987   0.003076   0.138402   0.079876  -0.684246
    12  C   -0.018410   0.015058  -0.008921  -0.241522  -0.217841   0.203201
    13  C   -0.008362  -0.016295  -0.007860   0.058287   0.084857  -0.385158
    14  C   -0.000527  -0.010349   0.000319  -0.012049  -0.067375  -0.094223
    15  C   -0.000442   0.002136  -0.000326   0.019570   0.043496   0.010807
    16  C    0.004072  -0.003028   0.000033  -0.048689  -0.031790   0.132028
    17  C   -0.003979   0.039517  -0.003610   0.038563   0.106057   0.279785
    18  O    0.020643  -0.000463  -0.001341   0.002718   0.027125  -0.006536
    19  O   -0.000579  -0.001356   0.000394   0.013384   0.010727   0.001567
    20  H   -0.008874   0.001336  -0.004118   0.000135   0.001497  -0.000400
    21  H   -0.001777   0.001002  -0.001182  -0.001676   0.003487  -0.000421
    22  H    0.003464  -0.002822   0.004336   0.003943  -0.001683   0.000035
    23  H   -0.003425   0.016284  -0.009349  -0.007915  -0.018736  -0.007439
    24  H   -0.254080  -0.002462  -0.008129  -0.005312   0.030281  -0.201941
    25  H    1.189083   0.002855   0.018293   0.011284   0.008090   0.032973
    26  H    0.002855   1.403909  -0.267048  -0.013876  -0.007762   0.012048
    27  H    0.018293  -0.267048   1.312672   0.012977   0.007703   0.012239
    28  H    0.011284  -0.013876   0.012977   1.790386  -0.257189   0.066107
    29  H    0.008090  -0.007762   0.007703  -0.257189   1.588018  -0.105539
    30  H    0.032973   0.012048   0.012239   0.066107  -0.105539   2.094362
    31  H    0.002050  -0.123230   0.028774  -0.088758   0.074966  -0.236800
    32  H   -0.000777   0.001315   0.000089  -0.017866  -0.000629   0.009857
    33  H    0.000044   0.000825  -0.000016  -0.002410   0.000383   0.000445
    34  H   -0.000040   0.000126  -0.000024  -0.000542  -0.000610   0.000624
    35  H    0.000040  -0.000485   0.000053   0.000057  -0.000544  -0.002609
    36  H   -0.001843   0.001755  -0.000956   0.008170  -0.030992  -0.026872
              31         32         33         34         35         36
     1  C    0.003445  -0.000145  -0.000009  -0.000008  -0.000011   0.001209
     2  S    0.034969  -0.000850   0.000348  -0.000174   0.000228  -0.001371
     3  N    0.022048   0.000648  -0.000600   0.000022  -0.000724  -0.001746
     4  C    0.026354   0.062219   0.006046   0.000805   0.004010   0.063021
     5  C    0.053552  -0.001280   0.000021  -0.000409   0.001193  -0.012048
     6  S    0.020708  -0.004624   0.000257  -0.000036   0.000263  -0.004276
     7  C   -0.121556   0.007128  -0.000693   0.000188  -0.001121   0.005737
     8  O    0.001605   0.000217  -0.000005   0.000001  -0.000004   0.000260
     9  O   -0.003637   0.001249  -0.000045   0.000005  -0.000034   0.000897
    10  C    0.261647   0.074939   0.008872  -0.007269   0.002362   0.062594
    11  C   -0.592643  -0.269628   0.001681   0.003179   0.005382  -0.192084
    12  C    0.059635   0.860739  -0.151193   0.096017  -0.159996   0.807466
    13  C    0.220171  -1.254654   0.669667  -0.141911   0.125616  -0.085402
    14  C    0.157008   0.384079  -0.797414   0.376681  -0.236876   0.122995
    15  C   -0.007695  -0.156968   0.328181  -0.605247   0.325287  -0.154785
    16  C   -0.051833   0.131815  -0.254810   0.380146  -0.747438   0.367905
    17  C   -0.357670  -0.090783   0.130382  -0.139465   0.631880  -1.224750
    18  O    0.003844  -0.000157  -0.000005  -0.000018   0.000118  -0.001029
    19  O   -0.001423   0.000264  -0.000127   0.000035  -0.000277   0.000367
    20  H   -0.000227   0.000025  -0.000006   0.000001  -0.000020   0.000252
    21  H   -0.000073   0.000012   0.000002   0.000000  -0.000004  -0.000010
    22  H    0.000614  -0.000102   0.000011  -0.000004   0.000019  -0.000042
    23  H   -0.004128   0.000377  -0.000027   0.000038  -0.000054   0.000157
    24  H    0.027176   0.001505  -0.000251  -0.000017   0.000832  -0.002761
    25  H    0.002050  -0.000777   0.000044  -0.000040   0.000040  -0.001843
    26  H   -0.123230   0.001315   0.000825   0.000126  -0.000485   0.001755
    27  H    0.028774   0.000089  -0.000016  -0.000024   0.000053  -0.000956
    28  H   -0.088758  -0.017866  -0.002410  -0.000542   0.000057   0.008170
    29  H    0.074966  -0.000629   0.000383  -0.000610  -0.000544  -0.030992
    30  H   -0.236800   0.009857   0.000445   0.000624  -0.002609  -0.026872
    31  H    1.996303  -0.038467  -0.002278   0.000183   0.001690   0.005106
    32  H   -0.038467   2.093125  -0.082030  -0.015814   0.010435  -0.021966
    33  H   -0.002278  -0.082030   1.669626  -0.051858  -0.019647   0.010012
    34  H    0.000183  -0.015814  -0.051858   1.611963  -0.053626  -0.014972
    35  H    0.001690   0.010435  -0.019647  -0.053626   1.662289  -0.085791
    36  H    0.005106  -0.021966   0.010012  -0.014972  -0.085791   2.083813
 Mulliken charges:
               1
     1  C    0.285065
     2  S    2.581959
     3  N   -1.227265
     4  C    0.284881
     5  C    0.086931
     6  S    2.890342
     7  C    0.580531
     8  O   -1.267016
     9  O   -1.234111
    10  C    0.158465
    11  C    1.021816
    12  C    1.117671
    13  C    0.431481
    14  C    0.020983
    15  C    0.641359
    16  C    0.012406
    17  C    0.577101
    18  O   -1.219776
    19  O   -1.162824
    20  H    0.030624
    21  H    0.043866
    22  H    0.009601
    23  H   -0.038362
    24  H   -0.254213
    25  H   -0.249802
    26  H   -0.174529
    27  H   -0.309332
    28  H   -0.133535
    29  H   -0.122351
    30  H   -0.285381
    31  H   -0.371429
    32  H   -0.683297
    33  H   -0.463379
    34  H   -0.437969
    35  H   -0.462493
    36  H   -0.678019
 Sum of Mulliken charges =  -0.00000
 Mulliken charges with hydrogens summed into heavy atoms:
               1
     1  C    0.369157
     2  S    2.581959
     3  N   -1.265627
     4  C    0.284881
     5  C   -0.417084
     6  S    2.890342
     7  C    0.096669
     8  O   -1.267016
     9  O   -1.234111
    10  C   -0.097421
    11  C    0.365006
    12  C    1.117671
    13  C   -0.251816
    14  C   -0.442396
    15  C    0.203390
    16  C   -0.450088
    17  C   -0.100918
    18  O   -1.219776
    19  O   -1.162824
 Electronic spatial extent (au):  <R**2>=           7387.7251
 Charge=             -0.0000 electrons
 Dipole moment (field-independent basis, Debye):
    X=             -1.7220    Y=              2.5590    Z=             -3.1605  Tot=              4.4162
 Quadrupole moment (field-independent basis, Debye-Ang):
   XX=           -130.2825   YY=           -153.3621   ZZ=           -120.0853
   XY=             23.2542   XZ=             -5.1283   YZ=              3.7356
 Traceless Quadrupole moment (field-independent basis, Debye-Ang):
   XX=              4.2941   YY=            -18.7855   ZZ=             14.4914
   XY=             23.2542   XZ=             -5.1283   YZ=              3.7356
 Octapole moment (field-independent basis, Debye-Ang**2):
  XXX=            -35.9745  YYY=             65.7996  ZZZ=            -12.8907  XYY=             18.1023
  XXY=            124.8551  XXZ=            -11.9871  XZZ=             12.0667  YZZ=            -11.2090
  YYZ=            -14.9057  XYZ=            -14.2277
 Hexadecapole moment (field-independent basis, Debye-Ang**3):
 XXXX=          -6501.7086 YYYY=          -2917.0929 ZZZZ=           -610.9081 XXXY=            163.0869
 XXXZ=             58.3863 YYYX=            273.6455 YYYZ=             86.8328 ZZZX=            -24.5928
 ZZZY=            -12.1906 XXYY=          -1596.8256 XXZZ=          -1134.2277 YYZZ=           -549.4883
 XXYZ=             41.2465 YYXZ=            -42.2923 ZZXY=            -18.2124
 N-N= 1.821839163972D+03 E-N=-7.448621937190D+03  KE= 1.611524877742D+03
 Leave Link  601 at Tue Sep 15 09:10:55 2020, MaxMem=   262144000 cpu:               0.6 elap:               0.2
 (Enter /prod/apps/gaussian/g16b1/l9999.exe)
 1\1\GINC-PIRINEUS16\SP\RMP2-FC\Aug-CC-pVDZ\C12H17N1O4S2\UBAFAR01\15-Se
 p-2020\0\\#p mp2/aug-cc-pVDZ scf=(MaxCycle=2000,NoVarAcc,NoIncFock) ma
 xdisk=180GB geom=allcheck\\SM38_m0.n.2.pdb.xyz\\0,1\C,0,3.35740325,2.8
 506590912,-0.2501884867\S,0,1.6867120419,2.271584189,0.0292306671\N,0,
 1.7335948435,0.7739384056,-0.7562053148\C,0,0.868403327,-0.3351175133,
 -0.2880451061\C,0,1.428755343,-0.9064639982,1.0528942101\S,0,2.3391137
 922,-2.1890069949,0.1339665229\C,0,1.2430257505,-1.5596073952,-1.18325
 88686\O,0,3.7527836507,-1.8255627135,-0.0914145689\O,0,2.0379545836,-3
 .5704523318,0.5581185429\C,0,-0.6233423042,0.040967742,-0.290816219\C,
 0,-1.6144376893,-1.0546587252,0.140497373\C,0,-3.0439540408,-0.5584180
 443,0.0892305101\C,0,-3.8029064865,-0.6815719955,-1.0823468778\C,0,-5.
 1111714443,-0.1982817923,-1.1427667473\C,0,-5.6826910055,0.4172830951,
 -0.026915226\C,0,-4.9372348376,0.5441089236,1.1470230574\C,0,-3.629295
 5813,0.0594429754,1.2026628628\O,0,1.489134347,2.0056543825,1.46438739
 73\O,0,0.7607565763,3.2026603554,-0.6400342925\H,0,4.0504278748,2.1518
 112733,0.2150538957\H,0,3.4305900545,3.8384775045,0.206120491\H,0,3.52
 91983733,2.9160686181,-1.3234970108\H,0,1.6209260853,0.9363117811,-1.7
 6043007\H,0,0.6668429127,-1.3822235568,1.669512056\H,0,2.0455625844,-0
 .2349518939,1.6425751292\H,0,0.4183169627,-2.2555225513,-1.3380006363\
 H,0,1.7481393424,-1.3425382091,-2.1228121967\H,0,-0.8762871448,0.37705
 64377,-1.302209571\H,0,-0.746641608,0.9049203684,0.3689040894\H,0,-1.3
 83806239,-1.3839763225,1.1583114865\H,0,-1.5149246759,-1.9285069718,-0
 .5110665017\H,0,-3.3656206148,-1.1647841573,-1.9516891517\H,0,-5.68434
 82341,-0.3068097572,-2.0581392747\H,0,-6.7008324006,0.7908897681,-0.07
 05116939\H,0,-5.3745644477,1.0162576031,2.0210925321\H,0,-3.0565829412
 ,0.1563624096,2.1207669911\\Version=ES64L-G16RevB.01\State=1-A\HF=-161
 3.1910194\MP2=-1616.176491\RMSD=5.988e-09\PG=C01 [X(C12H17N1O4S2)]\\@


 A HARD FALL SHOULD MEAN A HIGH BOUNCE 
 IF ONE IS MADE OF THE RIGHT MATERIAL.

                -- THE CHEMIST ANALYST, MARCH 1950
 Job cpu time:       0 days  4 hours  0 minutes 21.7 seconds.
 Elapsed time:       0 days  1 hours  9 minutes 22.4 seconds.
 File lengths (MBytes):  RWF= 114386 Int=      0 D2E=      0 Chk=     29 Scr=      1
 Normal termination of Gaussian 16 at Tue Sep 15 09:10:58 2020.
