 Entering Gaussian System, Link 0=g16
 Initial command:
 /prod/apps/gaussian/g16b1/l1.exe "/tmp/ubafar01/1460349/Gau-43943.inp" -scrdir="/tmp/ubafar01/1460349/"
 Entering Link 1 = /prod/apps/gaussian/g16b1/l1.exe PID=     43944.
  
 Copyright (c) 1988-2017, Gaussian, Inc.  All Rights Reserved.
  
 This is part of the Gaussian(R) 16 program.  It is based on
 the Gaussian(R) 09 system (copyright 2009, Gaussian, Inc.),
 the Gaussian(R) 03 system (copyright 2003, Gaussian, Inc.),
 the Gaussian(R) 98 system (copyright 1998, Gaussian, Inc.),
 the Gaussian(R) 94 system (copyright 1995, Gaussian, Inc.),
 the Gaussian 92(TM) system (copyright 1992, Gaussian, Inc.),
 the Gaussian 90(TM) system (copyright 1990, Gaussian, Inc.),
 the Gaussian 88(TM) system (copyright 1988, Gaussian, Inc.),
 the Gaussian 86(TM) system (copyright 1986, Carnegie Mellon
 University), and the Gaussian 82(TM) system (copyright 1983,
 Carnegie Mellon University). Gaussian is a federally registered
 trademark of Gaussian, Inc.
  
 This software contains proprietary and confidential information,
 including trade secrets, belonging to Gaussian, Inc.
  
 This software is provided under written license and may be
 used, copied, transmitted, or stored only in accord with that
 written license.
  
 The following legend is applicable only to US Government
 contracts under FAR:
  
                    RESTRICTED RIGHTS LEGEND
  
 Use, reproduction and disclosure by the US Government is
 subject to restrictions as set forth in subparagraphs (a)
 and (c) of the Commercial Computer Software - Restricted
 Rights clause in FAR 52.227-19.
  
 Gaussian, Inc.
 340 Quinnipiac St., Bldg. 40, Wallingford CT 06492
  
  
 ---------------------------------------------------------------
 Warning -- This program may not be used in any manner that
 competes with the business of Gaussian, Inc. or will provide
 assistance to any competitor of Gaussian, Inc.  The licensee
 of this program is prohibited from giving any competitor of
 Gaussian, Inc. access to this program.  By using this program,
 the user acknowledges that Gaussian, Inc. is engaged in the
 business of creating and licensing software in the field of
 computational chemistry and represents and warrants to the
 licensee that it is not a competitor of Gaussian, Inc. and that
 it will not use this program in any manner prohibited above.
 ---------------------------------------------------------------
  

 Cite this work as:
 Gaussian 16, Revision B.01,
 M. J. Frisch, G. W. Trucks, H. B. Schlegel, G. E. Scuseria, 
 M. A. Robb, J. R. Cheeseman, G. Scalmani, V. Barone, 
 G. A. Petersson, H. Nakatsuji, X. Li, M. Caricato, A. V. Marenich, 
 J. Bloino, B. G. Janesko, R. Gomperts, B. Mennucci, H. P. Hratchian, 
 J. V. Ortiz, A. F. Izmaylov, J. L. Sonnenberg, D. Williams-Young, 
 F. Ding, F. Lipparini, F. Egidi, J. Goings, B. Peng, A. Petrone, 
 T. Henderson, D. Ranasinghe, V. G. Zakrzewski, J. Gao, N. Rega, 
 G. Zheng, W. Liang, M. Hada, M. Ehara, K. Toyota, R. Fukuda, 
 J. Hasegawa, M. Ishida, T. Nakajima, Y. Honda, O. Kitao, H. Nakai, 
 T. Vreven, K. Throssell, J. A. Montgomery, Jr., J. E. Peralta, 
 F. Ogliaro, M. J. Bearpark, J. J. Heyd, E. N. Brothers, K. N. Kudin, 
 V. N. Staroverov, T. A. Keith, R. Kobayashi, J. Normand, 
 K. Raghavachari, A. P. Rendell, J. C. Burant, S. S. Iyengar, 
 J. Tomasi, M. Cossi, J. M. Millam, M. Klene, C. Adamo, R. Cammi, 
 J. W. Ochterski, R. L. Martin, K. Morokuma, O. Farkas, 
 J. B. Foresman, and D. J. Fox, Gaussian, Inc., Wallingford CT, 2016.
 
 ******************************************
 Gaussian 16:  ES64L-G16RevB.01 20-Dec-2017
                22-Sep-2020 
 ******************************************
 %nproc=4
 Will use up to    4 processors via shared memory.
 %Chk=SM38_m1.a.14.pdb.xyz.mst.a.w.chk
 %mem=16GB
 ----------------------------------------------------------------------
 #p b3lyp/6-31G(d) opt freq NoSymm scf=(MaxCycle=2000,NoVarAcc,NoIncFoc
 k) scrf=(iefpcm,read,solvent=water)
 ----------------------------------------------------------------------
 1/18=20,19=15,26=3,38=1,40=2/1,3;
 2/9=110,12=2,15=1,17=6,18=5,40=1/2;
 3/5=1,6=6,7=1,11=2,25=1,30=1,70=2203,71=1,72=1,74=-5/1,2,3;
 4//1;
 5/5=100002,7=2000,38=1,53=1/2;
 6/7=2,8=2,9=2,10=2,28=1/1;
 7/30=1/1,2,3,16;
 1/18=20,19=15,26=3/3(2);
 2/9=110,15=1/2;
 99//99;
 2/9=110,15=1/2;
 3/5=1,6=6,7=1,11=2,25=1,30=1,70=2205,71=1,72=1,74=-5/1,2,3;
 4/5=5,16=3,69=1/1;
 5/5=100002,7=2000,38=1,53=1/2;
 7/30=1/1,2,3,16;
 1/18=20,19=15,26=3/3(-5);
 2/9=110,15=1/2;
 6/7=2,8=2,9=2,10=2,19=2,28=1/1;
 99/9=1/99;
 Leave Link    1 at Tue Sep 22 01:46:06 2020, MaxMem=  2147483648 cpu:               0.1 elap:               0.0
 (Enter /prod/apps/gaussian/g16b1/l101.exe)
 --------------------
 SM38_m1.a.14.pdb.xyz
 --------------------
 Symbolic Z-matrix:
 Charge = -1 Multiplicity = 1
 C                     4.03     -0.45     -0.258 
 S                     2.489    -1.413    -0.164 
 N                     1.261    -0.532    -0.653 
 C                     0.621     0.46      0.195 
 C                    -0.441     1.221    -0.692 
 S                     0.172     2.826    -0.104 
 C                     1.493     1.751     0.525 
 O                     0.594     3.756    -1.177 
 O                    -0.67      3.375     0.987 
 C                    -0.015    -0.059     1.514 
 C                    -0.856    -1.35      1.423 
 C                    -2.126    -1.282     0.597 
 C                    -2.185    -1.848    -0.685 
 C                    -3.357    -1.791    -1.445 
 C                    -4.495    -1.163    -0.934 
 C                    -4.452    -0.597     0.344 
 C                    -3.28     -0.66      1.1 
 O                     2.672    -2.498    -1.172 
 O                     2.45     -1.883     1.259 
 H                     4.143    -0.051    -1.268 
 H                     4.86     -1.121    -0.024 
 H                     4.004     0.363     0.47 
 H                    -1.495     1.053    -0.477 
 H                    -0.233     1.116    -1.758 
 H                     1.756     1.935     1.568 
 H                     2.363     1.851    -0.126 
 H                    -0.62      0.748     1.948 
 H                     0.799    -0.257     2.217 
 H                    -1.123    -1.622     2.453 
 H                    -0.215    -2.15      1.044 
 H                    -1.3      -2.33     -1.093 
 H                    -3.379    -2.238    -2.436 
 H                    -5.408    -1.119    -1.522 
 H                    -5.335    -0.113     0.755 
 H                    -3.26     -0.225     2.098 
 
 ITRead=  0  0  0  0  0  0  0  0  0  0  0  0  0  0  0  0  0  0  0  0
 ITRead=  0  0  0  0  0  0  0  0  0  0  0  0  0  0  0
 MicOpt= -1 -1 -1 -1 -1 -1 -1 -1 -1 -1 -1 -1 -1 -1 -1 -1 -1 -1 -1 -1
 MicOpt= -1 -1 -1 -1 -1 -1 -1 -1 -1 -1 -1 -1 -1 -1 -1
 NAtoms=     35 NQM=       35 NQMF=       0 NMMI=      0 NMMIF=      0
                NMic=       0 NMicF=      0.
                    Isotopes and Nuclear Properties:
 (Nuclear quadrupole moments (NQMom) in fm**2, nuclear magnetic moments (NMagM)
  in nuclear magnetons)

  Atom         1           2           3           4           5           6           7           8           9          10
 IAtWgt=          12          32          14          12          12          32          12          16          16          12
 AtmWgt=  12.0000000  31.9720718  14.0030740  12.0000000  12.0000000  31.9720718  12.0000000  15.9949146  15.9949146  12.0000000
 NucSpn=           0           0           2           0           0           0           0           0           0           0
 AtZEff=  -0.0000000  -0.0000000  -0.0000000  -0.0000000  -0.0000000  -0.0000000  -0.0000000  -0.0000000  -0.0000000  -0.0000000
 NQMom=    0.0000000   0.0000000   2.0440000   0.0000000   0.0000000   0.0000000   0.0000000   0.0000000   0.0000000   0.0000000
 NMagM=    0.0000000   0.0000000   0.4037610   0.0000000   0.0000000   0.0000000   0.0000000   0.0000000   0.0000000   0.0000000
 AtZNuc=   6.0000000  16.0000000   7.0000000   6.0000000   6.0000000  16.0000000   6.0000000   8.0000000   8.0000000   6.0000000

  Atom        11          12          13          14          15          16          17          18          19          20
 IAtWgt=          12          12          12          12          12          12          12          16          16           1
 AtmWgt=  12.0000000  12.0000000  12.0000000  12.0000000  12.0000000  12.0000000  12.0000000  15.9949146  15.9949146   1.0078250
 NucSpn=           0           0           0           0           0           0           0           0           0           1
 AtZEff=  -0.0000000  -0.0000000  -0.0000000  -0.0000000  -0.0000000  -0.0000000  -0.0000000  -0.0000000  -0.0000000  -0.0000000
 NQMom=    0.0000000   0.0000000   0.0000000   0.0000000   0.0000000   0.0000000   0.0000000   0.0000000   0.0000000   0.0000000
 NMagM=    0.0000000   0.0000000   0.0000000   0.0000000   0.0000000   0.0000000   0.0000000   0.0000000   0.0000000   2.7928460
 AtZNuc=   6.0000000   6.0000000   6.0000000   6.0000000   6.0000000   6.0000000   6.0000000   8.0000000   8.0000000   1.0000000

  Atom        21          22          23          24          25          26          27          28          29          30
 IAtWgt=           1           1           1           1           1           1           1           1           1           1
 AtmWgt=   1.0078250   1.0078250   1.0078250   1.0078250   1.0078250   1.0078250   1.0078250   1.0078250   1.0078250   1.0078250
 NucSpn=           1           1           1           1           1           1           1           1           1           1
 AtZEff=  -0.0000000  -0.0000000  -0.0000000  -0.0000000  -0.0000000  -0.0000000  -0.0000000  -0.0000000  -0.0000000  -0.0000000
 NQMom=    0.0000000   0.0000000   0.0000000   0.0000000   0.0000000   0.0000000   0.0000000   0.0000000   0.0000000   0.0000000
 NMagM=    2.7928460   2.7928460   2.7928460   2.7928460   2.7928460   2.7928460   2.7928460   2.7928460   2.7928460   2.7928460
 AtZNuc=   1.0000000   1.0000000   1.0000000   1.0000000   1.0000000   1.0000000   1.0000000   1.0000000   1.0000000   1.0000000

  Atom        31          32          33          34          35
 IAtWgt=           1           1           1           1           1
 AtmWgt=   1.0078250   1.0078250   1.0078250   1.0078250   1.0078250
 NucSpn=           1           1           1           1           1
 AtZEff=  -0.0000000  -0.0000000  -0.0000000  -0.0000000  -0.0000000
 NQMom=    0.0000000   0.0000000   0.0000000   0.0000000   0.0000000
 NMagM=    2.7928460   2.7928460   2.7928460   2.7928460   2.7928460
 AtZNuc=   1.0000000   1.0000000   1.0000000   1.0000000   1.0000000
 Leave Link  101 at Tue Sep 22 01:46:06 2020, MaxMem=  2147483648 cpu:               1.3 elap:               0.3
 (Enter /prod/apps/gaussian/g16b1/l103.exe)

 GradGradGradGradGradGradGradGradGradGradGradGradGradGradGradGradGradGrad
 Berny optimization.
 Initialization pass.
                           ----------------------------
                           !    Initial Parameters    !
                           ! (Angstroms and Degrees)  !
 --------------------------                            --------------------------
 ! Name  Definition              Value          Derivative Info.                !
 --------------------------------------------------------------------------------
 ! R1    R(1,2)                  1.8196         estimate D2E/DX2                !
 ! R2    R(1,20)                 1.0918         estimate D2E/DX2                !
 ! R3    R(1,21)                 1.0927         estimate D2E/DX2                !
 ! R4    R(1,22)                 1.0916         estimate D2E/DX2                !
 ! R5    R(2,3)                  1.5885         estimate D2E/DX2                !
 ! R6    R(2,18)                 1.4922         estimate D2E/DX2                !
 ! R7    R(2,19)                 1.4991         estimate D2E/DX2                !
 ! R8    R(3,4)                  1.4535         estimate D2E/DX2                !
 ! R9    R(4,5)                  1.5792         estimate D2E/DX2                !
 ! R10   R(4,7)                  1.5925         estimate D2E/DX2                !
 ! R11   R(4,10)                 1.5536         estimate D2E/DX2                !
 ! R12   R(5,6)                  1.8159         estimate D2E/DX2                !
 ! R13   R(5,23)                 1.0887         estimate D2E/DX2                !
 ! R14   R(5,24)                 1.0912         estimate D2E/DX2                !
 ! R15   R(6,7)                  1.8156         estimate D2E/DX2                !
 ! R16   R(6,8)                  1.4813         estimate D2E/DX2                !
 ! R17   R(6,9)                  1.4835         estimate D2E/DX2                !
 ! R18   R(7,25)                 1.0913         estimate D2E/DX2                !
 ! R19   R(7,26)                 1.0912         estimate D2E/DX2                !
 ! R20   R(10,11)                1.5435         estimate D2E/DX2                !
 ! R21   R(10,27)                1.098          estimate D2E/DX2                !
 ! R22   R(10,28)                1.0936         estimate D2E/DX2                !
 ! R23   R(11,12)                1.5165         estimate D2E/DX2                !
 ! R24   R(11,29)                1.0983         estimate D2E/DX2                !
 ! R25   R(11,30)                1.0929         estimate D2E/DX2                !
 ! R26   R(12,13)                1.4026         estimate D2E/DX2                !
 ! R27   R(12,17)                1.4041         estimate D2E/DX2                !
 ! R28   R(13,14)                1.398          estimate D2E/DX2                !
 ! R29   R(13,31)                1.0872         estimate D2E/DX2                !
 ! R30   R(14,15)                1.3966         estimate D2E/DX2                !
 ! R31   R(14,32)                1.0874         estimate D2E/DX2                !
 ! R32   R(15,16)                1.3984         estimate D2E/DX2                !
 ! R33   R(15,33)                1.0869         estimate D2E/DX2                !
 ! R34   R(16,17)                1.3961         estimate D2E/DX2                !
 ! R35   R(16,34)                1.0876         estimate D2E/DX2                !
 ! R36   R(17,35)                1.0889         estimate D2E/DX2                !
 ! A1    A(2,1,20)             109.1989         estimate D2E/DX2                !
 ! A2    A(2,1,21)             107.8934         estimate D2E/DX2                !
 ! A3    A(2,1,22)             109.8487         estimate D2E/DX2                !
 ! A4    A(20,1,21)            110.1153         estimate D2E/DX2                !
 ! A5    A(20,1,22)            110.3172         estimate D2E/DX2                !
 ! A6    A(21,1,22)            109.4286         estimate D2E/DX2                !
 ! A7    A(1,2,3)              110.1987         estimate D2E/DX2                !
 ! A8    A(1,2,18)             104.2441         estimate D2E/DX2                !
 ! A9    A(1,2,19)             103.7093         estimate D2E/DX2                !
 ! A10   A(3,2,18)             106.8651         estimate D2E/DX2                !
 ! A11   A(3,2,19)             116.4862         estimate D2E/DX2                !
 ! A12   A(18,2,19)            114.6094         estimate D2E/DX2                !
 ! A13   A(2,3,4)              122.6361         estimate D2E/DX2                !
 ! A14   A(3,4,5)              107.2956         estimate D2E/DX2                !
 ! A15   A(3,4,7)              115.6625         estimate D2E/DX2                !
 ! A16   A(3,4,10)             116.5881         estimate D2E/DX2                !
 ! A17   A(5,4,7)               95.3923         estimate D2E/DX2                !
 ! A18   A(5,4,10)             111.2573         estimate D2E/DX2                !
 ! A19   A(7,4,10)             108.6057         estimate D2E/DX2                !
 ! A20   A(4,5,6)               90.9759         estimate D2E/DX2                !
 ! A21   A(4,5,23)             117.76           estimate D2E/DX2                !
 ! A22   A(4,5,24)             111.973          estimate D2E/DX2                !
 ! A23   A(6,5,23)             113.5306         estimate D2E/DX2                !
 ! A24   A(6,5,24)             109.6965         estimate D2E/DX2                !
 ! A25   A(23,5,24)            111.2606         estimate D2E/DX2                !
 ! A26   A(5,6,7)               80.4718         estimate D2E/DX2                !
 ! A27   A(5,6,8)              114.6149         estimate D2E/DX2                !
 ! A28   A(5,6,9)              111.9399         estimate D2E/DX2                !
 ! A29   A(7,6,8)              114.5447         estimate D2E/DX2                !
 ! A30   A(7,6,9)              112.1671         estimate D2E/DX2                !
 ! A31   A(8,6,9)              117.521          estimate D2E/DX2                !
 ! A32   A(4,7,6)               90.5617         estimate D2E/DX2                !
 ! A33   A(4,7,25)             117.8214         estimate D2E/DX2                !
 ! A34   A(4,7,26)             112.7831         estimate D2E/DX2                !
 ! A35   A(6,7,25)             113.994          estimate D2E/DX2                !
 ! A36   A(6,7,26)             108.6118         estimate D2E/DX2                !
 ! A37   A(25,7,26)            111.2601         estimate D2E/DX2                !
 ! A38   A(4,10,11)            116.8998         estimate D2E/DX2                !
 ! A39   A(4,10,27)            108.398          estimate D2E/DX2                !
 ! A40   A(4,10,28)            107.5497         estimate D2E/DX2                !
 ! A41   A(11,10,27)           109.7446         estimate D2E/DX2                !
 ! A42   A(11,10,28)           106.9794         estimate D2E/DX2                !
 ! A43   A(27,10,28)           106.8041         estimate D2E/DX2                !
 ! A44   A(10,11,12)           116.8027         estimate D2E/DX2                !
 ! A45   A(10,11,29)           106.5187         estimate D2E/DX2                !
 ! A46   A(10,11,30)           108.2475         estimate D2E/DX2                !
 ! A47   A(12,11,29)           108.562          estimate D2E/DX2                !
 ! A48   A(12,11,30)           109.5787         estimate D2E/DX2                !
 ! A49   A(29,11,30)           106.6496         estimate D2E/DX2                !
 ! A50   A(11,12,13)           120.9949         estimate D2E/DX2                !
 ! A51   A(11,12,17)           120.8645         estimate D2E/DX2                !
 ! A52   A(13,12,17)           118.1383         estimate D2E/DX2                !
 ! A53   A(12,13,14)           121.0435         estimate D2E/DX2                !
 ! A54   A(12,13,31)           119.1869         estimate D2E/DX2                !
 ! A55   A(14,13,31)           119.7675         estimate D2E/DX2                !
 ! A56   A(13,14,15)           120.1671         estimate D2E/DX2                !
 ! A57   A(13,14,32)           119.7126         estimate D2E/DX2                !
 ! A58   A(15,14,32)           120.1203         estimate D2E/DX2                !
 ! A59   A(14,15,16)           119.4279         estimate D2E/DX2                !
 ! A60   A(14,15,33)           120.3142         estimate D2E/DX2                !
 ! A61   A(16,15,33)           120.2571         estimate D2E/DX2                !
 ! A62   A(15,16,17)           120.1615         estimate D2E/DX2                !
 ! A63   A(15,16,34)           120.0345         estimate D2E/DX2                !
 ! A64   A(17,16,34)           119.8022         estimate D2E/DX2                !
 ! A65   A(12,17,16)           121.0603         estimate D2E/DX2                !
 ! A66   A(12,17,35)           119.354          estimate D2E/DX2                !
 ! A67   A(16,17,35)           119.5849         estimate D2E/DX2                !
 ! D1    D(20,1,2,3)           -53.9974         estimate D2E/DX2                !
 ! D2    D(20,1,2,18)           60.354          estimate D2E/DX2                !
 ! D3    D(20,1,2,19)         -179.37           estimate D2E/DX2                !
 ! D4    D(21,1,2,3)          -173.6737         estimate D2E/DX2                !
 ! D5    D(21,1,2,18)          -59.3223         estimate D2E/DX2                !
 ! D6    D(21,1,2,19)           60.9537         estimate D2E/DX2                !
 ! D7    D(22,1,2,3)            67.1063         estimate D2E/DX2                !
 ! D8    D(22,1,2,18)         -178.5423         estimate D2E/DX2                !
 ! D9    D(22,1,2,19)          -58.2663         estimate D2E/DX2                !
 ! D10   D(1,2,3,4)            -79.4746         estimate D2E/DX2                !
 ! D11   D(18,2,3,4)           167.851          estimate D2E/DX2                !
 ! D12   D(19,2,3,4)            38.2653         estimate D2E/DX2                !
 ! D13   D(2,3,4,5)            174.0783         estimate D2E/DX2                !
 ! D14   D(2,3,4,7)             69.0793         estimate D2E/DX2                !
 ! D15   D(2,3,4,10)           -60.4373         estimate D2E/DX2                !
 ! D16   D(3,4,5,6)           -131.9705         estimate D2E/DX2                !
 ! D17   D(3,4,5,23)           110.6297         estimate D2E/DX2                !
 ! D18   D(3,4,5,24)           -20.2324         estimate D2E/DX2                !
 ! D19   D(7,4,5,6)            -12.9589         estimate D2E/DX2                !
 ! D20   D(7,4,5,23)          -130.3587         estimate D2E/DX2                !
 ! D21   D(7,4,5,24)            98.7792         estimate D2E/DX2                !
 ! D22   D(10,4,5,6)            99.4113         estimate D2E/DX2                !
 ! D23   D(10,4,5,23)          -17.9885         estimate D2E/DX2                !
 ! D24   D(10,4,5,24)         -148.8506         estimate D2E/DX2                !
 ! D25   D(3,4,7,6)            125.0867         estimate D2E/DX2                !
 ! D26   D(3,4,7,25)          -117.204          estimate D2E/DX2                !
 ! D27   D(3,4,7,26)            14.5812         estimate D2E/DX2                !
 ! D28   D(5,4,7,6)             12.9601         estimate D2E/DX2                !
 ! D29   D(5,4,7,25)           130.6693         estimate D2E/DX2                !
 ! D30   D(5,4,7,26)           -97.5454         estimate D2E/DX2                !
 ! D31   D(10,4,7,6)          -101.624          estimate D2E/DX2                !
 ! D32   D(10,4,7,25)           16.0852         estimate D2E/DX2                !
 ! D33   D(10,4,7,26)          147.8705         estimate D2E/DX2                !
 ! D34   D(3,4,10,11)          -44.6009         estimate D2E/DX2                !
 ! D35   D(3,4,10,27)         -169.2094         estimate D2E/DX2                !
 ! D36   D(3,4,10,28)           75.6566         estimate D2E/DX2                !
 ! D37   D(5,4,10,11)           78.865          estimate D2E/DX2                !
 ! D38   D(5,4,10,27)          -45.7435         estimate D2E/DX2                !
 ! D39   D(5,4,10,28)         -160.8775         estimate D2E/DX2                !
 ! D40   D(7,4,10,11)         -177.4042         estimate D2E/DX2                !
 ! D41   D(7,4,10,27)           57.9874         estimate D2E/DX2                !
 ! D42   D(7,4,10,28)          -57.1466         estimate D2E/DX2                !
 ! D43   D(4,5,6,7)             11.453          estimate D2E/DX2                !
 ! D44   D(4,5,6,8)            124.1847         estimate D2E/DX2                !
 ! D45   D(4,5,6,9)            -98.7196         estimate D2E/DX2                !
 ! D46   D(23,5,6,7)           132.4841         estimate D2E/DX2                !
 ! D47   D(23,5,6,8)          -114.7842         estimate D2E/DX2                !
 ! D48   D(23,5,6,9)            22.3115         estimate D2E/DX2                !
 ! D49   D(24,5,6,7)          -102.3491         estimate D2E/DX2                !
 ! D50   D(24,5,6,8)            10.3826         estimate D2E/DX2                !
 ! D51   D(24,5,6,9)           147.4783         estimate D2E/DX2                !
 ! D52   D(5,6,7,4)            -11.3549         estimate D2E/DX2                !
 ! D53   D(5,6,7,25)          -132.369          estimate D2E/DX2                !
 ! D54   D(5,6,7,26)           102.9715         estimate D2E/DX2                !
 ! D55   D(8,6,7,4)           -124.1631         estimate D2E/DX2                !
 ! D56   D(8,6,7,25)           114.8227         estimate D2E/DX2                !
 ! D57   D(8,6,7,26)            -9.8367         estimate D2E/DX2                !
 ! D58   D(9,6,7,4)             98.5655         estimate D2E/DX2                !
 ! D59   D(9,6,7,25)           -22.4487         estimate D2E/DX2                !
 ! D60   D(9,6,7,26)          -147.1082         estimate D2E/DX2                !
 ! D61   D(4,10,11,12)         -64.8261         estimate D2E/DX2                !
 ! D62   D(4,10,11,29)         173.719          estimate D2E/DX2                !
 ! D63   D(4,10,11,30)          59.3598         estimate D2E/DX2                !
 ! D64   D(27,10,11,12)         59.099          estimate D2E/DX2                !
 ! D65   D(27,10,11,29)        -62.3558         estimate D2E/DX2                !
 ! D66   D(27,10,11,30)       -176.7151         estimate D2E/DX2                !
 ! D67   D(28,10,11,12)        174.6143         estimate D2E/DX2                !
 ! D68   D(28,10,11,29)         53.1595         estimate D2E/DX2                !
 ! D69   D(28,10,11,30)        -61.1998         estimate D2E/DX2                !
 ! D70   D(10,11,12,13)        103.7708         estimate D2E/DX2                !
 ! D71   D(10,11,12,17)        -76.7847         estimate D2E/DX2                !
 ! D72   D(29,11,12,13)       -135.8528         estimate D2E/DX2                !
 ! D73   D(29,11,12,17)         43.5916         estimate D2E/DX2                !
 ! D74   D(30,11,12,13)        -19.7349         estimate D2E/DX2                !
 ! D75   D(30,11,12,17)        159.7095         estimate D2E/DX2                !
 ! D76   D(11,12,13,14)        179.7188         estimate D2E/DX2                !
 ! D77   D(11,12,13,31)         -0.8126         estimate D2E/DX2                !
 ! D78   D(17,12,13,14)          0.2595         estimate D2E/DX2                !
 ! D79   D(17,12,13,31)        179.7282         estimate D2E/DX2                !
 ! D80   D(11,12,17,16)       -179.8936         estimate D2E/DX2                !
 ! D81   D(11,12,17,35)         -0.2167         estimate D2E/DX2                !
 ! D82   D(13,12,17,16)         -0.4336         estimate D2E/DX2                !
 ! D83   D(13,12,17,35)        179.2433         estimate D2E/DX2                !
 ! D84   D(12,13,14,15)          0.0577         estimate D2E/DX2                !
 ! D85   D(12,13,14,32)       -179.9302         estimate D2E/DX2                !
 ! D86   D(31,13,14,15)       -179.408          estimate D2E/DX2                !
 ! D87   D(31,13,14,32)          0.6042         estimate D2E/DX2                !
 ! D88   D(13,14,15,16)         -0.2079         estimate D2E/DX2                !
 ! D89   D(13,14,15,33)       -179.8804         estimate D2E/DX2                !
 ! D90   D(32,14,15,16)        179.78           estimate D2E/DX2                !
 ! D91   D(32,14,15,33)          0.1075         estimate D2E/DX2                !
 ! D92   D(14,15,16,17)          0.0359         estimate D2E/DX2                !
 ! D93   D(14,15,16,34)       -179.4786         estimate D2E/DX2                !
 ! D94   D(33,15,16,17)        179.7085         estimate D2E/DX2                !
 ! D95   D(33,15,16,34)          0.1941         estimate D2E/DX2                !
 ! D96   D(15,16,17,12)          0.291          estimate D2E/DX2                !
 ! D97   D(15,16,17,35)       -179.3852         estimate D2E/DX2                !
 ! D98   D(34,16,17,12)        179.8066         estimate D2E/DX2                !
 ! D99   D(34,16,17,35)          0.1304         estimate D2E/DX2                !
 --------------------------------------------------------------------------------
 Trust Radius=3.00D-01 FncErr=1.00D-07 GrdErr=1.00D-06 EigMax=2.50D+02 EigMin=1.00D-04
 Number of steps in this run=    210 maximum allowed number of steps=    210.
 GradGradGradGradGradGradGradGradGradGradGradGradGradGradGradGradGradGrad

 Leave Link  103 at Tue Sep 22 01:46:06 2020, MaxMem=  2147483648 cpu:               0.1 elap:               0.0
 (Enter /prod/apps/gaussian/g16b1/l202.exe)
                          Input orientation:                          
 ---------------------------------------------------------------------
 Center     Atomic      Atomic             Coordinates (Angstroms)
 Number     Number       Type             X           Y           Z
 ---------------------------------------------------------------------
      1          6           0        4.030000   -0.450000   -0.258000
      2         16           0        2.489000   -1.413000   -0.164000
      3          7           0        1.261000   -0.532000   -0.653000
      4          6           0        0.621000    0.460000    0.195000
      5          6           0       -0.441000    1.221000   -0.692000
      6         16           0        0.172000    2.826000   -0.104000
      7          6           0        1.493000    1.751000    0.525000
      8          8           0        0.594000    3.756000   -1.177000
      9          8           0       -0.670000    3.375000    0.987000
     10          6           0       -0.015000   -0.059000    1.514000
     11          6           0       -0.856000   -1.350000    1.423000
     12          6           0       -2.126000   -1.282000    0.597000
     13          6           0       -2.185000   -1.848000   -0.685000
     14          6           0       -3.357000   -1.791000   -1.445000
     15          6           0       -4.495000   -1.163000   -0.934000
     16          6           0       -4.452000   -0.597000    0.344000
     17          6           0       -3.280000   -0.660000    1.100000
     18          8           0        2.672000   -2.498000   -1.172000
     19          8           0        2.450000   -1.883000    1.259000
     20          1           0        4.143000   -0.051000   -1.268000
     21          1           0        4.860000   -1.121000   -0.024000
     22          1           0        4.004000    0.363000    0.470000
     23          1           0       -1.495000    1.053000   -0.477000
     24          1           0       -0.233000    1.116000   -1.758000
     25          1           0        1.756000    1.935000    1.568000
     26          1           0        2.363000    1.851000   -0.126000
     27          1           0       -0.620000    0.748000    1.948000
     28          1           0        0.799000   -0.257000    2.217000
     29          1           0       -1.123000   -1.622000    2.453000
     30          1           0       -0.215000   -2.150000    1.044000
     31          1           0       -1.300000   -2.330000   -1.093000
     32          1           0       -3.379000   -2.238000   -2.436000
     33          1           0       -5.408000   -1.119000   -1.522000
     34          1           0       -5.335000   -0.113000    0.755000
     35          1           0       -3.260000   -0.225000    2.098000
 ---------------------------------------------------------------------
                    Distance matrix (angstroms):
                    1          2          3          4          5
     1  C    0.000000
     2  S    1.819584   0.000000
     3  N    2.798233   1.588479   0.000000
     4  C    3.557329   2.669538   1.453536   0.000000
     5  C    4.792748   3.975128   2.443631   1.579156   0.000000
     6  S    5.063601   4.831274   3.572602   2.426718   1.815912
     7  C    3.448747   3.387866   2.579457   1.592471   2.345708
     8  O    5.508275   5.597835   4.371088   3.570256   2.780769
     9  O    6.186328   5.850558   4.656502   3.284992   2.740656
    10  C    4.433384   3.304393   2.558866   1.553582   2.585790
    11  C    5.244879   3.702913   3.075807   2.639245   3.354920
    12  C    6.270533   4.679157   3.687380   3.277526   3.281121
    13  C    6.384588   4.723023   3.688875   3.738302   3.529922
    14  C    7.600988   5.996629   4.851625   4.856036   4.259367
    15  C    8.581432   7.030765   5.797297   5.484727   4.709239
    16  C    8.504607   7.007239   5.799707   5.184089   4.523996
    17  C    7.438035   5.953660   4.869299   4.158272   3.848291
    18  O    2.621805   1.492239   2.474962   3.850332   4.873616
    19  O    2.617476   1.499116   2.625770   3.157053   4.668950
    20  H    1.091820   2.410306   2.985885   3.847853   4.791953
    21  H    1.092656   2.393012   3.700725   4.529530   5.833677
    22  H    1.091618   2.418958   3.096159   3.395545   4.673803
    23  H    5.729973   4.695890   3.184138   2.297975   1.088745
    24  H    4.782837   4.043014   2.483740   2.230215   1.091167
    25  H    3.767436   3.840080   3.356182   2.312786   3.231750
    26  H    2.844453   3.266652   2.677839   2.252218   2.929108
    27  H    5.284330   4.335475   3.455685   2.167033   2.688005
    28  H    4.074584   3.140318   2.919926   2.152732   3.490611
    29  H    5.939404   4.465301   4.064332   3.531972   4.294042
    30  H    4.754496   3.051893   2.770615   2.869111   3.798475
    31  H    5.713189   4.007549   3.159925   3.623987   3.675362
    32  H    7.926784   6.346340   5.255390   5.495577   4.861899
    33  H    9.545737   8.018305   6.750947   6.464532   5.552980
    34  H    9.425655   7.984331   6.757606   6.009648   5.274903
    35  H    7.664559   6.291183   5.301103   4.376391   4.221585
                    6          7          8          9         10
     6  S    0.000000
     7  C    1.815573   0.000000
     8  O    1.481321   2.779394   0.000000
     9  O    1.483457   2.743973   2.534907   0.000000
    10  C    3.313022   2.555051   4.708141   3.535408   0.000000
    11  C    4.563714   3.992544   5.910477   4.748717   1.543452
    12  C    4.758978   4.722439   5.993907   4.894863   2.606327
    13  C    5.266810   5.286264   6.274530   5.689511   3.570017
    14  C    5.963959   6.320535   6.815529   6.310479   4.787950
    15  C    6.195314   6.817347   7.081916   6.238134   5.223210
    16  C    5.770529   6.394442   6.835508   5.522115   4.620099
    17  C    5.051546   5.378204   6.300291   4.806880   3.345568
    18  O    5.977926   4.724812   6.590192   7.093826   4.514785
    19  O    5.405713   3.828911   6.416943   6.120045   3.077048
    20  H    5.039927   3.672132   5.205471   6.323565   5.002854
    21  H    6.128830   4.459425   6.581284   7.198405   5.221007
    22  H    4.591304   2.869615   5.084600   5.584417   4.173773
    23  H    2.462021   3.227902   3.487138   2.866288   2.718644
    24  H    2.413264   2.931619   2.826852   3.581770   3.483408
    25  H    2.469518   1.091272   3.493037   2.880388   2.667469
    26  H    2.398247   1.091192   2.804102   3.572175   3.463031
    27  H    3.025897   2.737829   4.504163   2.797704   1.098012
    28  H    3.909611   2.715983   5.259794   4.106371   1.093622
    29  H    5.291501   4.683777   6.711771   5.227272   2.133625
    30  H    5.121352   4.290038   6.361459   5.543997   2.152483
    31  H    5.452453   5.203204   6.374456   6.104943   3.688511
    32  H    6.609986   6.958163   7.300537   7.110653   5.627347
    33  H    6.979266   7.749252   7.740068   6.995696   6.278961
    34  H    6.301004   7.081594   7.338585   5.829425   5.374142
    35  H    5.092743   5.382371   6.436404   4.571917   3.301308
                   11         12         13         14         15
    11  C    0.000000
    12  C    1.516509   0.000000
    13  C    2.541242   1.402626   0.000000
    14  C    3.830784   2.438074   1.398010   0.000000
    15  C    4.339670   2.823169   2.422256   1.396621   0.000000
    16  C    3.829160   2.437932   2.786240   2.413541   1.398388
    17  C    2.540906   1.404140   2.407612   2.786057   2.422063
    18  O    4.527550   5.256312   4.924441   6.076448   7.294159
    19  O    3.352704   4.662534   5.026289   6.406351   7.318516
    20  H    5.823992   6.655370   6.603990   7.701229   8.715684
    21  H    5.900755   7.015394   7.113190   8.365837   9.399249
    22  H    5.240437   6.348154   6.672801   7.905141   8.748308
    23  H    3.129334   2.646481   2.989175   3.534460   3.757593
    24  H    4.072842   3.857444   3.707685   4.278784   4.902801
    25  H    4.199380   5.134380   5.909194   7.007426   7.411654
    26  H    4.796641   5.521733   5.888921   6.908135   7.534535
    27  H    2.175529   2.866032   4.015113   5.044813   5.193599
    28  H    2.136378   3.497235   4.456135   5.747672   6.227044
    29  H    1.098259   2.136901   3.320537   4.495967   4.801337
    30  H    1.092942   2.145962   2.638474   4.024446   4.817162
    31  H    2.736383   2.153295   1.087204   2.155383   3.405172
    32  H    4.695312   3.418045   2.154933   1.087370   2.158028
    33  H    5.426517   3.910020   3.408774   2.159656   1.086853
    34  H    4.694447   3.418948   3.873800   3.401201   2.158893
    35  H    2.738698   2.157824   3.396298   3.874870   3.405597
                   16         17         18         19         20
    16  C    0.000000
    17  C    1.396098   0.000000
    18  O    7.527512   6.630726   0.000000
    19  O    7.080157   5.861221   2.517393   0.000000
    20  H    8.761888   7.815320   2.856723   3.550803   0.000000
    21  H    9.333989   8.230158   2.828671   2.834578   1.790677
    22  H    8.511252   7.382417   3.557486   2.842878   1.792027
    23  H    3.484306   2.933858   5.518742   5.215057   5.799271
    24  H    5.015250   4.539444   4.673694   5.029392   4.555367
    25  H    6.815311   5.684571   5.291327   3.892845   4.205337
    26  H    7.256571   6.296955   4.483681   3.983535   2.844322
    27  H    4.366471   3.126846   5.577471   4.101437   5.802347
    28  H    5.585403   4.248334   4.473872   2.507477   4.834252
    29  H    4.071946   2.721893   5.320717   3.776253   6.636613
    30  H    4.566616   3.408440   3.656026   2.686957   5.361279
    31  H    3.873417   3.393899   3.976336   4.449069   5.903449
    32  H    3.401854   3.873394   6.187075   6.910593   7.920081
    33  H    2.160642   3.407924   8.204300   8.370533   9.613883
    34  H    1.087596   2.154358   8.574007   7.999571   9.691690
    35  H    2.153082   1.088866   7.144792   6.004747   8.134165
                   21         22         23         24         25
    21  H    0.000000
    22  H    1.782983   0.000000
    23  H    6.731828   5.622447   0.000000
    24  H    5.826626   4.845943   1.799326   0.000000
    25  H    4.637717   2.954707   3.940679   3.960954   0.000000
    26  H    3.883065   2.293957   3.955271   3.153231   1.801427
    27  H    6.116563   4.869711   2.596011   3.744280   2.683048
    28  H    4.718082   3.702490   3.773085   4.330217   2.478289
    29  H    6.494830   5.844540   3.984835   5.101104   4.660914
    30  H    5.287257   4.944149   3.769755   4.303288   4.565812
    31  H    6.367891   6.150417   3.444150   3.668192   5.883050
    32  H    8.657168   8.349774   4.268234   4.648259   7.733962
    33  H   10.376697   9.733968   4.595778   5.641945   8.378419
    34  H   10.274285   9.355465   4.197973   5.818592   7.425467
    35  H    8.440385   7.467384   3.373297   5.082297   5.486962
                   26         27         28         29         30
    26  H    0.000000
    27  H    3.796890   0.000000
    28  H    3.518438   1.759530   0.000000
    29  H    5.555643   2.474860   2.369178   0.000000
    30  H    4.901325   3.062621   2.446952   1.757421   0.000000
    31  H    5.642111   4.379973   4.433873   3.620319   2.403413
    32  H    7.417991   5.978941   6.559760   5.419531   4.704151
    33  H    8.435529   6.200930   7.297261   5.866418   5.883414
    34  H    7.993288   4.939210   6.307467   4.785523   5.517906
    35  H    6.393284   2.817593   4.060870   2.577674   3.753474
                   31         32         33         34         35
    31  H    0.000000
    32  H    2.476763   0.000000
    33  H    4.304210   2.490863   0.000000
    34  H    4.960990   4.303957   2.490400   0.000000
    35  H    4.295941   4.962206   4.303201   2.474231   0.000000
 Symmetry turned off by external request.
 Stoichiometry    C12H16NO4S2(1-)
 Framework group  C1[X(C12H16NO4S2)]
 Deg. of freedom    99
 Full point group                 C1      NOp   1
 Rotational constants (GHZ):           0.3670421           0.2597673           0.1794985
 Leave Link  202 at Tue Sep 22 01:46:06 2020, MaxMem=  2147483648 cpu:               0.0 elap:               0.0
 (Enter /prod/apps/gaussian/g16b1/l301.exe)
 Standard basis: 6-31G(d) (6D, 7F)
 Ernie: Thresh=  0.10000D-02 Tol=  0.10000D-05 Strict=F.
   325 basis functions,   644 primitive gaussians,   325 cartesian basis functions
    80 alpha electrons       80 beta electrons
       nuclear repulsion energy      1851.1205415798 Hartrees.
 IExCor=  402 DFT=T Ex+Corr=B3LYP ExCW=0 ScaHFX=  0.200000
 ScaDFX=  0.800000  0.720000  1.000000  0.810000 ScalE2=  1.000000  1.000000
 IRadAn=      5 IRanWt=     -1 IRanGd=            0 ICorTp=0 IEmpDi=  4
 NAtoms=   35 NActive=   35 NUniq=   35 SFac= 1.00D+00 NAtFMM=   60 NAOKFM=F Big=F
 Integral buffers will be    131072 words long.
 Raffenetti 2 integral format.
 Two-electron integral symmetry is turned off.
 Using the following non-standard input for PCM:
 MSTModel=DFT MSTcharged
 --- end of non-standard input.
 MST model for solvation energy: B3LYP parametrization.
 MST cavity parameters:
 ISph   IAn     Re0     Alpha   Atom Type   QCorr
 ------------------------------------------------
   1      6     1.50     1.25      CH3        F
   2     16     1.75     1.25      S          F
   3      7     1.40     1.15      N          T
   4      6     1.50     1.25      C          F
   5      6     1.50     1.25      CH2        F
   6     16     1.75     1.25      S          F
   7      6     1.50     1.25      CH2        F
   8      8     1.40     1.25      O          F
   9      8     1.40     1.25      O          F
  10      6     1.50     1.25      CH2        F
  11      6     1.50     1.25      CH2        F
  12      6     1.50     1.25      C          F
  13      6     1.50     1.25      CH         F
  14      6     1.50     1.25      CH         F
  15      6     1.50     1.25      CH         F
  16      6     1.50     1.25      CH         F
  17      6     1.50     1.25      CH         F
  18      8     1.40     1.25      O          F
  19      8     1.40     1.25      O          F
  20      1     1.20     1.25      CH3        F
  21      1     1.20     1.25      CH3        F
  22      1     1.20     1.25      CH3        F
  23      1     1.20     1.25      CH2        F
  24      1     1.20     1.25      CH2        F
  25      1     1.20     1.25      CH2        F
  26      1     1.20     1.25      CH2        F
  27      1     1.20     1.25      CH2        F
  28      1     1.20     1.25      CH2        F
  29      1     1.20     1.25      CH2        F
  30      1     1.20     1.25      CH2        F
  31      1     1.20     1.25      CH         F
  32      1     1.20     1.25      CH         F
  33      1     1.20     1.25      CH         F
  34      1     1.20     1.25      CH         F
  35      1     1.20     1.25      CH         F
 ------------------------------------------------------------------------------
 Polarizable Continuum Model (PCM)
 =================================
 Model                : PCM.
 Atomic radii         : MST.
 Polarization charges : Total charges.
 Charge compensation  : None.
 Solution method      : On-the-fly selection.
 Cavity type          : Scaled VdW (van der Waals Surface) (Alpha=1.250).
 Cavity algorithm     : GePol (No added spheres)
                        Default sphere list used, NSphG=   35.
                        Lebedev-Laikov grids with approx.  5.0 points / Ang**2.
                        Smoothing algorithm: York/Karplus (Gamma=1.0000).
                        Polarization charges: spherical gaussians, with
                                              point-specific exponents (IZeta= 3).
                        Self-potential: point-specific (ISelfS= 7).
                        Self-field    : sphere-specific E.n sum rule (ISelfD= 2).
 1st derivatives      : Analytical E(r).r(x)/FMM algorithm (CHGder, D1EAlg=3).
                        Cavity 1st derivative terms included.
 Solvent              : Water, Eps=  78.355300 Eps(inf)=   1.777849
 ------------------------------------------------------------------------------
 GePol: Number of generator spheres                  =      35
 GePol: Total number of spheres                      =      35
 GePol: Number of exposed spheres                    =      35 (100.00%)
 GePol: Number of points                             =    2484
 GePol: Average weight of points                     =       0.14
 GePol: Minimum weight of points                     =   0.74D-11
 GePol: Maximum weight of points                     =    0.22001
 GePol: Number of points with low weight             =     174
 GePol: Fraction of low-weight points (<1% of avg)   =       7.00%
 GePol: Cavity surface area                          =    339.347 Ang**2
 GePol: Cavity volume                                =    335.020 Ang**3
 PCM non-electrostatic energy =        -0.0677099096 Hartrees.
 Nuclear repulsion after PCM non-electrostatic terms =     1851.0528316702 Hartrees.
 Leave Link  301 at Tue Sep 22 01:46:06 2020, MaxMem=  2147483648 cpu:               0.3 elap:               0.1
 (Enter /prod/apps/gaussian/g16b1/l302.exe)
 NPDir=0 NMtPBC=     1 NCelOv=     1 NCel=       1 NClECP=     1 NCelD=      1
         NCelK=      1 NCelE2=     1 NClLst=     1 CellRange=     0.0.
 One-electron integrals computed using PRISM.
 NBasis=   325 RedAO= T EigKep=  4.73D-04  NBF=   325
 NBsUse=   325 1.00D-06 EigRej= -1.00D+00 NBFU=   325
 Precomputing XC quadrature grid using
 IXCGrd= 4 IRadAn=           5 IRanWt=          -1 IRanGd=           0 AccXCQ= 0.00D+00.
 Generated NRdTot=       0 NPtTot=           0 NUsed=           0 NTot=          32
 NSgBfM=   322   322   322   322   322 MxSgAt=    35 MxSgA2=    35.
 Leave Link  302 at Tue Sep 22 01:46:07 2020, MaxMem=  2147483648 cpu:               1.8 elap:               0.5
 (Enter /prod/apps/gaussian/g16b1/l303.exe)
 DipDrv:  MaxL=1.
 Leave Link  303 at Tue Sep 22 01:46:07 2020, MaxMem=  2147483648 cpu:               0.1 elap:               0.1
 (Enter /prod/apps/gaussian/g16b1/l401.exe)
 ExpMin= 1.17D-01 ExpMax= 2.19D+04 ExpMxC= 3.30D+03 IAcc=3 IRadAn=         5 AccDes= 0.00D+00
 Harris functional with IExCor=  402 and IRadAn=       5 diagonalized for initial guess.
 HarFok:  IExCor=  402 AccDes= 0.00D+00 IRadAn=         5 IDoV= 1 UseB2=F ITyADJ=14
 ICtDFT=  3500011 ScaDFX=  1.000000  1.000000  1.000000  1.000000
 FoFCou: FMM=F IPFlag=           0 FMFlag=      100000 FMFlg1=           0
         NFxFlg=           0 DoJE=T BraDBF=F KetDBF=T FulRan=T
         wScrn=  0.000000 ICntrl=       500 IOpCl=  0 I1Cent=   200000004 NGrid=           0
         NMat0=    1 NMatS0=      1 NMatT0=    0 NMatD0=    1 NMtDS0=    0 NMtDT0=    0
 Symmetry not used in FoFCou.
 Harris En= -1619.14833738378    
 JPrj=0 DoOrth=F DoCkMO=F.
 Leave Link  401 at Tue Sep 22 01:46:10 2020, MaxMem=  2147483648 cpu:              10.5 elap:               2.7
 (Enter /prod/apps/gaussian/g16b1/l502.exe)
 Two-electron integral symmetry not used.
 Closed shell SCF:
 Using DIIS extrapolation, IDIIS=  1040.
 NGot=  2147483648 LenX=  2147267572 LenY=  2147161506
 Requested convergence on RMS density matrix=1.00D-08 within2000 cycles.
 Requested convergence on MAX density matrix=1.00D-06.
 Requested convergence on             energy=1.00D-06.
 No special actions if energy rises.

 Cycle   1  Pass 1  IDiag  1:
 FoFJK:  IHMeth= 1 ICntrl=       0 DoSepK=F KAlg= 0 I1Cent=           0 FoldK=F
 IRaf= 830000000 NMat=       1 IRICut=       1 DoRegI=T DoRafI=F ISym2E= 0 IDoP0=0 IntGTp=1.
 FoFCou: FMM=F IPFlag=           0 FMFlag=      100000 FMFlg1=           0
         NFxFlg=           0 DoJE=F BraDBF=F KetDBF=F FulRan=T
         wScrn=  0.000000 ICntrl=         0 IOpCl=  0 I1Cent=           0 NGrid=           0
         NMat0=    1 NMatS0=      1 NMatT0=    0 NMatD0=    1 NMtDS0=    0 NMtDT0=    0
 Symmetry not used in FoFCou.
 Inv3:  Mode=1 IEnd=    18510768.
 Iteration    1 A*A^-1 deviation from unit magnitude is 3.33D-15 for   1272.
 Iteration    1 A*A^-1 deviation from orthogonality  is 2.11D-15 for   1797    933.
 Iteration    1 A^-1*A deviation from unit magnitude is 3.77D-15 for   1272.
 Iteration    1 A^-1*A deviation from orthogonality  is 1.80D-15 for   2405   2042.
 E= -1618.20990517024    
 DIIS: error= 3.85D-02 at cycle   1 NSaved=   1.
 NSaved= 1 IEnMin= 1 EnMin= -1618.20990517024     IErMin= 1 ErrMin= 3.85D-02
 ErrMax= 3.85D-02  0.00D+00 EMaxC= 1.00D-01 BMatC= 9.47D-01 BMatP= 9.47D-01
 IDIUse=3 WtCom= 6.15D-01 WtEn= 3.85D-01
 Coeff-Com:  0.100D+01
 Coeff-En:   0.100D+01
 Coeff:      0.100D+01
 Gap=     0.220 Goal=   None    Shift=    0.000
 GapD=    0.220 DampG=1.000 DampE=0.500 DampFc=0.5000 IDamp=-1.
 Damping current iteration by 5.00D-01
 RMSDP=7.13D-03 MaxDP=4.97D-01              OVMax= 2.21D-01

 Cycle   2  Pass 1  IDiag  1:
 E= -1618.46433008924     Delta-E=       -0.254424918998 Rises=F Damp=T
 DIIS: error= 1.29D-02 at cycle   2 NSaved=   2.
 NSaved= 2 IEnMin= 2 EnMin= -1618.46433008924     IErMin= 2 ErrMin= 1.29D-02
 ErrMax= 1.29D-02  0.00D+00 EMaxC= 1.00D-01 BMatC= 9.56D-02 BMatP= 9.47D-01
 IDIUse=3 WtCom= 8.71D-01 WtEn= 1.29D-01
 Coeff-Com:  0.191D+00 0.809D+00
 Coeff-En:   0.309D+00 0.691D+00
 Coeff:      0.206D+00 0.794D+00
 Gap=     0.289 Goal=   None    Shift=    0.000
 RMSDP=1.71D-03 MaxDP=1.03D-01 DE=-2.54D-01 OVMax= 1.68D-01

 Cycle   3  Pass 1  IDiag  1:
 E= -1618.96146080317     Delta-E=       -0.497130713933 Rises=F Damp=F
 DIIS: error= 9.04D-03 at cycle   3 NSaved=   3.
 NSaved= 3 IEnMin= 3 EnMin= -1618.96146080317     IErMin= 3 ErrMin= 9.04D-03
 ErrMax= 9.04D-03  0.00D+00 EMaxC= 1.00D-01 BMatC= 4.79D-02 BMatP= 9.56D-02
 IDIUse=3 WtCom= 9.10D-01 WtEn= 9.04D-02
 Coeff-Com:  0.665D-01 0.428D+00 0.506D+00
 Coeff-En:   0.000D+00 0.000D+00 0.100D+01
 Coeff:      0.605D-01 0.389D+00 0.550D+00
 Gap=     0.217 Goal=   None    Shift=    0.000
 RMSDP=9.60D-04 MaxDP=2.61D-02 DE=-4.97D-01 OVMax= 5.43D-02

 Cycle   4  Pass 1  IDiag  1:
 E= -1618.99894060898     Delta-E=       -0.037479805814 Rises=F Damp=F
 DIIS: error= 3.71D-03 at cycle   4 NSaved=   4.
 NSaved= 4 IEnMin= 4 EnMin= -1618.99894060898     IErMin= 4 ErrMin= 3.71D-03
 ErrMax= 3.71D-03  0.00D+00 EMaxC= 1.00D-01 BMatC= 7.66D-03 BMatP= 4.79D-02
 IDIUse=3 WtCom= 9.63D-01 WtEn= 3.71D-02
 Coeff-Com:  0.530D-02 0.743D-01 0.297D+00 0.623D+00
 Coeff-En:   0.000D+00 0.000D+00 0.127D+00 0.873D+00
 Coeff:      0.510D-02 0.716D-01 0.291D+00 0.633D+00
 Gap=     0.207 Goal=   None    Shift=    0.000
 RMSDP=3.47D-04 MaxDP=1.18D-02 DE=-3.75D-02 OVMax= 2.22D-02

 Cycle   5  Pass 1  IDiag  1:
 E= -1619.00509380244     Delta-E=       -0.006153193457 Rises=F Damp=F
 DIIS: error= 1.02D-03 at cycle   5 NSaved=   5.
 NSaved= 5 IEnMin= 5 EnMin= -1619.00509380244     IErMin= 5 ErrMin= 1.02D-03
 ErrMax= 1.02D-03  0.00D+00 EMaxC= 1.00D-01 BMatC= 7.60D-04 BMatP= 7.66D-03
 IDIUse=3 WtCom= 9.90D-01 WtEn= 1.02D-02
 Coeff-Com: -0.114D-02 0.153D-01 0.129D+00 0.357D+00 0.499D+00
 Coeff-En:   0.000D+00 0.000D+00 0.000D+00 0.649D-02 0.994D+00
 Coeff:     -0.113D-02 0.151D-01 0.128D+00 0.354D+00 0.504D+00
 Gap=     0.211 Goal=   None    Shift=    0.000
 RMSDP=1.10D-04 MaxDP=7.69D-03 DE=-6.15D-03 OVMax= 7.02D-03

 Cycle   6  Pass 1  IDiag  1:
 E= -1619.00575040920     Delta-E=       -0.000656606756 Rises=F Damp=F
 DIIS: error= 2.44D-04 at cycle   6 NSaved=   6.
 NSaved= 6 IEnMin= 6 EnMin= -1619.00575040920     IErMin= 6 ErrMin= 2.44D-04
 ErrMax= 2.44D-04  0.00D+00 EMaxC= 1.00D-01 BMatC= 4.25D-05 BMatP= 7.60D-04
 IDIUse=3 WtCom= 9.98D-01 WtEn= 2.44D-03
 Coeff-Com: -0.885D-03 0.234D-02 0.425D-01 0.129D+00 0.261D+00 0.567D+00
 Coeff-En:   0.000D+00 0.000D+00 0.000D+00 0.000D+00 0.000D+00 0.100D+01
 Coeff:     -0.883D-03 0.234D-02 0.424D-01 0.129D+00 0.260D+00 0.568D+00
 Gap=     0.210 Goal=   None    Shift=    0.000
 RMSDP=2.48D-05 MaxDP=1.42D-03 DE=-6.57D-04 OVMax= 1.53D-03

 Cycle   7  Pass 1  IDiag  1:
 E= -1619.00578562192     Delta-E=       -0.000035212724 Rises=F Damp=F
 DIIS: error= 5.02D-05 at cycle   7 NSaved=   7.
 NSaved= 7 IEnMin= 7 EnMin= -1619.00578562192     IErMin= 7 ErrMin= 5.02D-05
 ErrMax= 5.02D-05  0.00D+00 EMaxC= 1.00D-01 BMatC= 2.88D-06 BMatP= 4.25D-05
 IDIUse=1 WtCom= 1.00D+00 WtEn= 0.00D+00
 Coeff-Com: -0.342D-03-0.196D-03 0.999D-02 0.329D-01 0.874D-01 0.282D+00
 Coeff-Com:  0.588D+00
 Coeff:     -0.342D-03-0.196D-03 0.999D-02 0.329D-01 0.874D-01 0.282D+00
 Coeff:      0.588D+00
 Gap=     0.210 Goal=   None    Shift=    0.000
 RMSDP=6.75D-06 MaxDP=4.02D-04 DE=-3.52D-05 OVMax= 2.98D-04

 Cycle   8  Pass 1  IDiag  1:
 E= -1619.00578811672     Delta-E=       -0.000002494803 Rises=F Damp=F
 DIIS: error= 1.82D-05 at cycle   8 NSaved=   8.
 NSaved= 8 IEnMin= 8 EnMin= -1619.00578811672     IErMin= 8 ErrMin= 1.82D-05
 ErrMax= 1.82D-05  0.00D+00 EMaxC= 1.00D-01 BMatC= 1.89D-07 BMatP= 2.88D-06
 IDIUse=1 WtCom= 1.00D+00 WtEn= 0.00D+00
 Coeff-Com: -0.104D-03-0.255D-03 0.169D-02 0.632D-02 0.230D-01 0.934D-01
 Coeff-Com:  0.274D+00 0.602D+00
 Coeff:     -0.104D-03-0.255D-03 0.169D-02 0.632D-02 0.230D-01 0.934D-01
 Coeff:      0.274D+00 0.602D+00
 Gap=     0.210 Goal=   None    Shift=    0.000
 RMSDP=1.85D-06 MaxDP=7.92D-05 DE=-2.49D-06 OVMax= 1.14D-04

 Cycle   9  Pass 1  IDiag  1:
 E= -1619.00578822384     Delta-E=       -0.000000107113 Rises=F Damp=F
 DIIS: error= 1.27D-05 at cycle   9 NSaved=   9.
 NSaved= 9 IEnMin= 9 EnMin= -1619.00578822384     IErMin= 9 ErrMin= 1.27D-05
 ErrMax= 1.27D-05  0.00D+00 EMaxC= 1.00D-01 BMatC= 6.44D-08 BMatP= 1.89D-07
 IDIUse=1 WtCom= 1.00D+00 WtEn= 0.00D+00
 Coeff-Com: -0.208D-04-0.122D-03-0.318D-03-0.546D-03 0.268D-02 0.208D-01
 Coeff-Com:  0.958D-01 0.396D+00 0.485D+00
 Coeff:     -0.208D-04-0.122D-03-0.318D-03-0.546D-03 0.268D-02 0.208D-01
 Coeff:      0.958D-01 0.396D+00 0.485D+00
 Gap=     0.210 Goal=   None    Shift=    0.000
 RMSDP=7.86D-07 MaxDP=3.76D-05 DE=-1.07D-07 OVMax= 5.37D-05

 Cycle  10  Pass 1  IDiag  1:
 E= -1619.00578827241     Delta-E=       -0.000000048577 Rises=F Damp=F
 DIIS: error= 2.16D-06 at cycle  10 NSaved=  10.
 NSaved=10 IEnMin=10 EnMin= -1619.00578827241     IErMin=10 ErrMin= 2.16D-06
 ErrMax= 2.16D-06  0.00D+00 EMaxC= 1.00D-01 BMatC= 2.42D-09 BMatP= 6.44D-08
 IDIUse=1 WtCom= 1.00D+00 WtEn= 0.00D+00
 Coeff-Com: -0.632D-05-0.385D-04-0.284D-03-0.697D-03-0.900D-04 0.454D-02
 Coeff-Com:  0.323D-01 0.167D+00 0.249D+00 0.548D+00
 Coeff:     -0.632D-05-0.385D-04-0.284D-03-0.697D-03-0.900D-04 0.454D-02
 Coeff:      0.323D-01 0.167D+00 0.249D+00 0.548D+00
 Gap=     0.210 Goal=   None    Shift=    0.000
 RMSDP=1.81D-07 MaxDP=8.43D-06 DE=-4.86D-08 OVMax= 9.03D-06

 Cycle  11  Pass 1  IDiag  1:
 E= -1619.00578827422     Delta-E=       -0.000000001804 Rises=F Damp=F
 DIIS: error= 4.45D-07 at cycle  11 NSaved=  11.
 NSaved=11 IEnMin=11 EnMin= -1619.00578827422     IErMin=11 ErrMin= 4.45D-07
 ErrMax= 4.45D-07  0.00D+00 EMaxC= 1.00D-01 BMatC= 2.37D-10 BMatP= 2.42D-09
 IDIUse=1 WtCom= 1.00D+00 WtEn= 0.00D+00
 Coeff-Com: -0.226D-05-0.726D-07-0.111D-03-0.283D-03-0.424D-03-0.591D-03
 Coeff-Com:  0.345D-02 0.298D-01 0.578D-01 0.265D+00 0.645D+00
 Coeff:     -0.226D-05-0.726D-07-0.111D-03-0.283D-03-0.424D-03-0.591D-03
 Coeff:      0.345D-02 0.298D-01 0.578D-01 0.265D+00 0.645D+00
 Gap=     0.210 Goal=   None    Shift=    0.000
 RMSDP=5.70D-08 MaxDP=2.42D-06 DE=-1.80D-09 OVMax= 3.07D-06

 Cycle  12  Pass 1  IDiag  1:
 E= -1619.00578827443     Delta-E=       -0.000000000209 Rises=F Damp=F
 DIIS: error= 2.51D-07 at cycle  12 NSaved=  12.
 NSaved=12 IEnMin=12 EnMin= -1619.00578827443     IErMin=12 ErrMin= 2.51D-07
 ErrMax= 2.51D-07  0.00D+00 EMaxC= 1.00D-01 BMatC= 2.86D-11 BMatP= 2.37D-10
 IDIUse=1 WtCom= 1.00D+00 WtEn= 0.00D+00
 Coeff-Com: -0.120D-05 0.310D-05-0.467D-04-0.117D-03-0.244D-03-0.675D-03
 Coeff-Com: -0.290D-03 0.511D-02 0.150D-01 0.110D+00 0.359D+00 0.512D+00
 Coeff:     -0.120D-05 0.310D-05-0.467D-04-0.117D-03-0.244D-03-0.675D-03
 Coeff:     -0.290D-03 0.511D-02 0.150D-01 0.110D+00 0.359D+00 0.512D+00
 Gap=     0.210 Goal=   None    Shift=    0.000
 RMSDP=1.91D-08 MaxDP=8.22D-07 DE=-2.09D-10 OVMax= 1.07D-06

 Cycle  13  Pass 1  IDiag  1:
 E= -1619.00578827444     Delta-E=       -0.000000000015 Rises=F Damp=F
 DIIS: error= 9.04D-08 at cycle  13 NSaved=  13.
 NSaved=13 IEnMin=13 EnMin= -1619.00578827444     IErMin=13 ErrMin= 9.04D-08
 ErrMax= 9.04D-08  0.00D+00 EMaxC= 1.00D-01 BMatC= 3.25D-12 BMatP= 2.86D-11
 IDIUse=1 WtCom= 1.00D+00 WtEn= 0.00D+00
 Coeff-Com: -0.516D-06 0.199D-05-0.142D-04-0.344D-04-0.923D-04-0.329D-03
 Coeff-Com: -0.606D-03-0.806D-03 0.127D-02 0.293D-01 0.124D+00 0.296D+00
 Coeff-Com:  0.551D+00
 Coeff:     -0.516D-06 0.199D-05-0.142D-04-0.344D-04-0.923D-04-0.329D-03
 Coeff:     -0.606D-03-0.806D-03 0.127D-02 0.293D-01 0.124D+00 0.296D+00
 Coeff:      0.551D+00
 Gap=     0.210 Goal=   None    Shift=    0.000
 RMSDP=6.11D-09 MaxDP=2.89D-07 DE=-1.55D-11 OVMax= 3.28D-07

 Error on total polarization charges =  0.01959
 SCF Done:  E(RB3LYP) =  -1619.00578827     A.U. after   13 cycles
            NFock= 13  Conv=0.61D-08     -V/T= 2.0067
 KE= 1.608295882900D+03 PE=-7.531847514430D+03 EE= 2.453493011585D+03
 Leave Link  502 at Tue Sep 22 01:47:38 2020, MaxMem=  2147483648 cpu:             353.1 elap:              88.3
 (Enter /prod/apps/gaussian/g16b1/l601.exe)
 Copying SCF densities to generalized density rwf, IOpCl= 0 IROHF=0.

 **********************************************************************

            Population analysis using the SCF Density.

 **********************************************************************

 Alpha  occ. eigenvalues --  -89.08607 -89.07313 -19.14586 -19.14422 -19.10416
 Alpha  occ. eigenvalues --  -19.10280 -14.28150 -10.24618 -10.21264 -10.21073
 Alpha  occ. eigenvalues --  -10.19288 -10.19256 -10.18816 -10.18746 -10.18632
 Alpha  occ. eigenvalues --  -10.18491 -10.18385 -10.17905 -10.17879  -8.11702
 Alpha  occ. eigenvalues --   -8.09695  -6.08166  -6.08053  -6.07931  -6.06209
 Alpha  occ. eigenvalues --   -6.06098  -6.06034  -1.09441  -1.06243  -0.99218
 Alpha  occ. eigenvalues --   -0.95029  -0.88879  -0.85120  -0.81890  -0.77933
 Alpha  occ. eigenvalues --   -0.73970  -0.73470  -0.72142  -0.70502  -0.65991
 Alpha  occ. eigenvalues --   -0.61701  -0.59955  -0.57590  -0.57096  -0.53181
 Alpha  occ. eigenvalues --   -0.50608  -0.49664  -0.48621  -0.48362  -0.46102
 Alpha  occ. eigenvalues --   -0.45458  -0.44994  -0.44325  -0.44095  -0.43741
 Alpha  occ. eigenvalues --   -0.42931  -0.42223  -0.41410  -0.40998  -0.40326
 Alpha  occ. eigenvalues --   -0.39877  -0.38894  -0.37094  -0.35752  -0.35316
 Alpha  occ. eigenvalues --   -0.34189  -0.33099  -0.32458  -0.32042  -0.31583
 Alpha  occ. eigenvalues --   -0.30901  -0.29858  -0.29728  -0.28529  -0.27504
 Alpha  occ. eigenvalues --   -0.26490  -0.24925  -0.24015  -0.23083  -0.21190
 Alpha virt. eigenvalues --   -0.00192   0.00101   0.05428   0.05786   0.06403
 Alpha virt. eigenvalues --    0.06976   0.09638   0.10415   0.12073   0.12326
 Alpha virt. eigenvalues --    0.12395   0.12799   0.13876   0.14302   0.14557
 Alpha virt. eigenvalues --    0.15785   0.16204   0.16510   0.16755   0.17883
 Alpha virt. eigenvalues --    0.17999   0.18140   0.18741   0.19436   0.20040
 Alpha virt. eigenvalues --    0.20648   0.21258   0.23558   0.24528   0.25190
 Alpha virt. eigenvalues --    0.27310   0.30170   0.31036   0.31927   0.33026
 Alpha virt. eigenvalues --    0.34596   0.34940   0.35441   0.36620   0.38339
 Alpha virt. eigenvalues --    0.41809   0.43817   0.45091   0.45637   0.46255
 Alpha virt. eigenvalues --    0.48516   0.49011   0.51036   0.53036   0.53727
 Alpha virt. eigenvalues --    0.54695   0.55231   0.56630   0.56796   0.57010
 Alpha virt. eigenvalues --    0.57782   0.58761   0.59548   0.60126   0.60366
 Alpha virt. eigenvalues --    0.61104   0.61619   0.62080   0.63073   0.64531
 Alpha virt. eigenvalues --    0.65002   0.65990   0.66629   0.68932   0.71286
 Alpha virt. eigenvalues --    0.73166   0.75709   0.75840   0.76325   0.76939
 Alpha virt. eigenvalues --    0.77912   0.79813   0.80462   0.81484   0.82080
 Alpha virt. eigenvalues --    0.83196   0.83662   0.84482   0.84897   0.85364
 Alpha virt. eigenvalues --    0.85744   0.86567   0.87400   0.88623   0.88820
 Alpha virt. eigenvalues --    0.89327   0.89816   0.90872   0.91341   0.92938
 Alpha virt. eigenvalues --    0.93188   0.93850   0.94431   0.95265   0.95953
 Alpha virt. eigenvalues --    0.96589   0.97549   0.99402   1.00835   1.01562
 Alpha virt. eigenvalues --    1.02444   1.03832   1.04516   1.05422   1.07146
 Alpha virt. eigenvalues --    1.07616   1.09396   1.09993   1.10938   1.12621
 Alpha virt. eigenvalues --    1.13231   1.13734   1.15405   1.17169   1.17609
 Alpha virt. eigenvalues --    1.19297   1.19660   1.20832   1.22294   1.23593
 Alpha virt. eigenvalues --    1.25565   1.25816   1.27085   1.32031   1.34259
 Alpha virt. eigenvalues --    1.34534   1.35930   1.40064   1.42414   1.43723
 Alpha virt. eigenvalues --    1.45764   1.46335   1.48662   1.49270   1.50968
 Alpha virt. eigenvalues --    1.51814   1.52648   1.58387   1.62075   1.65125
 Alpha virt. eigenvalues --    1.69252   1.70368   1.71286   1.73186   1.74516
 Alpha virt. eigenvalues --    1.75657   1.76887   1.77998   1.79172   1.79932
 Alpha virt. eigenvalues --    1.80656   1.81413   1.81676   1.82632   1.83161
 Alpha virt. eigenvalues --    1.85344   1.85578   1.87619   1.88287   1.89424
 Alpha virt. eigenvalues --    1.89747   1.91438   1.92366   1.93454   1.94235
 Alpha virt. eigenvalues --    1.96777   1.97309   1.98324   1.99992   2.01274
 Alpha virt. eigenvalues --    2.04125   2.04648   2.05361   2.06076   2.07840
 Alpha virt. eigenvalues --    2.09452   2.12026   2.13086   2.14373   2.15365
 Alpha virt. eigenvalues --    2.15824   2.16118   2.17285   2.18570   2.21078
 Alpha virt. eigenvalues --    2.21374   2.22740   2.25199   2.27077   2.28185
 Alpha virt. eigenvalues --    2.28766   2.29987   2.31388   2.31489   2.33009
 Alpha virt. eigenvalues --    2.35625   2.37452   2.39368   2.41257   2.44890
 Alpha virt. eigenvalues --    2.48057   2.53190   2.58435   2.58730   2.62049
 Alpha virt. eigenvalues --    2.65844   2.68945   2.70716   2.72612   2.73809
 Alpha virt. eigenvalues --    2.74085   2.74961   2.77421   2.77603   2.79868
 Alpha virt. eigenvalues --    2.81465   2.82642   2.89889   2.93164   3.05624
 Alpha virt. eigenvalues --    3.40768   3.79026   3.81791   3.87820   3.95801
 Alpha virt. eigenvalues --    3.97726   4.01564   4.08307   4.09971   4.12498
 Alpha virt. eigenvalues --    4.18720   4.21587   4.25065   4.26170   4.34092
 Alpha virt. eigenvalues --    4.35718   4.42856   4.56252   4.70688   4.75069
          Condensed to atoms (all electrons):
               1          2          3          4          5          6
     1  C    5.640879   0.177579  -0.070142  -0.003771  -0.000296   0.000164
     2  S    0.177579  13.691659   0.301081  -0.005314  -0.000067   0.000160
     3  N   -0.070142   0.301081   7.481427   0.289281  -0.060526   0.003462
     4  C   -0.003771  -0.005314   0.289281   4.811485   0.332745  -0.085912
     5  C   -0.000296  -0.000067  -0.060526   0.332745   5.759946   0.127520
     6  S    0.000164   0.000160   0.003462  -0.085912   0.127520  13.920120
     7  C    0.004526  -0.015779  -0.051677   0.314756  -0.180183   0.126086
     8  O   -0.000001  -0.000018  -0.000155   0.002857  -0.045618   0.422431
     9  O   -0.000000  -0.000001  -0.000034   0.001190  -0.045717   0.401479
    10  C   -0.000639  -0.011527  -0.068453   0.336771  -0.061658   0.012728
    11  C    0.000015  -0.002241   0.002373  -0.034475  -0.004363  -0.000170
    12  C    0.000001   0.000564  -0.004229  -0.003258   0.000552  -0.000006
    13  C   -0.000001  -0.000387   0.000687   0.000995   0.000269   0.000163
    14  C    0.000000  -0.000009   0.000073  -0.000026   0.000389   0.000011
    15  C    0.000000   0.000001   0.000002   0.000007   0.000017  -0.000000
    16  C   -0.000000  -0.000001  -0.000001   0.000005  -0.000351  -0.000019
    17  C    0.000000   0.000012  -0.000015  -0.000613  -0.002479  -0.000054
    18  O   -0.067306   0.438096  -0.072759   0.003151  -0.000054   0.000000
    19  O   -0.064990   0.360876  -0.058269  -0.001734  -0.000046   0.000014
    20  H    0.340674  -0.008306   0.000218   0.000273  -0.000013   0.000003
    21  H    0.339296  -0.002622   0.002514   0.000049   0.000002   0.000001
    22  H    0.334910  -0.005427  -0.001264  -0.000519   0.000055  -0.000089
    23  H    0.000001   0.000001   0.001517  -0.022821   0.337817  -0.011419
    24  H   -0.000028   0.000560   0.007928  -0.025388   0.317588   0.000504
    25  H   -0.000416   0.000513   0.001768  -0.021965   0.010065  -0.011169
    26  H   -0.000141  -0.001314   0.000867  -0.024819   0.002900   0.000533
    27  H   -0.000000   0.000593   0.004296  -0.029302  -0.007330   0.007078
    28  H   -0.000103   0.004014  -0.003091  -0.030424   0.005426  -0.000515
    29  H    0.000001  -0.000108   0.000337   0.004702  -0.000049   0.000020
    30  H    0.000077   0.004483   0.004846  -0.008605  -0.000252  -0.000016
    31  H    0.000008   0.001417   0.006262  -0.000242  -0.000315   0.000011
    32  H   -0.000000  -0.000001  -0.000003   0.000000  -0.000003   0.000000
    33  H    0.000000   0.000000   0.000000   0.000000  -0.000000  -0.000000
    34  H   -0.000000  -0.000000  -0.000000   0.000000  -0.000003  -0.000000
    35  H    0.000000   0.000001   0.000001   0.000075  -0.000040   0.000002
               7          8          9         10         11         12
     1  C    0.004526  -0.000001  -0.000000  -0.000639   0.000015   0.000001
     2  S   -0.015779  -0.000018  -0.000001  -0.011527  -0.002241   0.000564
     3  N   -0.051677  -0.000155  -0.000034  -0.068453   0.002373  -0.004229
     4  C    0.314756   0.002857   0.001190   0.336771  -0.034475  -0.003258
     5  C   -0.180183  -0.045618  -0.045717  -0.061658  -0.004363   0.000552
     6  S    0.126086   0.422431   0.401479   0.012728  -0.000170  -0.000006
     7  C    5.786840  -0.045780  -0.045444  -0.066404   0.004875  -0.000093
     8  O   -0.045780   8.286324  -0.045996  -0.000090   0.000000  -0.000000
     9  O   -0.045444  -0.045996   8.319992  -0.002794   0.000059  -0.000016
    10  C   -0.066404  -0.000090  -0.002794   5.202820   0.338685  -0.033528
    11  C    0.004875   0.000000   0.000059   0.338685   5.171987   0.349266
    12  C   -0.000093  -0.000000  -0.000016  -0.033528   0.349266   4.688914
    13  C    0.000021  -0.000000  -0.000001  -0.003100  -0.051154   0.540400
    14  C    0.000000  -0.000000  -0.000000  -0.000159   0.007039  -0.022968
    15  C    0.000000   0.000000   0.000000   0.000013   0.000282  -0.035337
    16  C   -0.000000   0.000000  -0.000000   0.000003   0.006092  -0.019692
    17  C   -0.000013  -0.000000   0.000008  -0.002261  -0.061574   0.528653
    18  O   -0.000126  -0.000000  -0.000000  -0.000141   0.000019   0.000009
    19  O   -0.000670  -0.000000  -0.000000  -0.001503  -0.003387   0.000220
    20  H   -0.000329   0.000000   0.000000   0.000003   0.000001  -0.000000
    21  H   -0.000046  -0.000000   0.000000   0.000013  -0.000000   0.000000
    22  H    0.000740  -0.000000   0.000000  -0.000076  -0.000001  -0.000000
    23  H    0.009197   0.000662  -0.000034  -0.005229  -0.000850   0.004494
    24  H    0.003837  -0.000398   0.001106   0.005118  -0.000027  -0.000117
    25  H    0.339091   0.000727  -0.000498  -0.003997   0.000096   0.000011
    26  H    0.326277   0.000007   0.001143   0.004609  -0.000089   0.000001
    27  H   -0.002114   0.000024   0.006030   0.345170  -0.035473  -0.005809
    28  H   -0.007405   0.000001   0.000055   0.352431  -0.028274   0.004388
    29  H   -0.000101  -0.000000  -0.000001  -0.034785   0.356223  -0.031902
    30  H    0.000165   0.000000  -0.000000  -0.034204   0.355595  -0.031337
    31  H    0.000028   0.000000  -0.000000  -0.000078  -0.009228  -0.045217
    32  H   -0.000000  -0.000000   0.000000   0.000002  -0.000167   0.003737
    33  H    0.000000  -0.000000   0.000000   0.000000   0.000006   0.000594
    34  H   -0.000000   0.000000  -0.000000   0.000001  -0.000164   0.003588
    35  H    0.000001  -0.000000  -0.000002   0.000590  -0.008389  -0.045713
              13         14         15         16         17         18
     1  C   -0.000001   0.000000   0.000000  -0.000000   0.000000  -0.067306
     2  S   -0.000387  -0.000009   0.000001  -0.000001   0.000012   0.438096
     3  N    0.000687   0.000073   0.000002  -0.000001  -0.000015  -0.072759
     4  C    0.000995  -0.000026   0.000007   0.000005  -0.000613   0.003151
     5  C    0.000269   0.000389   0.000017  -0.000351  -0.002479  -0.000054
     6  S    0.000163   0.000011  -0.000000  -0.000019  -0.000054   0.000000
     7  C    0.000021   0.000000   0.000000  -0.000000  -0.000013  -0.000126
     8  O   -0.000000  -0.000000   0.000000   0.000000  -0.000000  -0.000000
     9  O   -0.000001  -0.000000   0.000000  -0.000000   0.000008  -0.000000
    10  C   -0.003100  -0.000159   0.000013   0.000003  -0.002261  -0.000141
    11  C   -0.051154   0.007039   0.000282   0.006092  -0.061574   0.000019
    12  C    0.540400  -0.022968  -0.035337  -0.019692   0.528653   0.000009
    13  C    5.012161   0.506746  -0.036995  -0.046765  -0.044623  -0.000050
    14  C    0.506746   4.912489   0.544015  -0.029156  -0.046948  -0.000000
    15  C   -0.036995   0.544015   4.890636   0.541568  -0.037378   0.000000
    16  C   -0.046765  -0.029156   0.541568   4.900668   0.517556  -0.000000
    17  C   -0.044623  -0.046948  -0.037378   0.517556   5.009951   0.000000
    18  O   -0.000050  -0.000000   0.000000  -0.000000   0.000000   8.398286
    19  O   -0.000014  -0.000000   0.000000  -0.000000  -0.000000  -0.050969
    20  H    0.000000   0.000000  -0.000000   0.000000   0.000000  -0.000075
    21  H   -0.000000  -0.000000  -0.000000   0.000000   0.000000  -0.000525
    22  H    0.000000   0.000000  -0.000000   0.000000  -0.000000   0.002379
    23  H   -0.000866  -0.000380   0.000210   0.001251   0.005548   0.000000
    24  H    0.000209  -0.000040  -0.000009  -0.000001   0.000037  -0.000026
    25  H   -0.000000   0.000000  -0.000000   0.000000   0.000000   0.000001
    26  H    0.000000  -0.000000  -0.000000  -0.000000   0.000000  -0.000030
    27  H    0.000079   0.000010  -0.000002  -0.000090   0.003261   0.000000
    28  H   -0.000058   0.000002  -0.000000   0.000003  -0.000006   0.000037
    29  H    0.003659  -0.000234   0.000021   0.000070  -0.006680  -0.000001
    30  H   -0.005383   0.000227   0.000000  -0.000188   0.004542  -0.000639
    31  H    0.352239  -0.044693   0.004870   0.000195   0.006415   0.000188
    32  H   -0.038235   0.359986  -0.042802   0.004537   0.000711  -0.000000
    33  H    0.004557  -0.042349   0.362863  -0.042214   0.004584   0.000000
    34  H    0.000684   0.004567  -0.042468   0.360810  -0.039333  -0.000000
    35  H    0.006148   0.000254   0.004762  -0.045373   0.359546   0.000000
              19         20         21         22         23         24
     1  C   -0.064990   0.340674   0.339296   0.334910   0.000001  -0.000028
     2  S    0.360876  -0.008306  -0.002622  -0.005427   0.000001   0.000560
     3  N   -0.058269   0.000218   0.002514  -0.001264   0.001517   0.007928
     4  C   -0.001734   0.000273   0.000049  -0.000519  -0.022821  -0.025388
     5  C   -0.000046  -0.000013   0.000002   0.000055   0.337817   0.317588
     6  S    0.000014   0.000003   0.000001  -0.000089  -0.011419   0.000504
     7  C   -0.000670  -0.000329  -0.000046   0.000740   0.009197   0.003837
     8  O   -0.000000   0.000000  -0.000000  -0.000000   0.000662  -0.000398
     9  O   -0.000000   0.000000   0.000000   0.000000  -0.000034   0.001106
    10  C   -0.001503   0.000003   0.000013  -0.000076  -0.005229   0.005118
    11  C   -0.003387   0.000001  -0.000000  -0.000001  -0.000850  -0.000027
    12  C    0.000220  -0.000000   0.000000  -0.000000   0.004494  -0.000117
    13  C   -0.000014   0.000000  -0.000000   0.000000  -0.000866   0.000209
    14  C   -0.000000   0.000000  -0.000000   0.000000  -0.000380  -0.000040
    15  C    0.000000  -0.000000  -0.000000  -0.000000   0.000210  -0.000009
    16  C   -0.000000   0.000000   0.000000   0.000000   0.001251  -0.000001
    17  C   -0.000000   0.000000   0.000000  -0.000000   0.005548   0.000037
    18  O   -0.050969  -0.000075  -0.000525   0.002379   0.000000  -0.000026
    19  O    8.455722   0.002347  -0.000130   0.000372   0.000001   0.000008
    20  H    0.002347   0.522508  -0.023448  -0.025258  -0.000000   0.000005
    21  H   -0.000130  -0.023448   0.515413  -0.025113  -0.000000   0.000000
    22  H    0.000372  -0.025258  -0.025113   0.528242  -0.000000  -0.000005
    23  H    0.000001  -0.000000  -0.000000  -0.000000   0.476948  -0.017016
    24  H    0.000008   0.000005   0.000000  -0.000005  -0.017016   0.497636
    25  H   -0.000078  -0.000003   0.000012   0.000240  -0.000286  -0.000275
    26  H    0.000103   0.000918   0.000123   0.001136  -0.000214   0.000342
    27  H    0.000165  -0.000000  -0.000000   0.000006   0.000109   0.000061
    28  H    0.010748  -0.000001   0.000002   0.000066   0.000196  -0.000127
    29  H    0.000020  -0.000000  -0.000000   0.000000  -0.000049   0.000004
    30  H    0.009330  -0.000003  -0.000000   0.000004   0.000115   0.000004
    31  H   -0.000041   0.000000  -0.000000  -0.000000   0.000064   0.000104
    32  H    0.000000  -0.000000   0.000000   0.000000   0.000002   0.000002
    33  H    0.000000  -0.000000  -0.000000  -0.000000  -0.000000  -0.000000
    34  H   -0.000000   0.000000   0.000000   0.000000   0.000007   0.000000
    35  H    0.000000  -0.000000  -0.000000  -0.000000   0.000074   0.000000
              25         26         27         28         29         30
     1  C   -0.000416  -0.000141  -0.000000  -0.000103   0.000001   0.000077
     2  S    0.000513  -0.001314   0.000593   0.004014  -0.000108   0.004483
     3  N    0.001768   0.000867   0.004296  -0.003091   0.000337   0.004846
     4  C   -0.021965  -0.024819  -0.029302  -0.030424   0.004702  -0.008605
     5  C    0.010065   0.002900  -0.007330   0.005426  -0.000049  -0.000252
     6  S   -0.011169   0.000533   0.007078  -0.000515   0.000020  -0.000016
     7  C    0.339091   0.326277  -0.002114  -0.007405  -0.000101   0.000165
     8  O    0.000727   0.000007   0.000024   0.000001  -0.000000   0.000000
     9  O   -0.000498   0.001143   0.006030   0.000055  -0.000001  -0.000000
    10  C   -0.003997   0.004609   0.345170   0.352431  -0.034785  -0.034204
    11  C    0.000096  -0.000089  -0.035473  -0.028274   0.356223   0.355595
    12  C    0.000011   0.000001  -0.005809   0.004388  -0.031902  -0.031337
    13  C   -0.000000   0.000000   0.000079  -0.000058   0.003659  -0.005383
    14  C    0.000000  -0.000000   0.000010   0.000002  -0.000234   0.000227
    15  C   -0.000000  -0.000000  -0.000002  -0.000000   0.000021   0.000000
    16  C    0.000000  -0.000000  -0.000090   0.000003   0.000070  -0.000188
    17  C    0.000000   0.000000   0.003261  -0.000006  -0.006680   0.004542
    18  O    0.000001  -0.000030   0.000000   0.000037  -0.000001  -0.000639
    19  O   -0.000078   0.000103   0.000165   0.010748   0.000020   0.009330
    20  H   -0.000003   0.000918  -0.000000  -0.000001  -0.000000  -0.000003
    21  H    0.000012   0.000123  -0.000000   0.000002  -0.000000  -0.000000
    22  H    0.000240   0.001136   0.000006   0.000066   0.000000   0.000004
    23  H   -0.000286  -0.000214   0.000109   0.000196  -0.000049   0.000115
    24  H   -0.000275   0.000342   0.000061  -0.000127   0.000004   0.000004
    25  H    0.484843  -0.019672  -0.000328   0.004069  -0.000019   0.000001
    26  H   -0.019672   0.491206   0.000002   0.000043   0.000002   0.000001
    27  H   -0.000328   0.000002   0.599538  -0.032728  -0.002817   0.005395
    28  H    0.004069   0.000043  -0.032728   0.573500  -0.003937  -0.004402
    29  H   -0.000019   0.000002  -0.002817  -0.003937   0.597073  -0.032726
    30  H    0.000001   0.000001   0.005395  -0.004402  -0.032726   0.564210
    31  H   -0.000000   0.000000   0.000009  -0.000025   0.000124   0.005204
    32  H    0.000000  -0.000000   0.000000  -0.000000   0.000003  -0.000005
    33  H    0.000000   0.000000  -0.000000   0.000000  -0.000000  -0.000000
    34  H    0.000000   0.000000   0.000002  -0.000000  -0.000004   0.000003
    35  H   -0.000000  -0.000000   0.001345  -0.000085   0.003789   0.000066
              31         32         33         34         35
     1  C    0.000008  -0.000000   0.000000  -0.000000   0.000000
     2  S    0.001417  -0.000001   0.000000  -0.000000   0.000001
     3  N    0.006262  -0.000003   0.000000  -0.000000   0.000001
     4  C   -0.000242   0.000000   0.000000   0.000000   0.000075
     5  C   -0.000315  -0.000003  -0.000000  -0.000003  -0.000040
     6  S    0.000011   0.000000  -0.000000  -0.000000   0.000002
     7  C    0.000028  -0.000000   0.000000  -0.000000   0.000001
     8  O    0.000000  -0.000000  -0.000000   0.000000  -0.000000
     9  O   -0.000000   0.000000   0.000000  -0.000000  -0.000002
    10  C   -0.000078   0.000002   0.000000   0.000001   0.000590
    11  C   -0.009228  -0.000167   0.000006  -0.000164  -0.008389
    12  C   -0.045217   0.003737   0.000594   0.003588  -0.045713
    13  C    0.352239  -0.038235   0.004557   0.000684   0.006148
    14  C   -0.044693   0.359986  -0.042349   0.004567   0.000254
    15  C    0.004870  -0.042802   0.362863  -0.042468   0.004762
    16  C    0.000195   0.004537  -0.042214   0.360810  -0.045373
    17  C    0.006415   0.000711   0.004584  -0.039333   0.359546
    18  O    0.000188  -0.000000   0.000000  -0.000000   0.000000
    19  O   -0.000041   0.000000   0.000000  -0.000000   0.000000
    20  H    0.000000  -0.000000  -0.000000   0.000000  -0.000000
    21  H   -0.000000   0.000000  -0.000000   0.000000  -0.000000
    22  H   -0.000000   0.000000  -0.000000   0.000000  -0.000000
    23  H    0.000064   0.000002  -0.000000   0.000007   0.000074
    24  H    0.000104   0.000002  -0.000000   0.000000   0.000000
    25  H   -0.000000   0.000000   0.000000   0.000000  -0.000000
    26  H    0.000000  -0.000000   0.000000   0.000000  -0.000000
    27  H    0.000009   0.000000  -0.000000   0.000002   0.001345
    28  H   -0.000025  -0.000000   0.000000  -0.000000  -0.000085
    29  H    0.000124   0.000003  -0.000000  -0.000004   0.003789
    30  H    0.005204  -0.000005  -0.000000   0.000003   0.000066
    31  H    0.588761  -0.005417  -0.000161   0.000015  -0.000161
    32  H   -0.005417   0.576616  -0.005271  -0.000174   0.000016
    33  H   -0.000161  -0.005271   0.576935  -0.005208  -0.000167
    34  H    0.000015  -0.000174  -0.005208   0.576294  -0.005336
    35  H   -0.000161   0.000016  -0.000167  -0.005336   0.586377
 Mulliken charges:
               1
     1  C   -0.630297
     2  S    1.071512
     3  N   -0.718325
     4  C    0.200845
     5  C   -0.485929
     6  S    1.086878
     7  C   -0.500274
     8  O   -0.574975
     9  O   -0.590527
    10  C   -0.268330
    11  C   -0.352587
    12  C    0.153829
    13  C   -0.201387
    14  C   -0.148845
    15  C   -0.154277
    16  C   -0.148905
    17  C   -0.198847
    18  O   -0.649464
    19  O   -0.658097
    20  H    0.190482
    21  H    0.194458
[...]
 Framework group  C1[X(C12H16NO4S2)]
 Deg. of freedom    99
 Full point group                 C1      NOp   1
 RotChk:  IX=0 Diff= 3.25D-16
 Largest Abelian subgroup         C1      NOp   1
 Largest concise Abelian subgroup C1      NOp   1
                         Standard orientation:                         
 ---------------------------------------------------------------------
 Center     Atomic      Atomic             Coordinates (Angstroms)
 Number     Number       Type             X           Y           Z
 ---------------------------------------------------------------------
      1          6           0        4.003200   -0.767269   -0.274875
      2         16           0        2.395241   -1.609194   -0.150718
      3          7           0        1.234331   -0.653924   -0.663590
      4          6           0        0.670256    0.403364    0.159118
      5          6           0       -0.333713    1.218240   -0.748417
      6         16           0        0.396613    2.788277   -0.200174
      7          6           0        1.634971    1.634950    0.457176
      8          8           0        0.885264    3.657070   -1.295652
      9          8           0       -0.401904    3.425472    0.875592
     10          6           0       -0.001746   -0.033383    1.489729
     11          6           0       -0.933430   -1.263048    1.429816
     12          6           0       -2.194054   -1.124436    0.599277
     13          6           0       -2.293342   -1.717129   -0.668380
     14          6           0       -3.456759   -1.594397   -1.432808
     15          6           0       -4.547183   -0.873319   -0.940471
     16          6           0       -4.464626   -0.279422    0.322712
     17          6           0       -3.300508   -0.407945    1.083533
     18          8           0        2.494017   -2.734462   -1.126637
     19          8           0        2.326452   -2.033672    1.285123
     20          1           0        4.141032   -0.405457   -1.295864
     21          1           0        4.782502   -1.491262   -0.024354
     22          1           0        4.040845    0.065858    0.429749
     23          1           0       -1.397067    1.134644   -0.529492
     24          1           0       -0.135452    1.072140   -1.811458
     25          1           0        1.911279    1.825500    1.496163
     26          1           0        2.509483    1.655324   -0.194215
     27          1           0       -0.547682    0.825707    1.901507
     28          1           0        0.795971   -0.270996    2.199511
     29          1           0       -1.219365   -1.489275    2.465592
     30          1           0       -0.351295   -2.116511    1.073338
     31          1           0       -1.445036   -2.272064   -1.061113
     32          1           0       -3.510877   -2.063966   -2.411651
     33          1           0       -5.453705   -0.777943   -1.531991
     34          1           0       -5.309658    0.278027    0.718501
     35          1           0       -3.250006    0.049915    2.069302
 ---------------------------------------------------------------------
 Rotational constants (GHZ):           0.3667868           0.2600283           0.1795761
 Leave Link  202 at Tue Sep 22 02:10:24 2020, MaxMem=   262144000 cpu:               0.0 elap:               0.0
 (Enter /prod/apps/gaussian/g16b1/l301.exe)
 Standard basis: Aug-CC-pVDZ (5D, 7F)
 Ernie: Thresh=  0.10000D-02 Tol=  0.10000D-05 Strict=F.
 Ernie:  54 primitive shells out of 643 were deleted.
 There are   627 symmetry adapted cartesian basis functions of A   symmetry.
 There are   589 symmetry adapted basis functions of A   symmetry.
   589 basis functions,  1069 primitive gaussians,   627 cartesian basis functions
    80 alpha electrons       80 beta electrons
       nuclear repulsion energy      1851.2433365824 Hartrees.
 IExCor=    0 DFT=F Ex=HF Corr=None ExCW=0 ScaHFX=  1.000000
 ScaDFX=  1.000000  1.000000  1.000000  1.000000 ScalE2=  1.000000  1.000000
 IRadAn=      5 IRanWt=     -1 IRanGd=            0 ICorTp=0 IEmpDi=  4
 NAtoms=   35 NActive=   35 NUniq=   35 SFac= 1.00D+00 NAtFMM=   60 NAOKFM=F Big=F
 Integral buffers will be    131072 words long.
 Raffenetti 1 integral format.
 Two-electron integral symmetry is turned on.
 Leave Link  301 at Tue Sep 22 02:10:24 2020, MaxMem=   262144000 cpu:               0.2 elap:               0.1
 (Enter /prod/apps/gaussian/g16b1/l302.exe)
 NPDir=0 NMtPBC=     1 NCelOv=     1 NCel=       1 NClECP=     1 NCelD=      1
         NCelK=      1 NCelE2=     1 NClLst=     1 CellRange=     0.0.
 One-electron integrals computed using PRISM.
 One-electron integral symmetry used in STVInt
 NBasis=   589 RedAO= T EigKep=  1.84D-06  NBF=   589
 NBsUse=   589 1.00D-06 EigRej= -1.00D+00 NBFU=   589
 Leave Link  302 at Tue Sep 22 02:10:25 2020, MaxMem=   262144000 cpu:               1.8 elap:               0.5
 (Enter /prod/apps/gaussian/g16b1/l303.exe)
 DipDrv:  MaxL=1.
 Leave Link  303 at Tue Sep 22 02:10:25 2020, MaxMem=   262144000 cpu:               0.4 elap:               0.1
 (Enter /prod/apps/gaussian/g16b1/l401.exe)
 ExpMin= 2.97D-02 ExpMax= 1.11D+05 ExpMxC= 1.07D+03 IAcc=3 IRadAn=         5 AccDes= 0.00D+00
 Harris functional with IExCor=  205 and IRadAn=       5 diagonalized for initial guess.
 HarFok:  IExCor=  205 AccDes= 0.00D+00 IRadAn=         5 IDoV= 1 UseB2=F ITyADJ=14
 ICtDFT=  3500011 ScaDFX=  1.000000  1.000000  1.000000  1.000000
 FoFCou: FMM=F IPFlag=           0 FMFlag=      100000 FMFlg1=           0
         NFxFlg=           0 DoJE=T BraDBF=F KetDBF=T FulRan=T
         wScrn=  0.000000 ICntrl=       500 IOpCl=  0 I1Cent=   200000004 NGrid=           0
         NMat0=    1 NMatS0=      1 NMatT0=    0 NMatD0=    1 NMtDS0=    0 NMtDT0=    0
 Petite list used in FoFCou.
 Harris En= -1613.18528144022    
 JPrj=0 DoOrth=F DoCkMO=F.
 Leave Link  401 at Tue Sep 22 02:10:29 2020, MaxMem=   262144000 cpu:              15.9 elap:               4.0
 (Enter /prod/apps/gaussian/g16b1/l502.exe)
 Integral symmetry usage will be decided dynamically.
 Closed shell SCF:
 Using DIIS extrapolation, IDIIS=  1040.
 NGot=   262144000 LenX=   261348123 LenY=   260954367
 Requested convergence on RMS density matrix=1.00D-08 within2000 cycles.
 Requested convergence on MAX density matrix=1.00D-06.
 Requested convergence on             energy=1.00D-06.
 No special actions if energy rises.

 Cycle   1  Pass 1  IDiag  1:
 FoFJK:  IHMeth= 1 ICntrl=       0 DoSepK=F KAlg= 0 I1Cent=           0 FoldK=F
 IRaf= 940000000 NMat=       1 IRICut=       1 DoRegI=T DoRafI=F ISym2E= 0 IDoP0=0 IntGTp=1.
 FoFCou: FMM=F IPFlag=           0 FMFlag=      100000 FMFlg1=           0
         NFxFlg=           0 DoJE=F BraDBF=F KetDBF=F FulRan=T
         wScrn=  0.000000 ICntrl=         0 IOpCl=  0 I1Cent=           0 NGrid=           0
         NMat0=    1 NMatS0=      1 NMatT0=    0 NMatD0=    1 NMtDS0=    0 NMtDT0=    0
 Symmetry not used in FoFCou.
 E= -1611.69589600879    
 DIIS: error= 2.30D-02 at cycle   1 NSaved=   1.
 NSaved= 1 IEnMin= 1 EnMin= -1611.69589600879     IErMin= 1 ErrMin= 2.30D-02
 ErrMax= 2.30D-02  0.00D+00 EMaxC= 1.00D-01 BMatC= 1.35D+00 BMatP= 1.35D+00
 IDIUse=3 WtCom= 7.70D-01 WtEn= 2.30D-01
 Coeff-Com:  0.100D+01
 Coeff-En:   0.100D+01
 Coeff:      0.100D+01
 Gap=     0.468 Goal=   None    Shift=    0.000
 GapD=    0.468 DampG=2.000 DampE=0.500 DampFc=1.0000 IDamp=-1.
 RMSDP=4.20D-02 MaxDP=3.36D+00              OVMax= 1.52D-01

 Cycle   2  Pass 1  IDiag  1:
 E= -1612.39625295363     Delta-E=       -0.700356944842 Rises=F Damp=F
 DIIS: error= 1.26D-02 at cycle   2 NSaved=   2.
 NSaved= 2 IEnMin= 2 EnMin= -1612.39625295363     IErMin= 2 ErrMin= 1.26D-02
 ErrMax= 1.26D-02  0.00D+00 EMaxC= 1.00D-01 BMatC= 3.12D-01 BMatP= 1.35D+00
 IDIUse=3 WtCom= 8.74D-01 WtEn= 1.26D-01
 Coeff-Com:  0.293D+00 0.707D+00
 Coeff-En:   0.000D+00 0.100D+01
 Coeff:      0.256D+00 0.744D+00
 Gap=     0.339 Goal=   None    Shift=    0.000
 RMSDP=5.05D-03 MaxDP=6.73D-01 DE=-7.00D-01 OVMax= 6.36D-02

 Cycle   3  Pass 1  IDiag  1:
 E= -1612.62978459468     Delta-E=       -0.233531641050 Rises=F Damp=F
 DIIS: error= 3.05D-03 at cycle   3 NSaved=   3.
 NSaved= 3 IEnMin= 3 EnMin= -1612.62978459468     IErMin= 3 ErrMin= 3.05D-03
 ErrMax= 3.05D-03  0.00D+00 EMaxC= 1.00D-01 BMatC= 2.42D-02 BMatP= 3.12D-01
 IDIUse=3 WtCom= 9.69D-01 WtEn= 3.05D-02
 Coeff-Com: -0.690D-02 0.193D+00 0.814D+00
 Coeff-En:   0.000D+00 0.000D+00 0.100D+01
 Coeff:     -0.669D-02 0.187D+00 0.819D+00
 Gap=     0.321 Goal=   None    Shift=    0.000
 RMSDP=1.08D-03 MaxDP=1.37D-01 DE=-2.34D-01 OVMax= 1.63D-02

 Cycle   4  Pass 1  IDiag  1:
 E= -1612.64789177811     Delta-E=       -0.018107183427 Rises=F Damp=F
 DIIS: error= 5.19D-04 at cycle   4 NSaved=   4.
 NSaved= 4 IEnMin= 4 EnMin= -1612.64789177811     IErMin= 4 ErrMin= 5.19D-04
 ErrMax= 5.19D-04  0.00D+00 EMaxC= 1.00D-01 BMatC= 1.03D-03 BMatP= 2.42D-02
 IDIUse=3 WtCom= 9.95D-01 WtEn= 5.19D-03
 Coeff-Com: -0.140D-01 0.175D-01 0.215D+00 0.782D+00
 Coeff-En:   0.000D+00 0.000D+00 0.000D+00 0.100D+01
 Coeff:     -0.140D-01 0.174D-01 0.214D+00 0.783D+00
 Gap=     0.314 Goal=   None    Shift=    0.000
 RMSDP=4.00D-04 MaxDP=4.09D-02 DE=-1.81D-02 OVMax= 7.14D-03

 Cycle   5  Pass 1  IDiag  1:
 E= -1612.64905274487     Delta-E=       -0.001160966764 Rises=F Damp=F
 DIIS: error= 2.96D-04 at cycle   5 NSaved=   5.
 NSaved= 5 IEnMin= 5 EnMin= -1612.64905274487     IErMin= 5 ErrMin= 2.96D-04
 ErrMax= 2.96D-04  0.00D+00 EMaxC= 1.00D-01 BMatC= 6.93D-05 BMatP= 1.03D-03
 IDIUse=3 WtCom= 9.97D-01 WtEn= 2.96D-03
 Coeff-Com:  0.204D-03-0.123D-01-0.592D-01 0.423D-01 0.103D+01
 Coeff-En:   0.000D+00 0.000D+00 0.000D+00 0.000D+00 0.100D+01
 Coeff:      0.203D-03-0.122D-01-0.590D-01 0.422D-01 0.103D+01
 Gap=     0.316 Goal=   None    Shift=    0.000
 RMSDP=1.25D-04 MaxDP=1.16D-02 DE=-1.16D-03 OVMax= 2.59D-03

 Cycle   6  Pass 1  IDiag  1:
 E= -1612.64916805376     Delta-E=       -0.000115308884 Rises=F Damp=F
 DIIS: error= 5.17D-05 at cycle   6 NSaved=   6.
 NSaved= 6 IEnMin= 6 EnMin= -1612.64916805376     IErMin= 6 ErrMin= 5.17D-05
 ErrMax= 5.17D-05  0.00D+00 EMaxC= 1.00D-01 BMatC= 9.33D-06 BMatP= 6.93D-05
 IDIUse=1 WtCom= 1.00D+00 WtEn= 0.00D+00
 Coeff-Com:  0.150D-02-0.543D-02-0.398D-01-0.655D-01 0.256D+00 0.854D+00
 Coeff:      0.150D-02-0.543D-02-0.398D-01-0.655D-01 0.256D+00 0.854D+00
 Gap=     0.316 Goal=   None    Shift=    0.000
 RMSDP=3.77D-05 MaxDP=3.23D-03 DE=-1.15D-04 OVMax= 9.78D-04

 Cycle   7  Pass 1  IDiag  1:
 E= -1612.64918351261     Delta-E=       -0.000015458858 Rises=F Damp=F
 DIIS: error= 1.60D-05 at cycle   7 NSaved=   7.
 NSaved= 7 IEnMin= 7 EnMin= -1612.64918351261     IErMin= 7 ErrMin= 1.60D-05
 ErrMax= 1.60D-05  0.00D+00 EMaxC= 1.00D-01 BMatC= 8.22D-07 BMatP= 9.33D-06
 IDIUse=1 WtCom= 1.00D+00 WtEn= 0.00D+00
 Coeff-Com:  0.214D-03 0.406D-03 0.700D-04-0.125D-01-0.699D-01 0.110D+00
 Coeff-Com:  0.971D+00
 Coeff:      0.214D-03 0.406D-03 0.700D-04-0.125D-01-0.699D-01 0.110D+00
 Coeff:      0.971D+00
 Gap=     0.316 Goal=   None    Shift=    0.000
 RMSDP=1.23D-05 MaxDP=1.34D-03 DE=-1.55D-05 OVMax= 3.98D-04

 Cycle   8  Pass 1  IDiag  1:
 E= -1612.64918533084     Delta-E=       -0.000001818231 Rises=F Damp=F
 DIIS: error= 5.81D-06 at cycle   8 NSaved=   8.
 NSaved= 8 IEnMin= 8 EnMin= -1612.64918533084     IErMin= 8 ErrMin= 5.81D-06
 ErrMax= 5.81D-06  0.00D+00 EMaxC= 1.00D-01 BMatC= 1.10D-07 BMatP= 8.22D-07
 IDIUse=1 WtCom= 1.00D+00 WtEn= 0.00D+00
 Coeff-Com: -0.155D-03 0.712D-03 0.495D-02 0.705D-02-0.367D-01-0.100D+00
 Coeff-Com:  0.587D-01 0.107D+01
 Coeff:     -0.155D-03 0.712D-03 0.495D-02 0.705D-02-0.367D-01-0.100D+00
 Coeff:      0.587D-01 0.107D+01
 Gap=     0.316 Goal=   None    Shift=    0.000
 RMSDP=5.12D-06 MaxDP=4.89D-04 DE=-1.82D-06 OVMax= 1.30D-04

 Cycle   9  Pass 1  IDiag  1:
 E= -1612.64918560660     Delta-E=       -0.000000275754 Rises=F Damp=F
 DIIS: error= 2.85D-06 at cycle   9 NSaved=   9.
 NSaved= 9 IEnMin= 9 EnMin= -1612.64918560660     IErMin= 9 ErrMin= 2.85D-06
 ErrMax= 2.85D-06  0.00D+00 EMaxC= 1.00D-01 BMatC= 1.63D-08 BMatP= 1.10D-07
 IDIUse=1 WtCom= 1.00D+00 WtEn= 0.00D+00
 Coeff-Com: -0.626D-04 0.115D-03 0.109D-02 0.318D-02 0.189D-02-0.353D-01
 Coeff-Com: -0.124D+00 0.228D+00 0.925D+00
 Coeff:     -0.626D-04 0.115D-03 0.109D-02 0.318D-02 0.189D-02-0.353D-01
 Coeff:     -0.124D+00 0.228D+00 0.925D+00
 Gap=     0.316 Goal=   None    Shift=    0.000
 RMSDP=1.73D-06 MaxDP=1.54D-04 DE=-2.76D-07 OVMax= 5.18D-05

 Cycle  10  Pass 1  IDiag  1:
 E= -1612.64918564016     Delta-E=       -0.000000033560 Rises=F Damp=F
 DIIS: error= 1.31D-06 at cycle  10 NSaved=  10.
 NSaved=10 IEnMin=10 EnMin= -1612.64918564016     IErMin=10 ErrMin= 1.31D-06
 ErrMax= 1.31D-06  0.00D+00 EMaxC= 1.00D-01 BMatC= 1.52D-09 BMatP= 1.63D-08
 IDIUse=1 WtCom= 1.00D+00 WtEn= 0.00D+00
 Coeff-Com:  0.588D-05-0.496D-04-0.341D-03-0.357D-03 0.375D-02 0.670D-02
 Coeff-Com: -0.203D-01-0.797D-01 0.114D+00 0.976D+00
 Coeff:      0.588D-05-0.496D-04-0.341D-03-0.357D-03 0.375D-02 0.670D-02
 Coeff:     -0.203D-01-0.797D-01 0.114D+00 0.976D+00
 Gap=     0.316 Goal=   None    Shift=    0.000
 RMSDP=7.34D-07 MaxDP=4.95D-05 DE=-3.36D-08 OVMax= 2.34D-05

 Cycle  11  Pass 1  IDiag  1:
 E= -1612.64918564391     Delta-E=       -0.000000003748 Rises=F Damp=F
 DIIS: error= 4.48D-07 at cycle  11 NSaved=  11.
 NSaved=11 IEnMin=11 EnMin= -1612.64918564391     IErMin=11 ErrMin= 4.48D-07
 ErrMax= 4.48D-07  0.00D+00 EMaxC= 1.00D-01 BMatC= 2.69D-10 BMatP= 1.52D-09
 IDIUse=1 WtCom= 1.00D+00 WtEn= 0.00D+00
 Coeff-Com:  0.966D-05-0.227D-04-0.216D-03-0.553D-03 0.400D-03 0.637D-02
 Coeff-Com:  0.132D-01-0.484D-01-0.104D+00 0.189D+00 0.945D+00
 Coeff:      0.966D-05-0.227D-04-0.216D-03-0.553D-03 0.400D-03 0.637D-02
 Coeff:      0.132D-01-0.484D-01-0.104D+00 0.189D+00 0.945D+00
 Gap=     0.316 Goal=   None    Shift=    0.000
 RMSDP=2.67D-07 MaxDP=1.56D-05 DE=-3.75D-09 OVMax= 1.08D-05

 Cycle  12  Pass 1  IDiag  1:
 E= -1612.64918564473     Delta-E=       -0.000000000824 Rises=F Damp=F
 DIIS: error= 2.55D-07 at cycle  12 NSaved=  12.
 NSaved=12 IEnMin=12 EnMin= -1612.64918564473     IErMin=12 ErrMin= 2.55D-07
 ErrMax= 2.55D-07  0.00D+00 EMaxC= 1.00D-01 BMatC= 4.21D-11 BMatP= 2.69D-10
 IDIUse=1 WtCom= 1.00D+00 WtEn= 0.00D+00
 Coeff-Com: -0.557D-06 0.679D-05 0.431D-04 0.378D-04-0.492D-03-0.853D-03
 Coeff-Com:  0.306D-02 0.102D-01-0.184D-01-0.131D+00 0.123D-01 0.112D+01
 Coeff:     -0.557D-06 0.679D-05 0.431D-04 0.378D-04-0.492D-03-0.853D-03
 Coeff:      0.306D-02 0.102D-01-0.184D-01-0.131D+00 0.123D-01 0.112D+01
 Gap=     0.316 Goal=   None    Shift=    0.000
 RMSDP=1.41D-07 MaxDP=7.18D-06 DE=-8.24D-10 OVMax= 7.58D-06

 Cycle  13  Pass 1  IDiag  1:
 E= -1612.64918564489     Delta-E=       -0.000000000154 Rises=F Damp=F
 DIIS: error= 9.99D-08 at cycle  13 NSaved=  13.
 NSaved=13 IEnMin=13 EnMin= -1612.64918564489     IErMin=13 ErrMin= 9.99D-08
 ErrMax= 9.99D-08  0.00D+00 EMaxC= 1.00D-01 BMatC= 1.01D-11 BMatP= 4.21D-11
 IDIUse=1 WtCom= 1.00D+00 WtEn= 0.00D+00
 Coeff-Com: -0.203D-05 0.526D-05 0.484D-04 0.115D-03-0.130D-03-0.137D-02
 Coeff-Com: -0.245D-02 0.107D-01 0.202D-01-0.468D-01-0.206D+00 0.110D+00
 Coeff-Com:  0.112D+01
 Coeff:     -0.203D-05 0.526D-05 0.484D-04 0.115D-03-0.130D-03-0.137D-02
 Coeff:     -0.245D-02 0.107D-01 0.202D-01-0.468D-01-0.206D+00 0.110D+00
 Coeff:      0.112D+01
 Gap=     0.316 Goal=   None    Shift=    0.000
 RMSDP=7.95D-08 MaxDP=7.09D-06 DE=-1.54D-10 OVMax= 3.96D-06

 Cycle  14  Pass 1  IDiag  1:
 E= -1612.64918564493     Delta-E=       -0.000000000041 Rises=F Damp=F
 DIIS: error= 4.35D-08 at cycle  14 NSaved=  14.
 NSaved=14 IEnMin=14 EnMin= -1612.64918564493     IErMin=14 ErrMin= 4.35D-08
 ErrMax= 4.35D-08  0.00D+00 EMaxC= 1.00D-01 BMatC= 1.97D-12 BMatP= 1.01D-11
 IDIUse=1 WtCom= 1.00D+00 WtEn= 0.00D+00
 Coeff-Com:  0.197D-06-0.184D-05-0.109D-04-0.131D-04 0.112D-03 0.260D-03
 Coeff-Com: -0.556D-03-0.301D-02 0.400D-02 0.337D-01-0.624D-02-0.248D+00
 Coeff-Com: -0.763D-02 0.123D+01
 Coeff:      0.197D-06-0.184D-05-0.109D-04-0.131D-04 0.112D-03 0.260D-03
 Coeff:     -0.556D-03-0.301D-02 0.400D-02 0.337D-01-0.624D-02-0.248D+00
 Coeff:     -0.763D-02 0.123D+01
 Gap=     0.316 Goal=   None    Shift=    0.000
 RMSDP=4.64D-08 MaxDP=3.11D-06 DE=-4.09D-11 OVMax= 2.39D-06

 Cycle  15  Pass 1  IDiag  1:
 E= -1612.64918564493     Delta-E=       -0.000000000004 Rises=F Damp=F
 DIIS: error= 1.40D-08 at cycle  15 NSaved=  15.
 NSaved=15 IEnMin=15 EnMin= -1612.64918564493     IErMin=15 ErrMin= 1.40D-08
 ErrMax= 1.40D-08  0.00D+00 EMaxC= 1.00D-01 BMatC= 3.01D-13 BMatP= 1.97D-12
 IDIUse=1 WtCom= 1.00D+00 WtEn= 0.00D+00
 Coeff-Com:  0.378D-06-0.119D-05-0.990D-05-0.221D-04 0.368D-04 0.281D-03
 Coeff-Com:  0.371D-03-0.238D-02-0.290D-02 0.128D-01 0.326D-01-0.451D-01
 Coeff-Com: -0.193D+00 0.125D+00 0.107D+01
 Coeff:      0.378D-06-0.119D-05-0.990D-05-0.221D-04 0.368D-04 0.281D-03
 Coeff:      0.371D-03-0.238D-02-0.290D-02 0.128D-01 0.326D-01-0.451D-01
 Coeff:     -0.193D+00 0.125D+00 0.107D+01
 Gap=     0.316 Goal=   None    Shift=    0.000
 RMSDP=1.73D-08 MaxDP=1.29D-06 DE=-4.09D-12 OVMax= 7.55D-07

 Cycle  16  Pass 1  IDiag  1:
 E= -1612.64918564491     Delta-E=        0.000000000018 Rises=F Damp=F
 DIIS: error= 4.48D-09 at cycle  16 NSaved=  16.
 NSaved=16 IEnMin=15 EnMin= -1612.64918564493     IErMin=16 ErrMin= 4.48D-09
 ErrMax= 4.48D-09  0.00D+00 EMaxC= 1.00D-01 BMatC= 4.83D-14 BMatP= 3.01D-13
 IDIUse=1 WtCom= 1.00D+00 WtEn= 0.00D+00
 Coeff-Com:  0.269D-07 0.110D-06 0.150D-06-0.169D-05-0.136D-04 0.701D-05
 Coeff-Com:  0.166D-03 0.657D-04-0.118D-02-0.329D-02 0.649D-02 0.354D-01
 Coeff-Com: -0.336D-01-0.188D+00 0.212D+00 0.971D+00
 Coeff:      0.269D-07 0.110D-06 0.150D-06-0.169D-05-0.136D-04 0.701D-05
 Coeff:      0.166D-03 0.657D-04-0.118D-02-0.329D-02 0.649D-02 0.354D-01
 Coeff:     -0.336D-01-0.188D+00 0.212D+00 0.971D+00
 Gap=     0.316 Goal=   None    Shift=    0.000
 RMSDP=5.14D-09 MaxDP=9.55D-07 DE= 1.77D-11 OVMax= 2.23D-07

 SCF Done:  E(RHF) =  -1612.64918564     A.U. after   16 cycles
            NFock= 16  Conv=0.51D-08     -V/T= 2.0011
 KE= 1.610939070725D+03 PE=-7.529026979045D+03 EE= 2.454195386093D+03
 Leave Link  502 at Tue Sep 22 02:29:31 2020, MaxMem=   262144000 cpu:            4565.2 elap:            1141.5
 (Enter /prod/apps/gaussian/g16b1/l801.exe)
 ExpMin= 2.97D-02 ExpMax= 1.11D+05 ExpMxC= 1.07D+03 IAcc=3 IRadAn=         5 AccDes= 0.00D+00
 HarFok:  IExCor=  205 AccDes= 0.00D+00 IRadAn=         5 IDoV=-2 UseB2=F ITyADJ=14
 ICtDFT= 12500011 ScaDFX=  1.000000  1.000000  1.000000  1.000000
 GSVD:  LWork=        -945 too small for GESVD, short by        4050 words or        4050 for optimal perf.
 Largest valence mixing into a core orbital is  3.64D-04
 Largest core mixing into a valence orbital is  1.11D-04
 Range of M.O.s used for correlation:    28   589
 NBasis=   589 NAE=    80 NBE=    80 NFC=    27 NFV=     0
 NROrb=    562 NOA=    53 NOB=    53 NVA=   509 NVB=   509

 **** Warning!!: The largest alpha MO coefficient is  0.10545769D+03

 Leave Link  801 at Tue Sep 22 02:29:31 2020, MaxMem=   262144000 cpu:               1.1 elap:               0.3
 (Enter /prod/apps/gaussian/g16b1/l906.exe)
 FulOut=F Deriv=F AODrv=F NAtomX=    35
   MMem=           3  MDisk=          53 MDiskD=          53
  W3Min=    16914579 MinDsk=    17123203 NBas6D=         627
 NBas2D=      197721    NTT=      196878    LW2=     2000000
    MDV=   259630371 MDiskM=        5706 NBas2p=      181969
 Disk-based method using OVN memory for 53 occupieds at a time.
 Estimated scratch disk usage= 14985828913 words.
 IMap=   1   2   3   4   5   6   7   8   9  10  11  12  13  14  15  16  17  18  19  20
 IMap=  21  22  23  24  25  26  27  28  29  30  31  32  33  34  35  36  37  38  39  40
 IMap=  41  42  43  44  45  46  47  48  49  50  51  52  53
 Actual    scratch disk usage= 14765444145 words.
 JobTyp=1 Pass  1:  I=   1 to  53 NPSUse=  4 ParTrn=T ParDer=T DoDerP=F.
Erroneous write. Write -1 instead of 6370992.
fd = 4
orig len = 8384512 left = 6370992
g_write
