 Entering Gaussian System, Link 0=g16
 Initial command:
 /prod/apps/gaussian/g16b1/l1.exe "/tmp/ubafar01/1460150/Gau-2933.inp" -scrdir="/tmp/ubafar01/1460150/"
 Entering Link 1 = /prod/apps/gaussian/g16b1/l1.exe PID=      2936.
  
 Copyright (c) 1988-2017, Gaussian, Inc.  All Rights Reserved.
  
 This is part of the Gaussian(R) 16 program.  It is based on
 the Gaussian(R) 09 system (copyright 2009, Gaussian, Inc.),
 the Gaussian(R) 03 system (copyright 2003, Gaussian, Inc.),
 the Gaussian(R) 98 system (copyright 1998, Gaussian, Inc.),
 the Gaussian(R) 94 system (copyright 1995, Gaussian, Inc.),
 the Gaussian 92(TM) system (copyright 1992, Gaussian, Inc.),
 the Gaussian 90(TM) system (copyright 1990, Gaussian, Inc.),
 the Gaussian 88(TM) system (copyright 1988, Gaussian, Inc.),
 the Gaussian 86(TM) system (copyright 1986, Carnegie Mellon
 University), and the Gaussian 82(TM) system (copyright 1983,
 Carnegie Mellon University). Gaussian is a federally registered
 trademark of Gaussian, Inc.
  
 This software contains proprietary and confidential information,
 including trade secrets, belonging to Gaussian, Inc.
  
 This software is provided under written license and may be
 used, copied, transmitted, or stored only in accord with that
 written license.
  
 The following legend is applicable only to US Government
 contracts under FAR:
  
                    RESTRICTED RIGHTS LEGEND
  
 Use, reproduction and disclosure by the US Government is
 subject to restrictions as set forth in subparagraphs (a)
 and (c) of the Commercial Computer Software - Restricted
 Rights clause in FAR 52.227-19.
  
 Gaussian, Inc.
 340 Quinnipiac St., Bldg. 40, Wallingford CT 06492
  
  
 ---------------------------------------------------------------
 Warning -- This program may not be used in any manner that
 competes with the business of Gaussian, Inc. or will provide
 assistance to any competitor of Gaussian, Inc.  The licensee
 of this program is prohibited from giving any competitor of
 Gaussian, Inc. access to this program.  By using this program,
 the user acknowledges that Gaussian, Inc. is engaged in the
 business of creating and licensing software in the field of
 computational chemistry and represents and warrants to the
 licensee that it is not a competitor of Gaussian, Inc. and that
 it will not use this program in any manner prohibited above.
 ---------------------------------------------------------------
  

 Cite this work as:
 Gaussian 16, Revision B.01,
 M. J. Frisch, G. W. Trucks, H. B. Schlegel, G. E. Scuseria, 
 M. A. Robb, J. R. Cheeseman, G. Scalmani, V. Barone, 
 G. A. Petersson, H. Nakatsuji, X. Li, M. Caricato, A. V. Marenich, 
 J. Bloino, B. G. Janesko, R. Gomperts, B. Mennucci, H. P. Hratchian, 
 J. V. Ortiz, A. F. Izmaylov, J. L. Sonnenberg, D. Williams-Young, 
 F. Ding, F. Lipparini, F. Egidi, J. Goings, B. Peng, A. Petrone, 
 T. Henderson, D. Ranasinghe, V. G. Zakrzewski, J. Gao, N. Rega, 
 G. Zheng, W. Liang, M. Hada, M. Ehara, K. Toyota, R. Fukuda, 
 J. Hasegawa, M. Ishida, T. Nakajima, Y. Honda, O. Kitao, H. Nakai, 
 T. Vreven, K. Throssell, J. A. Montgomery, Jr., J. E. Peralta, 
 F. Ogliaro, M. J. Bearpark, J. J. Heyd, E. N. Brothers, K. N. Kudin, 
 V. N. Staroverov, T. A. Keith, R. Kobayashi, J. Normand, 
 K. Raghavachari, A. P. Rendell, J. C. Burant, S. S. Iyengar, 
 J. Tomasi, M. Cossi, J. M. Millam, M. Klene, C. Adamo, R. Cammi, 
 J. W. Ochterski, R. L. Martin, K. Morokuma, O. Farkas, 
 J. B. Foresman, and D. J. Fox, Gaussian, Inc., Wallingford CT, 2016.
 
 ******************************************
 Gaussian 16:  ES64L-G16RevB.01 20-Dec-2017
                21-Sep-2020 
 ******************************************
 %nproc=4
 Will use up to    4 processors via shared memory.
 %Chk=SM38_m0.n.9.pdb.xyz.mst.n.w.chk
 %mem=16GB
 ----------------------------------------------------------------------
 #p b3lyp/6-31G(d) opt freq NoSymm scf=(MaxCycle=2000,NoVarAcc,NoIncFoc
 k) scrf=(iefpcm,read,solvent=water)
 ----------------------------------------------------------------------
 1/18=20,19=15,26=3,38=1,40=2/1,3;
 2/9=110,12=2,15=1,17=6,18=5,40=1/2;
 3/5=1,6=6,7=1,11=2,25=1,30=1,70=2203,71=1,72=1,74=-5/1,2,3;
 4//1;
 5/5=100002,7=2000,38=1,53=1/2;
 6/7=2,8=2,9=2,10=2,28=1/1;
 7/30=1/1,2,3,16;
 1/18=20,19=15,26=3/3(2);
 2/9=110,15=1/2;
 99//99;
 2/9=110,15=1/2;
 3/5=1,6=6,7=1,11=2,25=1,30=1,70=2205,71=1,72=1,74=-5/1,2,3;
 4/5=5,16=3,69=1/1;
 5/5=100002,7=2000,38=1,53=1/2;
 7/30=1/1,2,3,16;
 1/18=20,19=15,26=3/3(-5);
 2/9=110,15=1/2;
 6/7=2,8=2,9=2,10=2,19=2,28=1/1;
 99/9=1/99;
 Leave Link    1 at Mon Sep 21 07:20:38 2020, MaxMem=  2147483648 cpu:               0.1 elap:               0.0
 (Enter /prod/apps/gaussian/g16b1/l101.exe)
 -------------------
 SM38_m0.n.9.pdb.xyz
 -------------------
 Symbolic Z-matrix:
 Charge =  0 Multiplicity = 1
 C                     2.91     -3.008     0.226 
 S                     2.528    -1.34     -0.303 
 N                     1.262    -0.982     0.767 
 C                     0.575     0.323     0.761 
 C                    -0.032     0.791    -0.614 
 S                     0.679     2.446    -0.354 
 C                     1.541     1.536     0.966 
 O                     1.562     2.914    -1.441 
 O                    -0.318     3.393     0.191 
 C                    -0.461     0.309     1.903 
 C                    -1.522    -0.81      1.913 
 C                    -2.517    -0.807     0.769 
 C                    -2.51     -1.829    -0.188 
 C                    -3.426    -1.835    -1.242 
 C                    -4.371    -0.814    -1.352 
 C                    -4.396     0.208    -0.399 
 C                    -3.479     0.207     0.653 
 O                     3.658    -0.448     0.019 
 O                     2.086    -1.379    -1.712 
 H                     3.176    -2.991     1.282 
 H                     3.757    -3.328    -0.382 
 H                     2.051    -3.651     0.041 
 H                     0.58     -1.74      0.677 
 H                    -1.116     0.786    -0.695 
 H                     0.434     0.313    -1.476 
 H                     1.495     2.021     1.941 
 H                     2.571     1.334     0.674 
 H                    -0.957     1.285     1.897 
 H                     0.102     0.248     2.84 
 H                    -2.065    -0.701     2.859 
 H                    -1.036    -1.79      1.966 
 H                    -1.782    -2.631    -0.105 
 H                    -3.402    -2.637    -1.973 
 H                    -5.085    -0.814    -2.169 
 H                    -5.133     1.       -0.47 
 H                    -3.514     1.002     1.394 
 
 ITRead=  0  0  0  0  0  0  0  0  0  0  0  0  0  0  0  0  0  0  0  0
 ITRead=  0  0  0  0  0  0  0  0  0  0  0  0  0  0  0  0
 MicOpt= -1 -1 -1 -1 -1 -1 -1 -1 -1 -1 -1 -1 -1 -1 -1 -1 -1 -1 -1 -1
 MicOpt= -1 -1 -1 -1 -1 -1 -1 -1 -1 -1 -1 -1 -1 -1 -1 -1
 NAtoms=     36 NQM=       36 NQMF=       0 NMMI=      0 NMMIF=      0
                NMic=       0 NMicF=      0.
                    Isotopes and Nuclear Properties:
 (Nuclear quadrupole moments (NQMom) in fm**2, nuclear magnetic moments (NMagM)
  in nuclear magnetons)

  Atom         1           2           3           4           5           6           7           8           9          10
 IAtWgt=          12          32          14          12          12          32          12          16          16          12
 AtmWgt=  12.0000000  31.9720718  14.0030740  12.0000000  12.0000000  31.9720718  12.0000000  15.9949146  15.9949146  12.0000000
 NucSpn=           0           0           2           0           0           0           0           0           0           0
 AtZEff=  -0.0000000  -0.0000000  -0.0000000  -0.0000000  -0.0000000  -0.0000000  -0.0000000  -0.0000000  -0.0000000  -0.0000000
 NQMom=    0.0000000   0.0000000   2.0440000   0.0000000   0.0000000   0.0000000   0.0000000   0.0000000   0.0000000   0.0000000
 NMagM=    0.0000000   0.0000000   0.4037610   0.0000000   0.0000000   0.0000000   0.0000000   0.0000000   0.0000000   0.0000000
 AtZNuc=   6.0000000  16.0000000   7.0000000   6.0000000   6.0000000  16.0000000   6.0000000   8.0000000   8.0000000   6.0000000

  Atom        11          12          13          14          15          16          17          18          19          20
 IAtWgt=          12          12          12          12          12          12          12          16          16           1
 AtmWgt=  12.0000000  12.0000000  12.0000000  12.0000000  12.0000000  12.0000000  12.0000000  15.9949146  15.9949146   1.0078250
 NucSpn=           0           0           0           0           0           0           0           0           0           1
 AtZEff=  -0.0000000  -0.0000000  -0.0000000  -0.0000000  -0.0000000  -0.0000000  -0.0000000  -0.0000000  -0.0000000  -0.0000000
 NQMom=    0.0000000   0.0000000   0.0000000   0.0000000   0.0000000   0.0000000   0.0000000   0.0000000   0.0000000   0.0000000
 NMagM=    0.0000000   0.0000000   0.0000000   0.0000000   0.0000000   0.0000000   0.0000000   0.0000000   0.0000000   2.7928460
 AtZNuc=   6.0000000   6.0000000   6.0000000   6.0000000   6.0000000   6.0000000   6.0000000   8.0000000   8.0000000   1.0000000

  Atom        21          22          23          24          25          26          27          28          29          30
 IAtWgt=           1           1           1           1           1           1           1           1           1           1
 AtmWgt=   1.0078250   1.0078250   1.0078250   1.0078250   1.0078250   1.0078250   1.0078250   1.0078250   1.0078250   1.0078250
 NucSpn=           1           1           1           1           1           1           1           1           1           1
 AtZEff=  -0.0000000  -0.0000000  -0.0000000  -0.0000000  -0.0000000  -0.0000000  -0.0000000  -0.0000000  -0.0000000  -0.0000000
 NQMom=    0.0000000   0.0000000   0.0000000   0.0000000   0.0000000   0.0000000   0.0000000   0.0000000   0.0000000   0.0000000
 NMagM=    2.7928460   2.7928460   2.7928460   2.7928460   2.7928460   2.7928460   2.7928460   2.7928460   2.7928460   2.7928460
 AtZNuc=   1.0000000   1.0000000   1.0000000   1.0000000   1.0000000   1.0000000   1.0000000   1.0000000   1.0000000   1.0000000

  Atom        31          32          33          34          35          36
 IAtWgt=           1           1           1           1           1           1
 AtmWgt=   1.0078250   1.0078250   1.0078250   1.0078250   1.0078250   1.0078250
 NucSpn=           1           1           1           1           1           1
 AtZEff=  -0.0000000  -0.0000000  -0.0000000  -0.0000000  -0.0000000  -0.0000000
 NQMom=    0.0000000   0.0000000   0.0000000   0.0000000   0.0000000   0.0000000
 NMagM=    2.7928460   2.7928460   2.7928460   2.7928460   2.7928460   2.7928460
 AtZNuc=   1.0000000   1.0000000   1.0000000   1.0000000   1.0000000   1.0000000
 Leave Link  101 at Mon Sep 21 07:20:38 2020, MaxMem=  2147483648 cpu:               1.3 elap:               0.3
 (Enter /prod/apps/gaussian/g16b1/l103.exe)

 GradGradGradGradGradGradGradGradGradGradGradGradGradGradGradGradGradGrad
 Berny optimization.
 Initialization pass.
                           ----------------------------
                           !    Initial Parameters    !
                           ! (Angstroms and Degrees)  !
 --------------------------                            --------------------------
 ! Name  Definition              Value          Derivative Info.                !
 --------------------------------------------------------------------------------
 ! R1    R(1,2)                  1.7911         estimate D2E/DX2                !
 ! R2    R(1,20)                 1.0891         estimate D2E/DX2                !
 ! R3    R(1,21)                 1.0906         estimate D2E/DX2                !
 ! R4    R(1,22)                 1.0888         estimate D2E/DX2                !
 ! R5    R(2,3)                  1.6958         estimate D2E/DX2                !
 ! R6    R(2,18)                 1.4752         estimate D2E/DX2                !
 ! R7    R(2,19)                 1.4772         estimate D2E/DX2                !
 ! R8    R(3,4)                  1.4748         estimate D2E/DX2                !
 ! R9    R(3,23)                 1.0236         estimate D2E/DX2                !
 ! R10   R(4,5)                  1.5742         estimate D2E/DX2                !
 ! R11   R(4,7)                  1.5641         estimate D2E/DX2                !
 ! R12   R(4,10)                 1.542          estimate D2E/DX2                !
 ! R13   R(5,6)                  1.8199         estimate D2E/DX2                !
 ! R14   R(5,24)                 1.087          estimate D2E/DX2                !
 ! R15   R(5,25)                 1.0903         estimate D2E/DX2                !
 ! R16   R(6,7)                  1.8203         estimate D2E/DX2                !
 ! R17   R(6,8)                  1.4766         estimate D2E/DX2                !
 ! R18   R(6,9)                  1.4791         estimate D2E/DX2                !
 ! R19   R(7,26)                 1.0899         estimate D2E/DX2                !
 ! R20   R(7,27)                 1.0895         estimate D2E/DX2                !
 ! R21   R(10,11)                1.5421         estimate D2E/DX2                !
 ! R22   R(10,28)                1.0948         estimate D2E/DX2                !
 ! R23   R(10,29)                1.0948         estimate D2E/DX2                !
 ! R24   R(11,12)                1.5162         estimate D2E/DX2                !
 ! R25   R(11,30)                1.0962         estimate D2E/DX2                !
 ! R26   R(11,31)                1.0952         estimate D2E/DX2                !
 ! R27   R(12,13)                1.4001         estimate D2E/DX2                !
 ! R28   R(12,17)                1.4025         estimate D2E/DX2                !
 ! R29   R(13,14)                1.3964         estimate D2E/DX2                !
 ! R30   R(13,32)                1.0863         estimate D2E/DX2                !
 ! R31   R(14,15)                1.3956         estimate D2E/DX2                !
 ! R32   R(14,33)                1.0854         estimate D2E/DX2                !
 ! R33   R(15,16)                1.3976         estimate D2E/DX2                !
 ! R34   R(15,34)                1.085          estimate D2E/DX2                !
 ! R35   R(16,17)                1.3956         estimate D2E/DX2                !
 ! R36   R(16,35)                1.0842         estimate D2E/DX2                !
 ! R37   R(17,36)                1.0874         estimate D2E/DX2                !
 ! A1    A(2,1,20)             108.9004         estimate D2E/DX2                !
 ! A2    A(2,1,21)             105.9161         estimate D2E/DX2                !
 ! A3    A(2,1,22)             109.3609         estimate D2E/DX2                !
 ! A4    A(20,1,21)            110.8196         estimate D2E/DX2                !
 ! A5    A(20,1,22)            111.5085         estimate D2E/DX2                !
 ! A6    A(21,1,22)            110.1634         estimate D2E/DX2                !
 ! A7    A(1,2,3)               99.7567         estimate D2E/DX2                !
 ! A8    A(1,2,18)             109.5889         estimate D2E/DX2                !
 ! A9    A(1,2,19)             108.7199         estimate D2E/DX2                !
 ! A10   A(3,2,18)             107.8468         estimate D2E/DX2                !
 ! A11   A(3,2,19)             112.5832         estimate D2E/DX2                !
 ! A12   A(18,2,19)            116.9589         estimate D2E/DX2                !
 ! A13   A(2,3,4)              122.1402         estimate D2E/DX2                !
 ! A14   A(2,3,23)             106.5941         estimate D2E/DX2                !
 ! A15   A(4,3,23)             110.1533         estimate D2E/DX2                !
 ! A16   A(3,4,5)              116.5026         estimate D2E/DX2                !
 ! A17   A(3,4,7)              113.4529         estimate D2E/DX2                !
 ! A18   A(3,4,10)             107.5734         estimate D2E/DX2                !
 ! A19   A(5,4,7)               97.0112         estimate D2E/DX2                !
 ! A20   A(5,4,10)             112.9873         estimate D2E/DX2                !
 ! A21   A(7,4,10)             108.9604         estimate D2E/DX2                !
 ! A22   A(4,5,6)               89.7093         estimate D2E/DX2                !
 ! A23   A(4,5,24)             116.6305         estimate D2E/DX2                !
 ! A24   A(4,5,25)             113.2931         estimate D2E/DX2                !
 ! A25   A(6,5,24)             113.8543         estimate D2E/DX2                !
 ! A26   A(6,5,25)             110.1612         estimate D2E/DX2                !
 ! A27   A(24,5,25)            111.4257         estimate D2E/DX2                !
 ! A28   A(5,6,7)               80.444          estimate D2E/DX2                !
 ! A29   A(5,6,8)              114.6252         estimate D2E/DX2                !
 ! A30   A(5,6,9)              111.8097         estimate D2E/DX2                !
 ! A31   A(7,6,8)              114.1479         estimate D2E/DX2                !
 ! A32   A(7,6,9)              111.8431         estimate D2E/DX2                !
 ! A33   A(8,6,9)              118.1253         estimate D2E/DX2                !
 ! A34   A(4,7,6)               90.0108         estimate D2E/DX2                !
 ! A35   A(4,7,26)             115.8654         estimate D2E/DX2                !
 ! A36   A(4,7,27)             113.8886         estimate D2E/DX2                !
 ! A37   A(6,7,26)             113.969          estimate D2E/DX2                !
 ! A38   A(6,7,27)             110.2445         estimate D2E/DX2                !
 ! A39   A(26,7,27)            111.2328         estimate D2E/DX2                !
 ! A40   A(4,10,11)            118.2723         estimate D2E/DX2                !
 ! A41   A(4,10,28)            106.9917         estimate D2E/DX2                !
 ! A42   A(4,10,29)            106.7893         estimate D2E/DX2                !
 ! A43   A(11,10,28)           109.5859         estimate D2E/DX2                !
 ! A44   A(11,10,29)           107.9286         estimate D2E/DX2                !
 ! A45   A(28,10,29)           106.6982         estimate D2E/DX2                !
 ! A46   A(10,11,12)           116.4362         estimate D2E/DX2                !
 ! A47   A(10,11,30)           105.9179         estimate D2E/DX2                !
 ! A48   A(10,11,31)           110.1404         estimate D2E/DX2                !
 ! A49   A(12,11,30)           109.0186         estimate D2E/DX2                !
 ! A50   A(12,11,31)           109.2391         estimate D2E/DX2                !
 ! A51   A(30,11,31)           105.4878         estimate D2E/DX2                !
 ! A52   A(11,12,13)           120.7306         estimate D2E/DX2                !
 ! A53   A(11,12,17)           120.9284         estimate D2E/DX2                !
 ! A54   A(13,12,17)           118.3347         estimate D2E/DX2                !
 ! A55   A(12,13,14)           121.0479         estimate D2E/DX2                !
 ! A56   A(12,13,32)           119.3417         estimate D2E/DX2                !
 ! A57   A(14,13,32)           119.61           estimate D2E/DX2                !
 ! A58   A(13,14,15)           120.0353         estimate D2E/DX2                !
 ! A59   A(13,14,33)           119.8014         estimate D2E/DX2                !
 ! A60   A(15,14,33)           120.1631         estimate D2E/DX2                !
 ! A61   A(14,15,16)           119.5613         estimate D2E/DX2                !
 ! A62   A(14,15,34)           120.328          estimate D2E/DX2                !
 ! A63   A(16,15,34)           120.1103         estimate D2E/DX2                !
 ! A64   A(15,16,17)           120.1148         estimate D2E/DX2                !
 ! A65   A(15,16,35)           120.1112         estimate D2E/DX2                !
 ! A66   A(17,16,35)           119.7722         estimate D2E/DX2                !
 ! A67   A(12,17,16)           120.9012         estimate D2E/DX2                !
 ! A68   A(12,17,36)           119.6242         estimate D2E/DX2                !
 ! A69   A(16,17,36)           119.4743         estimate D2E/DX2                !
 ! D1    D(20,1,2,3)           -58.4672         estimate D2E/DX2                !
 ! D2    D(20,1,2,18)           54.5662         estimate D2E/DX2                !
 ! D3    D(20,1,2,19)         -176.4816         estimate D2E/DX2                !
 ! D4    D(21,1,2,3)          -177.6957         estimate D2E/DX2                !
 ! D5    D(21,1,2,18)          -64.6623         estimate D2E/DX2                !
 ! D6    D(21,1,2,19)           64.2899         estimate D2E/DX2                !
 ! D7    D(22,1,2,3)            63.6107         estimate D2E/DX2                !
 ! D8    D(22,1,2,18)          176.6441         estimate D2E/DX2                !
 ! D9    D(22,1,2,19)          -54.4037         estimate D2E/DX2                !
 ! D10   D(1,2,3,4)            179.3977         estimate D2E/DX2                !
 ! D11   D(1,2,3,23)           -52.8826         estimate D2E/DX2                !
 ! D12   D(18,2,3,4)            65.02           estimate D2E/DX2                !
 ! D13   D(18,2,3,23)         -167.2603         estimate D2E/DX2                !
 ! D14   D(19,2,3,4)           -65.5015         estimate D2E/DX2                !
 ! D15   D(19,2,3,23)           62.2182         estimate D2E/DX2                !
 ! D16   D(2,3,4,5)             54.6988         estimate D2E/DX2                !
 ! D17   D(2,3,4,7)            -56.7091         estimate D2E/DX2                !
 ! D18   D(2,3,4,10)          -177.3004         estimate D2E/DX2                !
 ! D19   D(23,3,4,5)           -71.4479         estimate D2E/DX2                !
 ! D20   D(23,3,4,7)           177.1442         estimate D2E/DX2                !
 ! D21   D(23,3,4,10)           56.5529         estimate D2E/DX2                !
 ! D22   D(3,4,5,6)           -134.2427         estimate D2E/DX2                !
 ! D23   D(3,4,5,24)           109.0221         estimate D2E/DX2                !
 ! D24   D(3,4,5,25)           -22.3378         estimate D2E/DX2                !
 ! D25   D(7,4,5,6)            -13.6186         estimate D2E/DX2                !
 ! D26   D(7,4,5,24)          -130.3537         estimate D2E/DX2                !
 ! D27   D(7,4,5,25)            98.2864         estimate D2E/DX2                !
 ! D28   D(10,4,5,6)           100.4463         estimate D2E/DX2                !
 ! D29   D(10,4,5,24)          -16.2888         estimate D2E/DX2                !
 ! D30   D(10,4,5,25)         -147.6487         estimate D2E/DX2                !
 ! D31   D(3,4,7,6)            136.5338         estimate D2E/DX2                !
 ! D32   D(3,4,7,26)          -106.6223         estimate D2E/DX2                !
 ! D33   D(3,4,7,27)            24.2911         estimate D2E/DX2                !
 ! D34   D(5,4,7,6)             13.6155         estimate D2E/DX2                !
 ! D35   D(5,4,7,26)           130.4594         estimate D2E/DX2                !
 ! D36   D(5,4,7,27)           -98.6272         estimate D2E/DX2                !
 ! D37   D(10,4,7,6)          -103.6616         estimate D2E/DX2                !
 ! D38   D(10,4,7,26)           13.1823         estimate D2E/DX2                !
 ! D39   D(10,4,7,27)          144.0957         estimate D2E/DX2                !
 ! D40   D(3,4,10,11)          -56.3997         estimate D2E/DX2                !
 ! D41   D(3,4,10,28)          179.3823         estimate D2E/DX2                !
 ! D42   D(3,4,10,29)           65.4274         estimate D2E/DX2                !
 ! D43   D(5,4,10,11)           73.6022         estimate D2E/DX2                !
 ! D44   D(5,4,10,28)          -50.6158         estimate D2E/DX2                !
 ! D45   D(5,4,10,29)         -164.5707         estimate D2E/DX2                !
 ! D46   D(7,4,10,11)         -179.7828         estimate D2E/DX2                !
 ! D47   D(7,4,10,28)           55.9992         estimate D2E/DX2                !
 ! D48   D(7,4,10,29)          -57.9557         estimate D2E/DX2                !
 ! D49   D(4,5,6,7)             11.7496         estimate D2E/DX2                !
 ! D50   D(4,5,6,8)            124.033          estimate D2E/DX2                !
 ! D51   D(4,5,6,9)            -98.0677         estimate D2E/DX2                !
 ! D52   D(24,5,6,7)           130.9499         estimate D2E/DX2                !
 ! D53   D(24,5,6,8)          -116.7667         estimate D2E/DX2                !
 ! D54   D(24,5,6,9)            21.1326         estimate D2E/DX2                !
 ! D55   D(25,5,6,7)          -103.0464         estimate D2E/DX2                !
 ! D56   D(25,5,6,8)             9.237          estimate D2E/DX2                !
 ! D57   D(25,5,6,9)           147.1363         estimate D2E/DX2                !
 ! D58   D(5,6,7,4)            -11.826          estimate D2E/DX2                !
 ! D59   D(5,6,7,26)          -130.3492         estimate D2E/DX2                !
 ! D60   D(5,6,7,27)           103.749          estimate D2E/DX2                !
 ! D61   D(8,6,7,4)           -124.6308         estimate D2E/DX2                !
 ! D62   D(8,6,7,26)           116.8461         estimate D2E/DX2                !
 ! D63   D(8,6,7,27)            -9.0557         estimate D2E/DX2                !
 ! D64   D(9,6,7,4)             97.9542         estimate D2E/DX2                !
 ! D65   D(9,6,7,26)           -20.569          estimate D2E/DX2                !
 ! D66   D(9,6,7,27)          -146.4708         estimate D2E/DX2                !
 ! D67   D(4,10,11,12)         -65.3596         estimate D2E/DX2                !
 ! D68   D(4,10,11,30)         173.292          estimate D2E/DX2                !
 ! D69   D(4,10,11,31)          59.6912         estimate D2E/DX2                !
 ! D70   D(28,10,11,12)         57.5663         estimate D2E/DX2                !
 ! D71   D(28,10,11,30)        -63.782          estimate D2E/DX2                !
 ! D72   D(28,10,11,31)       -177.3828         estimate D2E/DX2                !
 ! D73   D(29,10,11,12)        173.3936         estimate D2E/DX2                !
 ! D74   D(29,10,11,30)         52.0452         estimate D2E/DX2                !
 ! D75   D(29,10,11,31)        -61.5555         estimate D2E/DX2                !
 ! D76   D(10,11,12,13)        112.48           estimate D2E/DX2                !
 ! D77   D(10,11,12,17)        -68.4565         estimate D2E/DX2                !
 ! D78   D(30,11,12,13)       -127.8271         estimate D2E/DX2                !
 ! D79   D(30,11,12,17)         51.2364         estimate D2E/DX2                !
 ! D80   D(31,11,12,13)        -13.0268         estimate D2E/DX2                !
 ! D81   D(31,11,12,17)        166.0368         estimate D2E/DX2                !
 ! D82   D(11,12,13,14)        179.8013         estimate D2E/DX2                !
 ! D83   D(11,12,13,32)          0.0416         estimate D2E/DX2                !
 ! D84   D(17,12,13,14)          0.7139         estimate D2E/DX2                !
 ! D85   D(17,12,13,32)       -179.0458         estimate D2E/DX2                !
 ! D86   D(11,12,17,16)       -179.8932         estimate D2E/DX2                !
 ! D87   D(11,12,17,36)         -0.0966         estimate D2E/DX2                !
 ! D88   D(13,12,17,16)         -0.8077         estimate D2E/DX2                !
 ! D89   D(13,12,17,36)        178.9889         estimate D2E/DX2                !
 ! D90   D(12,13,14,15)         -0.1977         estimate D2E/DX2                !
 ! D91   D(12,13,14,33)        179.9596         estimate D2E/DX2                !
 ! D92   D(32,13,14,15)        179.5615         estimate D2E/DX2                !
 ! D93   D(32,13,14,33)         -0.2813         estimate D2E/DX2                !
 ! D94   D(13,14,15,16)         -0.2413         estimate D2E/DX2                !
 ! D95   D(13,14,15,34)       -179.996          estimate D2E/DX2                !
 ! D96   D(33,14,15,16)        179.6009         estimate D2E/DX2                !
 ! D97   D(33,14,15,34)         -0.1538         estimate D2E/DX2                !
 ! D98   D(14,15,16,17)          0.1477         estimate D2E/DX2                !
 ! D99   D(14,15,16,35)       -179.3603         estimate D2E/DX2                !
 ! D100  D(34,15,16,17)        179.9029         estimate D2E/DX2                !
 ! D101  D(34,15,16,35)          0.3949         estimate D2E/DX2                !
 ! D102  D(15,16,17,12)          0.3864         estimate D2E/DX2                !
 ! D103  D(15,16,17,36)       -179.4105         estimate D2E/DX2                !
 ! D104  D(35,16,17,12)        179.8961         estimate D2E/DX2                !
 ! D105  D(35,16,17,36)          0.0992         estimate D2E/DX2                !
 --------------------------------------------------------------------------------
 Trust Radius=3.00D-01 FncErr=1.00D-07 GrdErr=1.00D-06 EigMax=2.50D+02 EigMin=1.00D-04
 Number of steps in this run=    216 maximum allowed number of steps=    216.
 GradGradGradGradGradGradGradGradGradGradGradGradGradGradGradGradGradGrad

 Leave Link  103 at Mon Sep 21 07:20:38 2020, MaxMem=  2147483648 cpu:               0.1 elap:               0.0
 (Enter /prod/apps/gaussian/g16b1/l202.exe)
                          Input orientation:                          
 ---------------------------------------------------------------------
 Center     Atomic      Atomic             Coordinates (Angstroms)
 Number     Number       Type             X           Y           Z
 ---------------------------------------------------------------------
      1          6           0        2.910000   -3.008000    0.226000
      2         16           0        2.528000   -1.340000   -0.303000
      3          7           0        1.262000   -0.982000    0.767000
      4          6           0        0.575000    0.323000    0.761000
      5          6           0       -0.032000    0.791000   -0.614000
      6         16           0        0.679000    2.446000   -0.354000
      7          6           0        1.541000    1.536000    0.966000
      8          8           0        1.562000    2.914000   -1.441000
      9          8           0       -0.318000    3.393000    0.191000
     10          6           0       -0.461000    0.309000    1.903000
     11          6           0       -1.522000   -0.810000    1.913000
     12          6           0       -2.517000   -0.807000    0.769000
     13          6           0       -2.510000   -1.829000   -0.188000
     14          6           0       -3.426000   -1.835000   -1.242000
     15          6           0       -4.371000   -0.814000   -1.352000
     16          6           0       -4.396000    0.208000   -0.399000
     17          6           0       -3.479000    0.207000    0.653000
     18          8           0        3.658000   -0.448000    0.019000
     19          8           0        2.086000   -1.379000   -1.712000
     20          1           0        3.176000   -2.991000    1.282000
     21          1           0        3.757000   -3.328000   -0.382000
     22          1           0        2.051000   -3.651000    0.041000
     23          1           0        0.580000   -1.740000    0.677000
     24          1           0       -1.116000    0.786000   -0.695000
     25          1           0        0.434000    0.313000   -1.476000
     26          1           0        1.495000    2.021000    1.941000
     27          1           0        2.571000    1.334000    0.674000
     28          1           0       -0.957000    1.285000    1.897000
     29          1           0        0.102000    0.248000    2.840000
     30          1           0       -2.065000   -0.701000    2.859000
     31          1           0       -1.036000   -1.790000    1.966000
     32          1           0       -1.782000   -2.631000   -0.105000
     33          1           0       -3.402000   -2.637000   -1.973000
     34          1           0       -5.085000   -0.814000   -2.169000
     35          1           0       -5.133000    1.000000   -0.470000
     36          1           0       -3.514000    1.002000    1.394000
 ---------------------------------------------------------------------
                    Distance matrix (angstroms):
                    1          2          3          4          5
     1  C    0.000000
     2  S    1.791086   0.000000
     3  N    2.667070   1.695824   0.000000
     4  C    4.102927   2.777026   1.474798   0.000000
     5  C    4.877844   3.345367   2.593285   1.574198   0.000000
     6  S    5.921138   4.213692   3.653452   2.400244   1.819930
     7  C    4.803092   3.294830   2.541213   1.564145   2.350692
     8  O    6.298101   4.508294   4.488216   3.540657   2.780628
     9  O    7.168962   5.544821   4.687089   3.247653   2.738654
    10  C    5.017814   4.064451   2.434318   1.541965   2.598395
    11  C    5.226834   4.646940   3.015552   2.647301   3.342010
    12  C    5.881461   5.185103   3.783050   3.292025   3.262134
    13  C    5.562179   5.062982   3.982137   3.879295   3.631303
    14  C    6.608771   6.047881   5.171173   4.967592   4.336992
    15  C    7.766381   6.998091   6.020720   5.497313   4.684826
    16  C    8.006929   7.095583   5.898188   5.105846   4.408017
    17  C    7.165045   6.276240   4.889151   4.057097   3.718623
    18  O    2.675061   1.475211   2.566218   3.263418   3.943591
    19  O    2.662416   1.477216   2.642352   3.360901   3.224969
    20  H    1.089119   2.378640   2.822180   4.244907   5.309388
    21  H    1.090630   2.338552   3.612332   4.976080   5.601474
    22  H    1.088832   2.384656   2.876310   4.299960   4.949675
    23  H    2.690748   2.217003   1.023615   2.064715   2.906404
    24  H    5.608151   4.237013   3.304263   2.278988   1.087034
    25  H    4.478440   2.914305   2.719128   2.241462   1.090268
    26  H    5.498572   4.171204   3.232735   2.263184   3.220660
    27  H    4.378195   2.847219   2.661952   2.239131   2.954556
    28  H    6.014630   4.886292   3.367514   2.136110   2.721173
    29  H    5.031838   4.276175   2.675038   2.133447   3.498989
    30  H    6.083220   5.612683   3.940096   3.524171   4.291955
    31  H    4.481299   4.248877   2.715008   2.917553   3.784967
    32  H    4.718745   4.503552   3.570087   3.877051   3.877069
    33  H    6.694370   6.295714   5.656812   5.661527   4.995494
    34  H    8.629582   7.855979   6.995193   6.474046   5.525112
    35  H    9.013231   8.012141   6.808415   5.878346   5.107310
    36  H    7.662382   6.698547   5.209564   4.193048   4.025035
                    6          7          8          9         10
     6  S    0.000000
     7  C    1.820314   0.000000
     8  O    1.476578   2.773621   0.000000
     9  O    1.479136   2.739517   2.535205   0.000000
    10  C    3.310652   2.528142   4.696902   3.530219   0.000000
    11  C    4.537094   3.972719   5.884603   4.698948   1.542071
    12  C    4.696547   4.689970   5.947115   4.775949   2.599721
    13  C    5.336001   5.391247   6.375519   5.676072   3.625152
    14  C    5.997210   6.396092   6.890047   6.248611   4.824830
    15  C    6.093119   6.771068   7.007595   6.042061   5.210015
    16  C    5.546737   6.234964   6.626158   5.207918   4.560003
    17  C    4.828678   5.202366   6.092977   4.511758   3.268215
    18  O    4.169989   3.052008   4.222305   5.530953   4.592240
    19  O    4.295863   3.995739   4.333344   5.672090   4.733369
    20  H    6.202618   4.823568   6.699907   7.358925   4.950092
    21  H    6.543237   5.512373   6.700901   7.880723   6.020010
    22  H    6.261934   5.293458   6.747938   7.433209   5.045670
    23  H    4.312234   3.426254   5.206723   5.233573   2.604834
    24  H    2.468584   3.221967   3.500940   2.866749   2.721426
    25  H    2.422519   2.946955   2.835280   3.582010   3.495523
    26  H    2.472551   1.089939   3.498551   2.869121   2.599678
    27  H    2.423426   1.089481   2.826253   3.580376   3.428424
    28  H    3.015198   2.677642   4.487900   2.786112   1.094819
    29  H    3.919920   2.691011   5.250344   4.133355   1.094833
    30  H    5.268445   4.646596   6.686804   5.189515   2.122935
    31  H    5.125165   4.324720   6.362772   5.525363   2.177245
    32  H    5.647517   5.436291   6.611676   6.206407   3.797460
    33  H    6.716592   7.105273   7.465783   7.110194   5.687862
    34  H    6.866260   7.697701   7.655755   6.781795   6.262882
    35  H    5.990302   6.847749   7.030595   5.417342   5.285470
    36  H    4.766748   5.101114   6.120355   4.168754   3.171772
                   11         12         13         14         15
    11  C    0.000000
    12  C    1.516170   0.000000
    13  C    2.535489   1.400136   0.000000
    14  C    3.824901   2.434581   1.396427   0.000000
    15  C    4.333248   2.817092   2.418355   1.395552   0.000000
    16  C    3.826427   2.434151   2.784041   2.413586   1.397612
    17  C    2.540027   1.402532   2.406561   2.786323   2.420357
    18  O    5.527267   6.230731   6.324099   7.327820   8.153431
    19  O    5.146071   5.260243   4.862951   5.550764   6.491662
    20  H    5.217866   6.119091   5.986797   7.161935   8.284594
    21  H    6.282928   6.858813   6.446699   7.386754   8.563030
    22  H    4.933761   5.430004   4.916792   5.911131   7.157591
    23  H    2.609789   3.235794   3.210023   4.442929   5.430167
    24  H    3.084431   2.577547   3.006411   3.536234   3.686011
    25  H    4.070920   3.873348   3.861896   4.423603   4.936956
    26  H    4.137346   5.046515   5.949384   7.015445   7.300071
    27  H    4.783775   5.520928   6.046832   7.048236   7.543868
    28  H    2.169909   2.842965   4.056603   5.067907   5.159186
    29  H    2.148504   3.501603   4.506135   5.783459   6.221610
    30  H    1.096196   2.140944   3.279423   4.467267   4.802388
    31  H    1.095174   2.143002   2.610347   4.000674   4.804573
    32  H    2.730561   2.151994   1.086313   2.151539   3.399915
    33  H    4.687571   3.413311   2.152848   1.085422   2.155906
    34  H    5.418275   3.902117   3.403705   2.157325   1.085028
    35  H    4.689788   3.412305   3.868190   3.398096   2.156192
    36  H    2.742402   2.158035   3.394893   3.873604   3.401885
                   16         17         18         19         20
    16  C    0.000000
    17  C    1.395562   0.000000
    18  O    8.091476   7.194981   0.000000
    19  O    6.801387   6.251228   2.516805   0.000000
    20  H    8.390146   7.410254   2.879990   3.570809   0.000000
    21  H    8.886788   8.119553   2.909468   2.891322   1.794443
    22  H    7.526572   6.770495   3.583593   2.869881   1.800363
    23  H    5.450968   4.501874   3.402398   2.847047   2.944527
    24  H    3.343666   2.781387   4.982332   3.996788   6.049423
    25  H    4.949733   4.455945   3.634326   2.376481   5.103092
    26  H    6.592909   5.448873   3.803763   5.025305   5.327306
    27  H    7.138508   6.154110   2.187720   3.645352   4.409231
    28  H    4.272969   3.011661   5.275263   5.420482   5.978636
    29  H    5.542989   4.196214   4.592123   5.225331   4.729478
    30  H    4.107847   2.773138   6.393930   6.211644   5.932884
    31  H    4.568898   3.417635   5.255988   4.841848   4.432968
    32  H    3.870317   3.392435   5.862974   4.371656   5.160924
    33  H    3.399932   3.871710   7.655285   5.636384   7.347818
    34  H    2.156874   3.403728   9.020053   7.207726   9.213732
    35  H    1.084193   2.150743   8.922864   7.701699   9.382807
    36  H    2.150165   1.087350   7.445180   6.832013   7.791835
                   21         22         23         24         25
    21  H    0.000000
    22  H    1.787091   0.000000
    23  H    3.706286   2.494045   0.000000
    24  H    6.385068   5.500778   3.337585   0.000000
    25  H    5.049361   4.541946   2.978512   1.798941   0.000000
    26  H    6.254980   6.007555   4.071860   3.910376   3.964704
    27  H    4.925036   5.051862   3.662454   3.970949   3.198704
    28  H    6.978209   6.070988   3.605745   2.644380   3.775817
    29  H    6.043847   5.180271   2.976440   3.777459   4.329238
    30  H    7.162464   5.795264   3.582830   3.967705   5.105431
    31  H    5.554403   4.086382   2.067723   3.704470   4.293119
    32  H    5.589549   3.969081   2.642811   3.530941   3.931594
    33  H    7.366142   5.900814   4.866563   4.309989   4.864607
    34  H    9.364536   7.990943   6.406982   4.526106   5.675362
    35  H    9.887944   8.573376   6.439067   4.028984   5.698727
    36  H    8.646995   7.379041   4.979306   3.187629   4.929333
                   26         27         28         29         30
    26  H    0.000000
    27  H    1.798620   0.000000
    28  H    2.560456   3.734289   0.000000
    29  H    2.427381   3.459323   1.756730   0.000000
    30  H    4.574452   5.514340   2.469272   2.365766   0.000000
    31  H    4.574965   4.943591   3.076788   2.492461   1.744194
    32  H    6.046979   5.939417   4.474783   4.528921   3.548279
    33  H    7.810056   7.645402   6.028019   6.615604   5.374373
    34  H    8.259887   8.444577   6.162673   7.288545   5.866341
    35  H    7.126412   7.795634   4.808627   6.239137   4.836142
    36  H    5.140783   6.136436   2.621325   3.966723   2.673207
                   31         32         33         34         35
    31  H    0.000000
    32  H    2.356446   0.000000
    33  H    4.672375   2.472622   0.000000
    34  H    5.869003   4.297836   2.488822   0.000000
    35  H    5.523007   4.954451   4.299202   2.485860   0.000000
    36  H    3.776630   4.294824   4.958987   4.296611   2.468939
                   36
    36  H    0.000000
 Symmetry turned off by external request.
 Stoichiometry    C12H17NO4S2
 Framework group  C1[X(C12H17NO4S2)]
 Deg. of freedom   102
 Full point group                 C1      NOp   1
 Rotational constants (GHZ):           0.4083413           0.2453748           0.1880750
 Leave Link  202 at Mon Sep 21 07:20:39 2020, MaxMem=  2147483648 cpu:               0.0 elap:               0.0
 (Enter /prod/apps/gaussian/g16b1/l301.exe)
 Standard basis: 6-31G(d) (6D, 7F)
 Ernie: Thresh=  0.10000D-02 Tol=  0.10000D-05 Strict=F.
   327 basis functions,   648 primitive gaussians,   327 cartesian basis functions
    80 alpha electrons       80 beta electrons
       nuclear repulsion energy      1886.6151510560 Hartrees.
 IExCor=  402 DFT=T Ex+Corr=B3LYP ExCW=0 ScaHFX=  0.200000
 ScaDFX=  0.800000  0.720000  1.000000  0.810000 ScalE2=  1.000000  1.000000
 IRadAn=      5 IRanWt=     -1 IRanGd=            0 ICorTp=0 IEmpDi=  4
 NAtoms=   36 NActive=   36 NUniq=   36 SFac= 1.00D+00 NAtFMM=   60 NAOKFM=F Big=F
 Integral buffers will be    131072 words long.
 Raffenetti 2 integral format.
 Two-electron integral symmetry is turned off.
 Using the following non-standard input for PCM:
 MSTModel=DFT cav
 --- end of non-standard input.
 MST model for solvation energy: B3LYP parametrization.
 MST cavity parameters:
 ISph   IAn     Re0     Alpha   Atom Type   QCorr
 ------------------------------------------------
   1      6     1.50     1.25      CH3        F
   2     16     1.75     1.25      S          F
   3      7     1.50     1.25      NH         F
   4      6     1.50     1.25      C          F
   5      6     1.50     1.25      CH2        F
   6     16     1.75     1.25      S          F
   7      6     1.50     1.25      CH2        F
   8      8     1.40     1.25      O          F
   9      8     1.40     1.25      O          F
  10      6     1.50     1.25      CH2        F
  11      6     1.50     1.25      CH2        F
  12      6     1.50     1.25      C          F
  13      6     1.50     1.25      CH         F
  14      6     1.50     1.25      CH         F
  15      6     1.50     1.25      CH         F
  16      6     1.50     1.25      CH         F
  17      6     1.50     1.25      CH         F
  18      8     1.40     1.25      O          F
  19      8     1.40     1.25      O          F
  20      1     1.20     1.25      CH3        F
  21      1     1.20     1.25      CH3        F
  22      1     1.20     1.25      CH3        F
  23      1     0.90     1.25      NH         F
  24      1     1.20     1.25      CH2        F
  25      1     1.20     1.25      CH2        F
  26      1     1.20     1.25      CH2        F
  27      1     1.20     1.25      CH2        F
  28      1     1.20     1.25      CH2        F
  29      1     1.20     1.25      CH2        F
  30      1     1.20     1.25      CH2        F
  31      1     1.20     1.25      CH2        F
  32      1     1.20     1.25      CH         F
  33      1     1.20     1.25      CH         F
  34      1     1.20     1.25      CH         F
  35      1     1.20     1.25      CH         F
  36      1     1.20     1.25      CH         F
 ------------------------------------------------------------------------------
 Polarizable Continuum Model (PCM)
 =================================
 Model                : PCM.
 Atomic radii         : MST.
 Polarization charges : Total charges.
 Charge compensation  : None.
 Solution method      : On-the-fly selection.
 Cavity type          : Scaled VdW (van der Waals Surface) (Alpha=1.250).
 Cavity algorithm     : GePol (No added spheres)
                        Default sphere list used, NSphG=   36.
                        Lebedev-Laikov grids with approx.  5.0 points / Ang**2.
                        Smoothing algorithm: York/Karplus (Gamma=1.0000).
                        Polarization charges: spherical gaussians, with
                                              point-specific exponents (IZeta= 3).
                        Self-potential: point-specific (ISelfS= 7).
                        Self-field    : sphere-specific E.n sum rule (ISelfD= 2).
 1st derivatives      : Analytical E(r).r(x)/FMM algorithm (CHGder, D1EAlg=3).
                        Cavity 1st derivative terms included.
 Solvent              : Water, Eps=  78.355300 Eps(inf)=   1.777849
 ------------------------------------------------------------------------------
 GePol: Number of generator spheres                  =      36
 GePol: Total number of spheres                      =      36
 GePol: Number of exposed spheres                    =      36 (100.00%)
 GePol: Number of points                             =    2523
 GePol: Average weight of points                     =       0.13
 GePol: Minimum weight of points                     =   0.24D-11
 GePol: Maximum weight of points                     =    0.22001
 GePol: Number of points with low weight             =     181
 GePol: Fraction of low-weight points (<1% of avg)   =       7.17%
 GePol: Cavity surface area                          =    339.144 Ang**2
 GePol: Cavity volume                                =    335.509 Ang**3
 PCM non-electrostatic energy =         0.0030173348 Hartrees.
 Nuclear repulsion after PCM non-electrostatic terms =     1886.6181683908 Hartrees.
 Leave Link  301 at Mon Sep 21 07:20:39 2020, MaxMem=  2147483648 cpu:               0.4 elap:               0.1
 (Enter /prod/apps/gaussian/g16b1/l302.exe)
 NPDir=0 NMtPBC=     1 NCelOv=     1 NCel=       1 NClECP=     1 NCelD=      1
         NCelK=      1 NCelE2=     1 NClLst=     1 CellRange=     0.0.
 One-electron integrals computed using PRISM.
 NBasis=   327 RedAO= T EigKep=  4.70D-04  NBF=   327
 NBsUse=   327 1.00D-06 EigRej= -1.00D+00 NBFU=   327
 Precomputing XC quadrature grid using
 IXCGrd= 4 IRadAn=           5 IRanWt=          -1 IRanGd=           0 AccXCQ= 0.00D+00.
 Generated NRdTot=       0 NPtTot=           0 NUsed=           0 NTot=          32
 NSgBfM=   326   326   326   326   326 MxSgAt=    36 MxSgA2=    36.
 Leave Link  302 at Mon Sep 21 07:20:39 2020, MaxMem=  2147483648 cpu:               2.0 elap:               0.5
 (Enter /prod/apps/gaussian/g16b1/l303.exe)
 DipDrv:  MaxL=1.
 Leave Link  303 at Mon Sep 21 07:20:39 2020, MaxMem=  2147483648 cpu:               0.2 elap:               0.1
 (Enter /prod/apps/gaussian/g16b1/l401.exe)
 ExpMin= 1.17D-01 ExpMax= 2.19D+04 ExpMxC= 3.30D+03 IAcc=3 IRadAn=         5 AccDes= 0.00D+00
 Harris functional with IExCor=  402 and IRadAn=       5 diagonalized for initial guess.
 HarFok:  IExCor=  402 AccDes= 0.00D+00 IRadAn=         5 IDoV= 1 UseB2=F ITyADJ=14
 ICtDFT=  3500011 ScaDFX=  1.000000  1.000000  1.000000  1.000000
 FoFCou: FMM=F IPFlag=           0 FMFlag=      100000 FMFlg1=           0
         NFxFlg=           0 DoJE=T BraDBF=F KetDBF=T FulRan=T
         wScrn=  0.000000 ICntrl=       500 IOpCl=  0 I1Cent=   200000004 NGrid=           0
         NMat0=    1 NMatS0=      1 NMatT0=    0 NMatD0=    1 NMtDS0=    0 NMtDT0=    0
 Symmetry not used in FoFCou.
 Harris En= -1619.48817087892    
 JPrj=0 DoOrth=F DoCkMO=F.
 Leave Link  401 at Mon Sep 21 07:20:42 2020, MaxMem=  2147483648 cpu:              11.4 elap:               2.9
 (Enter /prod/apps/gaussian/g16b1/l502.exe)
 Two-electron integral symmetry not used.
 Closed shell SCF:
 Using DIIS extrapolation, IDIIS=  1040.
 NGot=  2147483648 LenX=  2147264911 LenY=  2147157541
 Requested convergence on RMS density matrix=1.00D-08 within2000 cycles.
 Requested convergence on MAX density matrix=1.00D-06.
 Requested convergence on             energy=1.00D-06.
 No special actions if energy rises.

 Cycle   1  Pass 1  IDiag  1:
 FoFJK:  IHMeth= 1 ICntrl=       0 DoSepK=F KAlg= 0 I1Cent=           0 FoldK=F
 IRaf= 830000000 NMat=       1 IRICut=       1 DoRegI=T DoRafI=F ISym2E= 0 IDoP0=0 IntGTp=1.
 FoFCou: FMM=F IPFlag=           0 FMFlag=      100000 FMFlg1=           0
         NFxFlg=           0 DoJE=F BraDBF=F KetDBF=F FulRan=T
         wScrn=  0.000000 ICntrl=         0 IOpCl=  0 I1Cent=           0 NGrid=           0
         NMat0=    1 NMatS0=      1 NMatT0=    0 NMatD0=    1 NMtDS0=    0 NMtDT0=    0
 Symmetry not used in FoFCou.
 Inv3:  Mode=1 IEnd=    19096587.
 Iteration    1 A*A^-1 deviation from unit magnitude is 3.55D-15 for   2175.
 Iteration    1 A*A^-1 deviation from orthogonality  is 2.73D-15 for   1999    603.
 Iteration    1 A^-1*A deviation from unit magnitude is 3.55D-15 for   2175.
 Iteration    1 A^-1*A deviation from orthogonality  is 2.28D-15 for   2468   2315.
 E= -1618.65016670715    
 DIIS: error= 3.54D-02 at cycle   1 NSaved=   1.
 NSaved= 1 IEnMin= 1 EnMin= -1618.65016670715     IErMin= 1 ErrMin= 3.54D-02
 ErrMax= 3.54D-02  0.00D+00 EMaxC= 1.00D-01 BMatC= 9.11D-01 BMatP= 9.11D-01
 IDIUse=3 WtCom= 6.46D-01 WtEn= 3.54D-01
 Coeff-Com:  0.100D+01
 Coeff-En:   0.100D+01
 Coeff:      0.100D+01
 Gap=     0.327 Goal=   None    Shift=    0.000
 GapD=    0.327 DampG=1.000 DampE=0.500 DampFc=0.5000 IDamp=-1.
 Damping current iteration by 5.00D-01
 RMSDP=6.89D-03 MaxDP=5.52D-01              OVMax= 2.32D-01

 Cycle   2  Pass 1  IDiag  1:
 E= -1618.86616327630     Delta-E=       -0.215996569142 Rises=F Damp=T
 DIIS: error= 1.59D-02 at cycle   2 NSaved=   2.
 NSaved= 2 IEnMin= 2 EnMin= -1618.86616327630     IErMin= 2 ErrMin= 1.59D-02
 ErrMax= 1.59D-02  0.00D+00 EMaxC= 1.00D-01 BMatC= 1.13D-01 BMatP= 9.11D-01
 IDIUse=3 WtCom= 8.41D-01 WtEn= 1.59D-01
 Coeff-Com:  0.212D+00 0.788D+00
 Coeff-En:   0.342D+00 0.658D+00
 Coeff:      0.233D+00 0.767D+00
 Gap=     0.277 Goal=   None    Shift=    0.000
 RMSDP=1.79D-03 MaxDP=1.07D-01 DE=-2.16D-01 OVMax= 1.70D-01

 Cycle   3  Pass 1  IDiag  1:
 E= -1619.36035472034     Delta-E=       -0.494191444044 Rises=F Damp=F
 DIIS: error= 8.84D-03 at cycle   3 NSaved=   3.
 NSaved= 3 IEnMin= 3 EnMin= -1619.36035472034     IErMin= 3 ErrMin= 8.84D-03
 ErrMax= 8.84D-03  0.00D+00 EMaxC= 1.00D-01 BMatC= 5.90D-02 BMatP= 1.13D-01
 IDIUse=3 WtCom= 9.12D-01 WtEn= 8.84D-02
 Coeff-Com:  0.791D-01 0.432D+00 0.489D+00
 Coeff-En:   0.000D+00 0.000D+00 0.100D+01
 Coeff:      0.721D-01 0.394D+00 0.534D+00
 Gap=     0.238 Goal=   None    Shift=    0.000
 RMSDP=9.99D-04 MaxDP=3.27D-02 DE=-4.94D-01 OVMax= 6.00D-02

 Cycle   4  Pass 1  IDiag  1:
 E= -1619.40840326321     Delta-E=       -0.048048542867 Rises=F Damp=F
 DIIS: error= 2.76D-03 at cycle   4 NSaved=   4.
 NSaved= 4 IEnMin= 4 EnMin= -1619.40840326321     IErMin= 4 ErrMin= 2.76D-03
 ErrMax= 2.76D-03  0.00D+00 EMaxC= 1.00D-01 BMatC= 7.09D-03 BMatP= 5.90D-02
 IDIUse=3 WtCom= 9.72D-01 WtEn= 2.76D-02
 Coeff-Com:  0.437D-02 0.658D-01 0.271D+00 0.659D+00
 Coeff-En:   0.000D+00 0.000D+00 0.848D-01 0.915D+00
 Coeff:      0.425D-02 0.640D-01 0.266D+00 0.666D+00
 Gap=     0.237 Goal=   None    Shift=    0.000
 RMSDP=3.10D-04 MaxDP=1.50D-02 DE=-4.80D-02 OVMax= 1.99D-02

 Cycle   5  Pass 1  IDiag  1:
 E= -1619.41431853266     Delta-E=       -0.005915269450 Rises=F Damp=F
 DIIS: error= 6.05D-04 at cycle   5 NSaved=   5.
 NSaved= 5 IEnMin= 5 EnMin= -1619.41431853266     IErMin= 5 ErrMin= 6.05D-04
 ErrMax= 6.05D-04  0.00D+00 EMaxC= 1.00D-01 BMatC= 5.07D-04 BMatP= 7.09D-03
 IDIUse=3 WtCom= 9.94D-01 WtEn= 6.05D-03
 Coeff-Com: -0.173D-02 0.135D-01 0.111D+00 0.346D+00 0.531D+00
 Coeff-En:   0.000D+00 0.000D+00 0.000D+00 0.000D+00 0.100D+01
 Coeff:     -0.172D-02 0.134D-01 0.110D+00 0.344D+00 0.534D+00
 Gap=     0.237 Goal=   None    Shift=    0.000
 RMSDP=8.74D-05 MaxDP=4.96D-03 DE=-5.92D-03 OVMax= 5.35D-03

 Cycle   6  Pass 1  IDiag  1:
 E= -1619.41475498948     Delta-E=       -0.000436456824 Rises=F Damp=F
 DIIS: error= 1.96D-04 at cycle   6 NSaved=   6.
 NSaved= 6 IEnMin= 6 EnMin= -1619.41475498948     IErMin= 6 ErrMin= 1.96D-04
 ErrMax= 1.96D-04  0.00D+00 EMaxC= 1.00D-01 BMatC= 3.91D-05 BMatP= 5.07D-04
 IDIUse=3 WtCom= 9.98D-01 WtEn= 1.96D-03
 Coeff-Com: -0.120D-02 0.225D-02 0.370D-01 0.126D+00 0.282D+00 0.554D+00
 Coeff-En:   0.000D+00 0.000D+00 0.000D+00 0.000D+00 0.000D+00 0.100D+01
 Coeff:     -0.120D-02 0.224D-02 0.370D-01 0.126D+00 0.281D+00 0.554D+00
 Gap=     0.237 Goal=   None    Shift=    0.000
 RMSDP=2.20D-05 MaxDP=1.04D-03 DE=-4.36D-04 OVMax= 1.22D-03

 Cycle   7  Pass 1  IDiag  1:
 E= -1619.41478423399     Delta-E=       -0.000029244513 Rises=F Damp=F
 DIIS: error= 7.80D-05 at cycle   7 NSaved=   7.
 NSaved= 7 IEnMin= 7 EnMin= -1619.41478423399     IErMin= 7 ErrMin= 7.80D-05
 ErrMax= 7.80D-05  0.00D+00 EMaxC= 1.00D-01 BMatC= 4.65D-06 BMatP= 3.91D-05
 IDIUse=1 WtCom= 1.00D+00 WtEn= 0.00D+00
 Coeff-Com: -0.549D-03 0.220D-04 0.111D-01 0.405D-01 0.115D+00 0.321D+00
 Coeff-Com:  0.513D+00
 Coeff:     -0.549D-03 0.220D-04 0.111D-01 0.405D-01 0.115D+00 0.321D+00
 Coeff:      0.513D+00
 Gap=     0.237 Goal=   None    Shift=    0.000
 RMSDP=7.49D-06 MaxDP=3.90D-04 DE=-2.92D-05 OVMax= 4.36D-04

 Cycle   8  Pass 1  IDiag  1:
 E= -1619.41478765712     Delta-E=       -0.000003423123 Rises=F Damp=F
 DIIS: error= 2.96D-05 at cycle   8 NSaved=   8.
 NSaved= 8 IEnMin= 8 EnMin= -1619.41478765712     IErMin= 8 ErrMin= 2.96D-05
 ErrMax= 2.96D-05  0.00D+00 EMaxC= 1.00D-01 BMatC= 4.57D-07 BMatP= 4.65D-06
 IDIUse=1 WtCom= 1.00D+00 WtEn= 0.00D+00
 Coeff-Com: -0.187D-03-0.231D-03 0.219D-02 0.903D-02 0.348D-01 0.123D+00
 Coeff-Com:  0.292D+00 0.540D+00
 Coeff:     -0.187D-03-0.231D-03 0.219D-02 0.903D-02 0.348D-01 0.123D+00
 Coeff:      0.292D+00 0.540D+00
 Gap=     0.237 Goal=   None    Shift=    0.000
 RMSDP=2.39D-06 MaxDP=1.23D-04 DE=-3.42D-06 OVMax= 1.32D-04

 Cycle   9  Pass 1  IDiag  1:
 E= -1619.41478798571     Delta-E=       -0.000000328597 Rises=F Damp=F
 DIIS: error= 6.81D-06 at cycle   9 NSaved=   9.
 NSaved= 9 IEnMin= 9 EnMin= -1619.41478798571     IErMin= 9 ErrMin= 6.81D-06
 ErrMax= 6.81D-06  0.00D+00 EMaxC= 1.00D-01 BMatC= 4.17D-08 BMatP= 4.57D-07
 IDIUse=1 WtCom= 1.00D+00 WtEn= 0.00D+00
 Coeff-Com: -0.267D-04-0.103D-03-0.373D-03-0.819D-03 0.247D-02 0.193D-01
 Coeff-Com:  0.804D-01 0.283D+00 0.616D+00
 Coeff:     -0.267D-04-0.103D-03-0.373D-03-0.819D-03 0.247D-02 0.193D-01
 Coeff:      0.804D-01 0.283D+00 0.616D+00
 Gap=     0.237 Goal=   None    Shift=    0.000
 RMSDP=6.70D-07 MaxDP=3.64D-05 DE=-3.29D-07 OVMax= 2.74D-05

 Cycle  10  Pass 1  IDiag  1:
 E= -1619.41478802068     Delta-E=       -0.000000034967 Rises=F Damp=F
 DIIS: error= 1.39D-06 at cycle  10 NSaved=  10.
 NSaved=10 IEnMin=10 EnMin= -1619.41478802068     IErMin=10 ErrMin= 1.39D-06
 ErrMax= 1.39D-06  0.00D+00 EMaxC= 1.00D-01 BMatC= 1.15D-09 BMatP= 4.17D-08
 IDIUse=1 WtCom= 1.00D+00 WtEn= 0.00D+00
 Coeff-Com: -0.736D-05-0.239D-04-0.238D-03-0.647D-03-0.228D-03 0.344D-02
 Coeff-Com:  0.228D-01 0.973D-01 0.248D+00 0.629D+00
 Coeff:     -0.736D-05-0.239D-04-0.238D-03-0.647D-03-0.228D-03 0.344D-02
 Coeff:      0.228D-01 0.973D-01 0.248D+00 0.629D+00
 Gap=     0.237 Goal=   None    Shift=    0.000
 RMSDP=1.46D-07 MaxDP=6.63D-06 DE=-3.50D-08 OVMax= 9.41D-06

 Cycle  11  Pass 1  IDiag  1:
 E= -1619.41478802144     Delta-E=       -0.000000000760 Rises=F Damp=F
 DIIS: error= 6.38D-07 at cycle  11 NSaved=  11.
 NSaved=11 IEnMin=11 EnMin= -1619.41478802144     IErMin=11 ErrMin= 6.38D-07
 ErrMax= 6.38D-07  0.00D+00 EMaxC= 1.00D-01 BMatC= 3.12D-10 BMatP= 1.15D-09
 IDIUse=1 WtCom= 1.00D+00 WtEn= 0.00D+00
 Coeff-Com: -0.240D-05 0.318D-07-0.106D-03-0.295D-03-0.478D-03-0.448D-03
 Coeff-Com:  0.349D-02 0.224D-01 0.683D-01 0.366D+00 0.541D+00
 Coeff:     -0.240D-05 0.318D-07-0.106D-03-0.295D-03-0.478D-03-0.448D-03
 Coeff:      0.349D-02 0.224D-01 0.683D-01 0.366D+00 0.541D+00
 Gap=     0.237 Goal=   None    Shift=    0.000
 RMSDP=6.08D-08 MaxDP=2.71D-06 DE=-7.60D-10 OVMax= 4.05D-06

 Cycle  12  Pass 1  IDiag  1:
 E= -1619.41478802171     Delta-E=       -0.000000000265 Rises=F Damp=F
 DIIS: error= 2.40D-07 at cycle  12 NSaved=  12.
 NSaved=12 IEnMin=12 EnMin= -1619.41478802171     IErMin=12 ErrMin= 2.40D-07
 ErrMax= 2.40D-07  0.00D+00 EMaxC= 1.00D-01 BMatC= 3.26D-11 BMatP= 3.12D-10
 IDIUse=1 WtCom= 1.00D+00 WtEn= 0.00D+00
 Coeff-Com: -0.108D-05 0.289D-05-0.415D-04-0.112D-03-0.269D-03-0.635D-03
 Coeff-Com: -0.288D-03 0.315D-02 0.140D-01 0.147D+00 0.311D+00 0.526D+00
 Coeff:     -0.108D-05 0.289D-05-0.415D-04-0.112D-03-0.269D-03-0.635D-03
 Coeff:     -0.288D-03 0.315D-02 0.140D-01 0.147D+00 0.311D+00 0.526D+00
 Gap=     0.237 Goal=   None    Shift=    0.000
 RMSDP=1.97D-08 MaxDP=8.07D-07 DE=-2.65D-10 OVMax= 1.04D-06

 Cycle  13  Pass 1  IDiag  1:
 E= -1619.41478802172     Delta-E=       -0.000000000010 Rises=F Damp=F
 DIIS: error= 6.17D-08 at cycle  13 NSaved=  13.
 NSaved=13 IEnMin=13 EnMin= -1619.41478802172     IErMin=13 ErrMin= 6.17D-08
 ErrMax= 6.17D-08  0.00D+00 EMaxC= 1.00D-01 BMatC= 2.71D-12 BMatP= 3.26D-11
 IDIUse=1 WtCom= 1.00D+00 WtEn= 0.00D+00
 Coeff-Com: -0.410D-06 0.181D-05-0.114D-04-0.294D-04-0.957D-04-0.297D-03
 Coeff-Com: -0.532D-03-0.731D-03-0.111D-03 0.369D-01 0.104D+00 0.283D+00
 Coeff-Com:  0.577D+00
 Coeff:     -0.410D-06 0.181D-05-0.114D-04-0.294D-04-0.957D-04-0.297D-03
 Coeff:     -0.532D-03-0.731D-03-0.111D-03 0.369D-01 0.104D+00 0.283D+00
 Coeff:      0.577D+00
 Gap=     0.237 Goal=   None    Shift=    0.000
 RMSDP=5.55D-09 MaxDP=2.71D-07 DE=-1.00D-11 OVMax= 3.26D-07

 Error on total polarization charges =  0.01857
 SCF Done:  E(RB3LYP) =  -1619.41478802     A.U. after   13 cycles
            NFock= 13  Conv=0.56D-08     -V/T= 2.0066
 KE= 1.608787617921D+03 PE=-7.579348057670D+03 EE= 2.464527483337D+03
 Leave Link  502 at Mon Sep 21 07:22:15 2020, MaxMem=  2147483648 cpu:             371.5 elap:              93.0
 (Enter /prod/apps/gaussian/g16b1/l601.exe)
 Copying SCF densities to generalized density rwf, IOpCl= 0 IROHF=0.

 **********************************************************************

            Population analysis using the SCF Density.

 **********************************************************************

 Alpha  occ. eigenvalues --  -89.12746 -89.09603 -19.15690 -19.15609 -19.15421
 Alpha  occ. eigenvalues --  -19.15244 -14.37920 -10.27588 -10.22682 -10.22441
 Alpha  occ. eigenvalues --  -10.22217 -10.20186 -10.19928 -10.19564 -10.19159
 Alpha  occ. eigenvalues --  -10.19112 -10.18981 -10.18951 -10.18938  -8.15342
 Alpha  occ. eigenvalues --   -8.12688  -6.11838  -6.11755  -6.11625  -6.09140
 Alpha  occ. eigenvalues --   -6.09038  -6.08935  -1.12139  -1.10483  -1.00921
 Alpha  occ. eigenvalues --   -1.00222  -0.94931  -0.86225  -0.85582  -0.79483
 Alpha  occ. eigenvalues --   -0.77910  -0.74495  -0.73990  -0.71902  -0.68050
 Alpha  occ. eigenvalues --   -0.63711  -0.61466  -0.60508  -0.58137  -0.56808
 Alpha  occ. eigenvalues --   -0.54351  -0.52476  -0.51132  -0.49961  -0.49204
 Alpha  occ. eigenvalues --   -0.48556  -0.48147  -0.46722  -0.46165  -0.45228
 Alpha  occ. eigenvalues --   -0.45020  -0.44089  -0.43763  -0.43240  -0.42300
 Alpha  occ. eigenvalues --   -0.42217  -0.41601  -0.40407  -0.38583  -0.37308
 Alpha  occ. eigenvalues --   -0.36383  -0.36059  -0.34983  -0.34085  -0.33749
 Alpha  occ. eigenvalues --   -0.33354  -0.32801  -0.32434  -0.31992  -0.31509
 Alpha  occ. eigenvalues --   -0.30510  -0.29550  -0.27410  -0.25365  -0.24490
 Alpha virt. eigenvalues --   -0.00795  -0.00335   0.03211   0.04623   0.05079
 Alpha virt. eigenvalues --    0.05717   0.06300   0.06568   0.08180   0.08768
 Alpha virt. eigenvalues --    0.09583   0.10207   0.11298   0.12230   0.13578
 Alpha virt. eigenvalues --    0.14045   0.14806   0.15378   0.16225   0.16397
 Alpha virt. eigenvalues --    0.16741   0.16995   0.17275   0.18278   0.19220
 Alpha virt. eigenvalues --    0.20116   0.20689   0.21575   0.22231   0.23829
 Alpha virt. eigenvalues --    0.24119   0.24778   0.27604   0.28838   0.30743
 Alpha virt. eigenvalues --    0.32476   0.33412   0.34392   0.34794   0.35993
 Alpha virt. eigenvalues --    0.36834   0.39452   0.41276   0.42801   0.43884
 Alpha virt. eigenvalues --    0.46025   0.47136   0.48093   0.48780   0.51069
 Alpha virt. eigenvalues --    0.51485   0.52527   0.53277   0.54020   0.55145
 Alpha virt. eigenvalues --    0.55899   0.56711   0.57311   0.58104   0.59191
 Alpha virt. eigenvalues --    0.59727   0.60159   0.60847   0.61363   0.62059
 Alpha virt. eigenvalues --    0.62548   0.63783   0.64235   0.66451   0.67797
 Alpha virt. eigenvalues --    0.69554   0.70533   0.71396   0.72476   0.73436
 Alpha virt. eigenvalues --    0.74023   0.76189   0.78018   0.78298   0.79790
 Alpha virt. eigenvalues --    0.80383   0.80851   0.82359   0.82732   0.83708
 Alpha virt. eigenvalues --    0.84413   0.84514   0.85255   0.86160   0.87192
 Alpha virt. eigenvalues --    0.87534   0.87923   0.88460   0.89112   0.89422
 Alpha virt. eigenvalues --    0.91223   0.91377   0.92815   0.93059   0.93961
 Alpha virt. eigenvalues --    0.94565   0.94648   0.96218   0.97286   0.97433
 Alpha virt. eigenvalues --    0.99335   1.00154   1.01348   1.01787   1.03739
 Alpha virt. eigenvalues --    1.05130   1.05286   1.06707   1.07613   1.09681
 Alpha virt. eigenvalues --    1.10800   1.10873   1.12063   1.13248   1.15642
 Alpha virt. eigenvalues --    1.16327   1.17373   1.18118   1.19242   1.19730
 Alpha virt. eigenvalues --    1.20333   1.20828   1.24546   1.26202   1.27622
 Alpha virt. eigenvalues --    1.28682   1.32276   1.34185   1.40992   1.41908
 Alpha virt. eigenvalues --    1.42373   1.43726   1.45059   1.45128   1.47927
 Alpha virt. eigenvalues --    1.48442   1.48845   1.50859   1.51444   1.53834
 Alpha virt. eigenvalues --    1.60247   1.61601   1.66293   1.68338   1.70175
 Alpha virt. eigenvalues --    1.71662   1.72762   1.73796   1.76148   1.77635
 Alpha virt. eigenvalues --    1.78450   1.78767   1.79121   1.79949   1.80110
 Alpha virt. eigenvalues --    1.80797   1.81384   1.82428   1.83622   1.84881
 Alpha virt. eigenvalues --    1.85669   1.87015   1.88278   1.90234   1.90689
 Alpha virt. eigenvalues --    1.92208   1.93202   1.94362   1.96837   1.98107
 Alpha virt. eigenvalues --    2.00328   2.02120   2.03386   2.03832   2.04589
 Alpha virt. eigenvalues --    2.05324   2.07616   2.08542   2.09502   2.11989
 Alpha virt. eigenvalues --    2.12520   2.13981   2.14340   2.15991   2.16550
 Alpha virt. eigenvalues --    2.17209   2.18269   2.19162   2.20358   2.23215
 Alpha virt. eigenvalues --    2.24789   2.25626   2.25840   2.27898   2.29408
 Alpha virt. eigenvalues --    2.30487   2.31097   2.33484   2.35709   2.37744
 Alpha virt. eigenvalues --    2.39868   2.41678   2.46110   2.46763   2.57336
 Alpha virt. eigenvalues --    2.58091   2.58447   2.65115   2.68327   2.70260
 Alpha virt. eigenvalues --    2.71361   2.72346   2.73064   2.73965   2.75650
 Alpha virt. eigenvalues --    2.76103   2.78411   2.80468   2.81088   2.87077
 Alpha virt. eigenvalues --    2.88806   3.05512   3.40735   3.79027   3.80056
 Alpha virt. eigenvalues --    3.86994   3.90825   3.94928   3.97659   4.09736
 Alpha virt. eigenvalues --    4.11328   4.12710   4.16198   4.19719   4.22098
 Alpha virt. eigenvalues --    4.24441   4.33598   4.36009   4.41807   4.54018
 Alpha virt. eigenvalues --    4.70286   4.74250
          Condensed to atoms (all electrons):
               1          2          3          4          5          6
     1  C    5.546121   0.212483  -0.055877   0.003887  -0.000258   0.000025
     2  S    0.212483  13.685168   0.134528  -0.007845  -0.009047   0.002327
     3  N   -0.055877   0.134528   7.345323   0.273836  -0.051278   0.000861
     4  C    0.003887  -0.007845   0.273836   4.849195   0.336014  -0.096043
     5  C   -0.000258  -0.009047  -0.051278   0.336014   5.750955   0.148167
     6  S    0.000025   0.002327   0.000861  -0.096043   0.148167  13.865678
     7  C   -0.000298  -0.007414  -0.040114   0.339751  -0.191079   0.145625
     8  O    0.000000   0.000266  -0.000109   0.002362  -0.044568   0.430657
     9  O   -0.000000  -0.000005  -0.000041   0.000683  -0.045418   0.409440
    10  C   -0.000194   0.000145  -0.058545   0.365104  -0.055853   0.005862
    11  C   -0.000002   0.000012  -0.004213  -0.035222  -0.005004  -0.000213
    12  C    0.000001  -0.000076  -0.001808  -0.002744   0.000037   0.000052
    13  C   -0.000007   0.000065   0.000118   0.001393   0.000088   0.000132
    14  C   -0.000000   0.000000   0.000014  -0.000010   0.000348   0.000008
    15  C    0.000000   0.000000   0.000000   0.000007   0.000032  -0.000001
    16  C   -0.000000  -0.000000   0.000000   0.000000  -0.000560  -0.000024
    17  C   -0.000000  -0.000000  -0.000008  -0.000934  -0.003498  -0.000019
    18  O   -0.056828   0.432949  -0.050710  -0.003033  -0.000913   0.000659
    19  O   -0.056677   0.412992  -0.053714  -0.001784  -0.005375   0.000254
    20  H    0.343369  -0.006142   0.001553  -0.000100   0.000006   0.000000
    21  H    0.359863  -0.015640   0.002271  -0.000045   0.000004  -0.000000
    22  H    0.341405  -0.003508   0.000043  -0.000061   0.000000  -0.000000
    23  H   -0.000461  -0.005623   0.283670  -0.025345  -0.001477  -0.000189
    24  H    0.000002   0.000118   0.001770  -0.024592   0.338887  -0.011266
    25  H    0.000092   0.002217  -0.008006  -0.021728   0.325457  -0.002767
    26  H    0.000004   0.000107   0.001357  -0.027996   0.009032  -0.011225
    27  H    0.000137   0.001155  -0.006097  -0.019869   0.003080  -0.000809
    28  H    0.000001  -0.000006   0.004503  -0.036011  -0.004485   0.008189
    29  H   -0.000003   0.000044  -0.000645  -0.034179   0.005919  -0.000367
    30  H   -0.000000   0.000011   0.000103   0.005123  -0.000065   0.000024
    31  H    0.000032  -0.000125   0.003472  -0.009807   0.000148  -0.000016
    32  H   -0.000013   0.000182   0.000124  -0.000047  -0.000054   0.000002
    33  H    0.000000  -0.000000  -0.000000   0.000000  -0.000003   0.000000
    34  H    0.000000  -0.000000   0.000000  -0.000000  -0.000000  -0.000000
    35  H   -0.000000  -0.000000   0.000000   0.000000  -0.000005  -0.000000
    36  H    0.000000   0.000000   0.000000   0.000107  -0.000023   0.000025
               7          8          9         10         11         12
     1  C   -0.000298   0.000000  -0.000000  -0.000194  -0.000002   0.000001
     2  S   -0.007414   0.000266  -0.000005   0.000145   0.000012  -0.000076
     3  N   -0.040114  -0.000109  -0.000041  -0.058545  -0.004213  -0.001808
     4  C    0.339751   0.002362   0.000683   0.365104  -0.035222  -0.002744
     5  C   -0.191079  -0.044568  -0.045418  -0.055853  -0.005004   0.000037
     6  S    0.145625   0.430657   0.409440   0.005862  -0.000213   0.000052
     7  C    5.730860  -0.045439  -0.045900  -0.048069   0.004012  -0.000037
     8  O   -0.045439   8.263977  -0.045680  -0.000063   0.000000  -0.000000
     9  O   -0.045900  -0.045680   8.298647  -0.002423   0.000060  -0.000028
    10  C   -0.048069  -0.000063  -0.002423   5.132349   0.343928  -0.037750
    11  C    0.004012   0.000000   0.000060   0.343928   5.171005   0.348141
    12  C   -0.000037  -0.000000  -0.000028  -0.037750   0.348141   4.679307
    13  C   -0.000002  -0.000000  -0.000000  -0.001244  -0.050235   0.547609
    14  C    0.000000  -0.000000  -0.000000  -0.000170   0.006927  -0.023923
    15  C   -0.000000   0.000000   0.000000   0.000012   0.000322  -0.034887
    16  C    0.000000   0.000000  -0.000003   0.000076   0.005944  -0.021665
    17  C   -0.000024  -0.000000   0.000023  -0.003197  -0.063878   0.534222
    18  O   -0.009864  -0.000031  -0.000000  -0.000079   0.000001  -0.000000
    19  O   -0.000881  -0.000016  -0.000000  -0.000053  -0.000005   0.000001
    20  H    0.000004   0.000000   0.000000  -0.000000  -0.000000   0.000000
    21  H    0.000001   0.000000   0.000000   0.000001  -0.000000   0.000000
    22  H    0.000005   0.000000   0.000000   0.000000  -0.000004   0.000001
    23  H    0.004736   0.000002   0.000001  -0.009815   0.007588  -0.000470
    24  H    0.008875   0.000626  -0.000094  -0.005703  -0.001142   0.005675
    25  H    0.002759   0.000060   0.001088   0.003003  -0.000012  -0.000050
    26  H    0.346440   0.000734  -0.000393  -0.005182   0.000235   0.000011
    27  H    0.321031   0.000172   0.001014   0.003181  -0.000095   0.000001
    28  H   -0.005638   0.000021   0.006146   0.363102  -0.032141  -0.006005
    29  H   -0.007657   0.000001   0.000058   0.360077  -0.030522   0.004436
    30  H   -0.000117  -0.000000  -0.000001  -0.033002   0.363606  -0.029118
    31  H   -0.000052   0.000000  -0.000000  -0.035003   0.363481  -0.036466
    32  H    0.000001   0.000000   0.000000   0.000201  -0.010460  -0.042252
    33  H   -0.000000  -0.000000  -0.000000   0.000001  -0.000168   0.003728
    34  H    0.000000   0.000000   0.000000   0.000000   0.000007   0.000631
    35  H    0.000000  -0.000000  -0.000000   0.000001  -0.000170   0.003599
    36  H   -0.000002   0.000000   0.000015   0.000604  -0.008010  -0.045978
              13         14         15         16         17         18
     1  C   -0.000007  -0.000000   0.000000  -0.000000  -0.000000  -0.056828
     2  S    0.000065   0.000000   0.000000  -0.000000  -0.000000   0.432949
     3  N    0.000118   0.000014   0.000000   0.000000  -0.000008  -0.050710
     4  C    0.001393  -0.000010   0.000007   0.000000  -0.000934  -0.003033
     5  C    0.000088   0.000348   0.000032  -0.000560  -0.003498  -0.000913
     6  S    0.000132   0.000008  -0.000001  -0.000024  -0.000019   0.000659
     7  C   -0.000002   0.000000  -0.000000   0.000000  -0.000024  -0.009864
     8  O   -0.000000  -0.000000   0.000000   0.000000  -0.000000  -0.000031
     9  O   -0.000000  -0.000000   0.000000  -0.000003   0.000023  -0.000000
    10  C   -0.001244  -0.000170   0.000012   0.000076  -0.003197  -0.000079
    11  C   -0.050235   0.006927   0.000322   0.005944  -0.063878   0.000001
    12  C    0.547609  -0.023923  -0.034887  -0.021665   0.534222  -0.000000
    13  C    4.988179   0.514672  -0.037819  -0.045621  -0.045248   0.000000
    14  C    0.514672   4.897449   0.546443  -0.029205  -0.046317  -0.000000
    15  C   -0.037819   0.546443   4.883761   0.541823  -0.037538   0.000000
    16  C   -0.045621  -0.029205   0.541823   4.888684   0.522261   0.000000
    17  C   -0.045248  -0.046317  -0.037538   0.522261   4.997647  -0.000000
    18  O    0.000000  -0.000000   0.000000   0.000000  -0.000000   8.286656
    19  O   -0.000007  -0.000000   0.000000  -0.000000   0.000000  -0.050834
    20  H    0.000000  -0.000000  -0.000000  -0.000000   0.000000  -0.000429
    21  H    0.000000  -0.000000  -0.000000   0.000000  -0.000000  -0.000451
    22  H   -0.000006  -0.000000   0.000000  -0.000000   0.000000   0.001567
    23  H    0.001488   0.000028   0.000000  -0.000002   0.000004   0.001254
    24  H   -0.000754  -0.000333   0.000231   0.001779   0.006898  -0.000003
    25  H    0.000052  -0.000038  -0.000008   0.000003   0.000059  -0.000315
    26  H    0.000000   0.000000  -0.000000   0.000000   0.000000   0.000231
    27  H    0.000000  -0.000000  -0.000000  -0.000000   0.000000   0.021508
    28  H    0.000021   0.000007  -0.000000  -0.000104   0.003690   0.000000
    29  H   -0.000089   0.000002  -0.000000   0.000002   0.000038  -0.000007
    30  H    0.002603  -0.000212   0.000025   0.000016  -0.005294   0.000000
    31  H   -0.005145   0.000221  -0.000003  -0.000166   0.004651  -0.000001
    32  H    0.358290  -0.044596   0.004679   0.000290   0.006122   0.000000
    33  H   -0.038595   0.361156  -0.042187   0.004504   0.000711  -0.000000
    34  H    0.004602  -0.042192   0.363375  -0.042070   0.004631   0.000000
    35  H    0.000727   0.004544  -0.042066   0.361878  -0.039354  -0.000000
    36  H    0.005858   0.000288   0.004699  -0.043193   0.360576  -0.000000
              19         20         21         22         23         24
     1  C   -0.056677   0.343369   0.359863   0.341405  -0.000461   0.000002
     2  S    0.412992  -0.006142  -0.015640  -0.003508  -0.005623   0.000118
     3  N   -0.053714   0.001553   0.002271   0.000043   0.283670   0.001770
     4  C   -0.001784  -0.000100  -0.000045  -0.000061  -0.025345  -0.024592
     5  C   -0.005375   0.000006   0.000004   0.000000  -0.001477   0.338887
     6  S    0.000254   0.000000  -0.000000  -0.000000  -0.000189  -0.011266
     7  C   -0.000881   0.000004   0.000001   0.000005   0.004736   0.008875
     8  O   -0.000016   0.000000   0.000000   0.000000   0.000002   0.000626
     9  O   -0.000000   0.000000   0.000000   0.000000   0.000001  -0.000094
    10  C   -0.000053  -0.000000   0.000001   0.000000  -0.009815  -0.005703
    11  C   -0.000005  -0.000000  -0.000000  -0.000004   0.007588  -0.001142
    12  C    0.000001   0.000000   0.000000   0.000001  -0.000470   0.005675
    13  C   -0.000007   0.000000   0.000000  -0.000006   0.001488  -0.000754
    14  C   -0.000000  -0.000000  -0.000000  -0.000000   0.000028  -0.000333
    15  C    0.000000  -0.000000  -0.000000   0.000000   0.000000   0.000231
    16  C   -0.000000  -0.000000   0.000000  -0.000000  -0.000002   0.001779
    17  C    0.000000   0.000000  -0.000000   0.000000   0.000004   0.006898
    18  O   -0.050834  -0.000429  -0.000451   0.001567   0.001254  -0.000003
    19  O    8.298209   0.001706   0.000016  -0.000742  -0.000809   0.000093
    20  H    0.001706   0.460835  -0.016244  -0.020352  -0.000153  -0.000000
    21  H    0.000016  -0.016244   0.446431  -0.017072   0.000033  -0.000000
    22  H   -0.000742  -0.020352  -0.017072   0.461689   0.000652   0.000000
    23  H   -0.000809  -0.000153   0.000033   0.000652   0.323626   0.000285
    24  H    0.000093  -0.000000  -0.000000   0.000000   0.000285   0.456870
    25  H    0.018038  -0.000006   0.000003   0.000003  -0.000109  -0.013655
    26  H   -0.000003   0.000001  -0.000000  -0.000000  -0.000045  -0.000265
    27  H   -0.000250   0.000002   0.000003  -0.000007   0.000049  -0.000206
    28  H    0.000002   0.000000  -0.000000  -0.000000   0.000095  -0.000281
    29  H    0.000002   0.000002   0.000000   0.000000  -0.000258   0.000164
    30  H   -0.000000  -0.000000   0.000000  -0.000000  -0.000159  -0.000020
    31  H    0.000009   0.000008  -0.000000   0.000006   0.004712   0.000042
    32  H    0.000003  -0.000001  -0.000000   0.000064   0.001741   0.000039
    33  H   -0.000000   0.000000   0.000000  -0.000000  -0.000002   0.000003
    34  H    0.000000  -0.000000  -0.000000  -0.000000  -0.000000  -0.000000
    35  H   -0.000000   0.000000   0.000000   0.000000   0.000000   0.000015
    36  H    0.000000   0.000000  -0.000000  -0.000000  -0.000001   0.000064
              25         26         27         28         29         30
     1  C    0.000092   0.000004   0.000137   0.000001  -0.000003  -0.000000
     2  S    0.002217   0.000107   0.001155  -0.000006   0.000044   0.000011
     3  N   -0.008006   0.001357  -0.006097   0.004503  -0.000645   0.000103
     4  C   -0.021728  -0.027996  -0.019869  -0.036011  -0.034179   0.005123
     5  C    0.325457   0.009032   0.003080  -0.004485   0.005919  -0.000065
     6  S   -0.002767  -0.011225  -0.000809   0.008189  -0.000367   0.000024
     7  C    0.002759   0.346440   0.321031  -0.005638  -0.007657  -0.000117
     8  O    0.000060   0.000734   0.000172   0.000021   0.000001  -0.000000
     9  O    0.001088  -0.000393   0.001014   0.006146   0.000058  -0.000001
    10  C    0.003003  -0.005182   0.003181   0.363102   0.360077  -0.033002
    11  C   -0.000012   0.000235  -0.000095  -0.032141  -0.030522   0.363606
    12  C   -0.000050   0.000011   0.000001  -0.006005   0.004436  -0.029118
    13  C    0.000052   0.000000   0.000000   0.000021  -0.000089   0.002603
    14  C   -0.000038   0.000000  -0.000000   0.000007   0.000002  -0.000212
    15  C   -0.000008  -0.000000  -0.000000  -0.000000  -0.000000   0.000025
    16  C    0.000003   0.000000  -0.000000  -0.000104   0.000002   0.000016
    17  C    0.000059   0.000000   0.000000   0.003690   0.000038  -0.005294
    18  O   -0.000315   0.000231   0.021508   0.000000  -0.000007   0.000000
    19  O    0.018038  -0.000003  -0.000250   0.000002   0.000002  -0.000000
    20  H   -0.000006   0.000001   0.000002   0.000000   0.000002  -0.000000
    21  H    0.000003  -0.000000   0.000003  -0.000000   0.000000   0.000000
    22  H    0.000003  -0.000000  -0.000007  -0.000000   0.000000  -0.000000
    23  H   -0.000109  -0.000045   0.000049   0.000095  -0.000258  -0.000159
    24  H   -0.013655  -0.000265  -0.000206  -0.000281   0.000164  -0.000020
    25  H    0.455450  -0.000240  -0.000150   0.000175  -0.000104   0.000002
    26  H   -0.000240   0.464480  -0.013552   0.000076   0.003989  -0.000019
    27  H   -0.000150  -0.013552   0.437732   0.000135   0.000081   0.000002
    28  H    0.000175   0.000076   0.000135   0.546065  -0.027519  -0.003556
    29  H   -0.000104   0.003989   0.000081  -0.027519   0.559241  -0.004126
    30  H    0.000002  -0.000019   0.000002  -0.003556  -0.004126   0.558371
    31  H    0.000012   0.000005   0.000001   0.004859  -0.002308  -0.031643
    32  H    0.000016  -0.000000  -0.000000   0.000003  -0.000017   0.000116
    33  H    0.000001  -0.000000  -0.000000   0.000000  -0.000000   0.000003
    34  H   -0.000000   0.000000   0.000000  -0.000000   0.000000  -0.000000
    35  H    0.000000  -0.000000   0.000000   0.000003  -0.000000  -0.000003
    36  H    0.000001  -0.000000  -0.000000   0.001982  -0.000093   0.002724
              31         32         33         34         35         36
     1  C    0.000032  -0.000013   0.000000   0.000000  -0.000000   0.000000
     2  S   -0.000125   0.000182  -0.000000  -0.000000  -0.000000   0.000000
     3  N    0.003472   0.000124  -0.000000   0.000000   0.000000   0.000000
     4  C   -0.009807  -0.000047   0.000000  -0.000000   0.000000   0.000107
     5  C    0.000148  -0.000054  -0.000003  -0.000000  -0.000005  -0.000023
     6  S   -0.000016   0.000002   0.000000  -0.000000  -0.000000   0.000025
     7  C   -0.000052   0.000001  -0.000000   0.000000   0.000000  -0.000002
     8  O    0.000000   0.000000  -0.000000   0.000000  -0.000000   0.000000
     9  O   -0.000000   0.000000  -0.000000   0.000000  -0.000000   0.000015
    10  C   -0.035003   0.000201   0.000001   0.000000   0.000001   0.000604
    11  C    0.363481  -0.010460  -0.000168   0.000007  -0.000170  -0.008010
[...]
    33  H    0.000329  -0.002393  -0.004248   0.017436  -0.001228   0.000993
    34  H   -0.000013   0.000007   0.001852  -0.009059   0.003619  -0.000767
    35  H   -0.000033  -0.000463  -0.002806   0.015119  -0.003720   0.001733
    36  H    0.000753   0.001565   0.018356  -0.105433   0.065395  -0.022070
               7          8          9         10         11         12
     1  C    0.046944  -0.003889  -0.000391  -0.092490  -0.000097   0.004705
     2  S    0.471131  -0.017906  -0.009074  -0.586605  -0.128356  -0.023614
     3  N    1.220067   0.009520   0.021606  -0.859335  -0.134855   0.113138
     4  C   -6.659791  -0.144325  -0.275087  -1.059459  -0.102291   0.107855
     5  C    0.827188   0.174551   0.196567  -1.342490  -0.076236   0.004559
     6  S    0.542394  -0.340690  -0.434945  -0.381454  -0.068977   0.101896
     7  C    9.933335   0.137231   0.104477  -0.780465  -0.428001   0.152260
     8  O    0.137231   9.271943   0.059110   0.021185   0.006553  -0.015203
     9  O    0.104477   0.059110   9.366816   0.087510   0.002242  -0.021324
    10  C   -0.780465   0.021185   0.087510  10.723830   1.005541  -0.389936
    11  C   -0.428001   0.006553   0.002242   1.005541   7.916673  -0.023377
    12  C    0.152260  -0.015203  -0.021324  -0.389936  -0.023377  16.332944
    13  C   -0.127154   0.005880   0.012991  -0.066179  -1.342415  -7.743188
    14  C    0.045082   0.000505  -0.002290  -0.009923  -0.035529   3.556611
    15  C   -0.011512  -0.000665   0.002846   0.003738   0.015829  -3.869236
    16  C   -0.022937  -0.000807  -0.000984   0.011553   0.075375   3.246942
    17  C   -0.069925   0.006508   0.030093  -0.342919  -0.659732  -7.447865
    18  O   -0.130539  -0.002504  -0.001092   0.008705  -0.001991   0.003329
    19  O   -0.033727  -0.002472  -0.000755   0.019175   0.020185  -0.019382
    20  H   -0.001022  -0.000233  -0.000034  -0.002338   0.004512   0.002874
    21  H    0.016652   0.000008  -0.000006  -0.014068  -0.002823  -0.000071
    22  H    0.005536  -0.000386  -0.000089  -0.007257  -0.003441  -0.002615
    23  H    0.070242  -0.003881  -0.004900   0.064022  -0.049407   0.064227
    24  H    0.212950  -0.022506  -0.001159  -0.231153  -0.082268  -0.057417
    25  H   -0.191465   0.044557   0.027519   0.238854   0.038670  -0.000609
    26  H    0.481926  -0.005562   0.010682  -0.275933   0.053436   0.024585
    27  H   -0.122622   0.046230   0.017044   0.193678  -0.029428  -0.015286
    28  H    0.018818   0.003537   0.061283  -0.262454  -0.225040  -0.066004
    29  H   -0.214222   0.004683   0.012677  -0.017426  -0.081384   0.071788
    30  H    0.038496  -0.000386  -0.000833  -0.018980   0.040056  -0.160284
    31  H   -0.021396   0.000378   0.000812  -0.215363  -0.057643  -0.063941
    32  H   -0.020718   0.001239   0.002615   0.025267   0.042837   0.804152
    33  H    0.001101   0.000058  -0.000214  -0.003222   0.025158  -0.071752
    34  H   -0.000718  -0.000034   0.000352   0.001806  -0.007222  -0.004984
    35  H   -0.001719  -0.000039  -0.001021   0.012365   0.020145  -0.086723
    36  H    0.019325   0.002000   0.011309  -0.030935  -0.099134   0.727521
              13         14         15         16         17         18
     1  C    0.017072  -0.000906  -0.000160  -0.000579   0.002056  -0.015522
     2  S    0.006033   0.011914   0.004274  -0.013602  -0.029534  -0.241531
     3  N    0.236986  -0.100530   0.049197  -0.063699   0.177399   0.155101
     4  C   -1.022785   0.263033  -0.242986   0.256006  -0.948439   0.148545
     5  C    0.206716  -0.041407   0.061297  -0.052963   0.198947   0.029297
     6  S   -0.050546  -0.001718  -0.000360   0.003963  -0.113012   0.002754
     7  C   -0.127154   0.045082  -0.011512  -0.022937  -0.069925  -0.130539
     8  O    0.005880   0.000505  -0.000665  -0.000807   0.006508  -0.002504
     9  O    0.012991  -0.002290   0.002846  -0.000984   0.030093  -0.001092
    10  C   -0.066179  -0.009923   0.003738   0.011553  -0.342919   0.008705
    11  C   -1.342415  -0.035529   0.015829   0.075375  -0.659732  -0.001991
    12  C   -7.743188   3.556611  -3.869236   3.246942  -7.447865   0.003329
    13  C   18.967892  -5.389016   3.853758  -4.576026   3.271249  -0.002116
    14  C   -5.389016  11.928165  -3.827241   4.118774  -4.293332  -0.001333
    15  C    3.853758  -3.827241   9.539060  -3.599353   3.618502  -0.000016
    16  C   -4.576026   4.118774  -3.599353  11.159124  -4.575274   0.000304
    17  C    3.271249  -4.293332   3.618502  -4.575274  17.368102   0.002129
    18  O   -0.002116  -0.001333  -0.000016   0.000304   0.002129   9.227468
    19  O    0.020458   0.002483  -0.001246  -0.000181   0.001647   0.043017
    20  H   -0.001958  -0.000517  -0.000425   0.000531   0.000935   0.011488
    21  H    0.001240   0.000122   0.000357  -0.000310  -0.000254  -0.021528
    22  H   -0.004699   0.008818  -0.001398   0.000464  -0.002737   0.012383
    23  H   -0.164890  -0.083345   0.023473   0.000336   0.009731  -0.021721
    24  H   -0.073572  -0.016057   0.001986  -0.003765   0.022809   0.001878
    25  H    0.046148  -0.011466   0.014735  -0.014166   0.011511  -0.015621
    26  H   -0.009087   0.001707  -0.001535  -0.000291   0.005590  -0.009940
    27  H    0.007331   0.001684  -0.000187  -0.001657  -0.003790   0.013922
    28  H    0.004939   0.000316  -0.003453  -0.011776  -0.053677   0.003323
    29  H    0.031206  -0.005411   0.004617   0.001990   0.020573  -0.002372
    30  H    0.001566  -0.068436   0.018288   0.060306   0.187268   0.000691
    31  H    0.198231   0.171498  -0.023191  -0.055706  -0.227076   0.000026
    32  H   -1.557309   0.233116  -0.157774   0.109181  -0.013408  -0.000460
    33  H    0.513737  -0.804294   0.355363  -0.215831   0.099881   0.000037
    34  H   -0.009881   0.358274  -0.678723   0.341406  -0.046872  -0.000001
    35  H    0.094518  -0.239880   0.345232  -0.764535   0.546995   0.000005
    36  H   -0.102151   0.167859  -0.210808   0.425099  -1.263123  -0.000134
              19         20         21         22         23         24
     1  C   -0.008117   0.337838   0.349313   0.365077  -0.085967   0.005690
     2  S   -0.352058  -0.043245   0.139484  -0.044150  -0.225864   0.020217
     3  N    0.160388   0.027040   0.023179  -0.082122   0.327765   0.180996
     4  C    0.229548  -0.015715  -0.066175   0.032230   0.064448  -0.497985
     5  C   -0.111793  -0.003232   0.014078   0.002570  -0.171345   0.333892
     6  S    0.002662  -0.000236   0.000544   0.002227   0.040336   0.121687
     7  C   -0.033727  -0.001022   0.016652   0.005536   0.070242   0.212950
     8  O   -0.002472  -0.000233   0.000008  -0.000386  -0.003881  -0.022506
     9  O   -0.000755  -0.000034  -0.000006  -0.000089  -0.004900  -0.001159
    10  C    0.019175  -0.002338  -0.014068  -0.007257   0.064022  -0.231153
    11  C    0.020185   0.004512  -0.002823  -0.003441  -0.049407  -0.082268
    12  C   -0.019382   0.002874  -0.000071  -0.002615   0.064227  -0.057417
    13  C    0.020458  -0.001958   0.001240  -0.004699  -0.164890  -0.073572
    14  C    0.002483  -0.000517   0.000122   0.008818  -0.083345  -0.016057
    15  C   -0.001246  -0.000425   0.000357  -0.001398   0.023473   0.001986
    16  C   -0.000181   0.000531  -0.000310   0.000464   0.000336  -0.003765
    17  C    0.001647   0.000935  -0.000254  -0.002737   0.009731   0.022809
    18  O    0.043017   0.011488  -0.021528   0.012383  -0.021721   0.001878
    19  O    9.247767   0.005084  -0.029454   0.033730  -0.008961  -0.018869
    20  H    0.005084   0.822297  -0.114995  -0.071039  -0.017700  -0.000454
    21  H   -0.029454  -0.114995   0.813843  -0.133891   0.003087   0.000728
    22  H    0.033730  -0.071039  -0.133891   0.916451  -0.012183   0.002556
    23  H   -0.008961  -0.017700   0.003087  -0.012183   1.150045   0.026313
    24  H   -0.018869  -0.000454   0.000728   0.002556   0.026313   1.636484
    25  H    0.023856   0.002254  -0.001671  -0.008171  -0.017447  -0.378963
    26  H   -0.000526   0.001454   0.001531  -0.001612   0.006215   0.015268
    27  H   -0.011297  -0.006744   0.000056   0.005219  -0.015760   0.006971
    28  H    0.001682   0.000912  -0.000315  -0.000899   0.024023  -0.028682
    29  H   -0.000320  -0.002228  -0.001081   0.000828  -0.009537   0.027772
    30  H    0.000011   0.001016  -0.000065  -0.001425   0.022712   0.028971
    31  H    0.006376  -0.002944  -0.000792   0.009013  -0.031553  -0.034182
    32  H   -0.004814   0.003302   0.000536  -0.017738   0.080009   0.027872
    33  H    0.000554  -0.000115  -0.000138   0.000738   0.013053   0.005257
    34  H   -0.000042  -0.000002   0.000006  -0.000092  -0.000956  -0.007298
    35  H   -0.000012   0.000017  -0.000012  -0.000000   0.001186   0.011116
    36  H    0.000104  -0.000076   0.000076   0.000153  -0.015275   0.022692
              25         26         27         28         29         30
     1  C   -0.018145   0.005808  -0.009163  -0.000775  -0.002729  -0.001818
     2  S    0.049555   0.033702   0.033209  -0.003086  -0.013923   0.000544
     3  N   -0.008597   0.226785  -0.199590   0.139303  -0.028111   0.085139
     4  C    0.025545  -0.631309   0.463209  -0.155410  -0.022362  -0.082208
     5  C    0.020772   0.227034  -0.049263   0.036078   0.186705   0.031766
     6  S   -0.304984   0.021976  -0.186499  -0.146377  -0.057346   0.003930
     7  C   -0.191465   0.481926  -0.122622   0.018818  -0.214222   0.038496
     8  O    0.044557  -0.005562   0.046230   0.003537   0.004683  -0.000386
     9  O    0.027519   0.010682   0.017044   0.061283   0.012677  -0.000833
    10  C    0.238854  -0.275933   0.193678  -0.262454  -0.017426  -0.018980
    11  C    0.038670   0.053436  -0.029428  -0.225040  -0.081384   0.040056
    12  C   -0.000609   0.024585  -0.015286  -0.066004   0.071788  -0.160284
    13  C    0.046148  -0.009087   0.007331   0.004939   0.031206   0.001566
    14  C   -0.011466   0.001707   0.001684   0.000316  -0.005411  -0.068436
    15  C    0.014735  -0.001535  -0.000187  -0.003453   0.004617   0.018288
    16  C   -0.014166  -0.000291  -0.001657  -0.011776   0.001990   0.060306
    17  C    0.011511   0.005590  -0.003790  -0.053677   0.020573   0.187268
    18  O   -0.015621  -0.009940   0.013922   0.003323  -0.002372   0.000691
    19  O    0.023856  -0.000526  -0.011297   0.001682  -0.000320   0.000011
    20  H    0.002254   0.001454  -0.006744   0.000912  -0.002228   0.001016
    21  H   -0.001671   0.001531   0.000056  -0.000315  -0.001081  -0.000065
    22  H   -0.008171  -0.001612   0.005219  -0.000899   0.000828  -0.001425
    23  H   -0.017447   0.006215  -0.015760   0.024023  -0.009537   0.022712
    24  H   -0.378963   0.015268   0.006971  -0.028682   0.027772   0.028971
    25  H    1.707010   0.000586   0.017419   0.022610   0.005170  -0.003044
    26  H    0.000586   1.327106  -0.297187  -0.021004   0.025594   0.006455
    27  H    0.017419  -0.297187   1.299100   0.008898   0.008382  -0.000390
    28  H    0.022610  -0.021004   0.008898   2.031618  -0.300412  -0.050104
    29  H    0.005170   0.025594   0.008382  -0.300412   1.549666  -0.044380
    30  H   -0.003044   0.006455  -0.000390  -0.050104  -0.044380   1.425846
    31  H    0.007810   0.000955  -0.000801   0.119548  -0.024776  -0.390580
    32  H    0.006388   0.001340  -0.000300  -0.000643   0.008815   0.025419
    33  H   -0.002507   0.000025   0.000017   0.000152  -0.000462  -0.000755
    34  H    0.000295  -0.000017  -0.000044   0.000241   0.000111   0.000545
    35  H   -0.000673  -0.000247  -0.000048   0.001456   0.000475  -0.002420
    36  H    0.001860   0.004263   0.000062  -0.029606   0.010474  -0.009368
              31         32         33         34         35         36
     1  C    0.020465  -0.013246   0.000329  -0.000013  -0.000033   0.000753
     2  S   -0.034343   0.008859  -0.002393   0.000007  -0.000463   0.001565
     3  N    0.019985   0.009265  -0.004248   0.001852  -0.002806   0.018356
     4  C    0.013130  -0.108302   0.017436  -0.009059   0.015119  -0.105433
     5  C    0.030058   0.036813  -0.001228   0.003619  -0.003720   0.065395
     6  S   -0.012488  -0.014907   0.000993  -0.000767   0.001733  -0.022070
     7  C   -0.021396  -0.020718   0.001101  -0.000718  -0.001719   0.019325
     8  O    0.000378   0.001239   0.000058  -0.000034  -0.000039   0.002000
     9  O    0.000812   0.002615  -0.000214   0.000352  -0.001021   0.011309
    10  C   -0.215363   0.025267  -0.003222   0.001806   0.012365  -0.030935
    11  C   -0.057643   0.042837   0.025158  -0.007222   0.020145  -0.099134
    12  C   -0.063941   0.804152  -0.071752  -0.004984  -0.086723   0.727521
    13  C    0.198231  -1.557309   0.513737  -0.009881   0.094518  -0.102151
    14  C    0.171498   0.233116  -0.804294   0.358274  -0.239880   0.167859
    15  C   -0.023191  -0.157774   0.355363  -0.678723   0.345232  -0.210808
    16  C   -0.055706   0.109181  -0.215831   0.341406  -0.764535   0.425099
    17  C   -0.227076  -0.013408   0.099881  -0.046872   0.546995  -1.263123
    18  O    0.000026  -0.000460   0.000037  -0.000001   0.000005  -0.000134
    19  O    0.006376  -0.004814   0.000554  -0.000042  -0.000012   0.000104
    20  H   -0.002944   0.003302  -0.000115  -0.000002   0.000017  -0.000076
    21  H   -0.000792   0.000536  -0.000138   0.000006  -0.000012   0.000076
    22  H    0.009013  -0.017738   0.000738  -0.000092  -0.000000   0.000153
    23  H   -0.031553   0.080009   0.013053  -0.000956   0.001186  -0.015275
    24  H   -0.034182   0.027872   0.005257  -0.007298   0.011116   0.022692
    25  H    0.007810   0.006388  -0.002507   0.000295  -0.000673   0.001860
    26  H    0.000955   0.001340   0.000025  -0.000017  -0.000247   0.004263
    27  H   -0.000801  -0.000300   0.000017  -0.000044  -0.000048   0.000062
    28  H    0.119548  -0.000643   0.000152   0.000241   0.001456  -0.029606
    29  H   -0.024776   0.008815  -0.000462   0.000111   0.000475   0.010474
    30  H   -0.390580   0.025419  -0.000755   0.000545  -0.002420  -0.009368
    31  H    1.937174  -0.110599  -0.000273   0.000223  -0.001801   0.023083
    32  H   -0.110599   2.467696  -0.106624  -0.010624   0.008219  -0.024631
    33  H   -0.000273  -0.106624   1.740397  -0.056136  -0.018496   0.009548
    34  H    0.000223  -0.010624  -0.056136   1.641720  -0.056755  -0.013773
    35  H   -0.001801   0.008219  -0.018496  -0.056755   1.699265  -0.095378
    36  H    0.023083  -0.024631   0.009548  -0.013773  -0.095378   2.202562
 Mulliken charges:
               1
     1  C    0.094408
     2  S    2.887230
     3  N   -1.400768
     4  C   -0.032270
     5  C    0.537859
     6  S    2.907618
     7  C    0.492776
     8  O   -1.234189
     9  O   -1.274351
    10  C    0.573152
    11  C    0.372434
    12  C    0.763428
    13  C    0.745021
    14  C    0.062672
    15  C    0.717715
    16  C    0.163088
    17  C    0.509044
    18  O   -1.195981
    19  O   -1.214702
    20  H    0.063698
    21  H    0.022810
    22  H   -0.002048
    23  H   -0.050531
    24  H   -0.259774
    25  H   -0.335597
    26  H   -0.229771
    27  H   -0.172373
    28  H   -0.119019
    29  H   -0.143045
    30  H   -0.143550
    31  H   -0.249319
    32  H   -0.740844
    33  H   -0.495146
    34  H   -0.446446
    35  H   -0.481065
    36  H   -0.692167
 Sum of Mulliken charges =  -0.00000
 Mulliken charges with hydrogens summed into heavy atoms:
               1
     1  C    0.178868
     2  S    2.887230
     3  N   -1.451299
     4  C   -0.032270
     5  C   -0.057511
     6  S    2.907618
     7  C    0.090632
     8  O   -1.234189
     9  O   -1.274351
    10  C    0.311088
    11  C   -0.020434
    12  C    0.763428
    13  C    0.004178
    14  C   -0.432474
    15  C    0.271270
    16  C   -0.317977
    17  C   -0.183123
    18  O   -1.195981
    19  O   -1.214702
 Electronic spatial extent (au):  <R**2>=           6074.9441
 Charge=             -0.0000 electrons
 Dipole moment (field-independent basis, Debye):
    X=             -3.4137    Y=             -8.6702    Z=              4.7440  Tot=             10.4561
 Quadrupole moment (field-independent basis, Debye-Ang):
   XX=           -133.2557   YY=           -135.2837   ZZ=           -130.7577
   XY=            -13.4312   XZ=             12.9075   YZ=              5.9275
 Traceless Quadrupole moment (field-independent basis, Debye-Ang):
   XX=             -0.1567   YY=             -2.1847   ZZ=              2.3414
   XY=            -13.4312   XZ=             12.9075   YZ=              5.9275
 Octapole moment (field-independent basis, Debye-Ang**2):
  XXX=            -20.3462  YYY=           -133.8891  ZZZ=             15.8200  XYY=             48.2620
  XXY=            -10.3120  XXZ=             -9.4644  XZZ=            -13.5074  YZZ=              2.0126
  YYZ=             17.2413  XYZ=              1.0023
 Hexadecapole moment (field-independent basis, Debye-Ang**3):
 XXXX=          -4774.1746 YYYY=          -2614.2814 ZZZZ=           -947.8727 XXXY=           -260.0111
 XXXZ=            133.2239 YYYX=           -182.0365 YYYZ=             53.2446 ZZZX=             29.6805
 ZZZY=             14.2858 XXYY=          -1095.5046 XXZZ=           -923.2265 YYZZ=           -588.3327
 XXYZ=             63.9468 YYXZ=             70.6435 ZZXY=              0.5589
 N-N= 1.885310116364D+03 E-N=-7.575544396774D+03  KE= 1.611503446172D+03
 Leave Link  601 at Mon Sep 21 09:36:58 2020, MaxMem=   262144000 cpu:               1.0 elap:               0.3
 (Enter /prod/apps/gaussian/g16b1/l9999.exe)
 1\1\GINC-PIRINEUS23\SP\RMP2-FC\Aug-CC-pVDZ\C12H17N1O4S2\UBAFAR01\21-Se
 p-2020\0\\#p mp2/aug-cc-pVDZ scf=(MaxCycle=2000,NoVarAcc,NoIncFock) ma
 xdisk=120GB geom=allcheck\\SM38_m0.n.9.pdb.xyz\\0,1\C,0,2.8638076494,-
 3.0213734174,0.1977132508\S,0,2.5466745039,-1.3243689837,-0.2757706095
 \N,0,1.2380213687,-0.9799378545,0.74885348\C,0,0.5683441257,0.33462348
 61,0.7496640363\C,0,-0.0297661162,0.815311482,-0.6272857783\S,0,0.7036
 33432,2.461539536,-0.3582034413\C,0,1.5496900299,1.5326164804,0.959629
 5254\O,0,1.5953049506,2.9225898058,-1.440496408\O,0,-0.2809704361,3.41
 94101534,0.1902097397\C,0,-0.4653731046,0.3291291112,1.8941510918\C,0,
 -1.5175350085,-0.7980788397,1.9228651158\C,0,-2.513727922,-0.816991974
 3,0.7818122054\C,0,-2.4943350725,-1.8392736523,-0.175128355\C,0,-3.412
 3954292,-1.8570846582,-1.2277981719\C,0,-4.3705933706,-0.8488391466,-1
 .3377684792\C,0,-4.4075616659,0.1723971882,-0.3841450735\C,0,-3.490154
 1828,0.1840252731,0.6663870824\O,0,3.6793675214,-0.4764437532,0.137528
 1404\O,0,2.1706793857,-1.2893627717,-1.7040612029\H,0,3.0842094977,-3.
 0550992672,1.2630918171\H,0,3.7276138491,-3.3395890586,-0.3873168108\H
 ,0,1.9969710454,-3.6321057931,-0.0502711363\H,0,0.55130192,-1.72349276
 59,0.6070622182\H,0,-1.1139945893,0.826386865,-0.7173595111\H,0,0.4381
 545089,0.3357434662,-1.4873602792\H,0,1.5065120105,2.0120718577,1.9360
 613779\H,0,2.576495981,1.317704753,0.6713412283\H,0,-0.9697341324,1.30
 09127382,1.8769487375\H,0,0.1018863599,0.2853742029,2.8291221214\H,0,-
 2.0589151416,-0.679195651,2.8679119613\H,0,-1.0191914393,-1.7705036515
 ,1.9902222586\H,0,-1.7561017132,-2.6317543391,-0.0927518755\H,0,-3.378
 6498413,-2.659281556,-1.95808751\H,0,-5.0859206037,-0.8602079556,-2.15
 42582984\H,0,-5.1555324146,0.95632279,-0.4549399866\H,0,-3.533215956,0
 .9778259007,1.4064275391\\Version=ES64L-G16RevB.01\State=1-A\HF=-1613.
 1836934\MP2=-1616.1757948\RMSD=1.887e-09\PG=C01 [X(C12H17N1O4S2)]\\@


 TRUTH, IN SCIENCE, CAN BE DEFINED AS THE WORKING HYPOTHESIS 
 BEST FITTED TO OPEN THE WAY TO THE NEXT BETTER ONE.

                              -- KONRAD LORENZ
 Job cpu time:       0 days  4 hours 30 minutes 10.3 seconds.
 Elapsed time:       0 days  1 hours 19 minutes 32.4 seconds.
 File lengths (MBytes):  RWF= 118528 Int=      0 D2E=      0 Chk=     29 Scr=      1
 Normal termination of Gaussian 16 at Mon Sep 21 09:37:00 2020.
