 Entering Gaussian System, Link 0=g16
 Initial command:
 /prod/apps/gaussian/g16b1/l1.exe "/tmp/ubafar01/1460142/Gau-6840.inp" -scrdir="/tmp/ubafar01/1460142/"
 Entering Link 1 = /prod/apps/gaussian/g16b1/l1.exe PID=      6842.
  
 Copyright (c) 1988-2017, Gaussian, Inc.  All Rights Reserved.
  
 This is part of the Gaussian(R) 16 program.  It is based on
 the Gaussian(R) 09 system (copyright 2009, Gaussian, Inc.),
 the Gaussian(R) 03 system (copyright 2003, Gaussian, Inc.),
 the Gaussian(R) 98 system (copyright 1998, Gaussian, Inc.),
 the Gaussian(R) 94 system (copyright 1995, Gaussian, Inc.),
 the Gaussian 92(TM) system (copyright 1992, Gaussian, Inc.),
 the Gaussian 90(TM) system (copyright 1990, Gaussian, Inc.),
 the Gaussian 88(TM) system (copyright 1988, Gaussian, Inc.),
 the Gaussian 86(TM) system (copyright 1986, Carnegie Mellon
 University), and the Gaussian 82(TM) system (copyright 1983,
 Carnegie Mellon University). Gaussian is a federally registered
 trademark of Gaussian, Inc.
  
 This software contains proprietary and confidential information,
 including trade secrets, belonging to Gaussian, Inc.
  
 This software is provided under written license and may be
 used, copied, transmitted, or stored only in accord with that
 written license.
  
 The following legend is applicable only to US Government
 contracts under FAR:
  
                    RESTRICTED RIGHTS LEGEND
  
 Use, reproduction and disclosure by the US Government is
 subject to restrictions as set forth in subparagraphs (a)
 and (c) of the Commercial Computer Software - Restricted
 Rights clause in FAR 52.227-19.
  
 Gaussian, Inc.
 340 Quinnipiac St., Bldg. 40, Wallingford CT 06492
  
  
 ---------------------------------------------------------------
 Warning -- This program may not be used in any manner that
 competes with the business of Gaussian, Inc. or will provide
 assistance to any competitor of Gaussian, Inc.  The licensee
 of this program is prohibited from giving any competitor of
 Gaussian, Inc. access to this program.  By using this program,
 the user acknowledges that Gaussian, Inc. is engaged in the
 business of creating and licensing software in the field of
 computational chemistry and represents and warrants to the
 licensee that it is not a competitor of Gaussian, Inc. and that
 it will not use this program in any manner prohibited above.
 ---------------------------------------------------------------
  

 Cite this work as:
 Gaussian 16, Revision B.01,
 M. J. Frisch, G. W. Trucks, H. B. Schlegel, G. E. Scuseria, 
 M. A. Robb, J. R. Cheeseman, G. Scalmani, V. Barone, 
 G. A. Petersson, H. Nakatsuji, X. Li, M. Caricato, A. V. Marenich, 
 J. Bloino, B. G. Janesko, R. Gomperts, B. Mennucci, H. P. Hratchian, 
 J. V. Ortiz, A. F. Izmaylov, J. L. Sonnenberg, D. Williams-Young, 
 F. Ding, F. Lipparini, F. Egidi, J. Goings, B. Peng, A. Petrone, 
 T. Henderson, D. Ranasinghe, V. G. Zakrzewski, J. Gao, N. Rega, 
 G. Zheng, W. Liang, M. Hada, M. Ehara, K. Toyota, R. Fukuda, 
 J. Hasegawa, M. Ishida, T. Nakajima, Y. Honda, O. Kitao, H. Nakai, 
 T. Vreven, K. Throssell, J. A. Montgomery, Jr., J. E. Peralta, 
 F. Ogliaro, M. J. Bearpark, J. J. Heyd, E. N. Brothers, K. N. Kudin, 
 V. N. Staroverov, T. A. Keith, R. Kobayashi, J. Normand, 
 K. Raghavachari, A. P. Rendell, J. C. Burant, S. S. Iyengar, 
 J. Tomasi, M. Cossi, J. M. Millam, M. Klene, C. Adamo, R. Cammi, 
 J. W. Ochterski, R. L. Martin, K. Morokuma, O. Farkas, 
 J. B. Foresman, and D. J. Fox, Gaussian, Inc., Wallingford CT, 2016.
 
 ******************************************
 Gaussian 16:  ES64L-G16RevB.01 20-Dec-2017
                21-Sep-2020 
 ******************************************
 %nproc=4
 Will use up to    4 processors via shared memory.
 %Chk=SM38_m0.n.12.pdb.xyz.mst.n.w.chk
 %mem=16GB
 ----------------------------------------------------------------------
 #p b3lyp/6-31G(d) opt freq NoSymm scf=(MaxCycle=2000,NoVarAcc,NoIncFoc
 k) scrf=(iefpcm,read,solvent=water)
 ----------------------------------------------------------------------
 1/18=20,19=15,26=3,38=1,40=2/1,3;
 2/9=110,12=2,15=1,17=6,18=5,40=1/2;
 3/5=1,6=6,7=1,11=2,25=1,30=1,70=2203,71=1,72=1,74=-5/1,2,3;
 4//1;
 5/5=100002,7=2000,38=1,53=1/2;
 6/7=2,8=2,9=2,10=2,28=1/1;
 7/30=1/1,2,3,16;
 1/18=20,19=15,26=3/3(2);
 2/9=110,15=1/2;
 99//99;
 2/9=110,15=1/2;
 3/5=1,6=6,7=1,11=2,25=1,30=1,70=2205,71=1,72=1,74=-5/1,2,3;
 4/5=5,16=3,69=1/1;
 5/5=100002,7=2000,38=1,53=1/2;
 7/30=1/1,2,3,16;
 1/18=20,19=15,26=3/3(-5);
 2/9=110,15=1/2;
 6/7=2,8=2,9=2,10=2,19=2,28=1/1;
 99/9=1/99;
 Leave Link    1 at Mon Sep 21 07:19:09 2020, MaxMem=  2147483648 cpu:               0.1 elap:               0.0
 (Enter /prod/apps/gaussian/g16b1/l101.exe)
 --------------------
 SM38_m0.n.12.pdb.xyz
 --------------------
 Symbolic Z-matrix:
 Charge =  0 Multiplicity = 1
 C                     1.523     2.774     1.105 
 S                     0.382     2.178    -0.14 
 N                    -0.136     0.75      0.613 
 C                    -1.044    -0.174    -0.104 
 C                    -2.339     0.559    -0.598 
 S                    -3.367    -0.694     0.23 
 C                    -1.746    -1.092     0.956 
 O                    -4.347    -0.143     1.184 
 O                    -3.818    -1.744    -0.707 
 C                    -0.4      -0.977    -1.256 
 C                     0.619    -2.075    -0.884 
 C                     1.959    -1.622    -0.339 
 C                     2.295    -1.835     1.005 
 C                     3.533    -1.429     1.511 
 C                     4.461    -0.811     0.674 
 C                     4.145    -0.605    -0.672 
 C                     2.907    -1.008    -1.172 
 O                    -0.784     3.076    -0.222 
 O                     1.124     1.947    -1.396 
 H                     0.989     2.892     2.047 
 H                     1.885     3.737     0.744 
 H                     2.349     2.071     1.2 
 H                     0.689     0.244     0.953 
 H                    -2.483     0.609    -1.675 
 H                    -2.493     1.531    -0.135 
 H                    -1.505    -2.153     0.936 
 H                    -1.683    -0.691     1.968 
 H                     0.051    -0.262    -1.95 
 H                    -1.218    -1.466    -1.795 
 H                     0.79     -2.654    -1.799 
 H                     0.164    -2.77     -0.17 
 H                     1.58     -2.327     1.658 
 H                     3.771    -1.604     2.556 
 H                     5.425    -0.498     1.062 
 H                     4.865    -0.134    -1.333 
 H                     2.673    -0.849    -2.221 
 
 ITRead=  0  0  0  0  0  0  0  0  0  0  0  0  0  0  0  0  0  0  0  0
 ITRead=  0  0  0  0  0  0  0  0  0  0  0  0  0  0  0  0
 MicOpt= -1 -1 -1 -1 -1 -1 -1 -1 -1 -1 -1 -1 -1 -1 -1 -1 -1 -1 -1 -1
 MicOpt= -1 -1 -1 -1 -1 -1 -1 -1 -1 -1 -1 -1 -1 -1 -1 -1
 NAtoms=     36 NQM=       36 NQMF=       0 NMMI=      0 NMMIF=      0
                NMic=       0 NMicF=      0.
                    Isotopes and Nuclear Properties:
 (Nuclear quadrupole moments (NQMom) in fm**2, nuclear magnetic moments (NMagM)
  in nuclear magnetons)

  Atom         1           2           3           4           5           6           7           8           9          10
 IAtWgt=          12          32          14          12          12          32          12          16          16          12
 AtmWgt=  12.0000000  31.9720718  14.0030740  12.0000000  12.0000000  31.9720718  12.0000000  15.9949146  15.9949146  12.0000000
 NucSpn=           0           0           2           0           0           0           0           0           0           0
 AtZEff=  -0.0000000  -0.0000000  -0.0000000  -0.0000000  -0.0000000  -0.0000000  -0.0000000  -0.0000000  -0.0000000  -0.0000000
 NQMom=    0.0000000   0.0000000   2.0440000   0.0000000   0.0000000   0.0000000   0.0000000   0.0000000   0.0000000   0.0000000
 NMagM=    0.0000000   0.0000000   0.4037610   0.0000000   0.0000000   0.0000000   0.0000000   0.0000000   0.0000000   0.0000000
 AtZNuc=   6.0000000  16.0000000   7.0000000   6.0000000   6.0000000  16.0000000   6.0000000   8.0000000   8.0000000   6.0000000

  Atom        11          12          13          14          15          16          17          18          19          20
 IAtWgt=          12          12          12          12          12          12          12          16          16           1
 AtmWgt=  12.0000000  12.0000000  12.0000000  12.0000000  12.0000000  12.0000000  12.0000000  15.9949146  15.9949146   1.0078250
 NucSpn=           0           0           0           0           0           0           0           0           0           1
 AtZEff=  -0.0000000  -0.0000000  -0.0000000  -0.0000000  -0.0000000  -0.0000000  -0.0000000  -0.0000000  -0.0000000  -0.0000000
 NQMom=    0.0000000   0.0000000   0.0000000   0.0000000   0.0000000   0.0000000   0.0000000   0.0000000   0.0000000   0.0000000
 NMagM=    0.0000000   0.0000000   0.0000000   0.0000000   0.0000000   0.0000000   0.0000000   0.0000000   0.0000000   2.7928460
 AtZNuc=   6.0000000   6.0000000   6.0000000   6.0000000   6.0000000   6.0000000   6.0000000   8.0000000   8.0000000   1.0000000

  Atom        21          22          23          24          25          26          27          28          29          30
 IAtWgt=           1           1           1           1           1           1           1           1           1           1
 AtmWgt=   1.0078250   1.0078250   1.0078250   1.0078250   1.0078250   1.0078250   1.0078250   1.0078250   1.0078250   1.0078250
 NucSpn=           1           1           1           1           1           1           1           1           1           1
 AtZEff=  -0.0000000  -0.0000000  -0.0000000  -0.0000000  -0.0000000  -0.0000000  -0.0000000  -0.0000000  -0.0000000  -0.0000000
 NQMom=    0.0000000   0.0000000   0.0000000   0.0000000   0.0000000   0.0000000   0.0000000   0.0000000   0.0000000   0.0000000
 NMagM=    2.7928460   2.7928460   2.7928460   2.7928460   2.7928460   2.7928460   2.7928460   2.7928460   2.7928460   2.7928460
 AtZNuc=   1.0000000   1.0000000   1.0000000   1.0000000   1.0000000   1.0000000   1.0000000   1.0000000   1.0000000   1.0000000

  Atom        31          32          33          34          35          36
 IAtWgt=           1           1           1           1           1           1
 AtmWgt=   1.0078250   1.0078250   1.0078250   1.0078250   1.0078250   1.0078250
 NucSpn=           1           1           1           1           1           1
 AtZEff=  -0.0000000  -0.0000000  -0.0000000  -0.0000000  -0.0000000  -0.0000000
 NQMom=    0.0000000   0.0000000   0.0000000   0.0000000   0.0000000   0.0000000
 NMagM=    2.7928460   2.7928460   2.7928460   2.7928460   2.7928460   2.7928460
 AtZNuc=   1.0000000   1.0000000   1.0000000   1.0000000   1.0000000   1.0000000
 Leave Link  101 at Mon Sep 21 07:19:09 2020, MaxMem=  2147483648 cpu:               1.3 elap:               0.3
 (Enter /prod/apps/gaussian/g16b1/l103.exe)

 GradGradGradGradGradGradGradGradGradGradGradGradGradGradGradGradGradGrad
 Berny optimization.
 Initialization pass.
                           ----------------------------
                           !    Initial Parameters    !
                           ! (Angstroms and Degrees)  !
 --------------------------                            --------------------------
 ! Name  Definition              Value          Derivative Info.                !
 --------------------------------------------------------------------------------
 ! R1    R(1,2)                  1.7908         estimate D2E/DX2                !
 ! R2    R(1,20)                 1.0892         estimate D2E/DX2                !
 ! R3    R(1,21)                 1.0903         estimate D2E/DX2                !
 ! R4    R(1,22)                 1.0888         estimate D2E/DX2                !
 ! R5    R(2,3)                  1.6954         estimate D2E/DX2                !
 ! R6    R(2,18)                 1.474          estimate D2E/DX2                !
 ! R7    R(2,19)                 1.477          estimate D2E/DX2                !
 ! R8    R(3,4)                  1.4807         estimate D2E/DX2                !
 ! R9    R(3,23)                 1.0258         estimate D2E/DX2                !
 ! R10   R(4,5)                  1.5679         estimate D2E/DX2                !
 ! R11   R(4,7)                  1.5682         estimate D2E/DX2                !
 ! R12   R(4,10)                 1.5449         estimate D2E/DX2                !
 ! R13   R(5,6)                  1.82           estimate D2E/DX2                !
 ! R14   R(5,24)                 1.0877         estimate D2E/DX2                !
 ! R15   R(5,25)                 1.0876         estimate D2E/DX2                !
 ! R16   R(6,7)                  1.8202         estimate D2E/DX2                !
 ! R17   R(6,8)                  1.4745         estimate D2E/DX2                !
 ! R18   R(6,9)                  1.4778         estimate D2E/DX2                !
 ! R19   R(7,26)                 1.0882         estimate D2E/DX2                !
 ! R20   R(7,27)                 1.0904         estimate D2E/DX2                !
 ! R21   R(10,11)                1.5435         estimate D2E/DX2                !
 ! R22   R(10,28)                1.0937         estimate D2E/DX2                !
 ! R23   R(10,29)                1.0949         estimate D2E/DX2                !
 ! R24   R(11,12)                1.5159         estimate D2E/DX2                !
 ! R25   R(11,30)                1.0962         estimate D2E/DX2                !
 ! R26   R(11,31)                1.0954         estimate D2E/DX2                !
 ! R27   R(12,13)                1.4016         estimate D2E/DX2                !
 ! R28   R(12,17)                1.4034         estimate D2E/DX2                !
 ! R29   R(13,14)                1.3977         estimate D2E/DX2                !
 ! R30   R(13,32)                1.0861         estimate D2E/DX2                !
 ! R31   R(14,15)                1.3942         estimate D2E/DX2                !
 ! R32   R(14,33)                1.086          estimate D2E/DX2                !
 ! R33   R(15,16)                1.3979         estimate D2E/DX2                !
 ! R34   R(15,34)                1.0853         estimate D2E/DX2                !
 ! R35   R(16,17)                1.3947         estimate D2E/DX2                !
 ! R36   R(16,35)                1.085          estimate D2E/DX2                !
 ! R37   R(17,36)                1.0865         estimate D2E/DX2                !
 ! A1    A(2,1,20)             108.9612         estimate D2E/DX2                !
 ! A2    A(2,1,21)             105.9802         estimate D2E/DX2                !
 ! A3    A(2,1,22)             109.2155         estimate D2E/DX2                !
 ! A4    A(20,1,21)            110.6976         estimate D2E/DX2                !
 ! A5    A(20,1,22)            111.4941         estimate D2E/DX2                !
 ! A6    A(21,1,22)            110.3215         estimate D2E/DX2                !
 ! A7    A(1,2,3)               99.5672         estimate D2E/DX2                !
 ! A8    A(1,2,18)             109.872          estimate D2E/DX2                !
 ! A9    A(1,2,19)             108.8542         estimate D2E/DX2                !
 ! A10   A(3,2,18)             107.2265         estimate D2E/DX2                !
 ! A11   A(3,2,19)             113.5434         estimate D2E/DX2                !
 ! A12   A(18,2,19)            116.4475         estimate D2E/DX2                !
 ! A13   A(2,3,4)              119.8614         estimate D2E/DX2                !
 ! A14   A(2,3,23)             108.4788         estimate D2E/DX2                !
 ! A15   A(4,3,23)             110.2354         estimate D2E/DX2                !
 ! A16   A(3,4,5)              111.551          estimate D2E/DX2                !
 ! A17   A(3,4,7)              108.2109         estimate D2E/DX2                !
 ! A18   A(3,4,10)             115.4568         estimate D2E/DX2                !
 ! A19   A(5,4,7)               96.7136         estimate D2E/DX2                !
 ! A20   A(5,4,10)             110.6315         estimate D2E/DX2                !
 ! A21   A(7,4,10)             112.7295         estimate D2E/DX2                !
 ! A22   A(4,5,6)               90.0759         estimate D2E/DX2                !
 ! A23   A(4,5,24)             116.2821         estimate D2E/DX2                !
 ! A24   A(4,5,25)             113.6178         estimate D2E/DX2                !
 ! A25   A(6,5,24)             114.0371         estimate D2E/DX2                !
 ! A26   A(6,5,25)             109.9765         estimate D2E/DX2                !
 ! A27   A(24,5,25)            111.2035         estimate D2E/DX2                !
 ! A28   A(5,6,7)               80.1525         estimate D2E/DX2                !
 ! A29   A(5,6,8)              114.3615         estimate D2E/DX2                !
 ! A30   A(5,6,9)              111.9061         estimate D2E/DX2                !
 ! A31   A(7,6,8)              114.5538         estimate D2E/DX2                !
 ! A32   A(7,6,9)              111.6739         estimate D2E/DX2                !
 ! A33   A(8,6,9)              118.2234         estimate D2E/DX2                !
 ! A34   A(4,7,6)               90.0606         estimate D2E/DX2                !
 ! A35   A(4,7,26)             117.3354         estimate D2E/DX2                !
 ! A36   A(4,7,27)             112.719          estimate D2E/DX2                !
 ! A37   A(6,7,26)             113.7713         estimate D2E/DX2                !
 ! A38   A(6,7,27)             109.9518         estimate D2E/DX2                !
 ! A39   A(26,7,27)            111.2741         estimate D2E/DX2                !
 ! A40   A(4,10,11)            117.7264         estimate D2E/DX2                !
 ! A41   A(4,10,28)            107.7735         estimate D2E/DX2                !
 ! A42   A(4,10,29)            106.7263         estimate D2E/DX2                !
 ! A43   A(11,10,28)           110.227          estimate D2E/DX2                !
 ! A44   A(11,10,29)           107.1078         estimate D2E/DX2                !
 ! A45   A(28,10,29)           106.7184         estimate D2E/DX2                !
 ! A46   A(10,11,12)           117.2366         estimate D2E/DX2                !
 ! A47   A(10,11,30)           106.1138         estimate D2E/DX2                !
 ! A48   A(10,11,31)           109.5254         estimate D2E/DX2                !
 ! A49   A(12,11,30)           108.6655         estimate D2E/DX2                !
 ! A50   A(12,11,31)           108.8111         estimate D2E/DX2                !
 ! A51   A(30,11,31)           105.8874         estimate D2E/DX2                !
 ! A52   A(11,12,13)           120.7465         estimate D2E/DX2                !
 ! A53   A(11,12,17)           120.962          estimate D2E/DX2                !
 ! A54   A(13,12,17)           118.2745         estimate D2E/DX2                !
 ! A55   A(12,13,14)           121.0194         estimate D2E/DX2                !
 ! A56   A(12,13,32)           119.1776         estimate D2E/DX2                !
 ! A57   A(14,13,32)           119.8026         estimate D2E/DX2                !
 ! A58   A(13,14,15)           120.0664         estimate D2E/DX2                !
 ! A59   A(13,14,33)           119.7151         estimate D2E/DX2                !
 ! A60   A(15,14,33)           120.2168         estimate D2E/DX2                !
 ! A61   A(14,15,16)           119.5341         estimate D2E/DX2                !
 ! A62   A(14,15,34)           120.2957         estimate D2E/DX2                !
 ! A63   A(16,15,34)           120.1688         estimate D2E/DX2                !
 ! A64   A(15,16,17)           120.2184         estimate D2E/DX2                !
 ! A65   A(15,16,35)           120.039          estimate D2E/DX2                !
 ! A66   A(17,16,35)           119.7421         estimate D2E/DX2                !
 ! A67   A(12,17,16)           120.8802         estimate D2E/DX2                !
 ! A68   A(12,17,36)           119.4469         estimate D2E/DX2                !
 ! A69   A(16,17,36)           119.6724         estimate D2E/DX2                !
 ! D1    D(20,1,2,3)           -57.8226         estimate D2E/DX2                !
 ! D2    D(20,1,2,18)           54.5273         estimate D2E/DX2                !
 ! D3    D(20,1,2,19)         -176.8745         estimate D2E/DX2                !
 ! D4    D(21,1,2,3)          -176.9744         estimate D2E/DX2                !
 ! D5    D(21,1,2,18)          -64.6245         estimate D2E/DX2                !
 ! D6    D(21,1,2,19)           63.9737         estimate D2E/DX2                !
 ! D7    D(22,1,2,3)            64.1851         estimate D2E/DX2                !
 ! D8    D(22,1,2,18)          176.535          estimate D2E/DX2                !
 ! D9    D(22,1,2,19)          -54.8668         estimate D2E/DX2                !
 ! D10   D(1,2,3,4)           -175.3023         estimate D2E/DX2                !
 ! D11   D(1,2,3,23)           -47.5409         estimate D2E/DX2                !
 ! D12   D(18,2,3,4)            70.294          estimate D2E/DX2                !
 ! D13   D(18,2,3,23)         -161.9446         estimate D2E/DX2                !
 ! D14   D(19,2,3,4)           -59.7766         estimate D2E/DX2                !
 ! D15   D(19,2,3,23)           67.9848         estimate D2E/DX2                !
 ! D16   D(2,3,4,5)            -54.8622         estimate D2E/DX2                !
 ! D17   D(2,3,4,7)           -160.066          estimate D2E/DX2                !
 ! D18   D(2,3,4,10)            72.5532         estimate D2E/DX2                !
 ! D19   D(23,3,4,5)           178.1849         estimate D2E/DX2                !
 ! D20   D(23,3,4,7)            72.9811         estimate D2E/DX2                !
 ! D21   D(23,3,4,10)          -54.3998         estimate D2E/DX2                !
 ! D22   D(3,4,5,6)           -126.6524         estimate D2E/DX2                !
 ! D23   D(3,4,5,24)           116.2862         estimate D2E/DX2                !
 ! D24   D(3,4,5,25)           -14.7241         estimate D2E/DX2                !
 ! D25   D(7,4,5,6)            -14.0202         estimate D2E/DX2                !
 ! D26   D(7,4,5,24)          -131.0816         estimate D2E/DX2                !
 ! D27   D(7,4,5,25)            97.9081         estimate D2E/DX2                !
 ! D28   D(10,4,5,6)           103.3689         estimate D2E/DX2                !
 ! D29   D(10,4,5,24)          -13.6925         estimate D2E/DX2                !
 ! D30   D(10,4,5,25)         -144.7028         estimate D2E/DX2                !
 ! D31   D(3,4,7,6)            129.3653         estimate D2E/DX2                !
 ! D32   D(3,4,7,26)          -113.6146         estimate D2E/DX2                !
 ! D33   D(3,4,7,27)            17.6265         estimate D2E/DX2                !
 ! D34   D(5,4,7,6)             14.0186         estimate D2E/DX2                !
 ! D35   D(5,4,7,26)           131.0387         estimate D2E/DX2                !
 ! D36   D(5,4,7,27)           -97.7202         estimate D2E/DX2                !
 ! D37   D(10,4,7,6)          -101.7015         estimate D2E/DX2                !
 ! D38   D(10,4,7,26)           15.3186         estimate D2E/DX2                !
 ! D39   D(10,4,7,27)          146.5597         estimate D2E/DX2                !
 ! D40   D(3,4,10,11)           69.6749         estimate D2E/DX2                !
 ! D41   D(3,4,10,28)          -55.6807         estimate D2E/DX2                !
 ! D42   D(3,4,10,29)         -169.9964         estimate D2E/DX2                !
 ! D43   D(5,4,10,11)         -162.4501         estimate D2E/DX2                !
 ! D44   D(5,4,10,28)           72.1944         estimate D2E/DX2                !
 ! D45   D(5,4,10,29)          -42.1213         estimate D2E/DX2                !
 ! D46   D(7,4,10,11)          -55.4028         estimate D2E/DX2                !
 ! D47   D(7,4,10,28)          179.2416         estimate D2E/DX2                !
 ! D48   D(7,4,10,29)           64.9259         estimate D2E/DX2                !
 ! D49   D(4,5,6,7)             12.145          estimate D2E/DX2                !
 ! D50   D(4,5,6,8)            124.7506         estimate D2E/DX2                !
 ! D51   D(4,5,6,9)            -97.3798         estimate D2E/DX2                !
 ! D52   D(24,5,6,7)           131.1854         estimate D2E/DX2                !
 ! D53   D(24,5,6,8)          -116.209          estimate D2E/DX2                !
 ! D54   D(24,5,6,9)            21.6606         estimate D2E/DX2                !
 ! D55   D(25,5,6,7)          -103.1173         estimate D2E/DX2                !
 ! D56   D(25,5,6,8)             9.4883         estimate D2E/DX2                !
 ! D57   D(25,5,6,9)           147.3578         estimate D2E/DX2                !
 ! D58   D(5,6,7,4)            -12.1431         estimate D2E/DX2                !
 ! D59   D(5,6,7,26)          -132.2909         estimate D2E/DX2                !
 ! D60   D(5,6,7,27)           102.1407         estimate D2E/DX2                !
 ! D61   D(8,6,7,4)           -124.5375         estimate D2E/DX2                !
 ! D62   D(8,6,7,26)           115.3147         estimate D2E/DX2                !
 ! D63   D(8,6,7,27)           -10.2537         estimate D2E/DX2                !
 ! D64   D(9,6,7,4)             97.6417         estimate D2E/DX2                !
 ! D65   D(9,6,7,26)           -22.5062         estimate D2E/DX2                !
 ! D66   D(9,6,7,27)          -148.0745         estimate D2E/DX2                !
 ! D67   D(4,10,11,12)         -70.1024         estimate D2E/DX2                !
 ! D68   D(4,10,11,30)         168.3385         estimate D2E/DX2                !
 ! D69   D(4,10,11,31)          54.4613         estimate D2E/DX2                !
 ! D70   D(28,10,11,12)         54.0351         estimate D2E/DX2                !
 ! D71   D(28,10,11,30)        -67.5241         estimate D2E/DX2                !
 ! D72   D(28,10,11,31)        178.5988         estimate D2E/DX2                !
 ! D73   D(29,10,11,12)        169.768          estimate D2E/DX2                !
 ! D74   D(29,10,11,30)         48.2088         estimate D2E/DX2                !
 ! D75   D(29,10,11,31)        -65.6683         estimate D2E/DX2                !
 ! D76   D(10,11,12,13)        110.1705         estimate D2E/DX2                !
 ! D77   D(10,11,12,17)        -71.3527         estimate D2E/DX2                !
 ! D78   D(30,11,12,13)       -129.6062         estimate D2E/DX2                !
 ! D79   D(30,11,12,17)         48.8706         estimate D2E/DX2                !
 ! D80   D(31,11,12,13)        -14.7513         estimate D2E/DX2                !
 ! D81   D(31,11,12,17)        163.7256         estimate D2E/DX2                !
 ! D82   D(11,12,13,14)        179.498          estimate D2E/DX2                !
 ! D83   D(11,12,13,32)         -0.2683         estimate D2E/DX2                !
 ! D84   D(17,12,13,14)          0.981          estimate D2E/DX2                !
 ! D85   D(17,12,13,32)       -178.7853         estimate D2E/DX2                !
 ! D86   D(11,12,17,16)       -179.2988         estimate D2E/DX2                !
 ! D87   D(11,12,17,36)          0.4529         estimate D2E/DX2                !
 ! D88   D(13,12,17,16)         -0.7852         estimate D2E/DX2                !
 ! D89   D(13,12,17,36)        178.9665         estimate D2E/DX2                !
 ! D90   D(12,13,14,15)         -0.5115         estimate D2E/DX2                !
 ! D91   D(12,13,14,33)        179.9576         estimate D2E/DX2                !
 ! D92   D(32,13,14,15)        179.2534         estimate D2E/DX2                !
 ! D93   D(32,13,14,33)         -0.2775         estimate D2E/DX2                !
 ! D94   D(13,14,15,16)         -0.1756         estimate D2E/DX2                !
 ! D95   D(13,14,15,34)       -179.7438         estimate D2E/DX2                !
 ! D96   D(33,14,15,16)        179.353          estimate D2E/DX2                !
 ! D97   D(33,14,15,34)         -0.2153         estimate D2E/DX2                !
 ! D98   D(14,15,16,17)          0.3685         estimate D2E/DX2                !
 ! D99   D(14,15,16,35)       -179.3767         estimate D2E/DX2                !
 ! D100  D(34,15,16,17)        179.9374         estimate D2E/DX2                !
 ! D101  D(34,15,16,35)          0.1921         estimate D2E/DX2                !
 ! D102  D(15,16,17,12)          0.1205         estimate D2E/DX2                !
 ! D103  D(15,16,17,36)       -179.6306         estimate D2E/DX2                !
 ! D104  D(35,16,17,12)        179.8666         estimate D2E/DX2                !
 ! D105  D(35,16,17,36)          0.1154         estimate D2E/DX2                !
 --------------------------------------------------------------------------------
 Trust Radius=3.00D-01 FncErr=1.00D-07 GrdErr=1.00D-06 EigMax=2.50D+02 EigMin=1.00D-04
 Number of steps in this run=    216 maximum allowed number of steps=    216.
 GradGradGradGradGradGradGradGradGradGradGradGradGradGradGradGradGradGrad

 Leave Link  103 at Mon Sep 21 07:19:09 2020, MaxMem=  2147483648 cpu:               0.1 elap:               0.0
 (Enter /prod/apps/gaussian/g16b1/l202.exe)
                          Input orientation:                          
 ---------------------------------------------------------------------
 Center     Atomic      Atomic             Coordinates (Angstroms)
 Number     Number       Type             X           Y           Z
 ---------------------------------------------------------------------
      1          6           0        1.523000    2.774000    1.105000
      2         16           0        0.382000    2.178000   -0.140000
      3          7           0       -0.136000    0.750000    0.613000
      4          6           0       -1.044000   -0.174000   -0.104000
      5          6           0       -2.339000    0.559000   -0.598000
      6         16           0       -3.367000   -0.694000    0.230000
      7          6           0       -1.746000   -1.092000    0.956000
      8          8           0       -4.347000   -0.143000    1.184000
      9          8           0       -3.818000   -1.744000   -0.707000
     10          6           0       -0.400000   -0.977000   -1.256000
     11          6           0        0.619000   -2.075000   -0.884000
     12          6           0        1.959000   -1.622000   -0.339000
     13          6           0        2.295000   -1.835000    1.005000
     14          6           0        3.533000   -1.429000    1.511000
     15          6           0        4.461000   -0.811000    0.674000
     16          6           0        4.145000   -0.605000   -0.672000
     17          6           0        2.907000   -1.008000   -1.172000
     18          8           0       -0.784000    3.076000   -0.222000
     19          8           0        1.124000    1.947000   -1.396000
     20          1           0        0.989000    2.892000    2.047000
     21          1           0        1.885000    3.737000    0.744000
     22          1           0        2.349000    2.071000    1.200000
     23          1           0        0.689000    0.244000    0.953000
     24          1           0       -2.483000    0.609000   -1.675000
     25          1           0       -2.493000    1.531000   -0.135000
     26          1           0       -1.505000   -2.153000    0.936000
     27          1           0       -1.683000   -0.691000    1.968000
     28          1           0        0.051000   -0.262000   -1.950000
     29          1           0       -1.218000   -1.466000   -1.795000
     30          1           0        0.790000   -2.654000   -1.799000
     31          1           0        0.164000   -2.770000   -0.170000
     32          1           0        1.580000   -2.327000    1.658000
     33          1           0        3.771000   -1.604000    2.556000
     34          1           0        5.425000   -0.498000    1.062000
     35          1           0        4.865000   -0.134000   -1.333000
     36          1           0        2.673000   -0.849000   -2.221000
 ---------------------------------------------------------------------
                    Distance matrix (angstroms):
                    1          2          3          4          5
     1  C    0.000000
     2  S    1.790844   0.000000
     3  N    2.662878   1.695440   0.000000
     4  C    4.091684   2.750759   1.480652   0.000000
     5  C    4.766705   3.199182   2.521153   1.567913   0.000000
     6  S    6.058444   4.737118   3.559661   2.403806   1.819994
     7  C    5.065029   4.052468   2.470367   1.568161   2.343580
     8  O    6.555305   5.431709   4.342351   3.545379   2.774958
     9  O    7.226476   5.774389   4.638918   3.244008   2.739184
    10  C    4.831382   3.436714   2.558395   1.544878   2.559684
    11  C    5.318471   4.324085   3.285066   2.643439   3.971085
    12  C    4.647585   4.119045   3.304802   3.342146   4.826660
    13  C    4.674277   4.590726   3.570105   3.890723   5.456629
    14  C    4.676553   5.066069   4.360735   5.013200   6.548313
    15  C    4.655086   5.122007   4.855188   5.596077   7.052296
    16  C    4.631442   4.710444   4.670569   5.237758   6.588067
    17  C    4.626414   4.194192   3.941654   4.176910   5.505041
    18  O    2.678504   1.474003   2.554879   3.262518   2.982397
    19  O    2.664232   1.476977   2.656405   3.296685   3.815196
    20  H    1.089240   2.379331   2.812498   4.261484   4.849175
    21  H    1.090291   2.339005   3.608846   4.959240   5.453698
    22  H    1.088811   2.382465   2.874863   4.272340   5.243691
    23  H    2.668250   2.242600   1.025798   2.072501   3.416667
    24  H    5.335135   3.609184   3.280737   2.269769   1.087734
    25  H    4.383025   2.946907   2.593244   2.237764   1.087598
    26  H    5.785557   4.845215   3.225818   2.282666   3.225470
    27  H    4.798899   4.115708   2.511118   2.229079   2.928684
    28  H    4.551605   3.056020   2.761898   2.148135   2.866016
    29  H    5.822429   4.310193   3.446715   2.135186   2.605777
    30  H    6.199491   5.125131   4.273457   3.519514   4.642888
    31  H    5.848798   4.952891   3.618493   2.864059   4.186936
    32  H    5.131204   4.996302   3.674862   3.824321   5.364428
    33  H    5.130866   5.749544   4.957945   5.683725   7.208216
    34  H    5.092488   5.834178   5.716977   6.581223   8.009528
    35  H    5.056607   5.183231   5.438600   6.035588   7.274482
    36  H    5.050832   4.329200   4.298702   4.330520   5.453140
                    6          7          8          9         10
     6  S    0.000000
     7  C    1.820198   0.000000
     8  O    1.474489   2.778090   0.000000
     9  O    1.477792   2.735664   2.533559   0.000000
    10  C    3.330371   2.591888   4.714654   3.545760   0.000000
    11  C    4.363067   3.153587   5.715803   4.452848   1.543486
    12  C    5.436103   3.960423   6.653766   5.789995   2.611857
    13  C    5.827585   4.109030   6.856462   6.348858   3.620954
    14  C    7.056287   5.318781   7.990940   7.684787   4.830019
    15  C    7.841455   6.219754   8.848005   8.445087   5.232760
    16  C    7.566483   6.131185   8.704725   8.044123   4.597441
    17  C    6.436402   5.117211   7.675902   6.781117   3.308212
    18  O    4.592286   4.436818   5.003375   5.716011   4.200407
    19  O    5.457824   4.796282   6.399714   6.206574   3.300296
    20  H    5.927531   4.954065   6.199104   7.223867   5.273357
    21  H    6.890679   6.045523   7.354306   8.041826   5.607408
    22  H    6.423300   5.180070   7.052550   7.498184   4.783225
    23  H    4.225365   2.777432   5.056128   5.198153   2.748899
    24  H    2.471495   3.218498   3.494836   2.873301   2.651386
    25  H    2.418207   2.937417   2.824775   3.578887   3.453600
    26  H    2.468635   1.088210   3.489781   2.866479   2.721923
    27  H    2.420023   1.090373   2.830522   3.580874   3.481675
    28  H    4.076978   3.516098   5.401715   4.325567   1.093738
    29  H    3.052017   2.826068   4.518342   2.832142   1.094882
    30  H    5.023852   4.057236   6.449200   4.822264   2.126800
    31  H    4.115548   2.780586   5.392918   4.146971   2.170793
    32  H    5.401730   3.616670   6.334340   5.922121   3.772837
    33  H    7.562369   5.767099   8.361748   8.261942   5.685219
    34  H    8.833454   7.196340   9.779207   9.492888   6.287542
    35  H    8.397761   7.061346   9.549676   8.853161   5.332617
    36  H    6.520201   5.447930   7.834083   6.725050   3.223498
                   11         12         13         14         15
    11  C    0.000000
    12  C    1.515861   0.000000
    13  C    2.536710   1.401642   0.000000
    14  C    3.826844   2.436642   1.397682   0.000000
    15  C    4.334285   2.818491   2.418614   1.394158   0.000000
    16  C    3.826032   2.433880   2.783474   2.412262   1.397858
    17  C    2.540940   1.403420   2.407863   2.787043   2.421041
    18  O    5.379540   5.441410   5.924837   6.475709   6.589508
    19  O    4.085787   3.814739   4.630288   5.064712   4.798649
    20  H    5.779165   5.197123   5.013574   5.042844   5.258529
    21  H    6.167048   5.467837   5.593157   5.476472   5.227330
    22  H    4.952300   4.019810   3.911237   3.707907   3.611529
    23  H    2.959262   2.600792   2.627581   3.346435   3.926684
    24  H    4.177552   5.147195   5.998735   7.106075   7.466816
    25  H    4.821699   5.459243   5.962759   6.912568   7.382246
    26  H    2.798189   3.729193   3.813907   5.122133   6.120683
    27  H    3.917724   4.410575   4.249775   5.287736   6.279934
    28  H    2.178520   2.843481   4.030123   5.046259   5.160899
    29  H    2.139012   3.498228   4.507475   5.788178   6.227040
    30  H    1.096224   2.136161   3.286062   4.469986   4.794645
    31  H    1.095375   2.137403   2.606916   3.996774   4.797314
    32  H    2.729247   2.151436   1.086139   2.154582   3.400981
    33  H    4.689408   3.415361   2.153494   1.085953   2.155661
    34  H    5.419546   3.903759   3.404074   2.155928   1.085269
    35  H    4.690160   3.412772   3.868403   3.396996   2.156292
    36  H    2.740358   2.156212   3.394430   3.873477   3.402854
                   16         17         18         19         20
    16  C    0.000000
    17  C    1.394652   0.000000
    18  O    6.168250   5.586147   0.000000
    19  O    4.020363   3.458510   2.508661   0.000000
    20  H    5.438962   5.408390   2.885437   3.572884   0.000000
    21  H    5.095647   5.218291   2.914385   2.891854   1.792945
    22  H    3.727060   3.926575   3.584383   2.873189   1.800292
    23  H    3.912207   3.317025   3.401555   2.933809   2.880753
    24  H    6.812502   5.649761   3.329249   3.857270   5.578544
    25  H    6.993848   6.056558   2.305488   3.853033   4.328714
    26  H    6.074905   5.021995   5.404003   5.399987   5.736408
    27  H    6.398639   5.570295   4.449111   5.114175   4.470315
    28  H    4.302531   3.052628   3.850383   2.517524   5.177216
    29  H    5.546550   4.196846   4.826225   4.158453   6.214819
    30  H    4.089567   2.753931   6.147951   4.630677   6.751995
    31  H    4.559341   3.410674   5.922594   4.967370   6.136282
    32  H    3.869549   3.392579   6.189936   5.272753   5.266741
    33  H    3.399685   3.872944   7.097021   5.935867   5.311555
    34  H    2.157917   3.404582   7.278311   5.524345   5.669252
    35  H    1.084971   2.150247   6.591633   4.281309   5.966947
    36  H    2.150749   1.086480   5.599328   3.301158   5.920030
                   21         22         23         24         25
    21  H    0.000000
    22  H    1.788516   0.000000
    23  H    3.697992   2.480834   0.000000
    24  H    5.891975   5.809586   4.135359   0.000000
    25  H    4.980558   5.051613   3.600727   1.794933   0.000000
    26  H    6.798608   5.724088   3.249544   3.924595   3.961697
    27  H    5.816871   4.947271   2.744237   3.949867   3.164805
    28  H    5.158798   4.543808   3.015044   2.693589   3.602917
    29  H    6.568587   5.848409   3.756628   2.433156   3.655576
    30  H    6.964966   5.809484   3.997763   4.623319   5.573258
    31  H    6.792517   5.485108   3.258980   4.548546   5.055638
    32  H    6.140075   4.488154   2.810862   6.019714   5.889681
    33  H    5.946984   4.167307   3.934900   7.868370   7.503826
    34  H    5.528829   4.010060   4.795012   8.441154   8.261015
    35  H    5.308387   4.196233   4.775736   7.393383   7.638560
    36  H    5.517569   4.509392   3.899382   5.385928   6.058329
                   26         27         28         29         30
    26  H    0.000000
    27  H    1.798375   0.000000
    28  H    3.784972   4.305987   0.000000
    29  H    2.830671   3.870015   1.756133   0.000000
    30  H    3.605309   4.915220   2.508104   2.333115   0.000000
    31  H    2.095110   3.507805   3.077537   2.500193   1.748992
    32  H    3.173135   3.663300   4.429416   4.526956   3.561162
    33  H    5.546348   5.561064   5.995281   6.621206   5.380974
    34  H    7.125995   7.168106   6.165040   7.295815   5.858061
    35  H    7.057026   7.354125   4.855066   6.244242   4.813853
    36  H    5.396550   6.045446   2.700536   3.962581   2.642309
                   31         32         33         34         35
    31  H    0.000000
    32  H    2.354334   0.000000
    33  H    4.669163   2.475806   0.000000
    34  H    5.861564   4.299358   2.488170   0.000000
    35  H    5.513662   4.954448   4.299076   2.486387   0.000000
    36  H    3.767217   4.292525   4.959371   4.298231   2.470756
                   36
    36  H    0.000000
 Symmetry turned off by external request.
 Stoichiometry    C12H17NO4S2
 Framework group  C1[X(C12H17NO4S2)]
 Deg. of freedom   102
 Full point group                 C1      NOp   1
 Rotational constants (GHZ):           0.4904638           0.2262345           0.1813440
 Leave Link  202 at Mon Sep 21 07:19:09 2020, MaxMem=  2147483648 cpu:               0.0 elap:               0.0
 (Enter /prod/apps/gaussian/g16b1/l301.exe)
 Standard basis: 6-31G(d) (6D, 7F)
 Ernie: Thresh=  0.10000D-02 Tol=  0.10000D-05 Strict=F.
   327 basis functions,   648 primitive gaussians,   327 cartesian basis functions
    80 alpha electrons       80 beta electrons
       nuclear repulsion energy      1892.3124349181 Hartrees.
 IExCor=  402 DFT=T Ex+Corr=B3LYP ExCW=0 ScaHFX=  0.200000
 ScaDFX=  0.800000  0.720000  1.000000  0.810000 ScalE2=  1.000000  1.000000
 IRadAn=      5 IRanWt=     -1 IRanGd=            0 ICorTp=0 IEmpDi=  4
 NAtoms=   36 NActive=   36 NUniq=   36 SFac= 1.00D+00 NAtFMM=   60 NAOKFM=F Big=F
 Integral buffers will be    131072 words long.
 Raffenetti 2 integral format.
 Two-electron integral symmetry is turned off.
 Using the following non-standard input for PCM:
 MSTModel=DFT cav
 --- end of non-standard input.
 MST model for solvation energy: B3LYP parametrization.
 MST cavity parameters:
 ISph   IAn     Re0     Alpha   Atom Type   QCorr
 ------------------------------------------------
   1      6     1.50     1.25      CH3        F
   2     16     1.75     1.25      S          F
   3      7     1.50     1.25      NH         F
   4      6     1.50     1.25      C          F
   5      6     1.50     1.25      CH2        F
   6     16     1.75     1.25      S          F
   7      6     1.50     1.25      CH2        F
   8      8     1.40     1.25      O          F
   9      8     1.40     1.25      O          F
  10      6     1.50     1.25      CH2        F
  11      6     1.50     1.25      CH2        F
  12      6     1.50     1.25      C          F
  13      6     1.50     1.25      CH         F
  14      6     1.50     1.25      CH         F
  15      6     1.50     1.25      CH         F
  16      6     1.50     1.25      CH         F
  17      6     1.50     1.25      CH         F
  18      8     1.40     1.25      O          F
  19      8     1.40     1.25      O          F
  20      1     1.20     1.25      CH3        F
  21      1     1.20     1.25      CH3        F
  22      1     1.20     1.25      CH3        F
  23      1     0.90     1.25      NH         F
  24      1     1.20     1.25      CH2        F
  25      1     1.20     1.25      CH2        F
  26      1     1.20     1.25      CH2        F
  27      1     1.20     1.25      CH2        F
  28      1     1.20     1.25      CH2        F
  29      1     1.20     1.25      CH2        F
  30      1     1.20     1.25      CH2        F
  31      1     1.20     1.25      CH2        F
  32      1     1.20     1.25      CH         F
  33      1     1.20     1.25      CH         F
  34      1     1.20     1.25      CH         F
  35      1     1.20     1.25      CH         F
  36      1     1.20     1.25      CH         F
 ------------------------------------------------------------------------------
 Polarizable Continuum Model (PCM)
 =================================
 Model                : PCM.
 Atomic radii         : MST.
 Polarization charges : Total charges.
 Charge compensation  : None.
 Solution method      : On-the-fly selection.
 Cavity type          : Scaled VdW (van der Waals Surface) (Alpha=1.250).
 Cavity algorithm     : GePol (No added spheres)
                        Default sphere list used, NSphG=   36.
                        Lebedev-Laikov grids with approx.  5.0 points / Ang**2.
                        Smoothing algorithm: York/Karplus (Gamma=1.0000).
                        Polarization charges: spherical gaussians, with
                                              point-specific exponents (IZeta= 3).
                        Self-potential: point-specific (ISelfS= 7).
                        Self-field    : sphere-specific E.n sum rule (ISelfD= 2).
 1st derivatives      : Analytical E(r).r(x)/FMM algorithm (CHGder, D1EAlg=3).
                        Cavity 1st derivative terms included.
 Solvent              : Water, Eps=  78.355300 Eps(inf)=   1.777849
 ------------------------------------------------------------------------------
 GePol: Number of generator spheres                  =      36
 GePol: Total number of spheres                      =      36
 GePol: Number of exposed spheres                    =      36 (100.00%)
 GePol: Number of points                             =    2566
 GePol: Average weight of points                     =       0.13
 GePol: Minimum weight of points                     =   0.25D-11
 GePol: Maximum weight of points                     =    0.22001
 GePol: Number of points with low weight             =     193
 GePol: Fraction of low-weight points (<1% of avg)   =       7.52%
 GePol: Cavity surface area                          =    342.173 Ang**2
 GePol: Cavity volume                                =    337.246 Ang**3
 PCM non-electrostatic energy =         0.0030680479 Hartrees.
 Nuclear repulsion after PCM non-electrostatic terms =     1892.3155029660 Hartrees.
 Leave Link  301 at Mon Sep 21 07:19:09 2020, MaxMem=  2147483648 cpu:               0.3 elap:               0.1
 (Enter /prod/apps/gaussian/g16b1/l302.exe)
 NPDir=0 NMtPBC=     1 NCelOv=     1 NCel=       1 NClECP=     1 NCelD=      1
         NCelK=      1 NCelE2=     1 NClLst=     1 CellRange=     0.0.
 One-electron integrals computed using PRISM.
 NBasis=   327 RedAO= T EigKep=  4.70D-04  NBF=   327
 NBsUse=   327 1.00D-06 EigRej= -1.00D+00 NBFU=   327
 Precomputing XC quadrature grid using
 IXCGrd= 4 IRadAn=           5 IRanWt=          -1 IRanGd=           0 AccXCQ= 0.00D+00.
 Generated NRdTot=       0 NPtTot=           0 NUsed=           0 NTot=          32
 NSgBfM=   325   325   325   325   325 MxSgAt=    36 MxSgA2=    36.
 Leave Link  302 at Mon Sep 21 07:19:10 2020, MaxMem=  2147483648 cpu:               1.8 elap:               0.5
 (Enter /prod/apps/gaussian/g16b1/l303.exe)
 DipDrv:  MaxL=1.
 Leave Link  303 at Mon Sep 21 07:19:10 2020, MaxMem=  2147483648 cpu:               0.2 elap:               0.1
 (Enter /prod/apps/gaussian/g16b1/l401.exe)
 ExpMin= 1.17D-01 ExpMax= 2.19D+04 ExpMxC= 3.30D+03 IAcc=3 IRadAn=         5 AccDes= 0.00D+00
 Harris functional with IExCor=  402 and IRadAn=       5 diagonalized for initial guess.
 HarFok:  IExCor=  402 AccDes= 0.00D+00 IRadAn=         5 IDoV= 1 UseB2=F ITyADJ=14
 ICtDFT=  3500011 ScaDFX=  1.000000  1.000000  1.000000  1.000000
 FoFCou: FMM=F IPFlag=           0 FMFlag=      100000 FMFlg1=           0
         NFxFlg=           0 DoJE=T BraDBF=F KetDBF=T FulRan=T
         wScrn=  0.000000 ICntrl=       500 IOpCl=  0 I1Cent=   200000004 NGrid=           0
         NMat0=    1 NMatS0=      1 NMatT0=    0 NMatD0=    1 NMtDS0=    0 NMtDT0=    0
 Symmetry not used in FoFCou.
 Harris En= -1619.48896590469    
 JPrj=0 DoOrth=F DoCkMO=F.
 Leave Link  401 at Mon Sep 21 07:19:13 2020, MaxMem=  2147483648 cpu:              11.3 elap:               2.9
 (Enter /prod/apps/gaussian/g16b1/l502.exe)
 Two-electron integral symmetry not used.
 Closed shell SCF:
 Using DIIS extrapolation, IDIIS=  1040.
 NGot=  2147483648 LenX=  2147264911 LenY=  2147157541
 Requested convergence on RMS density matrix=1.00D-08 within2000 cycles.
 Requested convergence on MAX density matrix=1.00D-06.
 Requested convergence on             energy=1.00D-06.
 No special actions if energy rises.

 Cycle   1  Pass 1  IDiag  1:
 FoFJK:  IHMeth= 1 ICntrl=       0 DoSepK=F KAlg= 0 I1Cent=           0 FoldK=F
 IRaf= 840000000 NMat=       1 IRICut=       1 DoRegI=T DoRafI=F ISym2E= 0 IDoP0=0 IntGTp=1.
 FoFCou: FMM=F IPFlag=           0 FMFlag=      100000 FMFlg1=           0
         NFxFlg=           0 DoJE=F BraDBF=F KetDBF=F FulRan=T
         wScrn=  0.000000 ICntrl=         0 IOpCl=  0 I1Cent=           0 NGrid=           0
         NMat0=    1 NMatS0=      1 NMatT0=    0 NMatD0=    1 NMtDS0=    0 NMtDT0=    0
 Symmetry not used in FoFCou.
 Inv3:  Mode=1 IEnd=    19753068.
 Iteration    1 A*A^-1 deviation from unit magnitude is 3.33D-15 for   1491.
 Iteration    1 A*A^-1 deviation from orthogonality  is 3.50D-15 for   1880    615.
 Iteration    1 A^-1*A deviation from unit magnitude is 3.66D-15 for   1491.
 Iteration    1 A^-1*A deviation from orthogonality  is 3.19D-13 for   1667   1611.
 E= -1618.65465146719    
 DIIS: error= 3.83D-02 at cycle   1 NSaved=   1.
 NSaved= 1 IEnMin= 1 EnMin= -1618.65465146719     IErMin= 1 ErrMin= 3.83D-02
 ErrMax= 3.83D-02  0.00D+00 EMaxC= 1.00D-01 BMatC= 9.07D-01 BMatP= 9.07D-01
 IDIUse=3 WtCom= 6.17D-01 WtEn= 3.83D-01
 Coeff-Com:  0.100D+01
 Coeff-En:   0.100D+01
 Coeff:      0.100D+01
 Gap=     0.316 Goal=   None    Shift=    0.000
 GapD=    0.316 DampG=1.000 DampE=0.500 DampFc=0.5000 IDamp=-1.
 Damping current iteration by 5.00D-01
 RMSDP=6.88D-03 MaxDP=5.48D-01              OVMax= 2.33D-01

 Cycle   2  Pass 1  IDiag  1:
 E= -1618.87256672395     Delta-E=       -0.217915256766 Rises=F Damp=T
 DIIS: error= 1.36D-02 at cycle   2 NSaved=   2.
 NSaved= 2 IEnMin= 2 EnMin= -1618.87256672395     IErMin= 2 ErrMin= 1.36D-02
 ErrMax= 1.36D-02  0.00D+00 EMaxC= 1.00D-01 BMatC= 1.10D-01 BMatP= 9.07D-01
 IDIUse=3 WtCom= 8.64D-01 WtEn= 1.36D-01
 Coeff-Com:  0.210D+00 0.790D+00
 Coeff-En:   0.338D+00 0.662D+00
 Coeff:      0.227D+00 0.773D+00
 Gap=     0.273 Goal=   None    Shift=    0.000
 RMSDP=1.79D-03 MaxDP=1.07D-01 DE=-2.18D-01 OVMax= 1.72D-01

 Cycle   3  Pass 1  IDiag  1:
 E= -1619.36094651113     Delta-E=       -0.488379787172 Rises=F Damp=F
 DIIS: error= 8.73D-03 at cycle   3 NSaved=   3.
 NSaved= 3 IEnMin= 3 EnMin= -1619.36094651113     IErMin= 3 ErrMin= 8.73D-03
 ErrMax= 8.73D-03  0.00D+00 EMaxC= 1.00D-01 BMatC= 6.00D-02 BMatP= 1.10D-01
 IDIUse=3 WtCom= 9.13D-01 WtEn= 8.73D-02
 Coeff-Com:  0.765D-01 0.437D+00 0.487D+00
 Coeff-En:   0.000D+00 0.000D+00 0.100D+01
 Coeff:      0.698D-01 0.399D+00 0.532D+00
 Gap=     0.239 Goal=   None    Shift=    0.000
 RMSDP=1.01D-03 MaxDP=3.06D-02 DE=-4.88D-01 OVMax= 6.46D-02

 Cycle   4  Pass 1  IDiag  1:
 E= -1619.40949519639     Delta-E=       -0.048548685264 Rises=F Damp=F
 DIIS: error= 2.53D-03 at cycle   4 NSaved=   4.
 NSaved= 4 IEnMin= 4 EnMin= -1619.40949519639     IErMin= 4 ErrMin= 2.53D-03
 ErrMax= 2.53D-03  0.00D+00 EMaxC= 1.00D-01 BMatC= 7.12D-03 BMatP= 6.00D-02
 IDIUse=3 WtCom= 9.75D-01 WtEn= 2.53D-02
 Coeff-Com:  0.340D-02 0.677D-01 0.271D+00 0.658D+00
 Coeff-En:   0.000D+00 0.000D+00 0.849D-01 0.915D+00
 Coeff:      0.331D-02 0.660D-01 0.266D+00 0.664D+00
 Gap=     0.237 Goal=   None    Shift=    0.000
 RMSDP=3.09D-04 MaxDP=1.36D-02 DE=-4.85D-02 OVMax= 2.06D-02

 Cycle   5  Pass 1  IDiag  1:
 E= -1619.41540069129     Delta-E=       -0.005905494899 Rises=F Damp=F
 DIIS: error= 6.25D-04 at cycle   5 NSaved=   5.
 NSaved= 5 IEnMin= 5 EnMin= -1619.41540069129     IErMin= 5 ErrMin= 6.25D-04
 ErrMax= 6.25D-04  0.00D+00 EMaxC= 1.00D-01 BMatC= 5.23D-04 BMatP= 7.12D-03
 IDIUse=3 WtCom= 9.94D-01 WtEn= 6.25D-03
 Coeff-Com: -0.210D-02 0.142D-01 0.112D+00 0.348D+00 0.527D+00
 Coeff-En:   0.000D+00 0.000D+00 0.000D+00 0.000D+00 0.100D+01
 Coeff:     -0.208D-02 0.142D-01 0.112D+00 0.346D+00 0.530D+00
 Gap=     0.237 Goal=   None    Shift=    0.000
 RMSDP=8.80D-05 MaxDP=4.85D-03 DE=-5.91D-03 OVMax= 5.24D-03

 Cycle   6  Pass 1  IDiag  1:
 E= -1619.41585280637     Delta-E=       -0.000452115078 Rises=F Damp=F
 DIIS: error= 2.20D-04 at cycle   6 NSaved=   6.
 NSaved= 6 IEnMin= 6 EnMin= -1619.41585280637     IErMin= 6 ErrMin= 2.20D-04
 ErrMax= 2.20D-04  0.00D+00 EMaxC= 1.00D-01 BMatC= 3.87D-05 BMatP= 5.23D-04
 IDIUse=3 WtCom= 9.98D-01 WtEn= 2.20D-03
 Coeff-Com: -0.131D-02 0.247D-02 0.374D-01 0.126D+00 0.278D+00 0.557D+00
 Coeff-En:   0.000D+00 0.000D+00 0.000D+00 0.000D+00 0.000D+00 0.100D+01
 Coeff:     -0.131D-02 0.247D-02 0.373D-01 0.126D+00 0.278D+00 0.558D+00
 Gap=     0.237 Goal=   None    Shift=    0.000
 RMSDP=2.21D-05 MaxDP=1.03D-03 DE=-4.52D-04 OVMax= 1.29D-03

 Cycle   7  Pass 1  IDiag  1:
 E= -1619.41588129404     Delta-E=       -0.000028487670 Rises=F Damp=F
 DIIS: error= 8.75D-05 at cycle   7 NSaved=   7.
 NSaved= 7 IEnMin= 7 EnMin= -1619.41588129404     IErMin= 7 ErrMin= 8.75D-05
 ErrMax= 8.75D-05  0.00D+00 EMaxC= 1.00D-01 BMatC= 4.89D-06 BMatP= 3.87D-05
 IDIUse=1 WtCom= 1.00D+00 WtEn= 0.00D+00
 Coeff-Com: -0.585D-03 0.927D-04 0.113D-01 0.408D-01 0.114D+00 0.327D+00
 Coeff-Com:  0.507D+00
 Coeff:     -0.585D-03 0.927D-04 0.113D-01 0.408D-01 0.114D+00 0.327D+00
 Coeff:      0.507D+00
 Gap=     0.237 Goal=   None    Shift=    0.000
 RMSDP=7.60D-06 MaxDP=4.04D-04 DE=-2.85D-05 OVMax= 4.58D-04

 Cycle   8  Pass 1  IDiag  1:
 E= -1619.41588487916     Delta-E=       -0.000003585127 Rises=F Damp=F
 DIIS: error= 2.78D-05 at cycle   8 NSaved=   8.
 NSaved= 8 IEnMin= 8 EnMin= -1619.41588487916     IErMin= 8 ErrMin= 2.78D-05
 ErrMax= 2.78D-05  0.00D+00 EMaxC= 1.00D-01 BMatC= 4.54D-07 BMatP= 4.89D-06
 IDIUse=1 WtCom= 1.00D+00 WtEn= 0.00D+00
 Coeff-Com: -0.194D-03-0.223D-03 0.222D-02 0.899D-02 0.345D-01 0.124D+00
 Coeff-Com:  0.287D+00 0.544D+00
 Coeff:     -0.194D-03-0.223D-03 0.222D-02 0.899D-02 0.345D-01 0.124D+00
 Coeff:      0.287D+00 0.544D+00
 Gap=     0.237 Goal=   None    Shift=    0.000
 RMSDP=2.39D-06 MaxDP=1.19D-04 DE=-3.59D-06 OVMax= 1.28D-04

 Cycle   9  Pass 1  IDiag  1:
 E= -1619.41588520813     Delta-E=       -0.000000328969 Rises=F Damp=F
 DIIS: error= 5.90D-06 at cycle   9 NSaved=   9.
 NSaved= 9 IEnMin= 9 EnMin= -1619.41588520813     IErMin= 9 ErrMin= 5.90D-06
 ErrMax= 5.90D-06  0.00D+00 EMaxC= 1.00D-01 BMatC= 3.91D-08 BMatP= 4.54D-07
 IDIUse=1 WtCom= 1.00D+00 WtEn= 0.00D+00
 Coeff-Com: -0.253D-04-0.104D-03-0.373D-03-0.846D-03 0.240D-02 0.192D-01
 Coeff-Com:  0.767D-01 0.278D+00 0.625D+00
 Coeff:     -0.253D-04-0.104D-03-0.373D-03-0.846D-03 0.240D-02 0.192D-01
 Coeff:      0.767D-01 0.278D+00 0.625D+00
 Gap=     0.237 Goal=   None    Shift=    0.000
 RMSDP=6.44D-07 MaxDP=3.57D-05 DE=-3.29D-07 OVMax= 2.59D-05

 Cycle  10  Pass 1  IDiag  1:
 E= -1619.41588524097     Delta-E=       -0.000000032836 Rises=F Damp=F
 DIIS: error= 1.70D-06 at cycle  10 NSaved=  10.
 NSaved=10 IEnMin=10 EnMin= -1619.41588524097     IErMin=10 ErrMin= 1.70D-06
 ErrMax= 1.70D-06  0.00D+00 EMaxC= 1.00D-01 BMatC= 1.18D-09 BMatP= 3.91D-08
 IDIUse=1 WtCom= 1.00D+00 WtEn= 0.00D+00
 Coeff-Com: -0.689D-05-0.253D-04-0.237D-03-0.647D-03-0.181D-03 0.360D-02
 Coeff-Com:  0.221D-01 0.976D-01 0.257D+00 0.621D+00
 Coeff:     -0.689D-05-0.253D-04-0.237D-03-0.647D-03-0.181D-03 0.360D-02
 Coeff:      0.221D-01 0.976D-01 0.257D+00 0.621D+00
 Gap=     0.237 Goal=   None    Shift=    0.000
 RMSDP=1.37D-07 MaxDP=7.61D-06 DE=-3.28D-08 OVMax= 5.53D-06

 Cycle  11  Pass 1  IDiag  1:
 E= -1619.41588524172     Delta-E=       -0.000000000754 Rises=F Damp=F
 DIIS: error= 6.30D-07 at cycle  11 NSaved=  11.
 NSaved=11 IEnMin=11 EnMin= -1619.41588524172     IErMin=11 ErrMin= 6.30D-07
 ErrMax= 6.30D-07  0.00D+00 EMaxC= 1.00D-01 BMatC= 2.83D-10 BMatP= 1.18D-09
 IDIUse=1 WtCom= 1.00D+00 WtEn= 0.00D+00
 Coeff-Com: -0.222D-05-0.443D-06-0.104D-03-0.286D-03-0.435D-03-0.347D-03
 Coeff-Com:  0.340D-02 0.223D-01 0.700D-01 0.352D+00 0.553D+00
 Coeff:     -0.222D-05-0.443D-06-0.104D-03-0.286D-03-0.435D-03-0.347D-03
 Coeff:      0.340D-02 0.223D-01 0.700D-01 0.352D+00 0.553D+00
 Gap=     0.237 Goal=   None    Shift=    0.000
 RMSDP=5.77D-08 MaxDP=3.27D-06 DE=-7.54D-10 OVMax= 3.33D-06

 Cycle  12  Pass 1  IDiag  1:
 E= -1619.41588524191     Delta-E=       -0.000000000191 Rises=F Damp=F
 DIIS: error= 2.59D-07 at cycle  12 NSaved=  12.
 NSaved=12 IEnMin=12 EnMin= -1619.41588524191     IErMin=12 ErrMin= 2.59D-07
 ErrMax= 2.59D-07  0.00D+00 EMaxC= 1.00D-01 BMatC= 3.80D-11 BMatP= 2.83D-10
 IDIUse=1 WtCom= 1.00D+00 WtEn= 0.00D+00
 Coeff-Com: -0.982D-06 0.290D-05-0.412D-04-0.110D-03-0.261D-03-0.648D-03
 Coeff-Com: -0.400D-03 0.283D-02 0.140D-01 0.144D+00 0.334D+00 0.507D+00
 Coeff:     -0.982D-06 0.290D-05-0.412D-04-0.110D-03-0.261D-03-0.648D-03
 Coeff:     -0.400D-03 0.283D-02 0.140D-01 0.144D+00 0.334D+00 0.507D+00
 Gap=     0.237 Goal=   None    Shift=    0.000
 RMSDP=2.03D-08 MaxDP=9.43D-07 DE=-1.91D-10 OVMax= 1.07D-06

 Cycle  13  Pass 1  IDiag  1:
 E= -1619.41588524198     Delta-E=       -0.000000000069 Rises=F Damp=F
 DIIS: error= 7.66D-08 at cycle  13 NSaved=  13.
 NSaved=13 IEnMin=13 EnMin= -1619.41588524198     IErMin=13 ErrMin= 7.66D-08
 ErrMax= 7.66D-08  0.00D+00 EMaxC= 1.00D-01 BMatC= 2.14D-12 BMatP= 3.80D-11
 IDIUse=1 WtCom= 1.00D+00 WtEn= 0.00D+00
 Coeff-Com: -0.365D-06 0.173D-05-0.107D-04-0.271D-04-0.885D-04-0.293D-03
 Coeff-Com: -0.540D-03-0.825D-03-0.356D-03 0.338D-01 0.106D+00 0.252D+00
 Coeff-Com:  0.610D+00
 Coeff:     -0.365D-06 0.173D-05-0.107D-04-0.271D-04-0.885D-04-0.293D-03
 Coeff:     -0.540D-03-0.825D-03-0.356D-03 0.338D-01 0.106D+00 0.252D+00
 Coeff:      0.610D+00
 Gap=     0.237 Goal=   None    Shift=    0.000
 RMSDP=5.00D-09 MaxDP=2.64D-07 DE=-6.87D-11 OVMax= 2.67D-07

 Error on total polarization charges =  0.01801
 SCF Done:  E(RB3LYP) =  -1619.41588524     A.U. after   13 cycles
            NFock= 13  Conv=0.50D-08     -V/T= 2.0066
 KE= 1.608777431882D+03 PE=-7.590360562888D+03 EE= 2.469851742799D+03
 Leave Link  502 at Mon Sep 21 07:20:49 2020, MaxMem=  2147483648 cpu:             386.1 elap:              96.6
 (Enter /prod/apps/gaussian/g16b1/l601.exe)
 Copying SCF densities to generalized density rwf, IOpCl= 0 IROHF=0.

 **********************************************************************

            Population analysis using the SCF Density.

 **********************************************************************

 Alpha  occ. eigenvalues --  -89.12439 -89.09830 -19.15647 -19.15424 -19.15336
 Alpha  occ. eigenvalues --  -19.15299 -14.37553 -10.27568 -10.22908 -10.22668
 Alpha  occ. eigenvalues --  -10.22527 -10.19954 -10.19721 -10.19366 -10.19192
 Alpha  occ. eigenvalues --  -10.19165 -10.19026 -10.19006 -10.18933  -8.15032
 Alpha  occ. eigenvalues --   -8.12905  -6.11526  -6.11441  -6.11323  -6.09355
 Alpha  occ. eigenvalues --   -6.09255  -6.09156  -1.11845  -1.10754  -1.00560
 Alpha  occ. eigenvalues --   -1.00477  -0.94686  -0.86099  -0.85710  -0.79243
 Alpha  occ. eigenvalues --   -0.77744  -0.74517  -0.73749  -0.72370  -0.67747
 Alpha  occ. eigenvalues --   -0.63977  -0.61060  -0.60536  -0.58277  -0.56662
 Alpha  occ. eigenvalues --   -0.54422  -0.52099  -0.51335  -0.50526  -0.48831
 Alpha  occ. eigenvalues --   -0.48578  -0.47920  -0.46492  -0.46239  -0.45267
 Alpha  occ. eigenvalues --   -0.44854  -0.44242  -0.43967  -0.43424  -0.41995
 Alpha  occ. eigenvalues --   -0.41929  -0.41301  -0.39392  -0.38934  -0.38126
 Alpha  occ. eigenvalues --   -0.36261  -0.35944  -0.34595  -0.34305  -0.33679
 Alpha  occ. eigenvalues --   -0.33192  -0.32896  -0.32625  -0.31979  -0.31107
 Alpha  occ. eigenvalues --   -0.30783  -0.29622  -0.27262  -0.25342  -0.24462
 Alpha virt. eigenvalues --   -0.00750  -0.00453   0.03003   0.03564   0.04915
 Alpha virt. eigenvalues --    0.05801   0.07344   0.07943   0.08940   0.09205
 Alpha virt. eigenvalues --    0.09609   0.10287   0.10656   0.11704   0.13302
 Alpha virt. eigenvalues --    0.13925   0.14426   0.15281   0.15641   0.16103
 Alpha virt. eigenvalues --    0.16391   0.16993   0.17594   0.18047   0.18985
 Alpha virt. eigenvalues --    0.19464   0.20079   0.21060   0.21423   0.23271
 Alpha virt. eigenvalues --    0.23728   0.26602   0.27221   0.30030   0.30738
 Alpha virt. eigenvalues --    0.32493   0.33648   0.34071   0.34461   0.35690
 Alpha virt. eigenvalues --    0.36408   0.39838   0.40511   0.42419   0.43513
 Alpha virt. eigenvalues --    0.45089   0.46742   0.48665   0.49372   0.49848
 Alpha virt. eigenvalues --    0.52516   0.53124   0.53776   0.54617   0.55499
 Alpha virt. eigenvalues --    0.56438   0.57894   0.58119   0.58894   0.59318
 Alpha virt. eigenvalues --    0.59897   0.60479   0.60689   0.60931   0.61482
 Alpha virt. eigenvalues --    0.62738   0.62949   0.64230   0.65832   0.67777
 Alpha virt. eigenvalues --    0.69019   0.71143   0.71618   0.72653   0.74012
 Alpha virt. eigenvalues --    0.74874   0.77020   0.77952   0.78945   0.79255
 Alpha virt. eigenvalues --    0.80331   0.80512   0.81320   0.83417   0.84080
 Alpha virt. eigenvalues --    0.84333   0.84944   0.85330   0.86194   0.86312
 Alpha virt. eigenvalues --    0.86972   0.87628   0.88146   0.88618   0.88996
 Alpha virt. eigenvalues --    0.89992   0.91149   0.91878   0.92428   0.93443
 Alpha virt. eigenvalues --    0.94064   0.94966   0.96280   0.96703   0.98019
 Alpha virt. eigenvalues --    0.99474   1.00024   1.00825   1.01881   1.03355
 Alpha virt. eigenvalues --    1.04245   1.05675   1.06627   1.08159   1.08832
 Alpha virt. eigenvalues --    1.09636   1.11935   1.13516   1.13894   1.15124
 Alpha virt. eigenvalues --    1.16248   1.17036   1.17689   1.18714   1.21481
 Alpha virt. eigenvalues --    1.22377   1.23056   1.24666   1.26476   1.27996
 Alpha virt. eigenvalues --    1.28464   1.31216   1.34217   1.39497   1.41562
 Alpha virt. eigenvalues --    1.42931   1.43830   1.44755   1.46657   1.48223
 Alpha virt. eigenvalues --    1.49435   1.50132   1.50926   1.51497   1.54191
 Alpha virt. eigenvalues --    1.61498   1.62226   1.66706   1.69496   1.69989
 Alpha virt. eigenvalues --    1.71827   1.72984   1.74312   1.76784   1.77316
 Alpha virt. eigenvalues --    1.78259   1.79048   1.79682   1.79834   1.79946
 Alpha virt. eigenvalues --    1.80341   1.81183   1.81595   1.83493   1.83698
 Alpha virt. eigenvalues --    1.84504   1.86764   1.88062   1.88910   1.89936
 Alpha virt. eigenvalues --    1.91912   1.92588   1.94071   1.96709   1.97671
 Alpha virt. eigenvalues --    1.98539   2.01521   2.03113   2.04116   2.05245
 Alpha virt. eigenvalues --    2.06285   2.06794   2.08310   2.09205   2.11110
 Alpha virt. eigenvalues --    2.13337   2.14158   2.14621   2.15105   2.16756
 Alpha virt. eigenvalues --    2.18158   2.18821   2.19549   2.20694   2.22465
 Alpha virt. eigenvalues --    2.25597   2.26723   2.27033   2.28432   2.29594
 Alpha virt. eigenvalues --    2.30841   2.31405   2.34130   2.36829   2.39122
 Alpha virt. eigenvalues --    2.41295   2.42866   2.45150   2.51706   2.52144
 Alpha virt. eigenvalues --    2.57957   2.58579   2.64984   2.68246   2.70460
 Alpha virt. eigenvalues --    2.71807   2.72190   2.72609   2.74051   2.75072
 Alpha virt. eigenvalues --    2.76277   2.78065   2.80920   2.81223   2.86927
 Alpha virt. eigenvalues --    2.89129   3.05266   3.40662   3.78972   3.81742
 Alpha virt. eigenvalues --    3.85814   3.94447   3.95859   3.97920   4.08581
 Alpha virt. eigenvalues --    4.10273   4.13748   4.14438   4.21232   4.23507
 Alpha virt. eigenvalues --    4.25318   4.33249   4.35087   4.43325   4.52291
 Alpha virt. eigenvalues --    4.70177   4.74005
          Condensed to atoms (all electrons):
               1          2          3          4          5          6
     1  C    5.562449   0.206534  -0.056224   0.003633  -0.000163   0.000017
     2  S    0.206534  13.678895   0.136750  -0.013292  -0.008579   0.000175
     3  N   -0.056224   0.136750   7.351972   0.286701  -0.044854   0.004136
     4  C    0.003633  -0.013292   0.286701   4.846922   0.339946  -0.093756
     5  C   -0.000163  -0.008579  -0.044854   0.339946   5.703732   0.141946
     6  S    0.000017   0.000175   0.004136  -0.093756   0.141946  13.868393
     7  C   -0.000197   0.000530  -0.054757   0.339124  -0.172983   0.134443
     8  O   -0.000000  -0.000027  -0.000163   0.003070  -0.046261   0.435505
     9  O   -0.000000  -0.000005  -0.000036   0.001451  -0.045997   0.410119
    10  C   -0.000207  -0.005365  -0.064766   0.358044  -0.053183   0.009057
    11  C    0.000026  -0.000976  -0.002491  -0.033479   0.003871  -0.000643
    12  C   -0.000056   0.000893   0.000199  -0.004299   0.000041   0.000001
    13  C    0.000005  -0.000232  -0.003486   0.001447  -0.000013   0.000009
    14  C   -0.000174  -0.000190  -0.000352  -0.000014  -0.000000  -0.000000
    15  C   -0.000361  -0.000002   0.000061   0.000002   0.000000  -0.000000
    16  C   -0.000271   0.000566   0.000055  -0.000007  -0.000000  -0.000000
    17  C   -0.000193   0.002561  -0.000703  -0.000671  -0.000006   0.000001
    18  O   -0.056990   0.437213  -0.051363  -0.005486   0.000095   0.000360
    19  O   -0.055215   0.413262  -0.053979   0.000961  -0.001451  -0.000008
    20  H    0.342732  -0.005690   0.001671  -0.000076   0.000007   0.000001
    21  H    0.360482  -0.015517   0.002227  -0.000043   0.000001  -0.000000
    22  H    0.336026  -0.003126   0.000286  -0.000021   0.000001  -0.000001
    23  H    0.000175  -0.008552   0.276115  -0.024932   0.004511  -0.000103
    24  H   -0.000002  -0.000086   0.001461  -0.027367   0.348383  -0.011967
    25  H   -0.000063  -0.000198  -0.003363  -0.021539   0.327515  -0.000490
    26  H    0.000001  -0.000025   0.001466  -0.024651   0.008725  -0.010894
    27  H   -0.000019   0.000250   0.000950  -0.022883   0.003347  -0.000228
    28  H    0.000026   0.002788  -0.005962  -0.030995  -0.004442  -0.000297
    29  H    0.000000   0.000355   0.004872  -0.031320  -0.007031   0.006591
    30  H   -0.000000   0.000005  -0.000091   0.004674  -0.000137   0.000016
    31  H   -0.000000   0.000002  -0.000087  -0.007763   0.000036   0.000043
    32  H    0.000000   0.000013  -0.000012  -0.000113   0.000003   0.000011
    33  H   -0.000000  -0.000002  -0.000004   0.000001  -0.000000   0.000000
    34  H   -0.000002  -0.000000   0.000000  -0.000000   0.000000  -0.000000
    35  H   -0.000001   0.000007  -0.000000   0.000000   0.000000   0.000000
    36  H    0.000002   0.000050  -0.000015   0.000087   0.000000  -0.000000
               7          8          9         10         11         12
     1  C   -0.000197  -0.000000  -0.000000  -0.000207   0.000026  -0.000056
     2  S    0.000530  -0.000027  -0.000005  -0.005365  -0.000976   0.000893
     3  N   -0.054757  -0.000163  -0.000036  -0.064766  -0.002491   0.000199
     4  C    0.339124   0.003070   0.001451   0.358044  -0.033479  -0.004299
     5  C   -0.172983  -0.046261  -0.045997  -0.053183   0.003871   0.000041
     6  S    0.134443   0.435505   0.410119   0.009057  -0.000643   0.000001
     7  C    5.711552  -0.045411  -0.045403  -0.063286  -0.007362  -0.000513
     8  O   -0.045411   8.254215  -0.045586  -0.000077   0.000000  -0.000000
     9  O   -0.045403  -0.045586   8.294745  -0.002224  -0.000037  -0.000001
    10  C   -0.063286  -0.000077  -0.002224   5.163573   0.342155  -0.035559
    11  C   -0.007362   0.000000  -0.000037   0.342155   5.164591   0.351761
    12  C   -0.000513  -0.000000  -0.000001  -0.035559   0.351761   4.677998
    13  C    0.000271   0.000000  -0.000000  -0.001052  -0.053423   0.539559
    14  C    0.000005   0.000000   0.000000  -0.000148   0.006964  -0.025256
    15  C    0.000000   0.000000  -0.000000   0.000012   0.000299  -0.034492
    16  C   -0.000000   0.000000  -0.000000   0.000057   0.006050  -0.019468
    17  C   -0.000001  -0.000000   0.000000  -0.003155  -0.062020   0.538823
    18  O   -0.000166  -0.000000  -0.000000  -0.000274   0.000001  -0.000002
    19  O   -0.000045  -0.000000  -0.000000  -0.002311  -0.000187  -0.000725
    20  H   -0.000006  -0.000000  -0.000000   0.000005  -0.000000  -0.000000
    21  H    0.000001   0.000000   0.000000   0.000003   0.000000  -0.000000
    22  H    0.000003   0.000000   0.000000   0.000001  -0.000005  -0.000171
    23  H   -0.004400   0.000002   0.000001  -0.003519   0.000385   0.009408
    24  H    0.009216   0.000710  -0.000507  -0.003592   0.000162  -0.000003
    25  H    0.002911   0.000105   0.001016   0.003565  -0.000091   0.000001
    26  H    0.343692   0.000631  -0.000050  -0.005839   0.001918   0.000041
    27  H    0.329164  -0.000271   0.001089   0.004350  -0.000032  -0.000016
    28  H    0.004732   0.000001   0.000068   0.363393  -0.033200  -0.005934
    29  H   -0.003100   0.000017   0.005494   0.350641  -0.030312   0.004284
    30  H    0.000190  -0.000000  -0.000004  -0.032922   0.363155  -0.030276
    31  H    0.002521   0.000001   0.000034  -0.037925   0.364452  -0.037406
    32  H    0.000319   0.000000   0.000000   0.000219  -0.010232  -0.043048
    33  H   -0.000000  -0.000000   0.000000   0.000001  -0.000168   0.003711
    34  H   -0.000000   0.000000   0.000000   0.000000   0.000007   0.000618
    35  H    0.000000  -0.000000  -0.000000   0.000001  -0.000169   0.003631
    36  H   -0.000000   0.000000  -0.000000   0.000761  -0.008294  -0.045225
              13         14         15         16         17         18
     1  C    0.000005  -0.000174  -0.000361  -0.000271  -0.000193  -0.056990
     2  S   -0.000232  -0.000190  -0.000002   0.000566   0.002561   0.437213
     3  N   -0.003486  -0.000352   0.000061   0.000055  -0.000703  -0.051363
     4  C    0.001447  -0.000014   0.000002  -0.000007  -0.000671  -0.005486
     5  C   -0.000013  -0.000000   0.000000  -0.000000  -0.000006   0.000095
     6  S    0.000009  -0.000000  -0.000000  -0.000000   0.000001   0.000360
     7  C    0.000271   0.000005   0.000000  -0.000000  -0.000001  -0.000166
     8  O    0.000000   0.000000   0.000000   0.000000  -0.000000  -0.000000
     9  O   -0.000000   0.000000  -0.000000  -0.000000   0.000000  -0.000000
    10  C   -0.001052  -0.000148   0.000012   0.000057  -0.003155  -0.000274
    11  C   -0.053423   0.006964   0.000299   0.006050  -0.062020   0.000001
    12  C    0.539559  -0.025256  -0.034492  -0.019468   0.538823  -0.000002
    13  C    5.000304   0.510107  -0.037600  -0.046251  -0.043042  -0.000000
    14  C    0.510107   4.899636   0.546618  -0.029221  -0.046352  -0.000000
    15  C   -0.037600   0.546618   4.883863   0.539799  -0.037469   0.000000
    16  C   -0.046251  -0.029221   0.539799   4.893680   0.522339  -0.000000
    17  C   -0.043042  -0.046352  -0.037469   0.522339   4.980763   0.000000
    18  O   -0.000000  -0.000000   0.000000  -0.000000   0.000000   8.291763
    19  O    0.000011   0.000004  -0.000007  -0.000341   0.001862  -0.051888
    20  H   -0.000002   0.000001   0.000000   0.000002   0.000001  -0.000447
    21  H    0.000000   0.000002   0.000001  -0.000001  -0.000002  -0.000342
    22  H   -0.000015   0.001067   0.001866   0.000935  -0.000018   0.001563
    23  H    0.013733   0.001053  -0.000216  -0.000503  -0.000355   0.001231
    24  H    0.000000   0.000000  -0.000000  -0.000000  -0.000000  -0.000378
    25  H   -0.000000   0.000000  -0.000000   0.000000   0.000000   0.011319
    26  H   -0.000054   0.000000   0.000000  -0.000000   0.000003   0.000000
    27  H   -0.000020  -0.000000  -0.000000  -0.000000   0.000001  -0.000024
    28  H    0.000111   0.000007  -0.000001  -0.000110   0.002671  -0.000260
    29  H   -0.000098   0.000002  -0.000000   0.000002   0.000071  -0.000007
    30  H    0.002713  -0.000225   0.000026   0.000046  -0.005439   0.000000
    31  H   -0.004428   0.000256  -0.000003  -0.000175   0.004395   0.000000
    32  H    0.359384  -0.044567   0.004687   0.000270   0.006158   0.000000
    33  H   -0.038820   0.361207  -0.042083   0.004508   0.000710  -0.000000
    34  H    0.004628  -0.042250   0.363556  -0.041923   0.004590   0.000000
    35  H    0.000734   0.004542  -0.042208   0.361663  -0.039113  -0.000000
    36  H    0.005948   0.000264   0.004725  -0.043814   0.360301   0.000000
              19         20         21         22         23         24
     1  C   -0.055215   0.342732   0.360482   0.336026   0.000175  -0.000002
     2  S    0.413262  -0.005690  -0.015517  -0.003126  -0.008552  -0.000086
     3  N   -0.053979   0.001671   0.002227   0.000286   0.276115   0.001461
     4  C    0.000961  -0.000076  -0.000043  -0.000021  -0.024932  -0.027367
     5  C   -0.001451   0.000007   0.000001   0.000001   0.004511   0.348383
     6  S   -0.000008   0.000001  -0.000000  -0.000001  -0.000103  -0.011967
     7  C   -0.000045  -0.000006   0.000001   0.000003  -0.004400   0.009216
     8  O   -0.000000  -0.000000   0.000000   0.000000   0.000002   0.000710
     9  O   -0.000000  -0.000000   0.000000   0.000000   0.000001  -0.000507
    10  C   -0.002311   0.000005   0.000003   0.000001  -0.003519  -0.003592
    11  C   -0.000187  -0.000000   0.000000  -0.000005   0.000385   0.000162
    12  C   -0.000725  -0.000000  -0.000000  -0.000171   0.009408  -0.000003
    13  C    0.000011  -0.000002   0.000000  -0.000015   0.013733   0.000000
    14  C    0.000004   0.000001   0.000002   0.001067   0.001053   0.000000
    15  C   -0.000007   0.000000   0.000001   0.001866  -0.000216  -0.000000
    16  C   -0.000341   0.000002  -0.000001   0.000935  -0.000503  -0.000000
    17  C    0.001862   0.000001  -0.000002  -0.000018  -0.000355  -0.000000
    18  O   -0.051888  -0.000447  -0.000342   0.001563   0.001231  -0.000378
    19  O    8.300656   0.001722  -0.000169  -0.000824  -0.000408   0.000018
    20  H    0.001722   0.463114  -0.016582  -0.020462  -0.000181  -0.000000
    21  H   -0.000169  -0.016582   0.446969  -0.016647   0.000077  -0.000000
    22  H   -0.000824  -0.020462  -0.016647   0.465112   0.000431   0.000000
    23  H   -0.000408  -0.000181   0.000077   0.000431   0.328131  -0.000083
    24  H    0.000018  -0.000000  -0.000000   0.000000  -0.000083   0.462715
    25  H    0.000099   0.000002   0.000003  -0.000003   0.000113  -0.015967
    26  H    0.000001   0.000000  -0.000000  -0.000000   0.000236  -0.000264
    27  H    0.000003   0.000005   0.000000  -0.000001   0.000296  -0.000246
    28  H    0.010385  -0.000004   0.000002   0.000008  -0.000364   0.002464
    29  H    0.000085  -0.000000  -0.000000   0.000000   0.000013   0.000151
    30  H   -0.000000   0.000000   0.000000  -0.000000   0.000065  -0.000014
    31  H   -0.000006   0.000000  -0.000000  -0.000000   0.000049   0.000013
    32  H    0.000000   0.000000  -0.000000  -0.000002   0.000306  -0.000000
    33  H    0.000000   0.000000   0.000000   0.000002   0.000023  -0.000000
    34  H   -0.000000  -0.000000   0.000000   0.000011  -0.000001  -0.000000
    35  H   -0.000006   0.000000   0.000000   0.000003  -0.000001   0.000000
    36  H    0.000456  -0.000000  -0.000000  -0.000003   0.000027  -0.000000
              25         26         27         28         29         30
     1  C   -0.000063   0.000001  -0.000019   0.000026   0.000000  -0.000000
     2  S   -0.000198  -0.000025   0.000250   0.002788   0.000355   0.000005
     3  N   -0.003363   0.001466   0.000950  -0.005962   0.004872  -0.000091
     4  C   -0.021539  -0.024651  -0.022883  -0.030995  -0.031320   0.004674
     5  C    0.327515   0.008725   0.003347  -0.004442  -0.007031  -0.000137
     6  S   -0.000490  -0.010894  -0.000228  -0.000297   0.006591   0.000016
     7  C    0.002911   0.343692   0.329164   0.004732  -0.003100   0.000190
     8  O    0.000105   0.000631  -0.000271   0.000001   0.000017  -0.000000
     9  O    0.001016  -0.000050   0.001089   0.000068   0.005494  -0.000004
    10  C    0.003565  -0.005839   0.004350   0.363393   0.350641  -0.032922
    11  C   -0.000091   0.001918  -0.000032  -0.033200  -0.030312   0.363155
    12  C    0.000001   0.000041  -0.000016  -0.005934   0.004284  -0.030276
    13  C   -0.000000  -0.000054  -0.000020   0.000111  -0.000098   0.002713
    14  C    0.000000   0.000000  -0.000000   0.000007   0.000002  -0.000225
    15  C   -0.000000   0.000000  -0.000000  -0.000001  -0.000000   0.000026
    16  C    0.000000  -0.000000  -0.000000  -0.000110   0.000002   0.000046
    17  C    0.000000   0.000003   0.000001   0.002671   0.000071  -0.005439
    18  O    0.011319   0.000000  -0.000024  -0.000260  -0.000007   0.000000
    19  O    0.000099   0.000001   0.000003   0.010385   0.000085  -0.000000
    20  H    0.000002   0.000000   0.000005  -0.000004  -0.000000   0.000000
    21  H    0.000003  -0.000000   0.000000   0.000002  -0.000000   0.000000
    22  H   -0.000003  -0.000000  -0.000001   0.000008   0.000000  -0.000000
    23  H    0.000113   0.000236   0.000296  -0.000364   0.000013   0.000065
    24  H   -0.015967  -0.000264  -0.000246   0.002464   0.000151  -0.000014
    25  H    0.446806  -0.000215   0.000087  -0.000053   0.000197   0.000001
    26  H   -0.000215   0.459452  -0.015978   0.000168  -0.000299  -0.000202
    27  H    0.000087  -0.015978   0.466526  -0.000101  -0.000054   0.000002
    28  H   -0.000053   0.000168  -0.000101   0.532844  -0.026374  -0.002147
    29  H    0.000197  -0.000299  -0.000054  -0.026374   0.565790  -0.005361
    30  H    0.000001  -0.000202   0.000002  -0.002147  -0.005361   0.562557
    31  H   -0.000001   0.006896  -0.000148   0.004598  -0.002166  -0.030995
    32  H   -0.000000   0.000294   0.000049   0.000008  -0.000018   0.000088
    33  H   -0.000000  -0.000000   0.000000   0.000000  -0.000000   0.000003
    34  H    0.000000  -0.000000  -0.000000  -0.000000   0.000000  -0.000000
    35  H   -0.000000   0.000000   0.000000   0.000003  -0.000000  -0.000003
    36  H   -0.000000   0.000000  -0.000000   0.001574  -0.000099   0.002956
              31         32         33         34         35         36
     1  C   -0.000000   0.000000  -0.000000  -0.000002  -0.000001   0.000002
     2  S    0.000002   0.000013  -0.000002  -0.000000   0.000007   0.000050
     3  N   -0.000087  -0.000012  -0.000004   0.000000  -0.000000  -0.000015
     4  C   -0.007763  -0.000113   0.000001  -0.000000   0.000000   0.000087
     5  C    0.000036   0.000003  -0.000000   0.000000   0.000000   0.000000
     6  S    0.000043   0.000011   0.000000  -0.000000   0.000000  -0.000000
     7  C    0.002521   0.000319  -0.000000  -0.000000   0.000000  -0.000000
     8  O    0.000001   0.000000  -0.000000   0.000000  -0.000000   0.000000
     9  O    0.000034   0.000000   0.000000   0.000000  -0.000000  -0.000000
    10  C   -0.037925   0.000219   0.000001   0.000000   0.000001   0.000761
    11  C    0.364452  -0.010232  -0.000168   0.000007  -0.000169  -0.008294
[...]
    34  H    0.002055  -0.002391   0.004313  -0.006089  -0.000034  -0.000057
    35  H    0.000515   0.001767  -0.000708  -0.002763  -0.000463   0.000011
    36  H   -0.002123   0.030686  -0.001336  -0.006240   0.013256   0.001482
               7          8          9         10         11         12
     1  C   -0.042465   0.000291   0.000216  -0.083847   0.004294  -0.034056
     2  S   -0.230148   0.003843   0.000929   0.282105  -0.011107   0.195758
     3  N    0.761676  -0.021413   0.004453   1.099838  -0.070790  -0.299670
     4  C   -5.496099  -0.031051  -0.175772  -5.369973  -0.151840   0.355312
     5  C   -0.016792   0.156014   0.191404   0.507039  -0.375215   0.252484
     6  S    0.052375  -0.439612  -0.416649   0.046393   0.009281   0.047850
     7  C   10.275467   0.161456   0.167405   0.315780   0.074649  -0.726976
     8  O    0.161456   9.291740   0.073315  -0.006858  -0.006453  -0.004351
     9  O    0.167405   0.073315   9.319574   0.007890   0.026265  -0.013821
    10  C    0.315780  -0.006858   0.007890   8.989218   1.003403  -0.772536
    11  C    0.074649  -0.006453   0.026265   1.003403   8.566144  -0.582531
    12  C   -0.726976  -0.004351  -0.013821  -0.772536  -0.582531  18.589939
    13  C   -0.298817   0.000414   0.003083  -0.042728  -1.374554  -7.975887
    14  C   -0.162758  -0.001047  -0.000301  -0.151509  -0.196840   4.009397
    15  C   -0.032491  -0.000041  -0.000074   0.105169   0.023485  -4.204571
    16  C    0.064705   0.000114   0.000231  -0.261824   0.067309   3.620455
    17  C   -0.024798   0.000139  -0.000015  -0.325000  -1.159799  -8.529764
    18  O    0.010510   0.001909  -0.001049  -0.056894  -0.005100  -0.000082
    19  O   -0.020385   0.000236  -0.000249  -0.104251   0.031143  -0.020756
    20  H   -0.021195   0.000137  -0.000036  -0.008433   0.001084  -0.003688
    21  H   -0.002256  -0.000144  -0.000038   0.016265  -0.000666  -0.007636
    22  H    0.009070   0.000263   0.000120  -0.014456  -0.004823   0.048537
    23  H    0.007637   0.006514   0.003431   0.003058  -0.023218  -0.049245
    24  H   -0.052540  -0.011834  -0.011169  -0.079833   0.033407   0.001634
    25  H    0.060090   0.034983   0.013700   0.142087  -0.000058   0.001036
    26  H    0.342452  -0.010456   0.004349   0.019510   0.018103  -0.052763
    27  H    0.005579   0.037202   0.013243   0.157396   0.034472  -0.015974
    28  H    0.283148   0.001617   0.000484  -0.258365  -0.283241  -0.150800
    29  H    0.059059   0.004683   0.057119   0.496303   0.070528   0.077208
    30  H   -0.006446  -0.000526  -0.001396  -0.044266   0.146253  -0.144444
    31  H   -0.010476   0.001015   0.001052  -0.261009  -0.135413   0.071781
    32  H    0.007510   0.000657   0.001774   0.008025   0.060992   0.840884
    33  H   -0.002187  -0.000071  -0.000051  -0.005546   0.010749  -0.118601
    34  H   -0.001678   0.000002  -0.000002   0.000753  -0.008706   0.006615
    35  H    0.001139  -0.000000  -0.000004   0.008665   0.008502  -0.113815
    36  H   -0.031389  -0.000186  -0.000218   0.009328  -0.119929   0.778272
              13         14         15         16         17         18
     1  C    0.002760  -0.005671   0.020552  -0.001853   0.048864  -0.020330
     2  S   -0.002530   0.036824  -0.000929  -0.047147  -0.129137  -0.268804
     3  N    0.198579  -0.109326   0.118093  -0.122993   0.269400   0.148865
     4  C   -0.620793   0.495500  -0.302805   0.526199  -0.595763   0.219860
     5  C   -0.136248   0.028200  -0.017106   0.026206  -0.074451  -0.054004
     6  S   -0.024057   0.009889   0.000221  -0.003346   0.014317  -0.004413
     7  C   -0.298817  -0.162758  -0.032491   0.064705  -0.024798   0.010510
     8  O    0.000414  -0.001047  -0.000041   0.000114   0.000139   0.001909
     9  O    0.003083  -0.000301  -0.000074   0.000231  -0.000015  -0.001049
    10  C   -0.042728  -0.151509   0.105169  -0.261824  -0.325000  -0.056894
    11  C   -1.374554  -0.196840   0.023485   0.067309  -1.159799  -0.005100
    12  C   -7.975887   4.009397  -4.204571   3.620455  -8.529764  -0.000082
    13  C   18.905367  -5.730901   4.385022  -5.136292   4.034447  -0.002311
    14  C   -5.730901  12.551057  -4.639418   4.771946  -4.626802  -0.000200
    15  C    4.385022  -4.639418  10.492169  -4.418151   3.884090   0.000538
    16  C   -5.136292   4.771946  -4.418151  12.450476  -5.479094  -0.000831
    17  C    4.034447  -4.626802   3.884090  -5.479094  19.105541   0.004299
    18  O   -0.002311  -0.000200   0.000538  -0.000831   0.004299   9.275539
    19  O    0.007911  -0.010025   0.012598  -0.003949   0.003577   0.036813
    20  H    0.004583   0.001105   0.001390  -0.002635   0.003696   0.007208
    21  H    0.004196  -0.003486   0.002304  -0.001922   0.010230  -0.016435
    22  H   -0.021623  -0.000685   0.010551  -0.001574  -0.020866   0.009809
    23  H    0.118338  -0.211182   0.123233  -0.081006  -0.007497  -0.013810
    24  H   -0.010469   0.005571  -0.004079   0.003379  -0.015567   0.004173
    25  H   -0.003797  -0.002854   0.001274  -0.000277   0.002300  -0.033588
    26  H   -0.036983  -0.051943   0.002726   0.005435   0.029356   0.002594
    27  H    0.020702   0.025522  -0.009614   0.006450  -0.022792  -0.006660
    28  H   -0.048353  -0.001203  -0.004415   0.036545  -0.140070  -0.010460
    29  H    0.076581  -0.012834   0.014563  -0.027405   0.042427  -0.005024
    30  H   -0.032297  -0.044377   0.001948   0.088990   0.097177  -0.000011
    31  H    0.121990   0.181970  -0.024399  -0.048104  -0.219546  -0.000691
    32  H   -1.575103   0.308383  -0.172721   0.117536   0.005311   0.000059
    33  H    0.630580  -0.883480   0.370947  -0.226393   0.117274  -0.000208
    34  H   -0.076507   0.425955  -0.781688   0.420027  -0.049392   0.000133
    35  H    0.117877  -0.254765   0.411530  -0.885432   0.606926  -0.000136
    36  H   -0.119915   0.128116  -0.176508   0.471394  -1.359072   0.000176
              19         20         21         22         23         24
     1  C   -0.017262   0.331121   0.330908   0.364095  -0.032020   0.003179
     2  S   -0.373577   0.018874   0.087598  -0.020643  -0.191121   0.082332
     3  N    0.212913   0.012667   0.035243  -0.117431   0.301233   0.041864
     4  C    0.182778   0.027656  -0.068493   0.025947  -0.131624   0.253213
     5  C    0.042572  -0.006453   0.009411  -0.008487   0.128224  -0.117578
     6  S   -0.001266  -0.000469   0.000817  -0.001153  -0.054351   0.042525
     7  C   -0.020385  -0.021195  -0.002256   0.009070   0.007637  -0.052540
     8  O    0.000236   0.000137  -0.000144   0.000263   0.006514  -0.011834
     9  O   -0.000249  -0.000036  -0.000038   0.000120   0.003431  -0.011169
    10  C   -0.104251  -0.008433   0.016265  -0.014456   0.003058  -0.079833
    11  C    0.031143   0.001084  -0.000666  -0.004823  -0.023218   0.033407
    12  C   -0.020756  -0.003688  -0.007636   0.048537  -0.049245   0.001634
    13  C    0.007911   0.004583   0.004196  -0.021623   0.118338  -0.010469
    14  C   -0.010025   0.001105  -0.003486  -0.000685  -0.211182   0.005571
    15  C    0.012598   0.001390   0.002304   0.010551   0.123233  -0.004079
    16  C   -0.003949  -0.002635  -0.001922  -0.001574  -0.081006   0.003379
    17  C    0.003577   0.003696   0.010230  -0.020866  -0.007497  -0.015567
    18  O    0.036813   0.007208  -0.016435   0.009809  -0.013810   0.004173
    19  O    9.323611   0.002139  -0.018070   0.030284   0.000473  -0.007263
    20  H    0.002139   0.862761  -0.122965  -0.092177  -0.025968  -0.000969
    21  H   -0.018070  -0.122965   0.861588  -0.135427   0.006901   0.001599
    22  H    0.030284  -0.092177  -0.135427   0.975239   0.013674  -0.000583
    23  H    0.000473  -0.025968   0.006901   0.013674   1.079623  -0.002318
    24  H   -0.007263  -0.000969   0.001599  -0.000583  -0.002318   1.401424
    25  H   -0.001457  -0.002882  -0.001364   0.003067  -0.003036  -0.214601
    26  H   -0.004960  -0.001902   0.000487  -0.000106   0.029652  -0.005100
    27  H   -0.001016  -0.000914  -0.001001   0.001005  -0.020354  -0.002584
    28  H    0.003850   0.002002  -0.002590  -0.001959   0.011563  -0.019449
    29  H   -0.016483  -0.000497   0.000846  -0.000575  -0.010259  -0.044339
    30  H   -0.002597  -0.000377   0.000063   0.001027   0.001147  -0.002361
    31  H    0.008412   0.001354  -0.000373  -0.000880  -0.014408   0.011822
    32  H    0.000474  -0.000084   0.000382   0.000783  -0.015290  -0.001956
    33  H   -0.000331  -0.000249  -0.000005   0.000112   0.010263   0.000253
    34  H    0.000053   0.000384  -0.000021   0.002760  -0.005284  -0.000126
    35  H    0.002653   0.000052  -0.000105  -0.000586   0.003836   0.000013
    36  H   -0.003885  -0.000773   0.001648  -0.000218   0.013458   0.000794
              25         26         27         28         29         30
     1  C   -0.007488  -0.001492  -0.008037  -0.014620  -0.001374   0.000150
     2  S   -0.018571  -0.008415   0.015158   0.082143   0.017421  -0.007839
     3  N   -0.076235   0.201162  -0.276131  -0.093075   0.149355   0.003316
     4  C    0.057476  -0.622108   0.548904   0.241506  -0.941208   0.124461
     5  C    0.145170   0.243161  -0.234086  -0.122264  -0.029476   0.013879
     6  S   -0.153953   0.031377  -0.185033  -0.026350  -0.111346   0.005168
     7  C    0.060090   0.342452   0.005579   0.283148   0.059059  -0.006446
     8  O    0.034983  -0.010456   0.037202   0.001617   0.004683  -0.000526
     9  O    0.013700   0.004349   0.013243   0.000484   0.057119  -0.001396
    10  C    0.142087   0.019510   0.157396  -0.258365   0.496303  -0.044266
    11  C   -0.000058   0.018103   0.034472  -0.283241   0.070528   0.146253
    12  C    0.001036  -0.052763  -0.015974  -0.150800   0.077208  -0.144444
    13  C   -0.003797  -0.036983   0.020702  -0.048353   0.076581  -0.032297
    14  C   -0.002854  -0.051943   0.025522  -0.001203  -0.012834  -0.044377
    15  C    0.001274   0.002726  -0.009614  -0.004415   0.014563   0.001948
    16  C   -0.000277   0.005435   0.006450   0.036545  -0.027405   0.088990
    17  C    0.002300   0.029356  -0.022792  -0.140070   0.042427   0.097177
    18  O   -0.033588   0.002594  -0.006660  -0.010460  -0.005024  -0.000011
    19  O   -0.001457  -0.004960  -0.001016   0.003850  -0.016483  -0.002597
    20  H   -0.002882  -0.001902  -0.000914   0.002002  -0.000497  -0.000377
    21  H   -0.001364   0.000487  -0.001001  -0.002590   0.000846   0.000063
    22  H    0.003067  -0.000106   0.001005  -0.001959  -0.000575   0.001027
    23  H   -0.003036   0.029652  -0.020354   0.011563  -0.010259   0.001147
    24  H   -0.214601  -0.005100  -0.002584  -0.019449  -0.044339  -0.002361
    25  H    1.192100   0.011310   0.018659   0.024323   0.006002   0.002570
    26  H    0.011310   1.420337  -0.302936   0.027790  -0.012621   0.017717
    27  H    0.018659  -0.302936   1.356373   0.001588   0.015480  -0.002471
    28  H    0.024323   0.027790   0.001588   1.976207  -0.422155  -0.009145
    29  H    0.006002  -0.012621   0.015480  -0.422155   1.825956  -0.071831
    30  H    0.002570   0.017717  -0.002471  -0.009145  -0.071831   1.336430
    31  H   -0.003379  -0.066069   0.020043   0.090065  -0.085692  -0.359110
    32  H    0.000610  -0.015430   0.008720  -0.012377   0.014705   0.017232
    33  H   -0.000056  -0.000140  -0.000395   0.000251  -0.000896  -0.000941
    34  H    0.000041   0.000268  -0.000228  -0.000417   0.000383   0.000668
    35  H   -0.000083  -0.000487   0.000088   0.001906   0.000253  -0.001215
    36  H    0.000139  -0.002215  -0.000137  -0.041208   0.012339  -0.026801
              31         32         33         34         35         36
     1  C    0.001009   0.000184  -0.001297   0.002055   0.000515  -0.002123
     2  S    0.011708  -0.002923   0.005557  -0.002391   0.001767   0.030686
     3  N   -0.104335   0.041256  -0.010856   0.004313  -0.000708  -0.001336
     4  C    0.289366  -0.088966   0.014828  -0.006089  -0.002763  -0.006240
     5  C   -0.041454  -0.000836   0.001071  -0.000034  -0.000463   0.013256
     6  S   -0.005892  -0.009319   0.000716  -0.000057   0.000011   0.001482
     7  C   -0.010476   0.007510  -0.002187  -0.001678   0.001139  -0.031389
     8  O    0.001015   0.000657  -0.000071   0.000002  -0.000000  -0.000186
     9  O    0.001052   0.001774  -0.000051  -0.000002  -0.000004  -0.000218
    10  C   -0.261009   0.008025  -0.005546   0.000753   0.008665   0.009328
    11  C   -0.135413   0.060992   0.010749  -0.008706   0.008502  -0.119929
    12  C    0.071781   0.840884  -0.118601   0.006615  -0.113815   0.778272
    13  C    0.121990  -1.575103   0.630580  -0.076507   0.117877  -0.119915
    14  C    0.181970   0.308383  -0.883480   0.425955  -0.254765   0.128116
    15  C   -0.024399  -0.172721   0.370947  -0.781688   0.411530  -0.176508
    16  C   -0.048104   0.117536  -0.226393   0.420027  -0.885432   0.471394
    17  C   -0.219546   0.005311   0.117274  -0.049392   0.606926  -1.359072
    18  O   -0.000691   0.000059  -0.000208   0.000133  -0.000136   0.000176
    19  O    0.008412   0.000474  -0.000331   0.000053   0.002653  -0.003885
    20  H    0.001354  -0.000084  -0.000249   0.000384   0.000052  -0.000773
    21  H   -0.000373   0.000382  -0.000005  -0.000021  -0.000105   0.001648
    22  H   -0.000880   0.000783   0.000112   0.002760  -0.000586  -0.000218
    23  H   -0.014408  -0.015290   0.010263  -0.005284   0.003836   0.013458
    24  H    0.011822  -0.001956   0.000253  -0.000126   0.000013   0.000794
    25  H   -0.003379   0.000610  -0.000056   0.000041  -0.000083   0.000139
    26  H   -0.066069  -0.015430  -0.000140   0.000268  -0.000487  -0.002215
    27  H    0.020043   0.008720  -0.000395  -0.000228   0.000088  -0.000137
    28  H    0.090065  -0.012377   0.000251  -0.000417   0.001906  -0.041208
    29  H   -0.085692   0.014705  -0.000896   0.000383   0.000253   0.012339
    30  H   -0.359110   0.017232  -0.000941   0.000668  -0.001215  -0.026801
    31  H    1.900695  -0.084540   0.003361  -0.000403  -0.000028   0.015968
    32  H   -0.084540   2.370943  -0.089684  -0.014388   0.010214  -0.022353
    33  H    0.003361  -0.089684   1.737480  -0.052911  -0.019824   0.009764
    34  H   -0.000403  -0.014388  -0.052911   1.694153  -0.058486  -0.013998
    35  H   -0.000028   0.010214  -0.019824  -0.058486   1.771951  -0.083754
    36  H    0.015968  -0.022353   0.009764  -0.013998  -0.083754   2.249489
 Mulliken charges:
               1
     1  C    0.209940
     2  S    3.022376
     3  N   -1.105361
     4  C   -0.669441
     5  C    0.573431
     6  S    2.921822
     7  C    0.520188
     8  O   -1.242500
     9  O   -1.269194
    10  C    0.629103
    11  C    0.320220
    12  C    0.924807
    13  C    0.637734
    14  C    0.122172
    15  C    0.806605
    16  C    0.072827
    17  C    0.500053
    18  O   -1.221442
    19  O   -1.294706
    20  H    0.014452
    21  H    0.012510
    22  H   -0.052089
    23  H    0.029732
    24  H   -0.282466
    25  H   -0.193259
    26  H   -0.211662
    27  H   -0.196224
    28  H   -0.122473
    29  H   -0.147195
    30  H   -0.099746
    31  H   -0.265411
    32  H   -0.710667
    33  H   -0.499086
    34  H   -0.485759
    35  H   -0.525243
    36  H   -0.724050
 Sum of Mulliken charges =  -0.00000
 Mulliken charges with hydrogens summed into heavy atoms:
               1
     1  C    0.184813
     2  S    3.022376
     3  N   -1.075629
     4  C   -0.669441
     5  C    0.097706
     6  S    2.921822
     7  C    0.112302
     8  O   -1.242500
     9  O   -1.269194
    10  C    0.359436
    11  C   -0.044937
    12  C    0.924807
    13  C   -0.072933
    14  C   -0.376914
    15  C    0.320845
    16  C   -0.452415
    17  C   -0.223997
    18  O   -1.221442
    19  O   -1.294706
 Electronic spatial extent (au):  <R**2>=           6070.9714
 Charge=              0.0000 electrons
 Dipole moment (field-independent basis, Debye):
    X=              8.2703    Y=             -0.4466    Z=              2.7501  Tot=              8.7270
 Quadrupole moment (field-independent basis, Debye-Ang):
   XX=           -155.2387   YY=           -135.1427   ZZ=           -125.2217
   XY=             -0.4090   XZ=              9.9910   YZ=              4.3209
 Traceless Quadrupole moment (field-independent basis, Debye-Ang):
   XX=            -16.7043   YY=              3.3917   ZZ=             13.3127
   XY=             -0.4090   XZ=              9.9910   YZ=              4.3209
 Octapole moment (field-independent basis, Debye-Ang**2):
  XXX=            167.7559  YYY=             23.5491  ZZZ=              0.7180  XYY=             17.6782
  XXY=             68.2854  XXZ=            -13.2064  XZZ=              9.8500  YZZ=             -1.5431
  YYZ=             37.6451  XYZ=             18.9814
 Hexadecapole moment (field-independent basis, Debye-Ang**3):
 XXXX=          -5582.0571 YYYY=          -2237.8868 ZZZZ=           -771.1983 XXXY=            -65.9099
 XXXZ=            153.3387 YYYX=            164.8293 YYYZ=             50.5513 ZZZX=             18.4357
 ZZZY=              6.6018 XXYY=          -1333.6323 XXZZ=           -993.6216 YYZZ=           -487.7140
 XXYZ=            -59.4573 YYXZ=              8.2444 ZZXY=            -11.8931
 N-N= 1.891796311169D+03 E-N=-7.588323486997D+03  KE= 1.611497584766D+03
 Leave Link  601 at Mon Sep 21 12:17:28 2020, MaxMem=   262144000 cpu:               3.0 elap:               1.0
 (Enter /prod/apps/gaussian/g16b1/l9999.exe)
 1\1\GINC-PIRINEUS11\SP\RMP2-FC\Aug-CC-pVDZ\C12H17N1O4S2\UBAFAR01\21-Se
 p-2020\0\\#p mp2/aug-cc-pVDZ scf=(MaxCycle=2000,NoVarAcc,NoIncFock) ma
 xdisk=120GB geom=allcheck\\SM38_m0.n.12.pdb.xyz\\0,1\C,0,1.4659387093,
 2.8898461558,1.0359026013\S,0,0.3836403861,2.2061474387,-0.2169352314\
 N,0,-0.101954741,0.7883815362,0.5744893811\C,0,-1.016776543,-0.1571232
 755,-0.1018816182\C,0,-2.3455211059,0.5460511146,-0.5435107721\S,0,-3.
 3119584905,-0.7329731533,0.317249605\C,0,-1.6555795918,-1.0834225147,0
 .9898575534\O,0,-4.275704698,-0.2091349475,1.3032661623\O,0,-3.7629237
 981,-1.7983101869,-0.6027170903\C,0,-0.4011008118,-0.9437340944,-1.281
 3717672\C,0,0.6153295775,-2.0601863724,-0.9561520324\C,0,1.9442046964,
 -1.6433477207,-0.3596991919\C,0,2.2482901847,-1.9285487942,0.978977809
 6\C,0,3.4765432546,-1.5577342825,1.5335643586\C,0,4.4267993397,-0.9012
 472006,0.7508111144\C,0,4.1425560256,-0.6237763002,-0.5895616314\C,0,2
 .9144853801,-0.9939836852,-1.1378801816\O,0,-0.8125653201,3.0547560496
 ,-0.3634703369\O,0,1.1715052585,1.9600784124,-1.4414746091\H,0,0.89965
 17237,3.0266737487,1.955415208\H,0,1.808154511,3.8489670713,0.64565589
 1\H,0,2.3134162472,2.2200593658,1.1850259688\H,0,0.735983804,0.3034453
 987,0.9054385089\H,0,-2.5306359978,0.5995871808,-1.6146428159\H,0,-2.5
 018750485,1.5126526314,-0.0701059355\H,0,-1.3857015326,-2.1382708959,0
 .9750928026\H,0,-1.5679350802,-0.6673810557,1.9938396927\H,0,0.0441511
 482,-0.2149772247,-1.9642013581\H,0,-1.2309258316,-1.4145912583,-1.818
 5450498\H,0,0.801648549,-2.5833335716,-1.9008348184\H,0,0.1479437038,-
 2.7957319963,-0.2939955625\H,0,1.5161950398,-2.4505386765,1.5886545193
 \H,0,3.6904190992,-1.7882872291,2.5723209486\H,0,5.3828543032,-0.61518
 02515,1.1765559216\H,0,4.8803194921,-0.1237752914,-1.2090948605\H,0,2.
 7071281572,-0.780056125,-2.1820431844\\Version=ES64L-G16RevB.01\State=
 1-A\HF=-1613.1886823\MP2=-1616.1812132\RMSD=5.517e-09\PG=C01 [X(C12H17
 N1O4S2)]\\@


 WHAT THE SLIME CONTAINS, THE GLOWING REVEALS
 BY THE FLAME'S BRIGHT HUE WHEN YOU IGNITE IT.
   --  LEONARD THURNEYSSER, 1531-1596
 DESCRIBING HIS FLAME PHOTOLYSIS ANALYTIC METHOD
 Job cpu time:       0 days 12 hours  8 minutes 43.2 seconds.
 Elapsed time:       0 days  3 hours 53 minutes 31.6 seconds.
 File lengths (MBytes):  RWF= 119003 Int=      0 D2E=      0 Chk=     29 Scr=      1
 Normal termination of Gaussian 16 at Mon Sep 21 12:17:35 2020.
