 Entering Gaussian System, Link 0=g16
 Initial command:
 /prod/apps/gaussian/g16b1/l1.exe "/tmp/ubafar01/1461096/Gau-205036.inp" -scrdir="/tmp/ubafar01/1461096/"
 Entering Link 1 = /prod/apps/gaussian/g16b1/l1.exe PID=    205038.
  
 Copyright (c) 1988-2017, Gaussian, Inc.  All Rights Reserved.
  
 This is part of the Gaussian(R) 16 program.  It is based on
 the Gaussian(R) 09 system (copyright 2009, Gaussian, Inc.),
 the Gaussian(R) 03 system (copyright 2003, Gaussian, Inc.),
 the Gaussian(R) 98 system (copyright 1998, Gaussian, Inc.),
 the Gaussian(R) 94 system (copyright 1995, Gaussian, Inc.),
 the Gaussian 92(TM) system (copyright 1992, Gaussian, Inc.),
 the Gaussian 90(TM) system (copyright 1990, Gaussian, Inc.),
 the Gaussian 88(TM) system (copyright 1988, Gaussian, Inc.),
 the Gaussian 86(TM) system (copyright 1986, Carnegie Mellon
 University), and the Gaussian 82(TM) system (copyright 1983,
 Carnegie Mellon University). Gaussian is a federally registered
 trademark of Gaussian, Inc.
  
 This software contains proprietary and confidential information,
 including trade secrets, belonging to Gaussian, Inc.
  
 This software is provided under written license and may be
 used, copied, transmitted, or stored only in accord with that
 written license.
  
 The following legend is applicable only to US Government
 contracts under FAR:
  
                    RESTRICTED RIGHTS LEGEND
  
 Use, reproduction and disclosure by the US Government is
 subject to restrictions as set forth in subparagraphs (a)
 and (c) of the Commercial Computer Software - Restricted
 Rights clause in FAR 52.227-19.
  
 Gaussian, Inc.
 340 Quinnipiac St., Bldg. 40, Wallingford CT 06492
  
  
 ---------------------------------------------------------------
 Warning -- This program may not be used in any manner that
 competes with the business of Gaussian, Inc. or will provide
 assistance to any competitor of Gaussian, Inc.  The licensee
 of this program is prohibited from giving any competitor of
 Gaussian, Inc. access to this program.  By using this program,
 the user acknowledges that Gaussian, Inc. is engaged in the
 business of creating and licensing software in the field of
 computational chemistry and represents and warrants to the
 licensee that it is not a competitor of Gaussian, Inc. and that
 it will not use this program in any manner prohibited above.
 ---------------------------------------------------------------
  

 Cite this work as:
 Gaussian 16, Revision B.01,
 M. J. Frisch, G. W. Trucks, H. B. Schlegel, G. E. Scuseria, 
 M. A. Robb, J. R. Cheeseman, G. Scalmani, V. Barone, 
 G. A. Petersson, H. Nakatsuji, X. Li, M. Caricato, A. V. Marenich, 
 J. Bloino, B. G. Janesko, R. Gomperts, B. Mennucci, H. P. Hratchian, 
 J. V. Ortiz, A. F. Izmaylov, J. L. Sonnenberg, D. Williams-Young, 
 F. Ding, F. Lipparini, F. Egidi, J. Goings, B. Peng, A. Petrone, 
 T. Henderson, D. Ranasinghe, V. G. Zakrzewski, J. Gao, N. Rega, 
 G. Zheng, W. Liang, M. Hada, M. Ehara, K. Toyota, R. Fukuda, 
 J. Hasegawa, M. Ishida, T. Nakajima, Y. Honda, O. Kitao, H. Nakai, 
 T. Vreven, K. Throssell, J. A. Montgomery, Jr., J. E. Peralta, 
 F. Ogliaro, M. J. Bearpark, J. J. Heyd, E. N. Brothers, K. N. Kudin, 
 V. N. Staroverov, T. A. Keith, R. Kobayashi, J. Normand, 
 K. Raghavachari, A. P. Rendell, J. C. Burant, S. S. Iyengar, 
 J. Tomasi, M. Cossi, J. M. Millam, M. Klene, C. Adamo, R. Cammi, 
 J. W. Ochterski, R. L. Martin, K. Morokuma, O. Farkas, 
 J. B. Foresman, and D. J. Fox, Gaussian, Inc., Wallingford CT, 2016.
 
 ******************************************
 Gaussian 16:  ES64L-G16RevB.01 20-Dec-2017
                24-Sep-2020 
 ******************************************
 %nproc=4
 Will use up to    4 processors via shared memory.
 %Chk=SM39_m1.a.2.pdb.xyz.mst.a.w.chk
 %mem=16GB
 ----------------------------------------------------------------------
 #p b3lyp/6-31G(d) opt freq NoSymm scf=(MaxCycle=2000,NoVarAcc,NoIncFoc
 k) scrf=(iefpcm,read,solvent=water)
 ----------------------------------------------------------------------
 1/18=20,19=15,26=3,38=1,40=2/1,3;
 2/9=110,12=2,15=1,17=6,18=5,40=1/2;
 3/5=1,6=6,7=1,11=2,25=1,30=1,70=2203,71=1,72=1,74=-5/1,2,3;
 4//1;
 5/5=100002,7=2000,38=1,53=1/2;
 6/7=2,8=2,9=2,10=2,28=1/1;
 7/30=1/1,2,3,16;
 1/18=20,19=15,26=3/3(2);
 2/9=110,15=1/2;
 99//99;
 2/9=110,15=1/2;
 3/5=1,6=6,7=1,11=2,25=1,30=1,70=2205,71=1,72=1,74=-5/1,2,3;
 4/5=5,16=3,69=1/1;
 5/5=100002,7=2000,38=1,53=1/2;
 7/30=1/1,2,3,16;
 1/18=20,19=15,26=3/3(-5);
 2/9=110,15=1/2;
 6/7=2,8=2,9=2,10=2,19=2,28=1/1;
 99/9=1/99;
 Leave Link    1 at Thu Sep 24 00:27:06 2020, MaxMem=  2147483648 cpu:               0.1 elap:               0.0
 (Enter /prod/apps/gaussian/g16b1/l101.exe)
 -------------------
 SM39_m1.a.2.pdb.xyz
 -------------------
 Symbolic Z-matrix:
 Charge = -1 Multiplicity = 1
 O                    -1.903     1.077     1.88 
 S                    -0.451     1.026     1.513 
 N                     0.06     -0.359     0.936 
 C                    -0.806    -1.233     0.169 
 C                    -1.636    -0.609    -1.034 
 S                    -3.113    -1.53     -0.507 
 C                    -2.062    -1.813     0.947 
 O                    -4.302    -0.684    -0.253 
 O                    -3.31     -2.765    -1.306 
 C                     0.037    -2.432    -0.33 
 C                     1.205    -2.117    -1.29 
 C                     2.526    -1.707    -0.663 
 C                     3.145    -2.501     0.314 
 C                     4.387    -2.151     0.848 
 C                     5.043    -0.997     0.409 
 C                     4.445    -0.203    -0.572 
 C                     3.201    -0.558    -1.101 
 C                    -0.263     2.321     0.249 
 C                    -1.324     3.182    -0.042 
 C                    -1.155     4.191    -0.995 
 C                     0.07      4.341    -1.648 
 C                     1.131     3.478    -1.349 
 C                     0.967     2.467    -0.403 
 O                     0.487     1.438     2.595 
 H                    -1.31     -0.85     -2.047 
 H                    -1.829     0.46     -0.942 
 H                    -2.012    -2.859     1.257 
 H                    -2.386    -1.162     1.758 
 H                    -0.643    -3.127    -0.837 
 H                     0.412    -2.959     0.555 
 H                     0.898    -1.351    -2.013 
 H                     1.384    -3.025    -1.882 
 H                     2.656    -3.409     0.66 
 H                     4.845    -2.783     1.605 
 H                     6.01     -0.724     0.823 
 H                     4.946     0.694    -0.928 
 H                     2.746     0.066    -1.867 
 H                    -2.27      3.056     0.473 
 H                    -1.981     4.858    -1.224 
 H                     0.2       5.125    -2.388 
 H                     2.085     3.593    -1.856 
 H                     1.788     1.793    -0.178 
 
 ITRead=  0  0  0  0  0  0  0  0  0  0  0  0  0  0  0  0  0  0  0  0
 ITRead=  0  0  0  0  0  0  0  0  0  0  0  0  0  0  0  0  0  0  0  0
 ITRead=  0  0
 MicOpt= -1 -1 -1 -1 -1 -1 -1 -1 -1 -1 -1 -1 -1 -1 -1 -1 -1 -1 -1 -1
 MicOpt= -1 -1 -1 -1 -1 -1 -1 -1 -1 -1 -1 -1 -1 -1 -1 -1 -1 -1 -1 -1
 MicOpt= -1 -1
 NAtoms=     42 NQM=       42 NQMF=       0 NMMI=      0 NMMIF=      0
                NMic=       0 NMicF=      0.
                    Isotopes and Nuclear Properties:
 (Nuclear quadrupole moments (NQMom) in fm**2, nuclear magnetic moments (NMagM)
  in nuclear magnetons)

  Atom         1           2           3           4           5           6           7           8           9          10
 IAtWgt=          16          32          14          12          12          32          12          16          16          12
 AtmWgt=  15.9949146  31.9720718  14.0030740  12.0000000  12.0000000  31.9720718  12.0000000  15.9949146  15.9949146  12.0000000
 NucSpn=           0           0           2           0           0           0           0           0           0           0
 AtZEff=  -0.0000000  -0.0000000  -0.0000000  -0.0000000  -0.0000000  -0.0000000  -0.0000000  -0.0000000  -0.0000000  -0.0000000
 NQMom=    0.0000000   0.0000000   2.0440000   0.0000000   0.0000000   0.0000000   0.0000000   0.0000000   0.0000000   0.0000000
 NMagM=    0.0000000   0.0000000   0.4037610   0.0000000   0.0000000   0.0000000   0.0000000   0.0000000   0.0000000   0.0000000
 AtZNuc=   8.0000000  16.0000000   7.0000000   6.0000000   6.0000000  16.0000000   6.0000000   8.0000000   8.0000000   6.0000000

  Atom        11          12          13          14          15          16          17          18          19          20
 IAtWgt=          12          12          12          12          12          12          12          12          12          12
 AtmWgt=  12.0000000  12.0000000  12.0000000  12.0000000  12.0000000  12.0000000  12.0000000  12.0000000  12.0000000  12.0000000
 NucSpn=           0           0           0           0           0           0           0           0           0           0
 AtZEff=  -0.0000000  -0.0000000  -0.0000000  -0.0000000  -0.0000000  -0.0000000  -0.0000000  -0.0000000  -0.0000000  -0.0000000
 NQMom=    0.0000000   0.0000000   0.0000000   0.0000000   0.0000000   0.0000000   0.0000000   0.0000000   0.0000000   0.0000000
 NMagM=    0.0000000   0.0000000   0.0000000   0.0000000   0.0000000   0.0000000   0.0000000   0.0000000   0.0000000   0.0000000
 AtZNuc=   6.0000000   6.0000000   6.0000000   6.0000000   6.0000000   6.0000000   6.0000000   6.0000000   6.0000000   6.0000000

  Atom        21          22          23          24          25          26          27          28          29          30
 IAtWgt=          12          12          12          16           1           1           1           1           1           1
 AtmWgt=  12.0000000  12.0000000  12.0000000  15.9949146   1.0078250   1.0078250   1.0078250   1.0078250   1.0078250   1.0078250
 NucSpn=           0           0           0           0           1           1           1           1           1           1
 AtZEff=  -0.0000000  -0.0000000  -0.0000000  -0.0000000  -0.0000000  -0.0000000  -0.0000000  -0.0000000  -0.0000000  -0.0000000
 NQMom=    0.0000000   0.0000000   0.0000000   0.0000000   0.0000000   0.0000000   0.0000000   0.0000000   0.0000000   0.0000000
 NMagM=    0.0000000   0.0000000   0.0000000   0.0000000   2.7928460   2.7928460   2.7928460   2.7928460   2.7928460   2.7928460
 AtZNuc=   6.0000000   6.0000000   6.0000000   8.0000000   1.0000000   1.0000000   1.0000000   1.0000000   1.0000000   1.0000000

  Atom        31          32          33          34          35          36          37          38          39          40
 IAtWgt=           1           1           1           1           1           1           1           1           1           1
 AtmWgt=   1.0078250   1.0078250   1.0078250   1.0078250   1.0078250   1.0078250   1.0078250   1.0078250   1.0078250   1.0078250
 NucSpn=           1           1           1           1           1           1           1           1           1           1
 AtZEff=  -0.0000000  -0.0000000  -0.0000000  -0.0000000  -0.0000000  -0.0000000  -0.0000000  -0.0000000  -0.0000000  -0.0000000
 NQMom=    0.0000000   0.0000000   0.0000000   0.0000000   0.0000000   0.0000000   0.0000000   0.0000000   0.0000000   0.0000000
 NMagM=    2.7928460   2.7928460   2.7928460   2.7928460   2.7928460   2.7928460   2.7928460   2.7928460   2.7928460   2.7928460
 AtZNuc=   1.0000000   1.0000000   1.0000000   1.0000000   1.0000000   1.0000000   1.0000000   1.0000000   1.0000000   1.0000000

  Atom        41          42
 IAtWgt=           1           1
 AtmWgt=   1.0078250   1.0078250
 NucSpn=           1           1
 AtZEff=  -0.0000000  -0.0000000
 NQMom=    0.0000000   0.0000000
 NMagM=    2.7928460   2.7928460
 AtZNuc=   1.0000000   1.0000000
 Leave Link  101 at Thu Sep 24 00:27:06 2020, MaxMem=  2147483648 cpu:               1.3 elap:               0.3
 (Enter /prod/apps/gaussian/g16b1/l103.exe)

 GradGradGradGradGradGradGradGradGradGradGradGradGradGradGradGradGradGrad
 Berny optimization.
 Initialization pass.
                           ----------------------------
                           !    Initial Parameters    !
                           ! (Angstroms and Degrees)  !
 --------------------------                            --------------------------
 ! Name  Definition              Value          Derivative Info.                !
 --------------------------------------------------------------------------------
 ! R1    R(1,2)                  1.4985         estimate D2E/DX2                !
 ! R2    R(2,3)                  1.585          estimate D2E/DX2                !
 ! R3    R(2,18)                 1.8194         estimate D2E/DX2                !
 ! R4    R(2,24)                 1.4901         estimate D2E/DX2                !
 ! R5    R(3,4)                  1.4499         estimate D2E/DX2                !
 ! R6    R(4,5)                  1.5892         estimate D2E/DX2                !
 ! R7    R(4,7)                  1.5872         estimate D2E/DX2                !
 ! R8    R(4,10)                 1.5483         estimate D2E/DX2                !
 ! R9    R(5,6)                  1.8187         estimate D2E/DX2                !
 ! R10   R(5,25)                 1.0911         estimate D2E/DX2                !
 ! R11   R(5,26)                 1.0902         estimate D2E/DX2                !
 ! R12   R(6,7)                  1.8163         estimate D2E/DX2                !
 ! R13   R(6,8)                  1.4812         estimate D2E/DX2                !
 ! R14   R(6,9)                  1.4841         estimate D2E/DX2                !
 ! R15   R(7,27)                 1.0921         estimate D2E/DX2                !
 ! R16   R(7,28)                 1.0893         estimate D2E/DX2                !
 ! R17   R(10,11)                1.5444         estimate D2E/DX2                !
 ! R18   R(10,29)                1.0966         estimate D2E/DX2                !
 ! R19   R(10,30)                1.0962         estimate D2E/DX2                !
 ! R20   R(11,12)                1.5186         estimate D2E/DX2                !
 ! R21   R(11,31)                1.0971         estimate D2E/DX2                !
 ! R22   R(11,32)                1.0986         estimate D2E/DX2                !
 ! R23   R(12,13)                1.4029         estimate D2E/DX2                !
 ! R24   R(12,17)                1.4027         estimate D2E/DX2                !
 ! R25   R(13,14)                1.3965         estimate D2E/DX2                !
 ! R26   R(13,33)                1.0878         estimate D2E/DX2                !
 ! R27   R(14,15)                1.3981         estimate D2E/DX2                !
 ! R28   R(14,34)                1.0873         estimate D2E/DX2                !
 ! R29   R(15,16)                1.3966         estimate D2E/DX2                !
 ! R30   R(15,35)                1.0867         estimate D2E/DX2                !
 ! R31   R(16,17)                1.3976         estimate D2E/DX2                !
 ! R32   R(16,36)                1.0874         estimate D2E/DX2                !
 ! R33   R(17,37)                1.0877         estimate D2E/DX2                !
 ! R34   R(18,19)                1.397          estimate D2E/DX2                !
 ! R35   R(18,23)                1.3998         estimate D2E/DX2                !
 ! R36   R(19,20)                1.3982         estimate D2E/DX2                !
 ! R37   R(19,38)                1.0844         estimate D2E/DX2                !
 ! R38   R(20,21)                1.3963         estimate D2E/DX2                !
 ! R39   R(20,39)                1.0861         estimate D2E/DX2                !
 ! R40   R(21,22)                1.4            estimate D2E/DX2                !
 ! R41   R(21,40)                1.0859         estimate D2E/DX2                !
 ! R42   R(22,23)                1.3942         estimate D2E/DX2                !
 ! R43   R(22,41)                1.0865         estimate D2E/DX2                !
 ! R44   R(23,42)                1.0858         estimate D2E/DX2                !
 ! A1    A(1,2,3)              115.5486         estimate D2E/DX2                !
 ! A2    A(1,2,18)             104.2438         estimate D2E/DX2                !
 ! A3    A(1,2,24)             115.0056         estimate D2E/DX2                !
 ! A4    A(3,2,18)             109.6176         estimate D2E/DX2                !
 ! A5    A(3,2,24)             107.6377         estimate D2E/DX2                !
 ! A6    A(18,2,24)            104.0418         estimate D2E/DX2                !
 ! A7    A(2,3,4)              121.7866         estimate D2E/DX2                !
 ! A8    A(3,4,5)              118.4062         estimate D2E/DX2                !
 ! A9    A(3,4,7)              115.6982         estimate D2E/DX2                !
 ! A10   A(3,4,10)             108.186          estimate D2E/DX2                !
 ! A11   A(5,4,7)               95.8108         estimate D2E/DX2                !
 ! A12   A(5,4,10)             110.1492         estimate D2E/DX2                !
 ! A13   A(7,4,10)             107.8091         estimate D2E/DX2                !
 ! A14   A(4,5,6)               90.3415         estimate D2E/DX2                !
 ! A15   A(4,5,25)             117.3889         estimate D2E/DX2                !
 ! A16   A(4,5,26)             114.4318         estimate D2E/DX2                !
 ! A17   A(6,5,25)             113.5672         estimate D2E/DX2                !
 ! A18   A(6,5,26)             109.1687         estimate D2E/DX2                !
 ! A19   A(25,5,26)            110.3546         estimate D2E/DX2                !
 ! A20   A(5,6,7)               80.8472         estimate D2E/DX2                !
 ! A21   A(5,6,8)              114.354          estimate D2E/DX2                !
 ! A22   A(5,6,9)              111.9147         estimate D2E/DX2                !
 ! A23   A(7,6,8)              114.5963         estimate D2E/DX2                !
 ! A24   A(7,6,9)              112.2193         estimate D2E/DX2                !
 ! A25   A(8,6,9)              117.4563         estimate D2E/DX2                !
 ! A26   A(4,7,6)               90.491          estimate D2E/DX2                !
 ! A27   A(4,7,27)             116.9298         estimate D2E/DX2                !
 ! A28   A(4,7,28)             112.4536         estimate D2E/DX2                !
 ! A29   A(6,7,27)             113.7637         estimate D2E/DX2                !
 ! A30   A(6,7,28)             109.3169         estimate D2E/DX2                !
 ! A31   A(27,7,28)            112.0053         estimate D2E/DX2                !
 ! A32   A(4,10,11)            117.0114         estimate D2E/DX2                !
 ! A33   A(4,10,29)            107.5888         estimate D2E/DX2                !
 ! A34   A(4,10,30)            107.3594         estimate D2E/DX2                !
 ! A35   A(11,10,29)           108.1111         estimate D2E/DX2                !
 ! A36   A(11,10,30)           109.9499         estimate D2E/DX2                !
 ! A37   A(29,10,30)           106.303          estimate D2E/DX2                !
 ! A38   A(10,11,12)           117.1482         estimate D2E/DX2                !
 ! A39   A(10,11,31)           109.9021         estimate D2E/DX2                !
 ! A40   A(10,11,32)           106.8346         estimate D2E/DX2                !
 ! A41   A(12,11,31)           109.0857         estimate D2E/DX2                !
 ! A42   A(12,11,32)           107.6911         estimate D2E/DX2                !
 ! A43   A(31,11,32)           105.5172         estimate D2E/DX2                !
 ! A44   A(11,12,13)           121.234          estimate D2E/DX2                !
 ! A45   A(11,12,17)           120.7173         estimate D2E/DX2                !
 ! A46   A(13,12,17)           117.9517         estimate D2E/DX2                !
 ! A47   A(12,13,14)           121.1221         estimate D2E/DX2                !
 ! A48   A(12,13,33)           119.7086         estimate D2E/DX2                !
 ! A49   A(14,13,33)           119.1681         estimate D2E/DX2                !
 ! A50   A(13,14,15)           120.2707         estimate D2E/DX2                !
 ! A51   A(13,14,34)           119.6807         estimate D2E/DX2                !
 ! A52   A(15,14,34)           120.048          estimate D2E/DX2                !
 ! A53   A(14,15,16)           119.2692         estimate D2E/DX2                !
 ! A54   A(14,15,35)           120.3464         estimate D2E/DX2                !
 ! A55   A(16,15,35)           120.3836         estimate D2E/DX2                !
 ! A56   A(15,16,17)           120.171          estimate D2E/DX2                !
 ! A57   A(15,16,36)           120.1121         estimate D2E/DX2                !
 ! A58   A(17,16,36)           119.7169         estimate D2E/DX2                !
 ! A59   A(12,17,16)           121.2099         estimate D2E/DX2                !
 ! A60   A(12,17,37)           119.2423         estimate D2E/DX2                !
 ! A61   A(16,17,37)           119.5478         estimate D2E/DX2                !
 ! A62   A(2,18,19)            120.3257         estimate D2E/DX2                !
 ! A63   A(2,18,23)            119.2522         estimate D2E/DX2                !
 ! A64   A(19,18,23)           120.4012         estimate D2E/DX2                !
 ! A65   A(18,19,20)           119.6659         estimate D2E/DX2                !
 ! A66   A(18,19,38)           119.4708         estimate D2E/DX2                !
 ! A67   A(20,19,38)           120.863          estimate D2E/DX2                !
 ! A68   A(19,20,21)           120.1556         estimate D2E/DX2                !
 ! A69   A(19,20,39)           119.6685         estimate D2E/DX2                !
 ! A70   A(21,20,39)           120.1759         estimate D2E/DX2                !
 ! A71   A(20,21,22)           119.9213         estimate D2E/DX2                !
 ! A72   A(20,21,40)           120.0864         estimate D2E/DX2                !
 ! A73   A(22,21,40)           119.9922         estimate D2E/DX2                !
 ! A74   A(21,22,23)           120.183          estimate D2E/DX2                !
 ! A75   A(21,22,41)           120.0373         estimate D2E/DX2                !
 ! A76   A(23,22,41)           119.7795         estimate D2E/DX2                !
 ! A77   A(18,23,22)           119.6721         estimate D2E/DX2                !
 ! A78   A(18,23,42)           120.2093         estimate D2E/DX2                !
 ! A79   A(22,23,42)           120.1175         estimate D2E/DX2                !
 ! D1    D(1,2,3,4)             31.2184         estimate D2E/DX2                !
 ! D2    D(18,2,3,4)           -86.1623         estimate D2E/DX2                !
 ! D3    D(24,2,3,4)           161.2801         estimate D2E/DX2                !
 ! D4    D(1,2,18,19)            7.1783         estimate D2E/DX2                !
 ! D5    D(1,2,18,23)         -174.4792         estimate D2E/DX2                !
 ! D6    D(3,2,18,19)          131.4318         estimate D2E/DX2                !
 ! D7    D(3,2,18,23)          -50.2257         estimate D2E/DX2                !
 ! D8    D(24,2,18,19)        -113.688          estimate D2E/DX2                !
 ! D9    D(24,2,18,23)          64.6545         estimate D2E/DX2                !
 ! D10   D(2,3,4,5)             49.4062         estimate D2E/DX2                !
 ! D11   D(2,3,4,7)            -63.4242         estimate D2E/DX2                !
 ! D12   D(2,3,4,10)           175.5547         estimate D2E/DX2                !
 ! D13   D(3,4,5,6)           -136.1422         estimate D2E/DX2                !
 ! D14   D(3,4,5,25)           106.896          estimate D2E/DX2                !
 ! D15   D(3,4,5,26)           -24.8356         estimate D2E/DX2                !
 ! D16   D(7,4,5,6)            -12.7358         estimate D2E/DX2                !
 ! D17   D(7,4,5,25)          -129.6976         estimate D2E/DX2                !
 ! D18   D(7,4,5,26)            98.5709         estimate D2E/DX2                !
 ! D19   D(10,4,5,6)            98.66           estimate D2E/DX2                !
 ! D20   D(10,4,5,25)          -18.3018         estimate D2E/DX2                !
 ! D21   D(10,4,5,26)         -150.0334         estimate D2E/DX2                !
 ! D22   D(3,4,7,6)            138.1782         estimate D2E/DX2                !
 ! D23   D(3,4,7,27)          -104.6702         estimate D2E/DX2                !
 ! D24   D(3,4,7,28)            26.9869         estimate D2E/DX2                !
 ! D25   D(5,4,7,6)             12.7531         estimate D2E/DX2                !
 ! D26   D(5,4,7,27)           129.9047         estimate D2E/DX2                !
 ! D27   D(5,4,7,28)           -98.4382         estimate D2E/DX2                !
 ! D28   D(10,4,7,6)          -100.5979         estimate D2E/DX2                !
 ! D29   D(10,4,7,27)           16.5537         estimate D2E/DX2                !
 ! D30   D(10,4,7,28)          148.2108         estimate D2E/DX2                !
 ! D31   D(3,4,10,11)          -62.7468         estimate D2E/DX2                !
 ! D32   D(3,4,10,29)          175.4073         estimate D2E/DX2                !
 ! D33   D(3,4,10,30)           61.351          estimate D2E/DX2                !
 ! D34   D(5,4,10,11)           68.0905         estimate D2E/DX2                !
 ! D35   D(5,4,10,29)          -53.7554         estimate D2E/DX2                !
 ! D36   D(5,4,10,30)         -167.8117         estimate D2E/DX2                !
 ! D37   D(7,4,10,11)          171.4548         estimate D2E/DX2                !
 ! D38   D(7,4,10,29)           49.6089         estimate D2E/DX2                !
 ! D39   D(7,4,10,30)          -64.4474         estimate D2E/DX2                !
 ! D40   D(4,5,6,7)             11.1942         estimate D2E/DX2                !
 ! D41   D(4,5,6,8)            124.1387         estimate D2E/DX2                !
 ! D42   D(4,5,6,9)            -99.1736         estimate D2E/DX2                !
 ! D43   D(25,5,6,7)           131.4922         estimate D2E/DX2                !
 ! D44   D(25,5,6,8)          -115.5633         estimate D2E/DX2                !
 ! D45   D(25,5,6,9)            21.1245         estimate D2E/DX2                !
 ! D46   D(26,5,6,7)          -104.9077         estimate D2E/DX2                !
 ! D47   D(26,5,6,8)             8.0368         estimate D2E/DX2                !
 ! D48   D(26,5,6,9)           144.7245         estimate D2E/DX2                !
 ! D49   D(5,6,7,4)            -11.2085         estimate D2E/DX2                !
 ! D50   D(5,6,7,27)          -131.119          estimate D2E/DX2                !
 ! D51   D(5,6,7,28)           102.8543         estimate D2E/DX2                !
 ! D52   D(8,6,7,4)           -123.8907         estimate D2E/DX2                !
 ! D53   D(8,6,7,27)           116.1988         estimate D2E/DX2                !
 ! D54   D(8,6,7,28)            -9.8279         estimate D2E/DX2                !
 ! D55   D(9,6,7,4)             98.8236         estimate D2E/DX2                !
 ! D56   D(9,6,7,27)           -21.0869         estimate D2E/DX2                !
 ! D57   D(9,6,7,28)          -147.1136         estimate D2E/DX2                !
 ! D58   D(4,10,11,12)          84.5163         estimate D2E/DX2                !
 ! D59   D(4,10,11,31)         -40.6852         estimate D2E/DX2                !
 ! D60   D(4,10,11,32)        -154.6894         estimate D2E/DX2                !
 ! D61   D(29,10,11,12)       -153.91           estimate D2E/DX2                !
 ! D62   D(29,10,11,31)         80.8885         estimate D2E/DX2                !
 ! D63   D(29,10,11,32)        -33.1157         estimate D2E/DX2                !
 ! D64   D(30,10,11,12)        -38.2568         estimate D2E/DX2                !
 ! D65   D(30,10,11,31)       -163.4583         estimate D2E/DX2                !
 ! D66   D(30,10,11,32)         82.5375         estimate D2E/DX2                !
 ! D67   D(10,11,12,13)         53.6243         estimate D2E/DX2                !
 ! D68   D(10,11,12,17)       -130.0299         estimate D2E/DX2                !
 ! D69   D(31,11,12,13)        179.2324         estimate D2E/DX2                !
 ! D70   D(31,11,12,17)         -4.4218         estimate D2E/DX2                !
 ! D71   D(32,11,12,13)        -66.7194         estimate D2E/DX2                !
 ! D72   D(32,11,12,17)        109.6264         estimate D2E/DX2                !
 ! D73   D(11,12,13,14)        177.2543         estimate D2E/DX2                !
 ! D74   D(11,12,13,33)         -2.3498         estimate D2E/DX2                !
 ! D75   D(17,12,13,14)          0.8106         estimate D2E/DX2                !
 ! D76   D(17,12,13,33)       -178.7936         estimate D2E/DX2                !
 ! D77   D(11,12,17,16)       -177.1873         estimate D2E/DX2                !
 ! D78   D(11,12,17,37)          2.7691         estimate D2E/DX2                !
 ! D79   D(13,12,17,16)         -0.7243         estimate D2E/DX2                !
 ! D80   D(13,12,17,37)        179.232          estimate D2E/DX2                !
 ! D81   D(12,13,14,15)         -0.3292         estimate D2E/DX2                !
 ! D82   D(12,13,14,34)        179.9375         estimate D2E/DX2                !
 ! D83   D(33,13,14,15)        179.2771         estimate D2E/DX2                !
 ! D84   D(33,13,14,34)         -0.4563         estimate D2E/DX2                !
 ! D85   D(13,14,15,16)         -0.2607         estimate D2E/DX2                !
 ! D86   D(13,14,15,35)       -179.9392         estimate D2E/DX2                !
 ! D87   D(34,14,15,16)        179.4717         estimate D2E/DX2                !
 ! D88   D(34,14,15,35)         -0.2068         estimate D2E/DX2                !
 ! D89   D(14,15,16,17)          0.3463         estimate D2E/DX2                !
 ! D90   D(14,15,16,36)       -179.6101         estimate D2E/DX2                !
 ! D91   D(35,15,16,17)       -179.9753         estimate D2E/DX2                !
 ! D92   D(35,15,16,36)          0.0684         estimate D2E/DX2                !
 ! D93   D(15,16,17,12)          0.1551         estimate D2E/DX2                !
 ! D94   D(15,16,17,37)       -179.8011         estimate D2E/DX2                !
 ! D95   D(36,16,17,12)       -179.8884         estimate D2E/DX2                !
 ! D96   D(36,16,17,37)          0.1554         estimate D2E/DX2                !
 ! D97   D(2,18,19,20)         178.604          estimate D2E/DX2                !
 ! D98   D(2,18,19,38)          -1.603          estimate D2E/DX2                !
 ! D99   D(23,18,19,20)          0.2807         estimate D2E/DX2                !
 ! D100  D(23,18,19,38)       -179.9263         estimate D2E/DX2                !
 ! D101  D(2,18,23,22)        -178.3983         estimate D2E/DX2                !
 ! D102  D(2,18,23,42)           1.9614         estimate D2E/DX2                !
 ! D103  D(19,18,23,22)         -0.0571         estimate D2E/DX2                !
 ! D104  D(19,18,23,42)       -179.6974         estimate D2E/DX2                !
 ! D105  D(18,19,20,21)         -0.2917         estimate D2E/DX2                !
 ! D106  D(18,19,20,39)        179.7682         estimate D2E/DX2                !
 ! D107  D(38,19,20,21)        179.9183         estimate D2E/DX2                !
 ! D108  D(38,19,20,39)         -0.0218         estimate D2E/DX2                !
 ! D109  D(19,20,21,22)          0.08           estimate D2E/DX2                !
 ! D110  D(19,20,21,40)        179.9968         estimate D2E/DX2                !
 ! D111  D(39,20,21,22)       -179.9802         estimate D2E/DX2                !
 ! D112  D(39,20,21,40)         -0.0633         estimate D2E/DX2                !
 ! D113  D(20,21,22,23)          0.1453         estimate D2E/DX2                !
 ! D114  D(20,21,22,41)        179.9982         estimate D2E/DX2                !
 ! D115  D(40,21,22,23)       -179.7716         estimate D2E/DX2                !
 ! D116  D(40,21,22,41)          0.0813         estimate D2E/DX2                !
 ! D117  D(21,22,23,18)         -0.1565         estimate D2E/DX2                !
 ! D118  D(21,22,23,42)        179.4841         estimate D2E/DX2                !
 ! D119  D(41,22,23,18)        179.9902         estimate D2E/DX2                !
 ! D120  D(41,22,23,42)         -0.3691         estimate D2E/DX2                !
 --------------------------------------------------------------------------------
 Trust Radius=3.00D-01 FncErr=1.00D-07 GrdErr=1.00D-06 EigMax=2.50D+02 EigMin=1.00D-04
 Number of steps in this run=    252 maximum allowed number of steps=    252.
 GradGradGradGradGradGradGradGradGradGradGradGradGradGradGradGradGradGrad

 Leave Link  103 at Thu Sep 24 00:27:06 2020, MaxMem=  2147483648 cpu:               0.1 elap:               0.0
 (Enter /prod/apps/gaussian/g16b1/l202.exe)
                          Input orientation:                          
 ---------------------------------------------------------------------
 Center     Atomic      Atomic             Coordinates (Angstroms)
 Number     Number       Type             X           Y           Z
 ---------------------------------------------------------------------
      1          8           0       -1.903000    1.077000    1.880000
      2         16           0       -0.451000    1.026000    1.513000
      3          7           0        0.060000   -0.359000    0.936000
      4          6           0       -0.806000   -1.233000    0.169000
      5          6           0       -1.636000   -0.609000   -1.034000
      6         16           0       -3.113000   -1.530000   -0.507000
      7          6           0       -2.062000   -1.813000    0.947000
      8          8           0       -4.302000   -0.684000   -0.253000
      9          8           0       -3.310000   -2.765000   -1.306000
     10          6           0        0.037000   -2.432000   -0.330000
     11          6           0        1.205000   -2.117000   -1.290000
     12          6           0        2.526000   -1.707000   -0.663000
     13          6           0        3.145000   -2.501000    0.314000
     14          6           0        4.387000   -2.151000    0.848000
     15          6           0        5.043000   -0.997000    0.409000
     16          6           0        4.445000   -0.203000   -0.572000
     17          6           0        3.201000   -0.558000   -1.101000
     18          6           0       -0.263000    2.321000    0.249000
     19          6           0       -1.324000    3.182000   -0.042000
     20          6           0       -1.155000    4.191000   -0.995000
     21          6           0        0.070000    4.341000   -1.648000
     22          6           0        1.131000    3.478000   -1.349000
     23          6           0        0.967000    2.467000   -0.403000
     24          8           0        0.487000    1.438000    2.595000
     25          1           0       -1.310000   -0.850000   -2.047000
     26          1           0       -1.829000    0.460000   -0.942000
     27          1           0       -2.012000   -2.859000    1.257000
     28          1           0       -2.386000   -1.162000    1.758000
     29          1           0       -0.643000   -3.127000   -0.837000
     30          1           0        0.412000   -2.959000    0.555000
     31          1           0        0.898000   -1.351000   -2.013000
     32          1           0        1.384000   -3.025000   -1.882000
     33          1           0        2.656000   -3.409000    0.660000
     34          1           0        4.845000   -2.783000    1.605000
     35          1           0        6.010000   -0.724000    0.823000
     36          1           0        4.946000    0.694000   -0.928000
     37          1           0        2.746000    0.066000   -1.867000
     38          1           0       -2.270000    3.056000    0.473000
     39          1           0       -1.981000    4.858000   -1.224000
     40          1           0        0.200000    5.125000   -2.388000
     41          1           0        2.085000    3.593000   -1.856000
     42          1           0        1.788000    1.793000   -0.178000
 ---------------------------------------------------------------------
                    Distance matrix (angstroms):
                    1          2          3          4          5
     1  O    0.000000
     2  S    1.498531   0.000000
     3  N    2.608946   1.585016   0.000000
     4  C    3.076854   2.652441   1.449869   0.000000
     5  C    3.377171   3.250332   2.611478   1.589177   0.000000
     6  S    3.736083   4.207111   3.677148   2.422279   1.818653
     7  C    3.041031   3.312944   2.572377   1.587205   2.357001
     8  O    3.661422   4.568704   4.532813   3.563917   2.779054
     9  O    5.185673   5.521985   4.708747   3.285219   2.743100
    10  C    4.578295   3.948741   2.429118   1.548306   2.572523
    11  C    5.469022   4.525218   3.058867   2.637093   3.226590
    12  C    5.816661   4.589858   3.233429   3.466861   4.320358
    13  C    6.382534   5.177697   3.806872   4.152018   5.315518
    14  C    7.144866   5.825959   4.684222   5.317049   6.495862
    15  C    7.396772   5.957800   5.051244   5.858677   6.844109
    16  C    6.924436   5.461546   4.639679   5.402128   6.112024
    17  C    6.132732   4.762264   3.748980   4.257297   4.837733
    18  C    2.626271   1.819358   2.785444   3.596132   3.480821
    19  C    2.908668   2.797944   3.925636   4.450289   3.931042
    20  C    4.303734   4.099135   5.089940   5.558460   4.824198
    21  C    5.195499   4.610053   5.363502   5.927760   5.271616
    22  C    5.039484   4.087306   4.592476   5.315055   4.945612
    23  C    3.921873   2.785366   3.256048   4.142549   4.078670
    24  O    2.520644   1.490071   2.482704   3.832958   4.676214
    25  H    4.414330   4.114712   3.319077   2.304639   1.091112
    26  H    2.889611   2.871631   2.786748   2.268722   1.090172
    27  H    3.986490   4.194697   3.262855   2.298272   3.233041
    28  H    2.293751   2.931142   2.702482   2.241955   2.943395
    29  H    5.161715   4.775644   3.361482   2.150777   2.713887
    30  H    4.837783   4.188408   2.651238   2.147463   3.498818
    31  H    5.375522   4.461234   3.222252   2.771040   2.816054
    32  H    6.464009   5.594984   4.098982   3.494848   3.959364
    33  H    6.511304   5.481814   4.014709   4.118434   5.397305
    34  H    7.778864   6.524152   5.405512   6.033108   7.327616
    35  H    8.183912   6.729273   5.962256   6.866196   7.869116
    36  H    7.412176   5.932648   5.334445   6.164596   6.710571
    37  H    6.056016   4.750454   3.905385   4.295277   4.511257
    38  H    2.455764   2.917407   4.159987   4.542162   4.013132
    39  H    4.892531   4.951393   6.004029   6.357779   5.481169
    40  H    6.246978   5.695911   6.414268   6.926359   6.171140
    41  H    6.015987   4.936694   5.245397   5.979029   5.672595
    42  H    4.286199   2.908761   2.976253   4.000740   4.269206
                    6          7          8          9         10
     6  S    0.000000
     7  C    1.816262   0.000000
     8  O    1.481200   2.780691   0.000000
     9  O    1.484060   2.745873   2.534449   0.000000
    10  C    3.281377   2.533711   4.678499   3.502267   0.000000
    11  C    4.427503   3.971130   5.784108   4.561292   1.544360
    12  C    5.643934   4.863443   6.916373   5.965879   2.613740
    13  C    6.385879   5.290263   7.686403   6.660414   3.174769
    14  C    7.646677   6.458610   8.880485   8.016266   4.515434
    15  C    8.224566   7.171912   9.373646   8.708597   5.259789
    16  C    7.673885   6.873173   8.766021   8.200160   4.945449
    17  C    6.415935   5.785196   7.551820   6.877935   3.757288
    18  C    4.850179   4.562188   5.059204   6.129407   4.797525
    19  C    5.061590   5.145172   4.884564   6.395991   5.783793
    20  C    6.066445   6.375110   5.849769   7.288805   6.762190
    21  C    6.775102   7.010789   6.805221   7.876332   6.900126
    22  C    6.618199   6.592537   6.931158   7.661552   6.096171
    23  C    5.712550   5.414401   6.141145   6.817768   4.987026
    24  O    5.602805   4.447730   5.962257   6.877515   4.871861
    25  H    2.466741   3.233714   3.492572   2.866410   2.695408
    26  H    2.407900   2.964648   2.810549   3.567420   3.495735
    27  H    2.467820   1.092115   3.500689   2.874475   2.626652
    28  H    2.407110   1.089265   2.818450   3.579313   3.441449
    29  H    2.959765   2.631124   4.438196   2.732013   1.096574
    30  H    3.949115   2.754570   5.296252   4.165842   1.096166
    31  H    4.288146   4.211490   5.530144   4.495165   2.177699
    32  H    4.934436   4.620292   6.361173   4.736350   2.138869
    33  H    6.178502   4.988899   7.528144   6.314511   2.965433
    34  H    8.328284   7.005749   9.566900   8.658999   5.194641
    35  H    9.254602   8.146072  10.368062   9.775516   6.318497
    36  H    8.370836   7.675463   9.374434   8.959302   5.850450
    37  H    6.222917   5.879294   7.269237   6.708533   3.992625
    38  H    4.764708   4.896438   4.317835   6.174988   6.007096
    39  H    6.527025   7.015842   6.086349   7.738417   7.616801
    40  H    7.668322   8.023385   7.653150   8.703041   7.833912
    41  H    7.421869   7.367446   7.852140   8.356596   6.543975
    42  H    5.930461   5.393641   6.574896   6.930898   4.575995
                   11         12         13         14         15
    11  C    0.000000
    12  C    1.518641   0.000000
    13  C    2.546345   1.402899   0.000000
    14  C    3.833709   2.437945   1.396503   0.000000
    15  C    4.344105   2.826406   2.423519   1.398132   0.000000
    16  C    3.830995   2.439848   2.784924   2.411321   1.396568
    17  C    2.539728   1.402737   2.404290   2.782597   2.421938
    18  C    4.921320   4.983478   5.905114   6.479204   6.260061
    19  C    6.002728   6.253836   7.238452   7.864382   7.629294
    20  C    6.741475   6.960344   8.061411   8.621565   8.203765
    21  C    6.566746   6.601550   7.753582   8.186121   7.579988
    22  C    5.595800   5.413026   6.524585   6.863963   6.198381
    23  C    4.675090   4.463223   5.471636   5.881099   5.410399
    24  O    5.314769   4.966197   5.271019   5.580585   5.609363
    25  H    2.916087   4.167109   5.305388   6.521460   6.812793
    26  H    3.995897   4.872346   5.923321   6.975678   7.153491
    27  H    4.169756   5.060331   5.254718   6.451027   7.345691
    28  H    4.805997   5.503273   5.871117   6.905052   7.552289
    29  H    2.154162   3.476958   4.008194   5.393765   6.198388
    30  H    2.177576   2.742266   2.781570   4.066858   5.031592
    31  H    1.097148   2.144672   3.433138   4.582406   4.813775
    32  H    1.098621   2.127733   2.863235   4.151480   4.769669
    33  H    2.752665   2.159637   1.087796   2.148085   3.402722
    34  H    4.698317   3.417508   2.153185   1.087307   2.158568
    35  H    5.430768   3.913150   3.409551   2.161269   1.086745
    36  H    4.693383   3.419273   3.872233   3.400100   2.157883
    37  H    2.733697   2.154425   3.391969   3.870297   3.403873
    38  H    6.476397   6.854070   7.760654   8.459854   8.361272
    39  H    7.668479   7.982919   9.099242   9.693848   9.288934
    40  H    7.393388   7.420386   8.609861   8.996824   8.291969
    41  H    5.805072   5.450480   6.555100   6.753100   5.911691
    42  H    4.106645   3.609691   4.530116   4.833489   4.327088
                   16         17         18         19         20
    16  C    0.000000
    17  C    1.397642   0.000000
    18  C    5.404617   4.702174   0.000000
    19  C    6.709731   5.965292   1.397041   0.000000
    20  C    7.130650   6.445074   2.416630   1.398160   0.000000
    21  C    6.398932   5.839741   2.791039   2.421932   1.396257
    22  C    5.013590   4.542653   2.415676   2.796943   2.420636
    23  C    4.387932   3.824733   1.399757   2.426979   2.797414
    24  O    5.328089   5.001023   2.616468   3.643491   4.812824
    25  H    5.976141   4.618366   4.052538   4.503026   5.151933
    26  H    6.319774   5.134443   2.708165   2.911067   3.791760
    27  H    7.217508   6.166858   5.559448   6.217268   7.450400
    28  H    7.280875   6.305019   4.349195   4.820600   6.144020
    29  H    5.874329   4.630960   5.568168   6.395253   7.337590
    30  H    5.013058   4.035549   5.331760   6.409523   7.482011
    31  H    3.996948   2.600846   4.466335   5.419429   5.997074
    32  H    4.364574   3.161889   5.986108   7.017529   7.700906
    33  H    3.872568   3.395047   6.443786   7.731396   8.661567
    34  H    3.399372   3.869857   7.347191   8.737871   9.560161
    35  H    2.160253   3.408785   6.996573   8.354198   8.876912
    36  H    1.087357   2.154636   5.582664   6.803531   7.032475
    37  H    2.153134   1.087730   4.314691   5.441046   5.744024
    38  H    7.536865   6.743168   2.149058   1.084443   2.164827
    39  H    8.205626   7.496753   3.399650   2.153543   1.086097
    40  H    7.050210   6.554301   3.876926   3.406103   2.156115
    41  H    4.650578   4.364205   3.400311   3.883400   3.405367
    42  H    3.346476   2.894080   2.160489   3.410625   3.883187
                   21         22         23         24         25
    21  C    0.000000
    22  C    1.399961   0.000000
    23  C    2.422088   1.394250   0.000000
    24  O    5.157940   4.486811   3.205814   0.000000
    25  H    5.386101   5.017696   4.346257   5.478350   0.000000
    26  H    4.377990   4.246831   3.483703   4.339436   1.790666
    27  H    8.038268   7.538385   6.324264   5.147762   3.930051
    28  H    6.922123   6.599420   5.392789   3.964177   3.966503
    29  H    7.545669   6.858225   5.837233   5.821920   2.663403
    30  H    7.632835   6.751085   5.537803   4.847766   3.766108
    31  H    5.763478   4.880003   4.144151   5.401954   2.264381
    32  H    7.485941   6.529710   5.702929   6.384865   3.466336
    33  H    8.489803   7.334335   6.205648   5.651743   5.441092
    34  H    9.172459   7.856210   6.828869   6.147284   7.413341
    35  H    8.188020   6.795515   6.092406   6.190134   7.863535
    36  H    6.131426   4.741532   4.387664   5.731295   6.540155
    37  H    5.048224   3.810288   3.327602   5.186030   4.162042
    38  H    3.409614   3.881310   3.404771   3.836907   4.746455
    39  H    2.157236   3.406548   3.883507   5.689656   5.805931
    40  H    1.085889   2.158446   3.404920   6.205371   6.172277
    41  H    2.159396   1.086458   2.151513   5.197021   5.594887
    42  H    3.406571   2.154557   1.085791   3.083530   4.480649
                   26         27         28         29         30
    26  H    0.000000
    27  H    3.985580   0.000000
    28  H    3.198614   1.808504   0.000000
    29  H    3.779443   2.516112   3.692330   0.000000
    30  H    4.353464   2.525585   3.536272   1.754683   0.000000
    31  H    3.444313   4.629802   5.004080   2.629037   3.068629
    32  H    4.832411   4.627493   5.561769   2.282796   2.624521
    33  H    6.136024   4.738052   5.628177   3.633722   2.291083
    34  H    7.845160   6.866246   7.412045   6.016631   4.559053
    35  H    8.122007   8.312585   8.459248   7.265839   6.033627
    36  H    6.779054   8.112447   8.026055   6.770912   6.008399
    37  H    4.684174   6.399497   6.402034   4.768802   4.523745
    38  H    2.989301   5.972307   4.410919   6.526310   6.586355
    39  H    4.409652   8.106072   6.730286   8.105568   8.366408
    40  H    5.288665   9.051145   7.962605   8.438706   8.605652
    41  H    5.096124   8.252544   7.460621   7.323848   7.179175
    42  H    3.929793   6.175786   5.468308   5.527245   5.001217
                   31         32         33         34         35
    31  H    0.000000
    32  H    1.748037   0.000000
    33  H    3.804058   2.868310   0.000000
    34  H    5.542505   4.918969   2.465081   0.000000
    35  H    5.879504   5.831938   4.299431   2.491632   0.000000
    36  H    4.663213   5.237263   4.959884   4.303001   2.491751
    37  H    2.333304   3.377803   4.297610   4.957558   4.302778
    38  H    5.969763   7.475045   8.129986   9.273541   9.108749
    39  H    6.889328   8.596387   9.664084  10.629318   9.960171
    40  H    6.524293   8.251084   9.388897  10.002827   8.847453
    41  H    5.086920   6.655073   7.462191   7.762055   6.420215
    42  H    3.747541   5.126398   5.340082   5.784818   5.016231
                   36         37         38         39         40
    36  H    0.000000
    37  H    2.473076   0.000000
    38  H    7.720913   6.290942   0.000000
    39  H    8.087635   6.761748   2.492094   0.000000
    40  H    6.655064   5.687446   4.308942   2.486553   0.000000
    41  H    4.177404   3.588422   4.967760   4.304882   2.486619
    42  H    3.426845   2.598656   4.299574   4.969276   4.302100
                   41         42
    41  H    0.000000
    42  H    2.478688   0.000000
 Symmetry turned off by external request.
 Stoichiometry    C17H18NO4S2(1-)
 Framework group  C1[X(C17H18NO4S2)]
 Deg. of freedom   120
 Full point group                 C1      NOp   1
 Rotational constants (GHZ):           0.2401767           0.1852516           0.1300408
 Leave Link  202 at Thu Sep 24 00:27:06 2020, MaxMem=  2147483648 cpu:               0.0 elap:               0.0
 (Enter /prod/apps/gaussian/g16b1/l301.exe)
 Standard basis: 6-31G(d) (6D, 7F)
 Ernie: Thresh=  0.10000D-02 Tol=  0.10000D-05 Strict=F.
   404 basis functions,   792 primitive gaussians,   404 cartesian basis functions
    96 alpha electrons       96 beta electrons
       nuclear repulsion energy      2503.1338923950 Hartrees.
 IExCor=  402 DFT=T Ex+Corr=B3LYP ExCW=0 ScaHFX=  0.200000
 ScaDFX=  0.800000  0.720000  1.000000  0.810000 ScalE2=  1.000000  1.000000
 IRadAn=      5 IRanWt=     -1 IRanGd=            0 ICorTp=0 IEmpDi=  4
 NAtoms=   42 NActive=   42 NUniq=   42 SFac= 1.00D+00 NAtFMM=   60 NAOKFM=F Big=F
 Integral buffers will be    131072 words long.
 Raffenetti 2 integral format.
 Two-electron integral symmetry is turned off.
 Using the following non-standard input for PCM:
 MSTModel=DFT cav MSTcharged
 --- end of non-standard input.
 MST model for solvation energy: B3LYP parametrization.
 MST cavity parameters:
 ISph   IAn     Re0     Alpha   Atom Type   QCorr
 ------------------------------------------------
   1      8     1.40     1.25      O          F
   2     16     1.75     1.25      S          F
   3      7     1.40     1.15      N          T
   4      6     1.50     1.25      C          F
   5      6     1.50     1.25      CH2        F
   6     16     1.75     1.25      S          F
   7      6     1.50     1.25      CH2        F
   8      8     1.40     1.25      O          F
   9      8     1.40     1.25      O          F
  10      6     1.50     1.25      CH2        F
  11      6     1.50     1.25      CH2        F
  12      6     1.50     1.25      C          F
  13      6     1.50     1.25      CH         F
  14      6     1.50     1.25      CH         F
  15      6     1.50     1.25      CH         F
  16      6     1.50     1.25      CH         F
  17      6     1.50     1.25      CH         F
  18      6     1.50     1.25      C          F
  19      6     1.50     1.25      CH         F
  20      6     1.50     1.25      CH         F
  21      6     1.50     1.25      CH         F
  22      6     1.50     1.25      CH         F
  23      6     1.50     1.25      CH         F
  24      8     1.40     1.25      O          F
  25      1     1.20     1.25      CH2        F
  26      1     1.20     1.25      CH2        F
  27      1     1.20     1.25      CH2        F
  28      1     1.20     1.25      CH2        F
  29      1     1.20     1.25      CH2        F
  30      1     1.20     1.25      CH2        F
  31      1     1.20     1.25      CH2        F
  32      1     1.20     1.25      CH2        F
  33      1     1.20     1.25      CH         F
  34      1     1.20     1.25      CH         F
  35      1     1.20     1.25      CH         F
  36      1     1.20     1.25      CH         F
  37      1     1.20     1.25      CH         F
  38      1     1.20     1.25      CH         F
  39      1     1.20     1.25      CH         F
  40      1     1.20     1.25      CH         F
  41      1     1.20     1.25      CH         F
  42      1     1.20     1.25      CH         F
 ------------------------------------------------------------------------------
 Polarizable Continuum Model (PCM)
 =================================
 Model                : PCM.
 Atomic radii         : MST.
 Polarization charges : Total charges.
 Charge compensation  : None.
 Solution method      : On-the-fly selection.
 Cavity type          : Scaled VdW (van der Waals Surface) (Alpha=1.250).
 Cavity algorithm     : GePol (No added spheres)
                        Default sphere list used, NSphG=   42.
                        Lebedev-Laikov grids with approx.  5.0 points / Ang**2.
                        Smoothing algorithm: York/Karplus (Gamma=1.0000).
                        Polarization charges: spherical gaussians, with
                                              point-specific exponents (IZeta= 3).
                        Self-potential: point-specific (ISelfS= 7).
                        Self-field    : sphere-specific E.n sum rule (ISelfD= 2).
 1st derivatives      : Analytical E(r).r(x)/FMM algorithm (CHGder, D1EAlg=3).
                        Cavity 1st derivative terms included.
 Solvent              : Water, Eps=  78.355300 Eps(inf)=   1.777849
 ------------------------------------------------------------------------------
 GePol: Number of generator spheres                  =      42
 GePol: Total number of spheres                      =      42
 GePol: Number of exposed spheres                    =      42 (100.00%)
 GePol: Number of points                             =    3029
 GePol: Average weight of points                     =       0.13
 GePol: Minimum weight of points                     =   0.90D-09
 GePol: Maximum weight of points                     =    0.22001
 GePol: Number of points with low weight             =     207
 GePol: Fraction of low-weight points (<1% of avg)   =       6.83%
 GePol: Cavity surface area                          =    402.452 Ang**2
 GePol: Cavity volume                                =    402.456 Ang**3
 PCM non-electrostatic energy =         0.0039320281 Hartrees.
 Nuclear repulsion after PCM non-electrostatic terms =     2503.1378244231 Hartrees.
 Leave Link  301 at Thu Sep 24 00:27:07 2020, MaxMem=  2147483648 cpu:               0.3 elap:               0.1
 (Enter /prod/apps/gaussian/g16b1/l302.exe)
 NPDir=0 NMtPBC=     1 NCelOv=     1 NCel=       1 NClECP=     1 NCelD=      1
         NCelK=      1 NCelE2=     1 NClLst=     1 CellRange=     0.0.
 One-electron integrals computed using PRISM.
 NBasis=   404 RedAO= T EigKep=  4.70D-04  NBF=   404
 NBsUse=   404 1.00D-06 EigRej= -1.00D+00 NBFU=   404
 Precomputing XC quadrature grid using
 IXCGrd= 4 IRadAn=           5 IRanWt=          -1 IRanGd=           0 AccXCQ= 0.00D+00.
 Generated NRdTot=       0 NPtTot=           0 NUsed=           0 NTot=          32
 NSgBfM=   401   401   401   401   401 MxSgAt=    42 MxSgA2=    42.
 Leave Link  302 at Thu Sep 24 00:27:07 2020, MaxMem=  2147483648 cpu:               2.5 elap:               0.7
 (Enter /prod/apps/gaussian/g16b1/l303.exe)
 DipDrv:  MaxL=1.
 Leave Link  303 at Thu Sep 24 00:27:07 2020, MaxMem=  2147483648 cpu:               0.2 elap:               0.1
 (Enter /prod/apps/gaussian/g16b1/l401.exe)
 ExpMin= 1.17D-01 ExpMax= 2.19D+04 ExpMxC= 3.30D+03 IAcc=3 IRadAn=         5 AccDes= 0.00D+00
 Harris functional with IExCor=  402 and IRadAn=       5 diagonalized for initial guess.
 HarFok:  IExCor=  402 AccDes= 0.00D+00 IRadAn=         5 IDoV= 1 UseB2=F ITyADJ=14
 ICtDFT=  3500011 ScaDFX=  1.000000  1.000000  1.000000  1.000000
 FoFCou: FMM=F IPFlag=           0 FMFlag=      100000 FMFlg1=           0
         NFxFlg=           0 DoJE=T BraDBF=F KetDBF=T FulRan=T
         wScrn=  0.000000 ICntrl=       500 IOpCl=  0 I1Cent=   200000004 NGrid=           0
         NMat0=    1 NMatS0=      1 NMatT0=    0 NMatD0=    1 NMtDS0=    0 NMtDT0=    0
 Symmetry not used in FoFCou.
 Harris En= -1810.80000830044    
 JPrj=0 DoOrth=F DoCkMO=F.
 Leave Link  401 at Thu Sep 24 00:27:11 2020, MaxMem=  2147483648 cpu:              14.8 elap:               3.7
 (Enter /prod/apps/gaussian/g16b1/l502.exe)
 Two-electron integral symmetry not used.
 Closed shell SCF:
 Using DIIS extrapolation, IDIIS=  1040.
 NGot=  2147483648 LenX=  2147151304 LenY=  2146987647
 Requested convergence on RMS density matrix=1.00D-08 within2000 cycles.
 Requested convergence on MAX density matrix=1.00D-06.
 Requested convergence on             energy=1.00D-06.
 No special actions if energy rises.

 Cycle   1  Pass 1  IDiag  1:
 FoFJK:  IHMeth= 1 ICntrl=       0 DoSepK=F KAlg= 0 I1Cent=           0 FoldK=F
 IRaf= 780000000 NMat=       1 IRICut=       1 DoRegI=T DoRafI=F ISym2E= 0 IDoP0=0 IntGTp=1.
 FoFCou: FMM=F IPFlag=           0 FMFlag=      100000 FMFlg1=           0
         NFxFlg=           0 DoJE=F BraDBF=F KetDBF=F FulRan=T
         wScrn=  0.000000 ICntrl=         0 IOpCl=  0 I1Cent=           0 NGrid=           0
         NMat0=    1 NMatS0=      1 NMatT0=    0 NMatD0=    1 NMtDS0=    0 NMtDT0=    0
 Symmetry not used in FoFCou.
 Inv3:  Mode=1 IEnd=    27524523.
 Iteration    1 A*A^-1 deviation from unit magnitude is 3.77D-15 for    721.
 Iteration    1 A*A^-1 deviation from orthogonality  is 1.89D-15 for    792    115.
 Iteration    1 A^-1*A deviation from unit magnitude is 3.33D-15 for    721.
 Iteration    1 A^-1*A deviation from orthogonality  is 5.90D-13 for   2290   2287.
 E= -1809.78828727686    
 DIIS: error= 3.91D-02 at cycle   1 NSaved=   1.
 NSaved= 1 IEnMin= 1 EnMin= -1809.78828727686     IErMin= 1 ErrMin= 3.91D-02
 ErrMax= 3.91D-02  0.00D+00 EMaxC= 1.00D-01 BMatC= 1.02D+00 BMatP= 1.02D+00
 IDIUse=3 WtCom= 6.09D-01 WtEn= 3.91D-01
 Coeff-Com:  0.100D+01
 Coeff-En:   0.100D+01
 Coeff:      0.100D+01
 Gap=     0.204 Goal=   None    Shift=    0.000
 GapD=    0.204 DampG=1.000 DampE=0.500 DampFc=0.5000 IDamp=-1.
 Damping current iteration by 5.00D-01
 RMSDP=6.08D-03 MaxDP=5.15D-01              OVMax= 2.29D-01

 Cycle   2  Pass 1  IDiag  1:
 E= -1810.05788019578     Delta-E=       -0.269592918918 Rises=F Damp=T
 DIIS: error= 1.31D-02 at cycle   2 NSaved=   2.
 NSaved= 2 IEnMin= 2 EnMin= -1810.05788019578     IErMin= 2 ErrMin= 1.31D-02
 ErrMax= 1.31D-02  0.00D+00 EMaxC= 1.00D-01 BMatC= 1.19D-01 BMatP= 1.02D+00
 IDIUse=3 WtCom= 8.69D-01 WtEn= 1.31D-01
 Coeff-Com:  0.199D+00 0.801D+00
 Coeff-En:   0.318D+00 0.682D+00
 Coeff:      0.214D+00 0.786D+00
 Gap=     0.218 Goal=   None    Shift=    0.000
 RMSDP=1.63D-03 MaxDP=1.24D-01 DE=-2.70D-01 OVMax= 1.69D-01

 Cycle   3  Pass 1  IDiag  1:
 E= -1810.60919623384     Delta-E=       -0.551316038056 Rises=F Damp=F
 DIIS: error= 8.83D-03 at cycle   3 NSaved=   3.
 NSaved= 3 IEnMin= 3 EnMin= -1810.60919623384     IErMin= 3 ErrMin= 8.83D-03
 ErrMax= 8.83D-03  0.00D+00 EMaxC= 1.00D-01 BMatC= 6.25D-02 BMatP= 1.19D-01
 IDIUse=3 WtCom= 9.12D-01 WtEn= 8.83D-02
 Coeff-Com:  0.616D-01 0.427D+00 0.512D+00
 Coeff-En:   0.000D+00 0.000D+00 0.100D+01
 Coeff:      0.562D-01 0.389D+00 0.555D+00
 Gap=     0.199 Goal=   None    Shift=    0.000
 RMSDP=9.22D-04 MaxDP=3.26D-02 DE=-5.51D-01 OVMax= 5.73D-02

 Cycle   4  Pass 1  IDiag  1:
 E= -1810.65993141349     Delta-E=       -0.050735179653 Rises=F Damp=F
 DIIS: error= 3.53D-03 at cycle   4 NSaved=   4.
 NSaved= 4 IEnMin= 4 EnMin= -1810.65993141349     IErMin= 4 ErrMin= 3.53D-03
 ErrMax= 3.53D-03  0.00D+00 EMaxC= 1.00D-01 BMatC= 9.53D-03 BMatP= 6.25D-02
 IDIUse=3 WtCom= 9.65D-01 WtEn= 3.53D-02
 Coeff-Com:  0.529D-02 0.828D-01 0.297D+00 0.615D+00
 Coeff-En:   0.000D+00 0.000D+00 0.122D+00 0.878D+00
 Coeff:      0.510D-02 0.799D-01 0.291D+00 0.624D+00
 Gap=     0.191 Goal=   None    Shift=    0.000
 RMSDP=3.13D-04 MaxDP=1.17D-02 DE=-5.07D-02 OVMax= 2.30D-02

 Cycle   5  Pass 1  IDiag  1:
 E= -1810.66809118198     Delta-E=       -0.008159768495 Rises=F Damp=F
 DIIS: error= 8.81D-04 at cycle   5 NSaved=   5.
 NSaved= 5 IEnMin= 5 EnMin= -1810.66809118198     IErMin= 5 ErrMin= 8.81D-04
 ErrMax= 8.81D-04  0.00D+00 EMaxC= 1.00D-01 BMatC= 8.11D-04 BMatP= 9.53D-03
 IDIUse=3 WtCom= 9.91D-01 WtEn= 8.81D-03
 Coeff-Com: -0.160D-02 0.150D-01 0.116D+00 0.334D+00 0.536D+00
 Coeff-En:   0.000D+00 0.000D+00 0.000D+00 0.000D+00 0.100D+01
 Coeff:     -0.158D-02 0.149D-01 0.115D+00 0.331D+00 0.540D+00
 Gap=     0.195 Goal=   None    Shift=    0.000
 RMSDP=9.52D-05 MaxDP=8.28D-03 DE=-8.16D-03 OVMax= 7.74D-03

 Cycle   6  Pass 1  IDiag  1:
 E= -1810.66882762265     Delta-E=       -0.000736440666 Rises=F Damp=F
 DIIS: error= 1.64D-04 at cycle   6 NSaved=   6.
 NSaved= 6 IEnMin= 6 EnMin= -1810.66882762265     IErMin= 6 ErrMin= 1.64D-04
 ErrMax= 1.64D-04  0.00D+00 EMaxC= 1.00D-01 BMatC= 4.90D-05 BMatP= 8.11D-04
 IDIUse=3 WtCom= 9.98D-01 WtEn= 1.64D-03
 Coeff-Com: -0.107D-02 0.247D-02 0.389D-01 0.124D+00 0.276D+00 0.560D+00
 Coeff-En:   0.000D+00 0.000D+00 0.000D+00 0.000D+00 0.000D+00 0.100D+01
 Coeff:     -0.107D-02 0.246D-02 0.388D-01 0.123D+00 0.276D+00 0.561D+00
 Gap=     0.193 Goal=   None    Shift=    0.000
 RMSDP=2.28D-05 MaxDP=1.46D-03 DE=-7.36D-04 OVMax= 2.07D-03

 Cycle   7  Pass 1  IDiag  1:
 E= -1810.66886777419     Delta-E=       -0.000040151537 Rises=F Damp=F
 DIIS: error= 6.64D-05 at cycle   7 NSaved=   7.
 NSaved= 7 IEnMin= 7 EnMin= -1810.66886777419     IErMin= 7 ErrMin= 6.64D-05
 ErrMax= 6.64D-05  0.00D+00 EMaxC= 1.00D-01 BMatC= 4.65D-06 BMatP= 4.90D-05
 IDIUse=1 WtCom= 1.00D+00 WtEn= 0.00D+00
 Coeff-Com: -0.459D-03-0.463D-04 0.109D-01 0.378D-01 0.105D+00 0.304D+00
 Coeff-Com:  0.543D+00
 Coeff:     -0.459D-03-0.463D-04 0.109D-01 0.378D-01 0.105D+00 0.304D+00
 Coeff:      0.543D+00
 Gap=     0.194 Goal=   None    Shift=    0.000
 RMSDP=7.00D-06 MaxDP=4.17D-04 DE=-4.02D-05 OVMax= 5.67D-04

 Cycle   8  Pass 1  IDiag  1:
 E= -1810.66887170577     Delta-E=       -0.000003931579 Rises=F Damp=F
 DIIS: error= 2.46D-05 at cycle   8 NSaved=   8.
 NSaved= 8 IEnMin= 8 EnMin= -1810.66887170577     IErMin= 8 ErrMin= 2.46D-05
 ErrMax= 2.46D-05  0.00D+00 EMaxC= 1.00D-01 BMatC= 3.64D-07 BMatP= 4.65D-06
 IDIUse=1 WtCom= 1.00D+00 WtEn= 0.00D+00
 Coeff-Com: -0.142D-03-0.244D-03 0.185D-02 0.755D-02 0.281D-01 0.103D+00
 Coeff-Com:  0.277D+00 0.583D+00
 Coeff:     -0.142D-03-0.244D-03 0.185D-02 0.755D-02 0.281D-01 0.103D+00
 Coeff:      0.277D+00 0.583D+00
 Gap=     0.194 Goal=   None    Shift=    0.000
 RMSDP=2.03D-06 MaxDP=8.47D-05 DE=-3.93D-06 OVMax= 2.15D-04

 Cycle   9  Pass 1  IDiag  1:
 E= -1810.66887198467     Delta-E=       -0.000000278900 Rises=F Damp=F
 DIIS: error= 1.20D-05 at cycle   9 NSaved=   9.
 NSaved= 9 IEnMin= 9 EnMin= -1810.66887198467     IErMin= 9 ErrMin= 1.20D-05
 ErrMax= 1.20D-05  0.00D+00 EMaxC= 1.00D-01 BMatC= 6.19D-08 BMatP= 3.64D-07
 IDIUse=1 WtCom= 1.00D+00 WtEn= 0.00D+00
 Coeff-Com: -0.207D-04-0.114D-03-0.442D-03-0.920D-03 0.167D-02 0.160D-01
 Coeff-Com:  0.838D-01 0.339D+00 0.561D+00
 Coeff:     -0.207D-04-0.114D-03-0.442D-03-0.920D-03 0.167D-02 0.160D-01
 Coeff:      0.838D-01 0.339D+00 0.561D+00
 Gap=     0.194 Goal=   None    Shift=    0.000
 RMSDP=6.77D-07 MaxDP=3.79D-05 DE=-2.79D-07 OVMax= 6.83D-05

 Cycle  10  Pass 1  IDiag  1:
 E= -1810.66887203917     Delta-E=       -0.000000054501 Rises=F Damp=F
 DIIS: error= 2.20D-06 at cycle  10 NSaved=  10.
 NSaved=10 IEnMin=10 EnMin= -1810.66887203917     IErMin=10 ErrMin= 2.20D-06
 ErrMax= 2.20D-06  0.00D+00 EMaxC= 1.00D-01 BMatC= 2.51D-09 BMatP= 6.19D-08
 IDIUse=1 WtCom= 1.00D+00 WtEn= 0.00D+00
 Coeff-Com: -0.668D-05-0.383D-04-0.310D-03-0.805D-03-0.409D-03 0.328D-02
 Coeff-Com:  0.297D-01 0.144D+00 0.279D+00 0.546D+00
 Coeff:     -0.668D-05-0.383D-04-0.310D-03-0.805D-03-0.409D-03 0.328D-02
 Coeff:      0.297D-01 0.144D+00 0.279D+00 0.546D+00
 Gap=     0.194 Goal=   None    Shift=    0.000
 RMSDP=1.61D-07 MaxDP=1.07D-05 DE=-5.45D-08 OVMax= 1.33D-05

 Cycle  11  Pass 1  IDiag  1:
 E= -1810.66887204086     Delta-E=       -0.000000001694 Rises=F Damp=F
 DIIS: error= 1.01D-06 at cycle  11 NSaved=  11.
 NSaved=11 IEnMin=11 EnMin= -1810.66887204086     IErMin=11 ErrMin= 1.01D-06
 ErrMax= 1.01D-06  0.00D+00 EMaxC= 1.00D-01 BMatC= 5.27D-10 BMatP= 2.51D-09
 IDIUse=1 WtCom= 1.00D+00 WtEn= 0.00D+00
 Coeff-Com: -0.191D-05-0.722D-06-0.124D-03-0.354D-03-0.586D-03-0.908D-03
 Coeff-Com:  0.344D-02 0.293D-01 0.710D-01 0.327D+00 0.571D+00
 Coeff:     -0.191D-05-0.722D-06-0.124D-03-0.354D-03-0.586D-03-0.908D-03
 Coeff:      0.344D-02 0.293D-01 0.710D-01 0.327D+00 0.571D+00
 Gap=     0.194 Goal=   None    Shift=    0.000
 RMSDP=6.33D-08 MaxDP=3.85D-06 DE=-1.69D-09 OVMax= 5.80D-06

 Cycle  12  Pass 1  IDiag  1:
 E= -1810.66887204123     Delta-E=       -0.000000000372 Rises=F Damp=F
 DIIS: error= 2.74D-07 at cycle  12 NSaved=  12.
 NSaved=12 IEnMin=12 EnMin= -1810.66887204123     IErMin=12 ErrMin= 2.74D-07
 ErrMax= 2.74D-07  0.00D+00 EMaxC= 1.00D-01 BMatC= 6.06D-11 BMatP= 5.27D-10
 IDIUse=1 WtCom= 1.00D+00 WtEn= 0.00D+00
 Coeff-Com: -0.877D-06 0.398D-05-0.409D-04-0.119D-03-0.292D-03-0.864D-03
 Coeff-Com: -0.115D-02 0.166D-02 0.105D-01 0.125D+00 0.329D+00 0.536D+00
 Coeff:     -0.877D-06 0.398D-05-0.409D-04-0.119D-03-0.292D-03-0.864D-03
 Coeff:     -0.115D-02 0.166D-02 0.105D-01 0.125D+00 0.329D+00 0.536D+00
 Gap=     0.194 Goal=   None    Shift=    0.000
 RMSDP=2.30D-08 MaxDP=1.16D-06 DE=-3.72D-10 OVMax= 1.80D-06

 Cycle  13  Pass 1  IDiag  1:
 E= -1810.66887204128     Delta-E=       -0.000000000042 Rises=F Damp=F
 DIIS: error= 6.02D-08 at cycle  13 NSaved=  13.
 NSaved=13 IEnMin=13 EnMin= -1810.66887204128     IErMin=13 ErrMin= 6.02D-08
 ErrMax= 6.02D-08  0.00D+00 EMaxC= 1.00D-01 BMatC= 2.71D-12 BMatP= 6.06D-11
 IDIUse=1 WtCom= 1.00D+00 WtEn= 0.00D+00
 Coeff-Com: -0.255D-06 0.198D-05-0.623D-05-0.192D-04-0.733D-04-0.307D-03
 Coeff-Com: -0.887D-03-0.228D-02-0.297D-02 0.185D-01 0.824D-01 0.229D+00
 Coeff-Com:  0.676D+00
 Coeff:     -0.255D-06 0.198D-05-0.623D-05-0.192D-04-0.733D-04-0.307D-03
 Coeff:     -0.887D-03-0.228D-02-0.297D-02 0.185D-01 0.824D-01 0.229D+00
 Coeff:      0.676D+00
 Gap=     0.194 Goal=   None    Shift=    0.000
 RMSDP=5.51D-09 MaxDP=3.17D-07 DE=-4.18D-11 OVMax= 3.18D-07

 Error on total polarization charges =  0.02207
 SCF Done:  E(RB3LYP) =  -1810.66887204     A.U. after   13 cycles
            NFock= 13  Conv=0.55D-08     -V/T= 2.0070
 KE= 1.798146553303D+03 PE=-9.283768991540D+03 EE= 3.171815741772D+03
 Leave Link  502 at Thu Sep 24 00:29:34 2020, MaxMem=  2147483648 cpu:             569.0 elap:             142.5
 (Enter /prod/apps/gaussian/g16b1/l601.exe)
 Copying SCF densities to generalized density rwf, IOpCl= 0 IROHF=0.

 **********************************************************************

            Population analysis using the SCF Density.

 **********************************************************************

 Alpha  occ. eigenvalues --  -89.08534 -89.07974 -19.14492 -19.14320 -19.11407
 Alpha  occ. eigenvalues --  -19.11062 -14.28623 -10.24822 -10.21301 -10.20920
 Alpha  occ. eigenvalues --  -10.20765 -10.19777 -10.19678 -10.19567 -10.19524
 Alpha  occ. eigenvalues --  -10.19485 -10.19465 -10.18765 -10.18751 -10.18598
 Alpha  occ. eigenvalues --  -10.18553 -10.18469 -10.18426 -10.18414  -8.11627
 Alpha  occ. eigenvalues --   -8.10338  -6.08091  -6.07980  -6.07854  -6.06865
 Alpha  occ. eigenvalues --   -6.06738  -6.06673  -1.09346  -1.07136  -0.99121
 Alpha  occ. eigenvalues --   -0.95983  -0.89185  -0.85921  -0.85141  -0.82146
 Alpha  occ. eigenvalues --   -0.78202  -0.75709  -0.74978  -0.73973  -0.72868
 Alpha  occ. eigenvalues --   -0.70561  -0.66934  -0.63363  -0.60950  -0.60558
 Alpha  occ. eigenvalues --   -0.59778  -0.57758  -0.57100  -0.54411  -0.52065
 Alpha  occ. eigenvalues --   -0.50737  -0.49853  -0.48981  -0.48044  -0.46419
 Alpha  occ. eigenvalues --   -0.45813  -0.45465  -0.45111  -0.44705  -0.44321
 Alpha  occ. eigenvalues --   -0.43913  -0.43027  -0.42586  -0.42528  -0.42088
 Alpha  occ. eigenvalues --   -0.41440  -0.40820  -0.38416  -0.37507  -0.37193
 Alpha  occ. eigenvalues --   -0.36860  -0.36258  -0.34892  -0.34631  -0.34214
 Alpha  occ. eigenvalues --   -0.33360  -0.32935  -0.32761  -0.31567  -0.31281
 Alpha  occ. eigenvalues --   -0.29973  -0.29874  -0.29323  -0.28637  -0.27303
 Alpha  occ. eigenvalues --   -0.25748  -0.25610  -0.24875  -0.24780  -0.23105
 Alpha  occ. eigenvalues --   -0.21249
 Alpha virt. eigenvalues --   -0.01880  -0.00793  -0.00056   0.00205   0.05512
 Alpha virt. eigenvalues --    0.06054   0.06550   0.07170   0.08538   0.10023
 Alpha virt. eigenvalues --    0.10498   0.11906   0.12062   0.12160   0.13292
 Alpha virt. eigenvalues --    0.13812   0.14194   0.14670   0.14922   0.15963
 Alpha virt. eigenvalues --    0.16278   0.16998   0.17328   0.18188   0.18245
 Alpha virt. eigenvalues --    0.19187   0.19517   0.19907   0.20104   0.21334
 Alpha virt. eigenvalues --    0.21451   0.22088   0.22520   0.25252   0.25741
 Alpha virt. eigenvalues --    0.27127   0.28286   0.29747   0.30047   0.30356
 Alpha virt. eigenvalues --    0.31436   0.32238   0.33272   0.33648   0.35214
 Alpha virt. eigenvalues --    0.35266   0.36013   0.36406   0.37244   0.39397
 Alpha virt. eigenvalues --    0.41178   0.44163   0.45691   0.47072   0.48085
 Alpha virt. eigenvalues --    0.49922   0.50426   0.51402   0.52561   0.53207
 Alpha virt. eigenvalues --    0.53626   0.54122   0.54405   0.55016   0.55730
 Alpha virt. eigenvalues --    0.56069   0.56845   0.58124   0.58858   0.59059
 Alpha virt. eigenvalues --    0.59394   0.59533   0.60292   0.60576   0.60741
 Alpha virt. eigenvalues --    0.60882   0.61366   0.61547   0.61862   0.62477
 Alpha virt. eigenvalues --    0.63334   0.63528   0.63790   0.64621   0.65133
 Alpha virt. eigenvalues --    0.66915   0.68310   0.69826   0.70527   0.71599
 Alpha virt. eigenvalues --    0.72742   0.74446   0.75852   0.76862   0.77159
 Alpha virt. eigenvalues --    0.78873   0.79415   0.80450   0.81590   0.82264
 Alpha virt. eigenvalues --    0.82888   0.83385   0.83437   0.83774   0.84307
 Alpha virt. eigenvalues --    0.84558   0.84909   0.85632   0.86038   0.87406
 Alpha virt. eigenvalues --    0.88090   0.88321   0.89699   0.90168   0.90808
 Alpha virt. eigenvalues --    0.91414   0.92203   0.92799   0.93282   0.94049
 Alpha virt. eigenvalues --    0.94676   0.95346   0.95873   0.96201   0.97270
 Alpha virt. eigenvalues --    0.97576   0.99608   1.00094   1.01047   1.02115
 Alpha virt. eigenvalues --    1.02484   1.03378   1.03580   1.04626   1.05462
 Alpha virt. eigenvalues --    1.06023   1.06797   1.07896   1.09455   1.10761
 Alpha virt. eigenvalues --    1.10956   1.11625   1.12944   1.13448   1.14507
 Alpha virt. eigenvalues --    1.15644   1.16457   1.17688   1.18350   1.19124
 Alpha virt. eigenvalues --    1.20982   1.21629   1.23213   1.23494   1.24729
 Alpha virt. eigenvalues --    1.25552   1.26904   1.28445   1.30946   1.31068
 Alpha virt. eigenvalues --    1.33563   1.35025   1.38164   1.41236   1.42090
 Alpha virt. eigenvalues --    1.43249   1.44085   1.44371   1.45843   1.46275
 Alpha virt. eigenvalues --    1.47700   1.48192   1.48825   1.49732   1.50380
 Alpha virt. eigenvalues --    1.50897   1.51758   1.52014   1.54360   1.55884
 Alpha virt. eigenvalues --    1.62977   1.63896   1.65927   1.70970   1.71913
 Alpha virt. eigenvalues --    1.74297   1.75338   1.76557   1.78586   1.78671
 Alpha virt. eigenvalues --    1.79159   1.79395   1.80328   1.80405   1.81057
 Alpha virt. eigenvalues --    1.81510   1.82851   1.83545   1.84533   1.85009
 Alpha virt. eigenvalues --    1.85634   1.86874   1.87519   1.88867   1.89712
 Alpha virt. eigenvalues --    1.90513   1.90954   1.92146   1.93154   1.94632
 Alpha virt. eigenvalues --    1.95815   1.96061   1.96828   1.98197   1.99275
 Alpha virt. eigenvalues --    2.01295   2.01945   2.03026   2.04162   2.04787
 Alpha virt. eigenvalues --    2.05728   2.08188   2.08966   2.10400   2.10832
 Alpha virt. eigenvalues --    2.11967   2.13184   2.13949   2.14174   2.14592
 Alpha virt. eigenvalues --    2.15150   2.15337   2.16069   2.16882   2.17654
 Alpha virt. eigenvalues --    2.19371   2.20549   2.21310   2.24087   2.25992
 Alpha virt. eigenvalues --    2.27340   2.29461   2.30089   2.30578   2.31135
 Alpha virt. eigenvalues --    2.31411   2.31997   2.35197   2.35631   2.37359
 Alpha virt. eigenvalues --    2.38969   2.40594   2.44293   2.47573   2.51174
 Alpha virt. eigenvalues --    2.53993   2.58279   2.58380   2.59718   2.61826
 Alpha virt. eigenvalues --    2.64293   2.64796   2.66652   2.69504   2.71147
 Alpha virt. eigenvalues --    2.71320   2.71932   2.72641   2.73632   2.74333
 Alpha virt. eigenvalues --    2.75095   2.77260   2.77684   2.78852   2.79442
 Alpha virt. eigenvalues --    2.81346   2.81737   2.85097   2.89675   2.93367
 Alpha virt. eigenvalues --    3.04116   3.06562   3.37659   3.40843   3.79695
 Alpha virt. eigenvalues --    3.80301   3.95597   3.98295   4.03643   4.07756
 Alpha virt. eigenvalues --    4.08914   4.09458   4.10307   4.11480   4.13946
 Alpha virt. eigenvalues --    4.16750   4.18016   4.21828   4.27466   4.32844
 Alpha virt. eigenvalues --    4.34056   4.35831   4.37873   4.44011   4.54627
 Alpha virt. eigenvalues --    4.66310   4.70587   4.77986
          Condensed to atoms (all electrons):
               1          2          3          4          5          6
     1  O    8.440307   0.347436  -0.056905  -0.000881  -0.002436   0.004308
     2  S    0.347436  13.758923   0.300663   0.001779  -0.014423   0.002641
     3  N   -0.056905   0.300663   7.464802   0.287643  -0.037557   0.000637
     4  C   -0.000881   0.001779   0.287643   4.809456   0.301252  -0.086913
     5  C   -0.002436  -0.014423  -0.037557   0.301252   5.781778   0.142537
     6  S    0.004308   0.002641   0.000637  -0.086913   0.142537  13.903488
     7  C   -0.009779  -0.014811  -0.047112   0.317827  -0.189137   0.137131
     8  O   -0.000225  -0.000196  -0.000094   0.001937  -0.046021   0.422040
     9  O    0.000000  -0.000000  -0.000041   0.000386  -0.045643   0.398508
    10  C   -0.000013  -0.000057  -0.073209   0.370326  -0.061758   0.008060
    11  C    0.000000   0.000023  -0.000645  -0.028105  -0.008615  -0.000264
    12  C    0.000000   0.000690   0.005560  -0.004311   0.000066  -0.000014
    13  C   -0.000000   0.000152   0.000103  -0.000685  -0.000005   0.000002
    14  C   -0.000000  -0.000002  -0.000112  -0.000018  -0.000000   0.000000
    15  C    0.000000   0.000004   0.000036   0.000001   0.000000  -0.000000
    16  C   -0.000000  -0.000046  -0.000091  -0.000002  -0.000000   0.000000
    17  C   -0.000000   0.000121   0.000327   0.000580  -0.000009   0.000000
    18  C   -0.059589   0.119896  -0.067282  -0.004370   0.001543  -0.000107
    19  C   -0.000787  -0.024094   0.001382   0.000158  -0.002517  -0.000026
    20  C    0.000718   0.001837  -0.000104  -0.000002  -0.000126  -0.000007
    21  C   -0.000005  -0.000811  -0.000006   0.000002   0.000017   0.000001
    22  C   -0.000052   0.003245   0.000260  -0.000010   0.000089  -0.000000
    23  C    0.002310  -0.020247  -0.001345  -0.000754   0.000708   0.000027
    24  O   -0.050036   0.450462  -0.074454   0.002958  -0.000160   0.000020
    25  H    0.000059   0.000435   0.001369  -0.021442   0.339850  -0.011033
    26  H    0.003027   0.003255  -0.008037  -0.024096   0.325037  -0.004236
    27  H    0.000259   0.000535   0.001553  -0.026507   0.010240  -0.011446
    28  H    0.021319   0.001814  -0.004875  -0.022058   0.004486  -0.002394
    29  H    0.000004   0.000073   0.004817  -0.035647  -0.004456   0.008890
    30  H    0.000000   0.000142   0.001877  -0.031768   0.006272  -0.000194
    31  H    0.000001  -0.000077   0.000322  -0.007464   0.002958   0.000098
    32  H    0.000000   0.000018   0.000162   0.004199   0.000101  -0.000027
    33  H    0.000000   0.000000  -0.000066   0.000136  -0.000001  -0.000000
    34  H   -0.000000  -0.000000  -0.000001   0.000000  -0.000000   0.000000
    35  H    0.000000   0.000000   0.000000  -0.000000   0.000000  -0.000000
    36  H   -0.000000  -0.000002  -0.000001   0.000000  -0.000000  -0.000000
    37  H   -0.000000  -0.000028  -0.000019  -0.000012   0.000022   0.000000
    38  H    0.015048  -0.004236   0.000197   0.000027  -0.000218   0.000163
    39  H    0.000002  -0.000012   0.000000   0.000000  -0.000001  -0.000000
    40  H    0.000000   0.000004  -0.000000  -0.000000   0.000000  -0.000000
    41  H    0.000000  -0.000016   0.000004   0.000000  -0.000001   0.000000
    42  H    0.000067  -0.000113   0.004191   0.000051  -0.000049   0.000001
               7          8          9         10         11         12
     1  O   -0.009779  -0.000225   0.000000  -0.000013   0.000000   0.000000
     2  S   -0.014811  -0.000196  -0.000000  -0.000057   0.000023   0.000690
     3  N   -0.047112  -0.000094  -0.000041  -0.073209  -0.000645   0.005560
     4  C    0.317827   0.001937   0.000386   0.370326  -0.028105  -0.004311
     5  C   -0.189137  -0.046021  -0.045643  -0.061758  -0.008615   0.000066
     6  S    0.137131   0.422040   0.398508   0.008060  -0.000264  -0.000014
     7  C    5.789162  -0.044511  -0.044978  -0.064112   0.004613   0.000018
     8  O   -0.044511   8.288815  -0.046114  -0.000084   0.000000   0.000000
     9  O   -0.044978  -0.046114   8.324907  -0.003053   0.000016  -0.000001
    10  C   -0.064112  -0.000084  -0.003053   5.173102   0.333800  -0.029297
    11  C    0.004613   0.000000   0.000016   0.333800   5.170569   0.355630
    12  C    0.000018   0.000000  -0.000001  -0.029297   0.355630   4.626857
    13  C   -0.000017  -0.000000   0.000000  -0.005176  -0.065873   0.537867
    14  C   -0.000000   0.000000   0.000000   0.000201   0.006222  -0.019208
    15  C    0.000000   0.000000  -0.000000   0.000002   0.000268  -0.033869
    16  C   -0.000000  -0.000000   0.000000  -0.000171   0.007136  -0.022391
    17  C   -0.000003  -0.000000   0.000000   0.001185  -0.049952   0.544683
    18  C   -0.000829  -0.000002  -0.000000  -0.000183  -0.000013  -0.000081
    19  C    0.000010  -0.000007  -0.000000   0.000001   0.000000  -0.000001
    20  C   -0.000000   0.000000   0.000000  -0.000000  -0.000000   0.000000
    21  C   -0.000000   0.000000   0.000000   0.000000   0.000000  -0.000000
    22  C    0.000000  -0.000000  -0.000000  -0.000001  -0.000003   0.000006
    23  C    0.000020   0.000000  -0.000000  -0.000043   0.000004  -0.000170
    24  O   -0.000078  -0.000000  -0.000000  -0.000053   0.000001  -0.000012
    25  H    0.009996   0.000729  -0.000030  -0.008065   0.001520   0.000138
    26  H    0.002808   0.000850   0.001195   0.003880  -0.000070  -0.000004
    27  H    0.338751   0.000755  -0.000508  -0.006191   0.000154  -0.000003
    28  H    0.318723  -0.000161   0.001103   0.003256  -0.000098   0.000001
    29  H   -0.004096   0.000032   0.007184   0.350148  -0.029751   0.003425
    30  H   -0.006768   0.000001   0.000077   0.359749  -0.041483  -0.006721
    31  H    0.000213   0.000000   0.000002  -0.039010   0.360907  -0.033772
    32  H   -0.000115  -0.000000  -0.000003  -0.034334   0.360980  -0.031533
    33  H    0.000003   0.000000   0.000000   0.001012  -0.008861  -0.044714
    34  H    0.000000  -0.000000   0.000000   0.000001  -0.000169   0.003473
    35  H    0.000000   0.000000  -0.000000   0.000000   0.000007   0.000615
    36  H    0.000000  -0.000000   0.000000   0.000001  -0.000165   0.003654
    37  H    0.000000  -0.000000  -0.000000   0.000165  -0.011016  -0.040940
    38  H   -0.000014   0.000031   0.000000   0.000001  -0.000000  -0.000000
[...]
    32  H    0.045189   0.004676   0.014493  -0.015649   0.096786   0.000786
    33  H   -1.241472   0.448207  -0.163583   0.095970  -0.071301   0.021736
    34  H    0.525998  -1.060550   0.389133  -0.274073   0.072569  -0.002253
    35  H   -0.062677   0.427191  -0.906342   0.430157   0.037800   0.004437
    36  H    0.062016  -0.217019   0.475047  -0.820340   0.491973  -0.007180
    37  H   -0.100970  -0.002795  -0.033320   0.524656  -1.263915   0.028227
    38  H    0.000590   0.000620  -0.000878   0.001527  -0.000680   0.801241
    39  H    0.000246  -0.000050   0.000099  -0.000434   0.000488   0.002117
    40  H   -0.000593   0.000059  -0.000374   0.002365  -0.001701   0.051617
    41  H    0.010851  -0.000994   0.006390  -0.032967   0.021758  -0.199577
    42  H   -0.107419   0.073973  -0.111714   0.062494  -0.223238   0.586553
              19         20         21         22         23         24
     1  O    0.127089  -0.064475  -0.012383   0.028344  -0.025099   0.041249
     2  S   -0.801625  -0.281820   0.110039  -0.279127   0.262900  -0.832606
     3  N    0.067053   0.047013   0.044612  -0.224428   0.093308   0.145522
     4  C   -0.027482   0.007097   0.014550   0.270632  -1.174913   0.164972
     5  C   -0.144325   0.155424  -0.067407   0.000815   0.183962  -0.055106
     6  S   -0.005349  -0.013492   0.011005  -0.003779   0.005514  -0.000510
     7  C    0.046672  -0.078845   0.025670   0.002297   0.197855  -0.041999
     8  O    0.010757   0.002627   0.000047  -0.002991   0.003552  -0.000043
     9  O   -0.001401   0.000072  -0.000607   0.001233  -0.000401   0.000126
    10  C   -0.081395   0.056145  -0.043134  -0.049706  -0.346139   0.069750
    11  C   -0.026478   0.002656  -0.033477   0.010412  -0.133739   0.012123
    12  C    0.091579  -0.000095   0.008892  -0.021997   0.026071  -0.015578
    13  C   -0.051445   0.004842   0.000341   0.122915  -0.086250   0.015384
    14  C   -0.004221  -0.001382   0.005059   0.028425  -0.029237  -0.013162
    15  C   -0.004496   0.003595  -0.021559  -0.030040   0.064643   0.006594
    16  C    0.021313  -0.016864   0.044582  -0.086271   0.018694  -0.014005
    17  C   -0.054771   0.007333  -0.017801   0.100499  -0.033516   0.020880
    18  C  -11.246429   4.478666  -5.884530   5.946011 -11.709491   0.202022
    19  C   22.149087  -6.766354   5.214272  -6.980603   4.937588   0.084037
    20  C   -6.766354  14.171449  -5.163327   5.445030  -6.290310   0.025824
    21  C    5.214272  -5.163327  12.042543  -5.767966   5.230829  -0.013829
    22  C   -6.980603   5.445030  -5.767966  16.637920  -9.137108   0.011681
    23  C    4.937588  -6.290310   5.230829  -9.137108  24.136991  -0.100432
    24  O    0.084037   0.025824  -0.013829   0.011681  -0.100432   9.493137
    25  H   -0.031874   0.021064  -0.017669  -0.010407  -0.009216  -0.006658
    26  H    0.096683  -0.013001   0.049491  -0.007893   0.069216   0.015189
    27  H    0.005985  -0.004986   0.001269   0.002972   0.012275  -0.000241
    28  H   -0.032662   0.010282  -0.001924  -0.002986  -0.017048  -0.015216
    29  H   -0.000094   0.001810  -0.000038  -0.004509   0.007854   0.002743
    30  H    0.008238   0.005612  -0.004308  -0.017945  -0.012679  -0.001762
    31  H    0.019473  -0.022788   0.008739   0.033720  -0.004754   0.000307
    32  H   -0.002809   0.000718  -0.001128   0.006094  -0.009712   0.000129
    33  H   -0.005275  -0.000043   0.000938   0.009543   0.002382   0.001850
    34  H    0.000263  -0.000133   0.000109  -0.000213   0.001268  -0.001001
    35  H   -0.000893   0.000426  -0.000822   0.004669  -0.010631   0.000589
    36  H    0.007367  -0.003431   0.003286  -0.040208   0.052758  -0.000807
    37  H   -0.015304   0.008532   0.013027  -0.019549   0.053517   0.000720
    38  H   -1.560501   0.644518  -0.232717   0.185530  -0.273497   0.002706
    39  H    0.662767  -0.982093   0.366260  -0.290317   0.106049   0.000906
    40  H   -0.139653   0.389214  -0.853904   0.468575  -0.009565  -0.000551
    41  H    0.144538  -0.271078   0.545284  -0.901342   0.519684  -0.000895
    42  H   -0.262691   0.185495  -0.267829   0.340842  -1.228050   0.083662
              25         26         27         28         29         30
     1  O   -0.010981   0.097257  -0.002441   0.007126   0.002840  -0.003309
     2  S    0.080297  -0.338740  -0.008070   0.232811   0.004440   0.072614
     3  N    0.200636   0.077926   0.201414  -0.147468   0.116781   0.031874
     4  C   -0.367955  -0.260425  -0.549701  -0.113432  -0.274416   0.045951
     5  C    0.375247   0.035533   0.167004  -0.003203  -0.041434   0.292109
     6  S   -0.007404  -0.187761   0.050558  -0.250343  -0.112566  -0.136962
     7  C    0.074806  -0.019403   0.273256   0.204195  -0.011891  -0.091672
     8  O    0.006905   0.051827  -0.005033   0.071762   0.000824   0.013928
     9  O   -0.008847   0.031631   0.001576   0.029458   0.043285   0.028757
    10  C   -0.008639   0.047769  -0.014721   0.158957  -0.123374  -0.209113
    11  C   -0.185265   0.142841   0.094289  -0.009486   0.222978  -0.478835
    12  C   -0.016026  -0.008965  -0.020666   0.010680  -0.032352   0.220037
    13  C   -0.047183   0.007096   0.004407  -0.012586   0.026718  -0.366464
    14  C   -0.005210  -0.001174   0.004856   0.003193  -0.011429  -0.001730
    15  C    0.002333  -0.002515  -0.002719  -0.000643   0.002198   0.000778
    16  C   -0.004076   0.000073   0.001043   0.002174   0.001306  -0.000733
    17  C    0.035973  -0.027638  -0.010966  -0.010187   0.005872   0.005427
    18  C    0.042247  -0.160815   0.006218  -0.020824  -0.005257  -0.029206
    19  C   -0.031874   0.096683   0.005985  -0.032662  -0.000094   0.008238
    20  C    0.021064  -0.013001  -0.004986   0.010282   0.001810   0.005612
    21  C   -0.017669   0.049491   0.001269  -0.001924  -0.000038  -0.004308
    22  C   -0.010407  -0.007893   0.002972  -0.002986  -0.004509  -0.017945
    23  C   -0.009216   0.069216   0.012275  -0.017048   0.007854  -0.012679
    24  O   -0.006658   0.015189  -0.000241  -0.015216   0.002743  -0.001762
    25  H    1.681754  -0.415603  -0.006462   0.007140  -0.076263   0.076690
    26  H   -0.415603   1.953803   0.028628  -0.002054   0.018851  -0.008233
    27  H   -0.006462   0.028628   1.432157  -0.345277  -0.041964  -0.012091
    28  H    0.007140  -0.002054  -0.345277   1.460669   0.021062   0.031011
    29  H   -0.076263   0.018851  -0.041964   0.021062   1.898097  -0.414750
    30  H    0.076690  -0.008233  -0.012091   0.031011  -0.414750   2.253780
    31  H   -0.051001   0.061384   0.016458   0.002779   0.032499   0.007998
    32  H    0.023233  -0.003546   0.007608  -0.001004  -0.166307   0.048079
    33  H   -0.004179   0.002113   0.010062  -0.007306   0.019811  -0.136977
    34  H   -0.000208   0.000018  -0.000594   0.000498   0.000215   0.017105
    35  H   -0.000109  -0.000002  -0.000035  -0.000103   0.000329  -0.002136
    36  H   -0.000395  -0.000387   0.000028   0.000098  -0.000422   0.001688
    37  H    0.019658  -0.008988  -0.001136  -0.000649   0.002666  -0.003068
    38  H   -0.002063   0.013716   0.002643  -0.004463  -0.000908  -0.002390
    39  H   -0.000924   0.003226  -0.000216  -0.000009   0.000144   0.000109
    40  H    0.000486  -0.003498   0.000030  -0.000002   0.000036  -0.000032
    41  H   -0.004906   0.008221   0.000171  -0.000172  -0.000426  -0.000982
    42  H    0.001835   0.016745  -0.000380   0.000879   0.002789   0.009993
              31         32         33         34         35         36
     1  O   -0.001104  -0.000407   0.001853  -0.000218   0.000104  -0.000115
     2  S    0.028025   0.007442  -0.060195   0.006516  -0.005298   0.007597
     3  N   -0.025366  -0.014970  -0.015197  -0.004368   0.001222  -0.002800
     4  C   -0.304593   0.453834   0.326380  -0.008357  -0.000186   0.007295
     5  C   -0.003785   0.017314  -0.000474  -0.000990  -0.000742  -0.000807
     6  S   -0.047472  -0.001776   0.011510  -0.000362   0.000047   0.000013
     7  C    0.074714  -0.001741  -0.041070   0.003213  -0.001299   0.000737
     8  O    0.004867   0.000127  -0.000847   0.000012  -0.000003   0.000004
     9  O    0.014400   0.001936  -0.001488   0.000021   0.000002  -0.000016
    10  C   -0.112743  -0.402265  -0.213660   0.029326   0.002451  -0.005689
    11  C   -0.023245  -0.182383  -0.250082   0.022570  -0.010133   0.027894
    12  C    0.242624   0.052277   0.704303   0.188943  -0.023657  -0.157647
    13  C    0.001671   0.045189  -1.241472   0.525998  -0.062677   0.062016
    14  C    0.067934   0.004676   0.448207  -1.060550   0.427191  -0.217019
    15  C   -0.062207   0.014493  -0.163583   0.389133  -0.906342   0.475047
    16  C    0.032550  -0.015649   0.095970  -0.274073   0.430157  -0.820340
    17  C   -0.213295   0.096786  -0.071301   0.072569   0.037800   0.491973
    18  C   -0.028849   0.000786   0.021736  -0.002253   0.004437  -0.007180
    19  C    0.019473  -0.002809  -0.005275   0.000263  -0.000893   0.007367
    20  C   -0.022788   0.000718  -0.000043  -0.000133   0.000426  -0.003431
    21  C    0.008739  -0.001128   0.000938   0.000109  -0.000822   0.003286
    22  C    0.033720   0.006094   0.009543  -0.000213   0.004669  -0.040208
    23  C   -0.004754  -0.009712   0.002382   0.001268  -0.010631   0.052758
    24  O    0.000307   0.000129   0.001850  -0.001001   0.000589  -0.000807
    25  H   -0.051001   0.023233  -0.004179  -0.000208  -0.000109  -0.000395
    26  H    0.061384  -0.003546   0.002113   0.000018  -0.000002  -0.000387
    27  H    0.016458   0.007608   0.010062  -0.000594  -0.000035   0.000028
    28  H    0.002779  -0.001004  -0.007306   0.000498  -0.000103   0.000098
    29  H    0.032499  -0.166307   0.019811   0.000215   0.000329  -0.000422
    30  H    0.007998   0.048079  -0.136977   0.017105  -0.002136   0.001688
    31  H    1.947534  -0.275381   0.006033  -0.001837   0.001521   0.004976
    32  H   -0.275381   1.338424   0.000641  -0.001272  -0.000106   0.000641
    33  H    0.006033   0.000641   2.401375  -0.106659  -0.009734   0.005033
    34  H   -0.001837  -0.001272  -0.106659   1.819185  -0.061410  -0.018207
    35  H    0.001521  -0.000106  -0.009734  -0.061410   1.740871  -0.056151
    36  H    0.004976   0.000641   0.005033  -0.018207  -0.056151   1.818798
    37  H   -0.172368   0.029196  -0.011439   0.004664  -0.011819  -0.112537
    38  H    0.003109  -0.000209   0.000141   0.000033  -0.000042   0.000162
    39  H   -0.000680   0.000032   0.000021  -0.000005   0.000013  -0.000058
    40  H   -0.001087  -0.000043  -0.000015   0.000003  -0.000041   0.000229
    41  H    0.013414   0.000028   0.000374   0.000010   0.000183   0.003716
    42  H    0.022638   0.002861   0.005465  -0.003392   0.003642   0.006239
              37         38         39         40         41         42
     1  O    0.000460  -0.052234   0.000735  -0.000026   0.000124   0.027170
     2  S   -0.045302   0.040125  -0.018088   0.005643   0.030968  -0.390556
     3  N    0.006033  -0.038175   0.003338   0.001932  -0.013026  -0.020385
     4  C    0.011835   0.048245   0.010813  -0.002671   0.025453   0.073467
     5  C    0.010442   0.002686  -0.002472  -0.000786  -0.009378  -0.000648
     6  S    0.003368   0.003662  -0.000191   0.000348  -0.000361  -0.015356
     7  C   -0.029821   0.010273  -0.004635   0.000738   0.001581   0.010157
     8  O   -0.000463  -0.003672   0.000373  -0.000026  -0.000163   0.002074
     9  O   -0.000473  -0.000356   0.000109  -0.000037   0.000109   0.000188
    10  C    0.079501  -0.023602   0.002582  -0.000708  -0.006477  -0.059203
    11  C   -0.084988   0.002472  -0.000069  -0.000411   0.006896  -0.026777
    12  C    0.318656   0.001636  -0.000391  -0.000365   0.010055   0.226250
    13  C   -0.100970   0.000590   0.000246  -0.000593   0.010851  -0.107419
    14  C   -0.002795   0.000620  -0.000050   0.000059  -0.000994   0.073973
    15  C   -0.033320  -0.000878   0.000099  -0.000374   0.006390  -0.111714
    16  C    0.524656   0.001527  -0.000434   0.002365  -0.032967   0.062494
    17  C   -1.263915  -0.000680   0.000488  -0.001701   0.021758  -0.223238
    18  C    0.028227   0.801241   0.002117   0.051617  -0.199577   0.586553
    19  C   -0.015304  -1.560501   0.662767  -0.139653   0.144538  -0.262691
    20  C    0.008532   0.644518  -0.982093   0.389214  -0.271078   0.185495
    21  C    0.013027  -0.232717   0.366260  -0.853904   0.545284  -0.267829
    22  C   -0.019549   0.185530  -0.290317   0.468575  -0.901342   0.340842
    23  C    0.053517  -0.273497   0.106049  -0.009565   0.519684  -1.228050
    24  O    0.000720   0.002706   0.000906  -0.000551  -0.000895   0.083662
    25  H    0.019658  -0.002063  -0.000924   0.000486  -0.004906   0.001835
    26  H   -0.008988   0.013716   0.003226  -0.003498   0.008221   0.016745
    27  H   -0.001136   0.002643  -0.000216   0.000030   0.000171  -0.000380
    28  H   -0.000649  -0.004463  -0.000009  -0.000002  -0.000172   0.000879
    29  H    0.002666  -0.000908   0.000144   0.000036  -0.000426   0.002789
    30  H   -0.003068  -0.002390   0.000109  -0.000032  -0.000982   0.009993
    31  H   -0.172368   0.003109  -0.000680  -0.001087   0.013414   0.022638
    32  H    0.029196  -0.000209   0.000032  -0.000043   0.000028   0.002861
    33  H   -0.011439   0.000141   0.000021  -0.000015   0.000374   0.005465
    34  H    0.004664   0.000033  -0.000005   0.000003   0.000010  -0.003392
    35  H   -0.011819  -0.000042   0.000013  -0.000041   0.000183   0.003642
    36  H   -0.112537   0.000162  -0.000058   0.000229   0.003716   0.006239
    37  H    2.588270  -0.000565   0.000125   0.001209  -0.015644  -0.039293
    38  H   -0.000565   2.215361  -0.094822  -0.016838   0.015609  -0.027886
    39  H    0.000125  -0.094822   1.792120  -0.057647  -0.026870   0.018223
    40  H    0.001209  -0.016838  -0.057647   1.726157  -0.062990  -0.012213
    41  H   -0.015644   0.015609  -0.026870  -0.062990   1.939984  -0.203532
    42  H   -0.039293  -0.027886   0.018223  -0.012213  -0.203532   2.847019
 Mulliken charges:
               1
     1  O   -1.371894
     2  S    2.782941
     3  N   -1.777644
     4  C    0.347346
     5  C    0.481288
     6  S    2.933731
     7  C    0.468235
     8  O   -1.305011
     9  O   -1.326148
    10  C    0.734365
    11  C    0.192882
    12  C    0.773216
    13  C    0.737780
    14  C    0.126879
    15  C    0.683798
    16  C    0.091082
    17  C    0.817845
    18  C    0.310982
    19  C    0.553369
    20  C    0.299073
    21  C    0.665514
    22  C    0.221225
    23  C    0.654878
    24  O   -1.287703
    25  H   -0.350778
    26  H   -0.358597
    27  H   -0.297204
    28  H   -0.255727
    29  H   -0.117747
    30  H   -0.236401
    31  H   -0.296810
    32  H   -0.071837
    33  H   -0.734742
    34  H   -0.535567
    35  H   -0.491283
    36  H   -0.533378
    37  H   -0.730354
    38  H   -0.660106
    39  H   -0.490923
    40  H   -0.482868
    41  H   -0.553619
    42  H   -0.610091
 Sum of Mulliken charges =  -1.00000
 Mulliken charges with hydrogens summed into heavy atoms:
               1
     1  O   -1.371894
     2  S    2.782941
     3  N   -1.777644
     4  C    0.347346
     5  C   -0.228087
     6  S    2.933731
     7  C   -0.084695
     8  O   -1.305011
     9  O   -1.326148
    10  C    0.380217
    11  C   -0.175765
    12  C    0.773216
    13  C    0.003038
    14  C   -0.408688
    15  C    0.192514
    16  C   -0.442296
    17  C    0.087491
    18  C    0.310982
    19  C   -0.106737
    20  C   -0.191850
    21  C    0.182647
    22  C   -0.332393
    23  C    0.044787
    24  O   -1.287703
 Electronic spatial extent (au):  <R**2>=           8698.3303
 Charge=             -1.0000 electrons
 Dipole moment (field-independent basis, Debye):
    X=              6.5433    Y=              1.3262    Z=             -5.8237  Tot=              8.8594
 Quadrupole moment (field-independent basis, Debye-Ang):
   XX=           -205.1821   YY=           -178.5139   ZZ=           -182.7805
   XY=            -15.6196   XZ=             -2.0707   YZ=            -23.8600
 Traceless Quadrupole moment (field-independent basis, Debye-Ang):
   XX=            -16.3566   YY=             10.3116   ZZ=              6.0450
   XY=            -15.6196   XZ=             -2.0707   YZ=            -23.8600
 Octapole moment (field-independent basis, Debye-Ang**2):
  XXX=             69.1324  YYY=             17.5688  ZZZ=            -36.9307  XYY=             31.2489
  XXY=             92.9164  XXZ=             41.3500  XZZ=             -2.4688  YZZ=            -25.1538
  YYZ=             17.4168  XYZ=             14.4574
 Hexadecapole moment (field-independent basis, Debye-Ang**3):
 XXXX=          -6909.4191 YYYY=          -4844.2149 ZZZZ=          -1599.1341 XXXY=            -83.0638
 XXXZ=            124.5673 YYYX=           -163.3601 YYYZ=           -212.5837 ZZZX=             13.9748
 ZZZY=            -65.6070 XXYY=          -1907.1297 XXZZ=          -1322.7637 YYZZ=          -1041.1815
 XXYZ=           -145.9896 YYXZ=            -84.9150 ZZXY=              7.6156
 N-N= 2.509090092625D+03 E-N=-9.291143668046D+03  KE= 1.801424870706D+03
 Leave Link  601 at Thu Sep 24 06:23:00 2020, MaxMem=   262144000 cpu:               0.9 elap:               0.3
 (Enter /prod/apps/gaussian/g16b1/l9999.exe)
 1\1\GINC-PIRINEUS12\SP\RMP2-FC\Aug-CC-pVDZ\C17H18N1O4S2(1-)\UBAFAR01\2
 4-Sep-2020\0\\#p mp2/aug-cc-pVDZ scf=(MaxCycle=2000,NoVarAcc,NoIncFock
 ) maxdisk=120GB geom=allcheck\\SM39_m1.a.2.pdb.xyz\\-1,1\O,0,-1.893690
 3604,1.0523012426,1.9047320949\S,0,-0.4434732874,1.013055269,1.5289326
 804\N,0,0.0760174689,-0.3667362707,0.954604728\C,0,-0.7843606612,-1.22
 33176404,0.1679678234\C,0,-1.5825074318,-0.580843387,-1.0402311608\S,0
 ,-3.0554671628,-1.5334055346,-0.5746233089\C,0,-2.0588304047,-1.787324
 9647,0.9158398134\O,0,-4.2751994541,-0.7193552209,-0.3735854378\O,0,-3
 .1879768261,-2.7735530421,-1.3774746849\C,0,0.0429717214,-2.4252595226
 ,-0.3304389567\C,0,1.2082136098,-2.113441857,-1.2878432023\C,0,2.52894
 84777,-1.7103200947,-0.6608279592\C,0,3.099846445,-2.4492865309,0.3854
 487476\C,0,4.3442030814,-2.1037167385,0.9137441509\C,0,5.0487775936,-1
 .0112548787,0.4018869777\C,0,4.4970487267,-0.2707162141,-0.6451502299\
 C,0,3.2498765799,-0.621521247,-1.1684036353\C,0,-0.2824623652,2.303023
 9046,0.2638922096\C,0,-1.3208338525,3.2139322465,0.0618008575\C,0,-1.1
 716148367,4.2323241011,-0.88261606\C,0,0.0115364748,4.3408178202,-1.61
 46189371\C,0,1.0494731662,3.4268509997,-1.4058616911\C,0,0.904402642,2
 .4060703226,-0.4671539496\O,0,0.4936053834,1.4354644633,2.6070462174\H
 ,0,-1.2185739748,-0.7863857042,-2.0469729455\H,0,-1.7917810831,0.48157
 41372,-0.9173029398\H,0,-2.0182902762,-2.8218891028,1.2587934142\H,0,-
 2.4024816154,-1.1054465237,1.6912288845\H,0,-0.6482129767,-3.106851412
 2,-0.8367807066\H,0,0.4146050995,-2.9576970727,0.5514643779\H,0,0.9062
 186229,-1.340763975,-2.0036748316\H,0,1.3836240929,-3.0163892359,-1.88
 67849214\H,0,2.566766574,-3.3040221099,0.7913364721\H,0,4.7652208486,-
 2.6895968409,1.7247737081\H,0,6.0161564067,-0.7426837321,0.81354208\H,
 0,5.0341235027,0.5789880804,-1.0552646166\H,0,2.825888319,-0.045083866
 2,-1.9857246449\H,0,-2.2322798187,3.1116916504,0.6382281697\H,0,-1.979
 0038374,4.9389893504,-1.0442019805\H,0,0.1255177746,5.1323880592,-2.34
 78033105\H,0,1.9693206251,3.5079717898,-1.9758212938\H,0,1.7026769884,
 1.6894192827,-0.3101020024\\Version=ES64L-G16RevB.01\State=1-A\HF=-180
 3.1677049\MP2=-1806.8340039\RMSD=6.375e-09\PG=C01 [X(C17H18N1O4S2)]\\@


 The most important thing in communication is to hear what isn't being said.
 -- Peter F. Drucker
 Job cpu time:       0 days 11 hours 31 minutes 40.9 seconds.
 Elapsed time:       0 days  3 hours 25 minutes 14.5 seconds.
 File lengths (MBytes):  RWF=  84947 Int=      0 D2E=      0 Chk=     44 Scr=      1
 Normal termination of Gaussian 16 at Thu Sep 24 06:23:03 2020.
