 Entering Gaussian System, Link 0=g16
 Initial command:
 /prod/apps/gaussian/g16b1/l1.exe "/tmp/ubafar01/1459129/Gau-4254.inp" -scrdir="/tmp/ubafar01/1459129/"
 Entering Link 1 = /prod/apps/gaussian/g16b1/l1.exe PID=      4255.
  
 Copyright (c) 1988-2017, Gaussian, Inc.  All Rights Reserved.
  
 This is part of the Gaussian(R) 16 program.  It is based on
 the Gaussian(R) 09 system (copyright 2009, Gaussian, Inc.),
 the Gaussian(R) 03 system (copyright 2003, Gaussian, Inc.),
 the Gaussian(R) 98 system (copyright 1998, Gaussian, Inc.),
 the Gaussian(R) 94 system (copyright 1995, Gaussian, Inc.),
 the Gaussian 92(TM) system (copyright 1992, Gaussian, Inc.),
 the Gaussian 90(TM) system (copyright 1990, Gaussian, Inc.),
 the Gaussian 88(TM) system (copyright 1988, Gaussian, Inc.),
 the Gaussian 86(TM) system (copyright 1986, Carnegie Mellon
 University), and the Gaussian 82(TM) system (copyright 1983,
 Carnegie Mellon University). Gaussian is a federally registered
 trademark of Gaussian, Inc.
  
 This software contains proprietary and confidential information,
 including trade secrets, belonging to Gaussian, Inc.
  
 This software is provided under written license and may be
 used, copied, transmitted, or stored only in accord with that
 written license.
  
 The following legend is applicable only to US Government
 contracts under FAR:
  
                    RESTRICTED RIGHTS LEGEND
  
 Use, reproduction and disclosure by the US Government is
 subject to restrictions as set forth in subparagraphs (a)
 and (c) of the Commercial Computer Software - Restricted
 Rights clause in FAR 52.227-19.
  
 Gaussian, Inc.
 340 Quinnipiac St., Bldg. 40, Wallingford CT 06492
  
  
 ---------------------------------------------------------------
 Warning -- This program may not be used in any manner that
 competes with the business of Gaussian, Inc. or will provide
 assistance to any competitor of Gaussian, Inc.  The licensee
 of this program is prohibited from giving any competitor of
 Gaussian, Inc. access to this program.  By using this program,
 the user acknowledges that Gaussian, Inc. is engaged in the
 business of creating and licensing software in the field of
 computational chemistry and represents and warrants to the
 licensee that it is not a competitor of Gaussian, Inc. and that
 it will not use this program in any manner prohibited above.
 ---------------------------------------------------------------
  

 Cite this work as:
 Gaussian 16, Revision B.01,
 M. J. Frisch, G. W. Trucks, H. B. Schlegel, G. E. Scuseria, 
 M. A. Robb, J. R. Cheeseman, G. Scalmani, V. Barone, 
 G. A. Petersson, H. Nakatsuji, X. Li, M. Caricato, A. V. Marenich, 
 J. Bloino, B. G. Janesko, R. Gomperts, B. Mennucci, H. P. Hratchian, 
 J. V. Ortiz, A. F. Izmaylov, J. L. Sonnenberg, D. Williams-Young, 
 F. Ding, F. Lipparini, F. Egidi, J. Goings, B. Peng, A. Petrone, 
 T. Henderson, D. Ranasinghe, V. G. Zakrzewski, J. Gao, N. Rega, 
 G. Zheng, W. Liang, M. Hada, M. Ehara, K. Toyota, R. Fukuda, 
 J. Hasegawa, M. Ishida, T. Nakajima, Y. Honda, O. Kitao, H. Nakai, 
 T. Vreven, K. Throssell, J. A. Montgomery, Jr., J. E. Peralta, 
 F. Ogliaro, M. J. Bearpark, J. J. Heyd, E. N. Brothers, K. N. Kudin, 
 V. N. Staroverov, T. A. Keith, R. Kobayashi, J. Normand, 
 K. Raghavachari, A. P. Rendell, J. C. Burant, S. S. Iyengar, 
 J. Tomasi, M. Cossi, J. M. Millam, M. Klene, C. Adamo, R. Cammi, 
 J. W. Ochterski, R. L. Martin, K. Morokuma, O. Farkas, 
 J. B. Foresman, and D. J. Fox, Gaussian, Inc., Wallingford CT, 2016.
 
 ******************************************
 Gaussian 16:  ES64L-G16RevB.01 20-Dec-2017
                15-Sep-2020 
 ******************************************
 %nproc=4
 Will use up to    4 processors via shared memory.
 %Chk=SM39_m0.n.12.pdb.xyz.mst.n.w.chk
 %mem=16GB
 ----------------------------------------------------------------------
 #p b3lyp/6-31G(d) opt freq NoSymm scf=(MaxCycle=2000,NoVarAcc,NoIncFoc
 k) scrf=(iefpcm,read,solvent=water) MaxDisk=20GB
 ----------------------------------------------------------------------
 1/18=20,19=15,26=3,38=1,40=2/1,3;
 2/9=110,12=2,15=1,17=6,18=5,40=1/2;
 3/5=1,6=6,7=1,11=2,25=1,30=1,70=2203,71=1,72=1,74=-5/1,2,3;
 4//1;
 5/5=100002,7=2000,38=1,53=1/2;
 6/7=2,8=2,9=2,10=2,28=1/1;
 7/30=1/1,2,3,16;
 1/18=20,19=15,26=3/3(2);
 2/9=110,15=1/2;
 99//99;
 2/9=110,15=1/2;
 3/5=1,6=6,7=1,11=2,25=1,30=1,70=2205,71=1,72=1,74=-5/1,2,3;
 4/5=5,16=3,69=1/1;
 5/5=100002,7=2000,38=1,53=1/2;
 7/30=1/1,2,3,16;
 1/18=20,19=15,26=3/3(-5);
 2/9=110,15=1/2;
 6/7=2,8=2,9=2,10=2,19=2,28=1/1;
 99/9=1/99;
 Leave Link    1 at Tue Sep 15 07:08:26 2020, MaxMem=  2147483648 cpu:               0.2 elap:               0.0
 (Enter /prod/apps/gaussian/g16b1/l101.exe)
 --------------------
 SM39_m0.n.12.pdb.xyz
 --------------------
 Symbolic Z-matrix:
 Charge =  0 Multiplicity = 1
 O                     0.722    -1.706     1.166 
 S                     1.31     -1.605    -0.18 
 N                     0.684    -0.272    -0.991 
 C                    -0.098     0.765    -0.298 
 C                    -0.187     2.024    -1.227 
 S                     0.363     3.08      0.153 
 C                     0.71      1.434     0.862 
 O                     1.567     3.88     -0.137 
 O                    -0.773     3.741     0.826 
 C                    -1.487     0.305     0.187 
 C                    -2.404    -0.233    -0.923 
 C                    -3.772    -0.603    -0.395 
 C                    -4.82      0.327    -0.403 
 C                    -6.076    -0.003     0.109 
 C                    -6.304    -1.275     0.638 
 C                    -5.269    -2.212     0.651 
 C                    -4.014    -1.876     0.137 
 C                     3.046    -1.226     0.028 
 C                     3.838    -0.981    -1.098 
 C                     5.198    -0.74     -0.921 
 C                     5.752    -0.75      0.364 
 C                     4.95     -1.        1.477 
 C                     3.585    -1.243     1.314 
 O                     1.189    -2.731    -1.12 
 H                     0.275    -0.579    -1.874 
 H                    -1.175     2.277    -1.61 
 H                     0.56      2.03     -2.021 
 H                     0.322     1.295     1.869 
 H                     1.783     1.247     0.823 
 H                    -1.97      1.158     0.676 
 H                    -1.335    -0.462     0.949 
 H                    -1.943    -1.114    -1.383 
 H                    -2.511     0.521    -1.711 
 H                    -4.649     1.316    -0.819 
 H                    -6.876     0.73      0.089 
 H                    -7.28     -1.535     1.034 
 H                    -5.437    -3.204     1.056 
 H                    -3.214    -2.611     0.145 
 H                     3.401    -0.972    -2.089 
 H                     5.824    -0.544    -1.784 
 H                     6.812    -0.561     0.493 
 H                     5.381    -1.008     2.472 
 H                     2.942    -1.44      2.162 
 
 ITRead=  0  0  0  0  0  0  0  0  0  0  0  0  0  0  0  0  0  0  0  0
 ITRead=  0  0  0  0  0  0  0  0  0  0  0  0  0  0  0  0  0  0  0  0
 ITRead=  0  0  0
 MicOpt= -1 -1 -1 -1 -1 -1 -1 -1 -1 -1 -1 -1 -1 -1 -1 -1 -1 -1 -1 -1
 MicOpt= -1 -1 -1 -1 -1 -1 -1 -1 -1 -1 -1 -1 -1 -1 -1 -1 -1 -1 -1 -1
 MicOpt= -1 -1 -1
 NAtoms=     43 NQM=       43 NQMF=       0 NMMI=      0 NMMIF=      0
                NMic=       0 NMicF=      0.
                    Isotopes and Nuclear Properties:
 (Nuclear quadrupole moments (NQMom) in fm**2, nuclear magnetic moments (NMagM)
  in nuclear magnetons)

  Atom         1           2           3           4           5           6           7           8           9          10
 IAtWgt=          16          32          14          12          12          32          12          16          16          12
 AtmWgt=  15.9949146  31.9720718  14.0030740  12.0000000  12.0000000  31.9720718  12.0000000  15.9949146  15.9949146  12.0000000
 NucSpn=           0           0           2           0           0           0           0           0           0           0
 AtZEff=  -0.0000000  -0.0000000  -0.0000000  -0.0000000  -0.0000000  -0.0000000  -0.0000000  -0.0000000  -0.0000000  -0.0000000
 NQMom=    0.0000000   0.0000000   2.0440000   0.0000000   0.0000000   0.0000000   0.0000000   0.0000000   0.0000000   0.0000000
 NMagM=    0.0000000   0.0000000   0.4037610   0.0000000   0.0000000   0.0000000   0.0000000   0.0000000   0.0000000   0.0000000
 AtZNuc=   8.0000000  16.0000000   7.0000000   6.0000000   6.0000000  16.0000000   6.0000000   8.0000000   8.0000000   6.0000000

  Atom        11          12          13          14          15          16          17          18          19          20
 IAtWgt=          12          12          12          12          12          12          12          12          12          12
 AtmWgt=  12.0000000  12.0000000  12.0000000  12.0000000  12.0000000  12.0000000  12.0000000  12.0000000  12.0000000  12.0000000
 NucSpn=           0           0           0           0           0           0           0           0           0           0
 AtZEff=  -0.0000000  -0.0000000  -0.0000000  -0.0000000  -0.0000000  -0.0000000  -0.0000000  -0.0000000  -0.0000000  -0.0000000
 NQMom=    0.0000000   0.0000000   0.0000000   0.0000000   0.0000000   0.0000000   0.0000000   0.0000000   0.0000000   0.0000000
 NMagM=    0.0000000   0.0000000   0.0000000   0.0000000   0.0000000   0.0000000   0.0000000   0.0000000   0.0000000   0.0000000
 AtZNuc=   6.0000000   6.0000000   6.0000000   6.0000000   6.0000000   6.0000000   6.0000000   6.0000000   6.0000000   6.0000000

  Atom        21          22          23          24          25          26          27          28          29          30
 IAtWgt=          12          12          12          16           1           1           1           1           1           1
 AtmWgt=  12.0000000  12.0000000  12.0000000  15.9949146   1.0078250   1.0078250   1.0078250   1.0078250   1.0078250   1.0078250
 NucSpn=           0           0           0           0           1           1           1           1           1           1
 AtZEff=  -0.0000000  -0.0000000  -0.0000000  -0.0000000  -0.0000000  -0.0000000  -0.0000000  -0.0000000  -0.0000000  -0.0000000
 NQMom=    0.0000000   0.0000000   0.0000000   0.0000000   0.0000000   0.0000000   0.0000000   0.0000000   0.0000000   0.0000000
 NMagM=    0.0000000   0.0000000   0.0000000   0.0000000   2.7928460   2.7928460   2.7928460   2.7928460   2.7928460   2.7928460
 AtZNuc=   6.0000000   6.0000000   6.0000000   8.0000000   1.0000000   1.0000000   1.0000000   1.0000000   1.0000000   1.0000000

  Atom        31          32          33          34          35          36          37          38          39          40
 IAtWgt=           1           1           1           1           1           1           1           1           1           1
 AtmWgt=   1.0078250   1.0078250   1.0078250   1.0078250   1.0078250   1.0078250   1.0078250   1.0078250   1.0078250   1.0078250
 NucSpn=           1           1           1           1           1           1           1           1           1           1
 AtZEff=  -0.0000000  -0.0000000  -0.0000000  -0.0000000  -0.0000000  -0.0000000  -0.0000000  -0.0000000  -0.0000000  -0.0000000
 NQMom=    0.0000000   0.0000000   0.0000000   0.0000000   0.0000000   0.0000000   0.0000000   0.0000000   0.0000000   0.0000000
 NMagM=    2.7928460   2.7928460   2.7928460   2.7928460   2.7928460   2.7928460   2.7928460   2.7928460   2.7928460   2.7928460
 AtZNuc=   1.0000000   1.0000000   1.0000000   1.0000000   1.0000000   1.0000000   1.0000000   1.0000000   1.0000000   1.0000000

  Atom        41          42          43
 IAtWgt=           1           1           1
 AtmWgt=   1.0078250   1.0078250   1.0078250
 NucSpn=           1           1           1
 AtZEff=  -0.0000000  -0.0000000  -0.0000000
 NQMom=    0.0000000   0.0000000   0.0000000
 NMagM=    2.7928460   2.7928460   2.7928460
 AtZNuc=   1.0000000   1.0000000   1.0000000
 Leave Link  101 at Tue Sep 15 07:08:27 2020, MaxMem=  2147483648 cpu:               1.3 elap:               0.3
 (Enter /prod/apps/gaussian/g16b1/l103.exe)

 GradGradGradGradGradGradGradGradGradGradGradGradGradGradGradGradGradGrad
 Berny optimization.
 Initialization pass.
                           ----------------------------
                           !    Initial Parameters    !
                           ! (Angstroms and Degrees)  !
 --------------------------                            --------------------------
 ! Name  Definition              Value          Derivative Info.                !
 --------------------------------------------------------------------------------
 ! R1    R(1,2)                  1.4723         estimate D2E/DX2                !
 ! R2    R(2,3)                  1.6812         estimate D2E/DX2                !
 ! R3    R(2,18)                 1.789          estimate D2E/DX2                !
 ! R4    R(2,24)                 1.4718         estimate D2E/DX2                !
 ! R5    R(3,4)                  1.4721         estimate D2E/DX2                !
 ! R6    R(3,25)                 1.0204         estimate D2E/DX2                !
 ! R7    R(4,5)                  1.5672         estimate D2E/DX2                !
 ! R8    R(4,7)                  1.564          estimate D2E/DX2                !
 ! R9    R(4,10)                 1.5415         estimate D2E/DX2                !
 ! R10   R(5,6)                  1.8226         estimate D2E/DX2                !
 ! R11   R(5,26)                 1.0894         estimate D2E/DX2                !
 ! R12   R(5,27)                 1.0902         estimate D2E/DX2                !
 ! R13   R(6,7)                  1.8255         estimate D2E/DX2                !
 ! R14   R(6,8)                  1.4744         estimate D2E/DX2                !
 ! R15   R(6,9)                  1.4766         estimate D2E/DX2                !
 ! R16   R(7,28)                 1.0881         estimate D2E/DX2                !
 ! R17   R(7,29)                 1.0899         estimate D2E/DX2                !
 ! R18   R(10,11)                1.537          estimate D2E/DX2                !
 ! R19   R(10,30)                1.0955         estimate D2E/DX2                !
 ! R20   R(10,31)                1.0918         estimate D2E/DX2                !
 ! R21   R(11,12)                1.5123         estimate D2E/DX2                !
 ! R22   R(11,32)                1.0956         estimate D2E/DX2                !
 ! R23   R(11,33)                1.0959         estimate D2E/DX2                !
 ! R24   R(12,13)                1.4012         estimate D2E/DX2                !
 ! R25   R(12,17)                1.4008         estimate D2E/DX2                !
 ! R26   R(13,14)                1.3959         estimate D2E/DX2                !
 ! R27   R(13,34)                1.0865         estimate D2E/DX2                !
 ! R28   R(14,15)                1.3964         estimate D2E/DX2                !
 ! R29   R(14,35)                1.0852         estimate D2E/DX2                !
 ! R30   R(15,16)                1.3962         estimate D2E/DX2                !
 ! R31   R(15,36)                1.0849         estimate D2E/DX2                !
 ! R32   R(16,17)                1.3972         estimate D2E/DX2                !
 ! R33   R(16,37)                1.0846         estimate D2E/DX2                !
 ! R34   R(17,38)                1.0864         estimate D2E/DX2                !
 ! R35   R(18,19)                1.3983         estimate D2E/DX2                !
 ! R36   R(18,23)                1.3945         estimate D2E/DX2                !
 ! R37   R(19,20)                1.3925         estimate D2E/DX2                !
 ! R38   R(19,39)                1.0831         estimate D2E/DX2                !
 ! R39   R(20,21)                1.3994         estimate D2E/DX2                !
 ! R40   R(20,40)                1.084          estimate D2E/DX2                !
 ! R41   R(21,22)                1.3944         estimate D2E/DX2                !
 ! R42   R(21,41)                1.0844         estimate D2E/DX2                !
 ! R43   R(22,23)                1.396          estimate D2E/DX2                !
 ! R44   R(22,42)                1.0844         estimate D2E/DX2                !
 ! R45   R(23,43)                1.0823         estimate D2E/DX2                !
 ! A1    A(1,2,3)              110.2852         estimate D2E/DX2                !
 ! A2    A(1,2,18)             107.2044         estimate D2E/DX2                !
 ! A3    A(1,2,24)             119.9061         estimate D2E/DX2                !
 ! A4    A(3,2,18)             104.4438         estimate D2E/DX2                !
 ! A5    A(3,2,24)             105.5391         estimate D2E/DX2                !
 ! A6    A(18,2,24)            108.4279         estimate D2E/DX2                !
 ! A7    A(2,3,4)              121.9537         estimate D2E/DX2                !
 ! A8    A(2,3,25)             109.1555         estimate D2E/DX2                !
 ! A9    A(4,3,25)             113.9774         estimate D2E/DX2                !
 ! A10   A(3,4,5)              108.4827         estimate D2E/DX2                !
 ! A11   A(3,4,7)              112.0885         estimate D2E/DX2                !
 ! A12   A(3,4,10)             114.6178         estimate D2E/DX2                !
 ! A13   A(5,4,7)               97.202          estimate D2E/DX2                !
 ! A14   A(5,4,10)             112.0287         estimate D2E/DX2                !
 ! A15   A(7,4,10)             111.0888         estimate D2E/DX2                !
 ! A16   A(4,5,6)               89.9706         estimate D2E/DX2                !
 ! A17   A(4,5,26)             116.5174         estimate D2E/DX2                !
 ! A18   A(4,5,27)             113.4063         estimate D2E/DX2                !
 ! A19   A(6,5,26)             113.9098         estimate D2E/DX2                !
 ! A20   A(6,5,27)             109.9675         estimate D2E/DX2                !
 ! A21   A(26,5,27)            111.3516         estimate D2E/DX2                !
 ! A22   A(5,6,7)               80.1549         estimate D2E/DX2                !
 ! A23   A(5,6,8)              114.3227         estimate D2E/DX2                !
 ! A24   A(5,6,9)              111.857          estimate D2E/DX2                !
 ! A25   A(7,6,8)              114.2315         estimate D2E/DX2                !
 ! A26   A(7,6,9)              111.8919         estimate D2E/DX2                !
 ! A27   A(8,6,9)              118.3601         estimate D2E/DX2                !
 ! A28   A(4,7,6)               89.967          estimate D2E/DX2                !
 ! A29   A(4,7,28)             116.5872         estimate D2E/DX2                !
 ! A30   A(4,7,29)             114.1231         estimate D2E/DX2                !
 ! A31   A(6,7,28)             114.0073         estimate D2E/DX2                !
 ! A32   A(6,7,29)             109.1447         estimate D2E/DX2                !
 ! A33   A(28,7,29)            111.2397         estimate D2E/DX2                !
 ! A34   A(4,10,11)            114.5085         estimate D2E/DX2                !
 ! A35   A(4,10,30)            107.7811         estimate D2E/DX2                !
 ! A36   A(4,10,31)            107.6849         estimate D2E/DX2                !
 ! A37   A(11,10,30)           109.3827         estimate D2E/DX2                !
 ! A38   A(11,10,31)           109.9493         estimate D2E/DX2                !
 ! A39   A(30,10,31)           107.269          estimate D2E/DX2                !
 ! A40   A(10,11,12)           111.9117         estimate D2E/DX2                !
 ! A41   A(10,11,32)           109.4905         estimate D2E/DX2                !
 ! A42   A(10,11,33)           109.6768         estimate D2E/DX2                !
 ! A43   A(12,11,32)           109.2979         estimate D2E/DX2                !
 ! A44   A(12,11,33)           109.3333         estimate D2E/DX2                !
 ! A45   A(32,11,33)           107.005          estimate D2E/DX2                !
 ! A46   A(11,12,13)           120.8099         estimate D2E/DX2                !
 ! A47   A(11,12,17)           120.7451         estimate D2E/DX2                !
 ! A48   A(13,12,17)           118.4341         estimate D2E/DX2                !
 ! A49   A(12,13,14)           120.9291         estimate D2E/DX2                !
 ! A50   A(12,13,34)           119.2521         estimate D2E/DX2                !
 ! A51   A(14,13,34)           119.8182         estimate D2E/DX2                !
 ! A52   A(13,14,15)           120.0808         estimate D2E/DX2                !
 ! A53   A(13,14,35)           119.7922         estimate D2E/DX2                !
 ! A54   A(15,14,35)           120.126          estimate D2E/DX2                !
 ! A55   A(14,15,16)           119.5925         estimate D2E/DX2                !
 ! A56   A(14,15,36)           120.231          estimate D2E/DX2                !
 ! A57   A(16,15,36)           120.1762         estimate D2E/DX2                !
 ! A58   A(15,16,17)           120.0693         estimate D2E/DX2                !
 ! A59   A(15,16,37)           120.1638         estimate D2E/DX2                !
 ! A60   A(17,16,37)           119.7665         estimate D2E/DX2                !
 ! A61   A(12,17,16)           120.8942         estimate D2E/DX2                !
 ! A62   A(12,17,38)           119.3678         estimate D2E/DX2                !
 ! A63   A(16,17,38)           119.7376         estimate D2E/DX2                !
 ! A64   A(2,18,19)            119.5458         estimate D2E/DX2                !
 ! A65   A(2,18,23)            118.6659         estimate D2E/DX2                !
 ! A66   A(19,18,23)           121.7244         estimate D2E/DX2                !
 ! A67   A(18,19,20)           118.7615         estimate D2E/DX2                !
 ! A68   A(18,19,39)           120.6453         estimate D2E/DX2                !
 ! A69   A(20,19,39)           120.5918         estimate D2E/DX2                !
 ! A70   A(19,20,21)           120.1418         estimate D2E/DX2                !
 ! A71   A(19,20,40)           119.6114         estimate D2E/DX2                !
 ! A72   A(21,20,40)           120.2467         estimate D2E/DX2                !
 ! A73   A(20,21,22)           120.4324         estimate D2E/DX2                !
 ! A74   A(20,21,41)           119.6676         estimate D2E/DX2                !
 ! A75   A(22,21,41)           119.9            estimate D2E/DX2                !
 ! A76   A(21,22,23)           120.0249         estimate D2E/DX2                !
 ! A77   A(21,22,42)           120.3388         estimate D2E/DX2                !
 ! A78   A(23,22,42)           119.6363         estimate D2E/DX2                !
 ! A79   A(18,23,22)           118.9136         estimate D2E/DX2                !
 ! A80   A(18,23,43)           119.6794         estimate D2E/DX2                !
 ! A81   A(22,23,43)           121.4067         estimate D2E/DX2                !
 ! D1    D(1,2,3,4)             12.269          estimate D2E/DX2                !
 ! D2    D(1,2,3,25)          -124.0909         estimate D2E/DX2                !
 ! D3    D(18,2,3,4)          -102.6182         estimate D2E/DX2                !
 ! D4    D(18,2,3,25)          121.0219         estimate D2E/DX2                !
 ! D5    D(24,2,3,4)           143.1499         estimate D2E/DX2                !
 ! D6    D(24,2,3,25)            6.7899         estimate D2E/DX2                !
 ! D7    D(1,2,18,19)         -175.5912         estimate D2E/DX2                !
 ! D8    D(1,2,18,23)            7.2626         estimate D2E/DX2                !
 ! D9    D(3,2,18,19)          -58.5565         estimate D2E/DX2                !
 ! D10   D(3,2,18,23)          124.2973         estimate D2E/DX2                !
 ! D11   D(24,2,18,19)          53.617          estimate D2E/DX2                !
 ! D12   D(24,2,18,23)        -123.5292         estimate D2E/DX2                !
 ! D13   D(2,3,4,5)            164.7259         estimate D2E/DX2                !
 ! D14   D(2,3,4,7)             58.5667         estimate D2E/DX2                !
 ! D15   D(2,3,4,10)           -69.2468         estimate D2E/DX2                !
 ! D16   D(25,3,4,5)           -60.7933         estimate D2E/DX2                !
 ! D17   D(25,3,4,7)          -166.9525         estimate D2E/DX2                !
 ! D18   D(25,3,4,10)           65.2341         estimate D2E/DX2                !
 ! D19   D(3,4,5,6)           -129.5901         estimate D2E/DX2                !
 ! D20   D(3,4,5,26)           113.4934         estimate D2E/DX2                !
 ! D21   D(3,4,5,27)           -17.7582         estimate D2E/DX2                !
 ! D22   D(7,4,5,6)            -13.3661         estimate D2E/DX2                !
 ! D23   D(7,4,5,26)          -130.2827         estimate D2E/DX2                !
 ! D24   D(7,4,5,27)            98.4658         estimate D2E/DX2                !
 ! D25   D(10,4,5,6)           102.8889         estimate D2E/DX2                !
 ! D26   D(10,4,5,26)          -14.0277         estimate D2E/DX2                !
 ! D27   D(10,4,5,27)         -145.2793         estimate D2E/DX2                !
 ! D28   D(3,4,7,6)            126.6815         estimate D2E/DX2                !
 ! D29   D(3,4,7,28)          -116.2745         estimate D2E/DX2                !
 ! D30   D(3,4,7,29)            15.6378         estimate D2E/DX2                !
 ! D31   D(5,4,7,6)             13.3449         estimate D2E/DX2                !
 ! D32   D(5,4,7,28)           130.389          estimate D2E/DX2                !
 ! D33   D(5,4,7,29)           -97.6987         estimate D2E/DX2                !
 ! D34   D(10,4,7,6)          -103.6508         estimate D2E/DX2                !
 ! D35   D(10,4,7,28)           13.3932         estimate D2E/DX2                !
 ! D36   D(10,4,7,29)          145.3055         estimate D2E/DX2                !
 ! D37   D(3,4,10,11)          -57.6673         estimate D2E/DX2                !
 ! D38   D(3,4,10,30)         -179.622          estimate D2E/DX2                !
 ! D39   D(3,4,10,31)           64.9441         estimate D2E/DX2                !
 ! D40   D(5,4,10,11)           66.4973         estimate D2E/DX2                !
 ! D41   D(5,4,10,30)          -55.4573         estimate D2E/DX2                !
 ! D42   D(5,4,10,31)         -170.8912         estimate D2E/DX2                !
 ! D43   D(7,4,10,11)          174.0141         estimate D2E/DX2                !
 ! D44   D(7,4,10,30)           52.0595         estimate D2E/DX2                !
 ! D45   D(7,4,10,31)          -63.3745         estimate D2E/DX2                !
 ! D46   D(4,5,6,7)             11.5036         estimate D2E/DX2                !
 ! D47   D(4,5,6,8)            123.7565         estimate D2E/DX2                !
 ! D48   D(4,5,6,9)            -98.2592         estimate D2E/DX2                !
 ! D49   D(26,5,6,7)           130.7229         estimate D2E/DX2                !
 ! D50   D(26,5,6,8)          -117.0243         estimate D2E/DX2                !
 ! D51   D(26,5,6,9)            20.96           estimate D2E/DX2                !
 ! D52   D(27,5,6,7)          -103.4869         estimate D2E/DX2                !
 ! D53   D(27,5,6,8)             8.7659         estimate D2E/DX2                !
 ! D54   D(27,5,6,9)           146.7502         estimate D2E/DX2                !
 ! D55   D(5,6,7,4)            -11.5275         estimate D2E/DX2                !
 ! D56   D(5,6,7,28)          -130.8474         estimate D2E/DX2                !
 ! D57   D(5,6,7,29)           104.0942         estimate D2E/DX2                !
 ! D58   D(8,6,7,4)           -123.8806         estimate D2E/DX2                !
 ! D59   D(8,6,7,28)           116.7995         estimate D2E/DX2                !
 ! D60   D(8,6,7,29)            -8.2589         estimate D2E/DX2                !
 ! D61   D(9,6,7,4)             98.1964         estimate D2E/DX2                !
 ! D62   D(9,6,7,28)           -21.1236         estimate D2E/DX2                !
 ! D63   D(9,6,7,29)          -146.182          estimate D2E/DX2                !
 ! D64   D(4,10,11,12)        -177.1842         estimate D2E/DX2                !
 ! D65   D(4,10,11,32)          61.4682         estimate D2E/DX2                !
 ! D66   D(4,10,11,33)         -55.6634         estimate D2E/DX2                !
 ! D67   D(30,10,11,12)        -56.1078         estimate D2E/DX2                !
 ! D68   D(30,10,11,32)       -177.4554         estimate D2E/DX2                !
 ! D69   D(30,10,11,33)         65.413          estimate D2E/DX2                !
 ! D70   D(31,10,11,12)         61.4396         estimate D2E/DX2                !
 ! D71   D(31,10,11,32)        -59.908          estimate D2E/DX2                !
 ! D72   D(31,10,11,33)       -177.0396         estimate D2E/DX2                !
 ! D73   D(10,11,12,13)         91.9341         estimate D2E/DX2                !
 ! D74   D(10,11,12,17)        -86.8455         estimate D2E/DX2                !
 ! D75   D(32,11,12,13)       -146.6072         estimate D2E/DX2                !
 ! D76   D(32,11,12,17)         34.6132         estimate D2E/DX2                !
 ! D77   D(33,11,12,13)        -29.7843         estimate D2E/DX2                !
 ! D78   D(33,11,12,17)        151.4362         estimate D2E/DX2                !
 ! D79   D(11,12,13,14)       -178.6675         estimate D2E/DX2                !
 ! D80   D(11,12,13,34)          1.6282         estimate D2E/DX2                !
 ! D81   D(17,12,13,14)          0.1397         estimate D2E/DX2                !
 ! D82   D(17,12,13,34)       -179.5646         estimate D2E/DX2                !
 ! D83   D(11,12,17,16)        178.6617         estimate D2E/DX2                !
 ! D84   D(11,12,17,38)         -1.5804         estimate D2E/DX2                !
 ! D85   D(13,12,17,16)         -0.1463         estimate D2E/DX2                !
 ! D86   D(13,12,17,38)        179.6116         estimate D2E/DX2                !
 ! D87   D(12,13,14,15)         -0.068          estimate D2E/DX2                !
 ! D88   D(12,13,14,35)       -179.6947         estimate D2E/DX2                !
 ! D89   D(34,13,14,15)        179.6347         estimate D2E/DX2                !
 ! D90   D(34,13,14,35)          0.0079         estimate D2E/DX2                !
 ! D91   D(13,14,15,16)         -0.0004         estimate D2E/DX2                !
 ! D92   D(13,14,15,36)       -179.8266         estimate D2E/DX2                !
 ! D93   D(35,14,15,16)        179.6251         estimate D2E/DX2                !
 ! D94   D(35,14,15,36)         -0.2011         estimate D2E/DX2                !
 ! D95   D(14,15,16,17)         -0.0062         estimate D2E/DX2                !
 ! D96   D(14,15,16,37)       -179.7529         estimate D2E/DX2                !
 ! D97   D(36,15,16,17)        179.8201         estimate D2E/DX2                !
 ! D98   D(36,15,16,37)          0.0734         estimate D2E/DX2                !
 ! D99   D(15,16,17,12)          0.0813         estimate D2E/DX2                !
 ! D100  D(15,16,17,38)       -179.6757         estimate D2E/DX2                !
 ! D101  D(37,16,17,12)        179.829          estimate D2E/DX2                !
 ! D102  D(37,16,17,38)          0.072          estimate D2E/DX2                !
 ! D103  D(2,18,19,20)        -177.4812         estimate D2E/DX2                !
 ! D104  D(2,18,19,39)           2.9343         estimate D2E/DX2                !
 ! D105  D(23,18,19,20)         -0.4251         estimate D2E/DX2                !
 ! D106  D(23,18,19,39)        179.9904         estimate D2E/DX2                !
 ! D107  D(2,18,23,22)         177.4983         estimate D2E/DX2                !
 ! D108  D(2,18,23,43)          -2.679          estimate D2E/DX2                !
 ! D109  D(19,18,23,22)          0.4172         estimate D2E/DX2                !
 ! D110  D(19,18,23,43)       -179.7602         estimate D2E/DX2                !
 ! D111  D(18,19,20,21)          0.227          estimate D2E/DX2                !
 ! D112  D(18,19,20,40)       -179.7232         estimate D2E/DX2                !
 ! D113  D(39,19,20,21)        179.8118         estimate D2E/DX2                !
 ! D114  D(39,19,20,40)         -0.1384         estimate D2E/DX2                !
 ! D115  D(19,20,21,22)         -0.0322         estimate D2E/DX2                !
 ! D116  D(19,20,21,41)       -179.9784         estimate D2E/DX2                !
 ! D117  D(40,20,21,22)        179.9177         estimate D2E/DX2                !
 ! D118  D(40,20,21,41)         -0.0285         estimate D2E/DX2                !
 ! D119  D(20,21,22,23)          0.0234         estimate D2E/DX2                !
 ! D120  D(20,21,22,42)        179.9617         estimate D2E/DX2                !
 ! D121  D(41,21,22,23)        179.9695         estimate D2E/DX2                !
 ! D122  D(41,21,22,42)         -0.0922         estimate D2E/DX2                !
 ! D123  D(21,22,23,18)         -0.2107         estimate D2E/DX2                !
 ! D124  D(21,22,23,43)        179.9698         estimate D2E/DX2                !
 ! D125  D(42,22,23,18)        179.8505         estimate D2E/DX2                !
 ! D126  D(42,22,23,43)          0.0311         estimate D2E/DX2                !
 --------------------------------------------------------------------------------
 Trust Radius=3.00D-01 FncErr=1.00D-07 GrdErr=1.00D-06 EigMax=2.50D+02 EigMin=1.00D-04
 Number of steps in this run=    258 maximum allowed number of steps=    258.
 GradGradGradGradGradGradGradGradGradGradGradGradGradGradGradGradGradGrad

 Leave Link  103 at Tue Sep 15 07:08:27 2020, MaxMem=  2147483648 cpu:               0.1 elap:               0.0
 (Enter /prod/apps/gaussian/g16b1/l202.exe)
                          Input orientation:                          
 ---------------------------------------------------------------------
 Center     Atomic      Atomic             Coordinates (Angstroms)
 Number     Number       Type             X           Y           Z
 ---------------------------------------------------------------------
      1          8           0        0.722000   -1.706000    1.166000
      2         16           0        1.310000   -1.605000   -0.180000
      3          7           0        0.684000   -0.272000   -0.991000
      4          6           0       -0.098000    0.765000   -0.298000
      5          6           0       -0.187000    2.024000   -1.227000
      6         16           0        0.363000    3.080000    0.153000
      7          6           0        0.710000    1.434000    0.862000
      8          8           0        1.567000    3.880000   -0.137000
      9          8           0       -0.773000    3.741000    0.826000
     10          6           0       -1.487000    0.305000    0.187000
     11          6           0       -2.404000   -0.233000   -0.923000
     12          6           0       -3.772000   -0.603000   -0.395000
     13          6           0       -4.820000    0.327000   -0.403000
     14          6           0       -6.076000   -0.003000    0.109000
     15          6           0       -6.304000   -1.275000    0.638000
     16          6           0       -5.269000   -2.212000    0.651000
     17          6           0       -4.014000   -1.876000    0.137000
     18          6           0        3.046000   -1.226000    0.028000
     19          6           0        3.838000   -0.981000   -1.098000
     20          6           0        5.198000   -0.740000   -0.921000
     21          6           0        5.752000   -0.750000    0.364000
     22          6           0        4.950000   -1.000000    1.477000
     23          6           0        3.585000   -1.243000    1.314000
     24          8           0        1.189000   -2.731000   -1.120000
     25          1           0        0.275000   -0.579000   -1.874000
     26          1           0       -1.175000    2.277000   -1.610000
     27          1           0        0.560000    2.030000   -2.021000
     28          1           0        0.322000    1.295000    1.869000
     29          1           0        1.783000    1.247000    0.823000
     30          1           0       -1.970000    1.158000    0.676000
     31          1           0       -1.335000   -0.462000    0.949000
     32          1           0       -1.943000   -1.114000   -1.383000
     33          1           0       -2.511000    0.521000   -1.711000
     34          1           0       -4.649000    1.316000   -0.819000
     35          1           0       -6.876000    0.730000    0.089000
     36          1           0       -7.280000   -1.535000    1.034000
     37          1           0       -5.437000   -3.204000    1.056000
     38          1           0       -3.214000   -2.611000    0.145000
     39          1           0        3.401000   -0.972000   -2.089000
     40          1           0        5.824000   -0.544000   -1.784000
     41          1           0        6.812000   -0.561000    0.493000
     42          1           0        5.381000   -1.008000    2.472000
     43          1           0        2.942000   -1.440000    2.162000
 ---------------------------------------------------------------------
                    Distance matrix (angstroms):
                    1          2          3          4          5
     1  O    0.000000
     2  S    1.472298   0.000000
     3  N    2.590453   1.681216   0.000000
     4  C    2.986894   2.759219   1.472122   0.000000
     5  C    4.523895   4.062863   2.466972   1.567177   0.000000
     6  S    4.905186   4.791338   3.556358   2.403154   1.822645
     7  C    3.154704   3.268224   2.518873   1.563977   2.348751
     8  O    5.797864   5.491186   4.329909   3.535728   2.776572
     9  O    5.658660   5.825001   4.639882   3.252011   2.739762
    10  C    3.143604   3.406758   2.536504   1.541475   2.577665
    11  C    4.038010   4.028428   3.088995   2.589260   3.178294
    12  C    4.883581   5.184299   4.507850   3.921621   4.521679
    13  C    6.108078   6.431116   5.567635   4.743433   5.002347
    14  C    7.087331   7.563261   6.854193   6.040857   6.369768
    15  C    7.058982   7.664921   7.245122   6.599404   7.195785
    16  C    6.034347   6.658998   6.472864   6.041719   6.877304
    17  C    4.849478   5.340310   5.090816   4.743328   5.631734
    18  C    2.631809   1.789022   2.743633   3.735652   4.752874
    19  C    3.919283   2.760957   3.234478   4.379568   5.024668
    20  C    5.032226   4.051401   4.538736   5.540828   6.060656
    21  C    5.182474   4.556130   5.267745   6.079142   6.745226
    22  C    4.297807   4.044907   4.981944   5.634550   6.545606
    23  C    2.903970   2.745670   3.830361   4.493896   5.599817
    24  O    2.548433   1.471773   2.513632   3.814980   4.951247
    25  H    3.272849   2.234622   1.020401   2.104576   2.721702
    26  H    5.212396   4.825976   3.215034   2.273195   1.089423
    27  H    4.913340   4.143067   2.524971   2.236497   1.090175
    28  H    3.108088   3.685722   3.281179   2.270064   3.221139
    29  H    3.156514   3.060007   2.608785   2.242125   2.947394
    30  H    3.960992   4.373249   3.444925   2.146511   2.747809
    31  H    2.413685   3.094691   2.806432   2.142594   3.497581
    32  H    3.734982   3.502899   2.786352   2.848138   3.599294
    33  H    4.867129   4.632912   3.369759   2.806898   2.809669
    34  H    6.474593   6.667102   5.567065   4.613745   4.536207
    35  H    8.051312   8.516759   7.702208   6.789129   6.938949
    36  H    8.004915   8.675644   8.313909   7.658025   8.251621
    37  H    6.339510   7.043189   7.088968   6.789050   7.752843
    38  H    4.165761   4.645884   4.685704   4.615526   5.703362
    39  H    4.279115   2.901250   3.012921   4.297424   4.753189
    40  H    6.006925   4.906601   5.207920   6.244338   6.560259
    41  H    6.233142   5.640467   6.311748   7.080399   7.656803
    42  H    4.888673   4.895156   5.881826   6.390295   7.340180
    43  H    2.447687   2.859303   4.050210   4.489457   5.768471
                    6          7          8          9         10
     6  S    0.000000
     7  C    1.825488   0.000000
     8  O    1.474353   2.777655   0.000000
     9  O    1.476599   2.742779   2.534224   0.000000
    10  C    3.335308   2.560679   4.713016   3.567101   0.000000
    11  C    4.448599   3.957538   5.770910   4.638086   1.537021
    12  C    5.564442   5.081116   6.976301   5.418042   2.526740
    13  C    5.895052   5.779842   7.313572   5.435443   3.384889
    14  C    7.139156   6.977233   8.576343   6.530960   4.599986
    15  C    7.978104   7.522304   9.440725   7.469107   5.089527
    16  C    7.744204   7.006160   9.190446   7.462094   4.566630
    17  C    6.612134   5.813596   8.022105   6.521464   3.338411
    18  C    5.075012   3.637039   5.318449   6.316063   4.787205
    19  C    5.489294   4.411146   5.450714   6.874619   5.626779
    20  C    6.254846   5.295990   5.928171   7.667086   6.856305
    21  C    6.614737   5.517212   6.261160   7.934617   7.317614
    22  C    6.280123   4.927492   6.153380   7.460135   6.693437
    23  C    5.515209   3.954271   5.694107   6.638566   5.421404
    24  O    6.005874   4.637347   6.694363   7.037268   4.252825
    25  H    4.183868   3.424484   4.956724   5.201029   2.851985
    26  H    2.473544   3.220972   3.501129   2.870365   2.686138
    27  H    2.422310   2.947780   2.825952   3.579081   3.470029
    28  H    2.476401   1.088078   3.500898   2.875724   2.661147
    29  H    2.413543   1.089871   2.810862   3.571160   3.461901
    30  H    3.067654   2.700587   4.536587   2.850824   1.095454
    31  H    4.007815   2.790056   5.334226   4.242191   1.091804
    32  H    5.026586   4.309378   6.229980   5.460733   2.164809
    33  H    4.275845   4.222409   5.512753   4.452574   2.167403
    34  H    5.401539   5.617701   6.758541   4.859015   3.468775
    35  H    7.611157   7.657711   9.014312   6.845137   5.406621
    36  H    8.971613   8.525529  10.438528   8.379767   6.136926
    37  H    8.599073   7.702875  10.033061   8.368920   5.354507
    38  H    6.721791   5.681011   8.066633   6.838870   3.389299
    39  H    5.538476   4.662480   5.542180   6.937714   5.541069
    40  H    6.834315   6.088251   6.356606   8.288168   7.619473
    41  H    7.413642   6.430442   6.901406   8.726415   8.349670
    42  H    6.875306   5.511234   6.726516   7.945693   7.356264
    43  H    5.578326   3.864156   5.956377   6.513746   5.153804
                   11         12         13         14         15
    11  C    0.000000
    12  C    1.512319   0.000000
    13  C    2.533980   1.401167   0.000000
    14  C    3.821192   2.433605   1.395915   0.000000
    15  C    4.328104   2.815972   2.419161   1.396356   0.000000
    16  C    3.821275   2.433928   2.785505   2.413440   1.396196
    17  C    2.532814   1.400756   2.407165   2.785814   2.419980
    18  C    5.620761   6.859459   8.029416   9.203976   9.370005
    19  C    6.289093   7.651744   8.783784  10.034975  10.293702
    20  C    7.618888   8.986453  10.087970  11.344917  11.619497
    21  C    8.273089   9.555327  10.654361  11.854308  12.070536
    22  C    7.773648   8.929461  10.037342  11.155183  11.288581
    23  C    6.472433   7.579956   8.721067   9.814507   9.912130
    24  O    4.380464   5.446607   6.780379   7.857013   7.832978
    25  H    2.863766   4.308854   5.379935   6.678268   7.076567
    26  H    2.877935   4.063869   4.306434   5.672139   6.631504
    27  H    3.887424   5.323795   5.870480   7.259923   8.068941
    28  H    4.190599   5.048657   5.704312   6.761421   7.212776
    29  H    4.771780   5.980305   6.778575   7.989755   8.473150
    30  H    2.163340   2.737767   3.158687   4.304491   4.970361
    31  H    2.167853   2.786608   3.820425   4.836668   5.044666
    32  H    1.095574   2.140679   3.363630   4.532336   4.809229
    33  H    1.095860   2.141344   2.660823   4.036855   4.809394
    34  H    2.729513   2.152084   1.086470   2.153433   3.402228
    35  H    4.685114   3.412618   2.152117   1.085214   2.156064
    36  H    5.412987   3.900863   3.403471   2.156911   1.084893
    37  H    4.684268   3.412159   3.870056   3.398754   2.155795
    38  H    2.729763   2.152912   3.392843   3.872209   3.402359
    39  H    5.966884   7.379548   8.492046   9.776691  10.085403
    40  H    8.278770   9.696186  10.768497  12.061763  12.389061
    41  H    9.329914  10.621269  11.700204  12.905788  13.136220
    42  H    8.528357   9.600058  10.682146  11.741237  11.831064
    43  H    6.289180   7.233022   8.363621   9.359706   9.372210
                   16         17         18         19         20
    16  C    0.000000
    17  C    1.397182   0.000000
    18  C    8.396401   7.090697   0.000000
    19  C    9.354775   7.998760   1.398272   0.000000
    20  C   10.686256   9.341884   2.401645   1.392483   0.000000
    21  C   11.121252   9.833319   2.768015   2.419546   1.399372
    22  C   10.323719   9.105837   2.403309   2.804912   2.424770
    23  C    8.931509   7.715622   1.394491   2.439344   2.801786
    24  O    6.716514   5.420543   2.651675   3.174931   4.480599
    25  H    6.307000   4.911400   3.422668   3.668617   5.016977
    26  H    6.482598   5.325349   5.724587   6.000573   7.084641
    27  H    7.688393   6.390249   4.580408   4.545694   5.513070
    28  H    6.711323   5.644109   4.143054   5.132789   5.975006
    29  H    7.856524   6.620342   2.888412   3.588489   4.318788
    30  H    4.716029   3.697785   5.591388   6.438576   7.585054
    31  H    4.315977   3.136205   4.541486   5.587441   6.801049
    32  H    4.050313   2.679568   5.185903   5.789549   7.165696
    33  H    4.544766   3.379308   6.079176   6.552982   7.851299
    34  H    3.871961   3.392053   8.148141   8.796773  10.059868
    35  H    3.399067   3.870993  10.113147  10.914499  12.205018
    36  H    2.156186   3.404063  10.379489  11.334119  12.655218
    37  H    1.084580   2.152458   8.771007   9.777887  11.094280
    38  H    2.153662   1.086411   6.412450   7.343885   8.683245
    39  H    9.176824   7.794518   2.161534   1.083112   2.155750
    40  H   11.478942  10.111909   3.386112   2.146104   1.084002
    41  H   12.194315  10.911381   3.852429   3.398876   2.153238
    42  H   10.871438   9.719654   3.387165   3.889277   3.408484
    43  H    8.384487   7.257869   2.147223   3.411905   3.883867
                   21         22         23         24         25
    21  C    0.000000
    22  C    1.394444   0.000000
    23  C    2.416907   1.396010   0.000000
    24  O    5.191106   4.887319   3.725495   0.000000
    25  H    5.919072   5.767328   4.643311   2.456627   0.000000
    26  H    7.812985   7.601574   6.602861   5.559556   3.213866
    27  H    6.354014   6.378793   5.566451   4.886160   2.628634
    28  H    5.994326   5.180644   4.170928   5.088662   4.186184
    29  H    4.466727   3.937844   3.112617   4.466830   3.589171
    30  H    7.960345   7.292802   6.085217   5.322520   3.815717
    31  H    7.116933   6.330044   4.994956   3.974883   3.251941
    32  H    7.899211   7.463648   6.152173   3.534584   2.333844
    33  H    8.613840   8.254896   7.030188   4.961329   2.999727
    34  H   10.669988  10.137863   8.882394   7.109926   5.380504
    35  H   12.717406  12.032195  10.715684   8.859144   7.530183
    36  H   13.072802  12.249709  10.872529   8.820096   8.151590
    37  H   11.475831  10.626600   9.236264   6.990177   6.935594
    38  H    9.159718   8.427363   7.033092   4.582689   4.514256
    39  H    3.404951   3.888000   3.418729   2.987639   3.157934
    40  H    2.159056   3.406748   3.885785   5.167890   5.549840
    41  H    1.084418   2.151284   3.398925   6.239295   6.952365
    42  H    2.155892   1.084366   2.149838   5.783084   6.718854
    43  H    3.406612   2.166769   1.082295   3.938428   4.913604
                   26         27         28         29         30
    26  H    0.000000
    27  H    1.800043   0.000000
    28  H    3.912643   3.965976   0.000000
    29  H    3.966126   3.193298   1.797482   0.000000
    30  H    2.666455   3.799354   2.587524   3.756932   0.000000
    31  H    3.751826   4.315320   2.584395   3.557876   1.761293
    32  H    3.484284   4.069003   4.637781   4.931920   3.066300
    33  H    2.208763   3.435727   4.630482   5.038518   2.529075
    34  H    3.690241   5.393355   5.651250   6.638641   3.071975
    35  H    6.146642   7.838125   7.436318   8.705419   4.959495
    36  H    7.667666   9.138263   8.154540   9.482722   5.964605
    37  H    7.437309   8.533856   7.353098   8.484933   5.584938
    38  H    5.579435   6.361880   5.543673   6.349319   4.004355
    39  H    5.632514   4.133752   5.503208   4.002703   6.405448
    40  H    7.548133   5.864413   6.855533   5.131648   8.348344
    41  H    8.733214   7.219486   6.888992   5.354307   8.950529
    42  H    8.392561   7.256620   5.591145   4.555198   7.871110
    43  H    6.707739   5.933996   3.798746   3.218101   5.752003
                   31         32         33         34         35
    31  H    0.000000
    32  H    2.496596   0.000000
    33  H    3.069994   1.761656   0.000000
    34  H    4.155683   3.680412   2.449231   0.000000
    35  H    5.732639   5.468236   4.726194   2.475356   0.000000
    36  H    6.041654   5.873900   5.874140   4.299299   2.487261
    37  H    4.935222   4.746036   5.485744   4.956508   4.299089
    38  H    2.965680   2.488219   3.707879   4.290670   4.957384
    39  H    5.649711   5.392303   6.109311   8.464653  10.642237
    40  H    7.663374   7.798204   8.403082  10.680569  12.900434
    41  H    8.160352   8.970798   9.640885  11.687557  13.754681
    42  H    6.908133   8.277272   9.061953  10.808911  12.606878
    43  H    4.551987   6.044545   6.969997   8.608436  10.266419
                   36         37         38         39         40
    36  H    0.000000
    37  H    2.486502   0.000000
    38  H    4.298890   2.474530   0.000000
    39  H   11.142435   9.642774   7.171841   0.000000
    40  H   13.440164  11.914333   9.469898   2.479342   0.000000
    41  H   14.135976  12.543541  10.239350   4.297740   2.482169
    42  H   12.753293  11.129088   9.047572   4.972365   4.304077
    43  H   10.284488   8.633804   6.582998   4.301245   4.967862
                   41         42         43
    41  H    0.000000
    42  H    2.482743   0.000000
    43  H    4.305241   2.496286   0.000000
 Symmetry turned off by external request.
 Stoichiometry    C17H19NO4S2
 Framework group  C1[X(C17H19NO4S2)]
 Deg. of freedom   123
 Full point group                 C1      NOp   1
 Rotational constants (GHZ):           0.3200977           0.1217046           0.0961202
 Leave Link  202 at Tue Sep 15 07:08:27 2020, MaxMem=  2147483648 cpu:               0.1 elap:               0.0
 (Enter /prod/apps/gaussian/g16b1/l301.exe)
 Standard basis: 6-31G(d) (6D, 7F)
 Ernie: Thresh=  0.10000D-02 Tol=  0.10000D-05 Strict=F.
   406 basis functions,   796 primitive gaussians,   406 cartesian basis functions
    96 alpha electrons       96 beta electrons
       nuclear repulsion energy      2440.1312477605 Hartrees.
 IExCor=  402 DFT=T Ex+Corr=B3LYP ExCW=0 ScaHFX=  0.200000
 ScaDFX=  0.800000  0.720000  1.000000  0.810000 ScalE2=  1.000000  1.000000
 IRadAn=      5 IRanWt=     -1 IRanGd=            0 ICorTp=0 IEmpDi=  4
 NAtoms=   43 NActive=   43 NUniq=   43 SFac= 1.00D+00 NAtFMM=   60 NAOKFM=F Big=F
 Integral buffers will be    131072 words long.
 Raffenetti 2 integral format.
 Two-electron integral symmetry is turned off.
 Using the following non-standard input for PCM:
 MSTModel=DFT cav
 --- end of non-standard input.
 MST model for solvation energy: B3LYP parametrization.
 MST cavity parameters:
 ISph   IAn     Re0     Alpha   Atom Type   QCorr
 ------------------------------------------------
   1      8     1.40     1.25      O          F
   2     16     1.75     1.25      S          F
   3      7     1.50     1.25      NH         F
   4      6     1.50     1.25      C          F
   5      6     1.50     1.25      CH2        F
   6     16     1.75     1.25      S          F
   7      6     1.50     1.25      CH2        F
   8      8     1.40     1.25      O          F
   9      8     1.40     1.25      O          F
  10      6     1.50     1.25      CH2        F
  11      6     1.50     1.25      CH2        F
  12      6     1.50     1.25      C          F
  13      6     1.50     1.25      CH         F
  14      6     1.50     1.25      CH         F
  15      6     1.50     1.25      CH         F
  16      6     1.50     1.25      CH         F
  17      6     1.50     1.25      CH         F
  18      6     1.50     1.25      C          F
  19      6     1.50     1.25      CH         F
  20      6     1.50     1.25      CH         F
  21      6     1.50     1.25      CH         F
  22      6     1.50     1.25      CH         F
  23      6     1.50     1.25      CH         F
  24      8     1.40     1.25      O          F
  25      1     0.90     1.25      NH         F
  26      1     1.20     1.25      CH2        F
  27      1     1.20     1.25      CH2        F
  28      1     1.20     1.25      CH2        F
  29      1     1.20     1.25      CH2        F
  30      1     1.20     1.25      CH2        F
  31      1     1.20     1.25      CH2        F
  32      1     1.20     1.25      CH2        F
  33      1     1.20     1.25      CH2        F
  34      1     1.20     1.25      CH         F
  35      1     1.20     1.25      CH         F
  36      1     1.20     1.25      CH         F
  37      1     1.20     1.25      CH         F
  38      1     1.20     1.25      CH         F
  39      1     1.20     1.25      CH         F
  40      1     1.20     1.25      CH         F
  41      1     1.20     1.25      CH         F
  42      1     1.20     1.25      CH         F
  43      1     1.20     1.25      CH         F
 ------------------------------------------------------------------------------
 Polarizable Continuum Model (PCM)
 =================================
 Model                : PCM.
 Atomic radii         : MST.
 Polarization charges : Total charges.
 Charge compensation  : None.
 Solution method      : On-the-fly selection.
 Cavity type          : Scaled VdW (van der Waals Surface) (Alpha=1.250).
 Cavity algorithm     : GePol (No added spheres)
                        Default sphere list used, NSphG=   43.
                        Lebedev-Laikov grids with approx.  5.0 points / Ang**2.
                        Smoothing algorithm: York/Karplus (Gamma=1.0000).
                        Polarization charges: spherical gaussians, with
                                              point-specific exponents (IZeta= 3).
                        Self-potential: point-specific (ISelfS= 7).
                        Self-field    : sphere-specific E.n sum rule (ISelfD= 2).
 1st derivatives      : Analytical E(r).r(x)/FMM algorithm (CHGder, D1EAlg=3).
                        Cavity 1st derivative terms included.
 Solvent              : Water, Eps=  78.355300 Eps(inf)=   1.777849
 ------------------------------------------------------------------------------
 GePol: Number of generator spheres                  =      43
 GePol: Total number of spheres                      =      43
 GePol: Number of exposed spheres                    =      43 (100.00%)
 GePol: Number of points                             =    3162
 GePol: Average weight of points                     =       0.13
 GePol: Minimum weight of points                     =   0.14D-11
 GePol: Maximum weight of points                     =    0.22001
 GePol: Number of points with low weight             =     200
 GePol: Fraction of low-weight points (<1% of avg)   =       6.33%
 GePol: Cavity surface area                          =    409.814 Ang**2
 GePol: Cavity volume                                =    405.029 Ang**3
 PCM non-electrostatic energy =         0.0031644019 Hartrees.
 Nuclear repulsion after PCM non-electrostatic terms =     2440.1344121624 Hartrees.
 Leave Link  301 at Tue Sep 15 07:08:27 2020, MaxMem=  2147483648 cpu:               0.3 elap:               0.1
 (Enter /prod/apps/gaussian/g16b1/l302.exe)
 NPDir=0 NMtPBC=     1 NCelOv=     1 NCel=       1 NClECP=     1 NCelD=      1
         NCelK=      1 NCelE2=     1 NClLst=     1 CellRange=     0.0.
 One-electron integrals computed using PRISM.
 NBasis=   406 RedAO= T EigKep=  4.66D-04  NBF=   406
 NBsUse=   406 1.00D-06 EigRej= -1.00D+00 NBFU=   406
 Precomputing XC quadrature grid using
 IXCGrd= 4 IRadAn=           5 IRanWt=          -1 IRanGd=           0 AccXCQ= 0.00D+00.
 Generated NRdTot=       0 NPtTot=           0 NUsed=           0 NTot=          32
 NSgBfM=   400   400   400   400   400 MxSgAt=    43 MxSgA2=    43.
 Leave Link  302 at Tue Sep 15 07:08:28 2020, MaxMem=  2147483648 cpu:               2.6 elap:               0.7
 (Enter /prod/apps/gaussian/g16b1/l303.exe)
 DipDrv:  MaxL=1.
 Leave Link  303 at Tue Sep 15 07:08:28 2020, MaxMem=  2147483648 cpu:               0.2 elap:               0.1
 (Enter /prod/apps/gaussian/g16b1/l401.exe)
 ExpMin= 1.17D-01 ExpMax= 2.19D+04 ExpMxC= 3.30D+03 IAcc=3 IRadAn=         5 AccDes= 0.00D+00
 Harris functional with IExCor=  402 and IRadAn=       5 diagonalized for initial guess.
 HarFok:  IExCor=  402 AccDes= 0.00D+00 IRadAn=         5 IDoV= 1 UseB2=F ITyADJ=14
 ICtDFT=  3500011 ScaDFX=  1.000000  1.000000  1.000000  1.000000
 FoFCou: FMM=F IPFlag=           0 FMFlag=      100000 FMFlg1=           0
         NFxFlg=           0 DoJE=T BraDBF=F KetDBF=T FulRan=T
         wScrn=  0.000000 ICntrl=       500 IOpCl=  0 I1Cent=   200000004 NGrid=           0
         NMat0=    1 NMatS0=      1 NMatT0=    0 NMatD0=    1 NMtDS0=    0 NMtDT0=    0
 Symmetry not used in FoFCou.
 Harris En= -1811.21878085987    
 JPrj=0 DoOrth=F DoCkMO=F.
 Leave Link  401 at Tue Sep 15 07:08:31 2020, MaxMem=  2147483648 cpu:              13.5 elap:               3.4
 (Enter /prod/apps/gaussian/g16b1/l502.exe)
 Two-electron integral symmetry not used.
 Closed shell SCF:
 Using DIIS extrapolation, IDIIS=  1040.
 NGot=  2147483648 LenX=  2147148011 LenY=  2146982734
 Requested convergence on RMS density matrix=1.00D-08 within2000 cycles.
 Requested convergence on MAX density matrix=1.00D-06.
 Requested convergence on             energy=1.00D-06.
 No special actions if energy rises.

 Cycle   1  Pass 1  IDiag  1:
 FoFJK:  IHMeth= 1 ICntrl=       0 DoSepK=F KAlg= 0 I1Cent=           0 FoldK=F
 IRaf= 720000000 NMat=       1 IRICut=       1 DoRegI=T DoRafI=F ISym2E= 0 IDoP0=0 IntGTp=1.
 FoFCou: FMM=F IPFlag=           0 FMFlag=      100000 FMFlg1=           0
         NFxFlg=           0 DoJE=F BraDBF=F KetDBF=F FulRan=T
         wScrn=  0.000000 ICntrl=         0 IOpCl=  0 I1Cent=           0 NGrid=           0
         NMat0=    1 NMatS0=      1 NMatT0=    0 NMatD0=    1 NMtDS0=    0 NMtDT0=    0
 Symmetry not used in FoFCou.
 Inv3:  Mode=1 IEnd=    29994732.
 Iteration    1 A*A^-1 deviation from unit magnitude is 3.77D-15 for   3017.
 Iteration    1 A*A^-1 deviation from orthogonality  is 1.82D-15 for   2956   2857.
 Iteration    1 A^-1*A deviation from unit magnitude is 3.77D-15 for   3017.
 Iteration    1 A^-1*A deviation from orthogonality  is 2.05D-15 for   2004   1880.
 E= -1810.29782324800    
 DIIS: error= 4.36D-02 at cycle   1 NSaved=   1.
 NSaved= 1 IEnMin= 1 EnMin= -1810.29782324800     IErMin= 1 ErrMin= 4.36D-02
 ErrMax= 4.36D-02  0.00D+00 EMaxC= 1.00D-01 BMatC= 9.88D-01 BMatP= 9.88D-01
 IDIUse=3 WtCom= 5.64D-01 WtEn= 4.36D-01
 Coeff-Com:  0.100D+01
 Coeff-En:   0.100D+01
 Coeff:      0.100D+01
 Gap=     0.264 Goal=   None    Shift=    0.000
 GapD=    0.264 DampG=1.000 DampE=0.500 DampFc=0.5000 IDamp=-1.
 Damping current iteration by 5.00D-01
 RMSDP=5.96D-03 MaxDP=5.58D-01              OVMax= 2.19D-01

 Cycle   2  Pass 1  IDiag  1:
 E= -1810.53167421205     Delta-E=       -0.233850964058 Rises=F Damp=T
 DIIS: error= 1.57D-02 at cycle   2 NSaved=   2.
 NSaved= 2 IEnMin= 2 EnMin= -1810.53167421205     IErMin= 2 ErrMin= 1.57D-02
 ErrMax= 1.57D-02  0.00D+00 EMaxC= 1.00D-01 BMatC= 1.35D-01 BMatP= 9.88D-01
 IDIUse=3 WtCom= 8.43D-01 WtEn= 1.57D-01
 Coeff-Com:  0.217D+00 0.783D+00
 Coeff-En:   0.346D+00 0.654D+00
 Coeff:      0.237D+00 0.763D+00
 Gap=     0.236 Goal=   None    Shift=    0.000
 RMSDP=1.66D-03 MaxDP=1.24D-01 DE=-2.34D-01 OVMax= 1.81D-01

 Cycle   3  Pass 1  IDiag  1:
 E= -1811.08343862332     Delta-E=       -0.551764411270 Rises=F Damp=F
 DIIS: error= 9.35D-03 at cycle   3 NSaved=   3.
 NSaved= 3 IEnMin= 3 EnMin= -1811.08343862332     IErMin= 3 ErrMin= 9.35D-03
 ErrMax= 9.35D-03  0.00D+00 EMaxC= 1.00D-01 BMatC= 7.35D-02 BMatP= 1.35D-01
 IDIUse=3 WtCom= 9.06D-01 WtEn= 9.35D-02
 Coeff-Com:  0.739D-01 0.431D+00 0.496D+00
 Coeff-En:   0.000D+00 0.000D+00 0.100D+01
 Coeff:      0.670D-01 0.390D+00 0.543D+00
 Gap=     0.205 Goal=   None    Shift=    0.000
 RMSDP=9.60D-04 MaxDP=3.42D-02 DE=-5.52D-01 OVMax= 5.82D-02

 Cycle   4  Pass 1  IDiag  1:
 E= -1811.14298293678     Delta-E=       -0.059544313458 Rises=F Damp=F
 DIIS: error= 3.06D-03 at cycle   4 NSaved=   4.
 NSaved= 4 IEnMin= 4 EnMin= -1811.14298293678     IErMin= 4 ErrMin= 3.06D-03
 ErrMax= 3.06D-03  0.00D+00 EMaxC= 1.00D-01 BMatC= 1.02D-02 BMatP= 7.35D-02
 IDIUse=3 WtCom= 9.69D-01 WtEn= 3.06D-02
 Coeff-Com:  0.517D-02 0.764D-01 0.287D+00 0.631D+00
 Coeff-En:   0.000D+00 0.000D+00 0.110D+00 0.890D+00
 Coeff:      0.501D-02 0.740D-01 0.282D+00 0.639D+00
 Gap=     0.204 Goal=   None    Shift=    0.000
 RMSDP=3.07D-04 MaxDP=1.35D-02 DE=-5.95D-02 OVMax= 2.05D-02

 Cycle   5  Pass 1  IDiag  1:
 E= -1811.15169173953     Delta-E=       -0.008708802744 Rises=F Damp=F
 DIIS: error= 9.33D-04 at cycle   5 NSaved=   5.
 NSaved= 5 IEnMin= 5 EnMin= -1811.15169173953     IErMin= 5 ErrMin= 9.33D-04
 ErrMax= 9.33D-04  0.00D+00 EMaxC= 1.00D-01 BMatC= 6.66D-04 BMatP= 1.02D-02
 IDIUse=3 WtCom= 9.91D-01 WtEn= 9.33D-03
 Coeff-Com: -0.200D-02 0.138D-01 0.110D+00 0.325D+00 0.554D+00
 Coeff-En:   0.000D+00 0.000D+00 0.000D+00 0.000D+00 0.100D+01
 Coeff:     -0.198D-02 0.137D-01 0.109D+00 0.322D+00 0.558D+00
 Gap=     0.203 Goal=   None    Shift=    0.000
 RMSDP=8.20D-05 MaxDP=5.23D-03 DE=-8.71D-03 OVMax= 5.87D-03

 Cycle   6  Pass 1  IDiag  1:
 E= -1811.15228758859     Delta-E=       -0.000595849062 Rises=F Damp=F
 DIIS: error= 2.65D-04 at cycle   6 NSaved=   6.
 NSaved= 6 IEnMin= 6 EnMin= -1811.15228758859     IErMin= 6 ErrMin= 2.65D-04
 ErrMax= 2.65D-04  0.00D+00 EMaxC= 1.00D-01 BMatC= 4.66D-05 BMatP= 6.66D-04
 IDIUse=3 WtCom= 9.97D-01 WtEn= 2.65D-03
 Coeff-Com: -0.136D-02 0.217D-02 0.357D-01 0.116D+00 0.283D+00 0.564D+00
 Coeff-En:   0.000D+00 0.000D+00 0.000D+00 0.000D+00 0.000D+00 0.100D+01
 Coeff:     -0.136D-02 0.217D-02 0.356D-01 0.116D+00 0.283D+00 0.565D+00
 Gap=     0.204 Goal=   None    Shift=    0.000
 RMSDP=2.04D-05 MaxDP=1.22D-03 DE=-5.96D-04 OVMax= 1.37D-03

 Cycle   7  Pass 1  IDiag  1:
 E= -1811.15232514804     Delta-E=       -0.000037559451 Rises=F Damp=F
 DIIS: error= 9.95D-05 at cycle   7 NSaved=   7.
 NSaved= 7 IEnMin= 7 EnMin= -1811.15232514804     IErMin= 7 ErrMin= 9.95D-05
 ErrMax= 9.95D-05  0.00D+00 EMaxC= 1.00D-01 BMatC= 4.95D-06 BMatP= 4.66D-05
 IDIUse=1 WtCom= 1.00D+00 WtEn= 0.00D+00
 Coeff-Com: -0.594D-03-0.336D-05 0.104D-01 0.367D-01 0.111D+00 0.314D+00
 Coeff-Com:  0.528D+00
 Coeff:     -0.594D-03-0.336D-05 0.104D-01 0.367D-01 0.111D+00 0.314D+00
 Coeff:      0.528D+00
 Gap=     0.204 Goal=   None    Shift=    0.000
 RMSDP=6.60D-06 MaxDP=5.02D-04 DE=-3.76D-05 OVMax= 5.39D-04

 Cycle   8  Pass 1  IDiag  1:
 E= -1811.15232905783     Delta-E=       -0.000003909789 Rises=F Damp=F
 DIIS: error= 3.43D-05 at cycle   8 NSaved=   8.
 NSaved= 8 IEnMin= 8 EnMin= -1811.15232905783     IErMin= 8 ErrMin= 3.43D-05
 ErrMax= 3.43D-05  0.00D+00 EMaxC= 1.00D-01 BMatC= 5.00D-07 BMatP= 4.95D-06
 IDIUse=1 WtCom= 1.00D+00 WtEn= 0.00D+00
 Coeff-Com: -0.188D-03-0.234D-03 0.168D-02 0.708D-02 0.302D-01 0.111D+00
 Coeff-Com:  0.290D+00 0.561D+00
 Coeff:     -0.188D-03-0.234D-03 0.168D-02 0.708D-02 0.302D-01 0.111D+00
 Coeff:      0.290D+00 0.561D+00
 Gap=     0.204 Goal=   None    Shift=    0.000
 RMSDP=2.06D-06 MaxDP=1.26D-04 DE=-3.91D-06 OVMax= 1.18D-04

 Cycle   9  Pass 1  IDiag  1:
 E= -1811.15232940369     Delta-E=       -0.000000345856 Rises=F Damp=F
 DIIS: error= 8.50D-06 at cycle   9 NSaved=   9.
 NSaved= 9 IEnMin= 9 EnMin= -1811.15232940369     IErMin= 9 ErrMin= 8.50D-06
 ErrMax= 8.50D-06  0.00D+00 EMaxC= 1.00D-01 BMatC= 5.83D-08 BMatP= 5.00D-07
 IDIUse=1 WtCom= 1.00D+00 WtEn= 0.00D+00
 Coeff-Com: -0.273D-04-0.106D-03-0.466D-03-0.105D-02 0.175D-02 0.181D-01
 Coeff-Com:  0.891D-01 0.307D+00 0.586D+00
 Coeff:     -0.273D-04-0.106D-03-0.466D-03-0.105D-02 0.175D-02 0.181D-01
 Coeff:      0.891D-01 0.307D+00 0.586D+00
 Gap=     0.204 Goal=   None    Shift=    0.000
 RMSDP=6.44D-07 MaxDP=4.29D-05 DE=-3.46D-07 OVMax= 3.51D-05

 Cycle  10  Pass 1  IDiag  1:
 E= -1811.15232944977     Delta-E=       -0.000000046089 Rises=F Damp=F
 DIIS: error= 1.85D-06 at cycle  10 NSaved=  10.
 NSaved=10 IEnMin=10 EnMin= -1811.15232944977     IErMin=10 ErrMin= 1.85D-06
 ErrMax= 1.85D-06  0.00D+00 EMaxC= 1.00D-01 BMatC= 2.99D-09 BMatP= 5.83D-08
 IDIUse=1 WtCom= 1.00D+00 WtEn= 0.00D+00
 Coeff-Com: -0.773D-05-0.364D-04-0.317D-03-0.855D-03-0.496D-03 0.391D-02
 Coeff-Com:  0.319D-01 0.129D+00 0.296D+00 0.541D+00
 Coeff:     -0.773D-05-0.364D-04-0.317D-03-0.855D-03-0.496D-03 0.391D-02
 Coeff:      0.319D-01 0.129D+00 0.296D+00 0.541D+00
 Gap=     0.204 Goal=   None    Shift=    0.000
 RMSDP=1.74D-07 MaxDP=7.15D-06 DE=-4.61D-08 OVMax= 1.13D-05

 Cycle  11  Pass 1  IDiag  1:
 E= -1811.15232945189     Delta-E=       -0.000000002119 Rises=F Damp=F
 DIIS: error= 1.19D-06 at cycle  11 NSaved=  11.
 NSaved=11 IEnMin=11 EnMin= -1811.15232945189     IErMin=11 ErrMin= 1.19D-06
 ErrMax= 1.19D-06  0.00D+00 EMaxC= 1.00D-01 BMatC= 5.55D-10 BMatP= 2.99D-09
 IDIUse=1 WtCom= 1.00D+00 WtEn= 0.00D+00
 Coeff-Com: -0.155D-05-0.117D-05-0.122D-03-0.353D-03-0.622D-03-0.764D-03
 Coeff-Com:  0.432D-02 0.260D-01 0.803D-01 0.317D+00 0.574D+00
 Coeff:     -0.155D-05-0.117D-05-0.122D-03-0.353D-03-0.622D-03-0.764D-03
 Coeff:      0.432D-02 0.260D-01 0.803D-01 0.317D+00 0.574D+00
 Gap=     0.204 Goal=   None    Shift=    0.000
 RMSDP=6.67D-08 MaxDP=4.78D-06 DE=-2.12D-09 OVMax= 5.21D-06

 Cycle  12  Pass 1  IDiag  1:
 E= -1811.15232945232     Delta-E=       -0.000000000425 Rises=F Damp=F
 DIIS: error= 2.76D-07 at cycle  12 NSaved=  12.
 NSaved=12 IEnMin=12 EnMin= -1811.15232945232     IErMin=12 ErrMin= 2.76D-07
 ErrMax= 2.76D-07  0.00D+00 EMaxC= 1.00D-01 BMatC= 7.05D-11 BMatP= 5.55D-10
 IDIUse=1 WtCom= 1.00D+00 WtEn= 0.00D+00
 Coeff-Com: -0.450D-06 0.347D-05-0.407D-04-0.120D-03-0.322D-03-0.883D-03
 Coeff-Com: -0.865D-03 0.135D-02 0.146D-01 0.120D+00 0.333D+00 0.533D+00
 Coeff:     -0.450D-06 0.347D-05-0.407D-04-0.120D-03-0.322D-03-0.883D-03
 Coeff:     -0.865D-03 0.135D-02 0.146D-01 0.120D+00 0.333D+00 0.533D+00
 Gap=     0.204 Goal=   None    Shift=    0.000
 RMSDP=2.27D-08 MaxDP=1.90D-06 DE=-4.25D-10 OVMax= 1.69D-06

 Cycle  13  Pass 1  IDiag  1:
 E= -1811.15232945234     Delta-E=       -0.000000000023 Rises=F Damp=F
 DIIS: error= 7.27D-08 at cycle  13 NSaved=  13.
 NSaved=13 IEnMin=13 EnMin= -1811.15232945234     IErMin=13 ErrMin= 7.27D-08
 ErrMax= 7.27D-08  0.00D+00 EMaxC= 1.00D-01 BMatC= 3.83D-12 BMatP= 7.05D-11
 IDIUse=1 WtCom= 1.00D+00 WtEn= 0.00D+00
 Coeff-Com: -0.122D-06 0.191D-05-0.713D-05-0.213D-04-0.940D-04-0.365D-03
 Coeff-Com: -0.951D-03-0.225D-02-0.184D-02 0.216D-01 0.985D-01 0.251D+00
 Coeff-Com:  0.635D+00
 Coeff:     -0.122D-06 0.191D-05-0.713D-05-0.213D-04-0.940D-04-0.365D-03
 Coeff:     -0.951D-03-0.225D-02-0.184D-02 0.216D-01 0.985D-01 0.251D+00
 Coeff:      0.635D+00
 Gap=     0.204 Goal=   None    Shift=    0.000
 RMSDP=6.13D-09 MaxDP=2.67D-07 DE=-2.27D-11 OVMax= 6.40D-07

 Error on total polarization charges =  0.02249
 SCF Done:  E(RB3LYP) =  -1811.15232945     A.U. after   13 cycles
            NFock= 13  Conv=0.61D-08     -V/T= 2.0069
 KE= 1.798651964135D+03 PE=-9.130055587123D+03 EE= 3.080116881374D+03
 Leave Link  502 at Tue Sep 15 07:10:33 2020, MaxMem=  2147483648 cpu:             488.1 elap:             122.1
 (Enter /prod/apps/gaussian/g16b1/l601.exe)
 Copying SCF densities to generalized density rwf, IOpCl= 0 IROHF=0.

 **********************************************************************

            Population analysis using the SCF Density.

 **********************************************************************

 Alpha  occ. eigenvalues --  -89.12891 -89.09981 -19.16027 -19.15835 -19.15765
 Alpha  occ. eigenvalues --  -19.15575 -14.37565 -10.27585 -10.23356 -10.23082
 Alpha  occ. eigenvalues --  -10.23061 -10.21456 -10.21325 -10.20680 -10.20573
 Alpha  occ. eigenvalues --  -10.20522 -10.19714 -10.19414 -10.19151 -10.18942
 Alpha  occ. eigenvalues --  -10.18932 -10.18787 -10.18743 -10.18738  -8.15365
 Alpha  occ. eigenvalues --   -8.13049  -6.11877  -6.11815  -6.11634  -6.09498
 Alpha  occ. eigenvalues --   -6.09400  -6.09301  -1.12493  -1.10896  -1.01564
 Alpha  occ. eigenvalues --   -1.00632  -0.94745  -0.87706  -0.85921  -0.85457
 Alpha  occ. eigenvalues --   -0.79291  -0.78071  -0.76427  -0.74268  -0.73727
 Alpha  occ. eigenvalues --   -0.72571  -0.69208  -0.66246  -0.62863  -0.62191
 Alpha  occ. eigenvalues --   -0.60387  -0.59894  -0.58044  -0.57176  -0.55148
 Alpha  occ. eigenvalues --   -0.53301  -0.52180  -0.51051  -0.50421  -0.49223
 Alpha  occ. eigenvalues --   -0.48697  -0.47832  -0.47047  -0.46301  -0.45927
 Alpha  occ. eigenvalues --   -0.45515  -0.45100  -0.44699  -0.44141  -0.43845
 Alpha  occ. eigenvalues --   -0.42596  -0.41737  -0.41300  -0.40117  -0.39019
 Alpha  occ. eigenvalues --   -0.38727  -0.38078  -0.37188  -0.36377  -0.36156
 Alpha  occ. eigenvalues --   -0.35634  -0.34936  -0.33863  -0.33541  -0.33443
 Alpha  occ. eigenvalues --   -0.33034  -0.32787  -0.32172  -0.31794  -0.31092
 Alpha  occ. eigenvalues --   -0.29680  -0.28944  -0.26937  -0.26340  -0.25129
 Alpha  occ. eigenvalues --   -0.24310
 Alpha virt. eigenvalues --   -0.03945  -0.01784  -0.00230  -0.00187   0.02950
 Alpha virt. eigenvalues --    0.03839   0.04810   0.05853   0.06556   0.07384
 Alpha virt. eigenvalues --    0.08939   0.09181   0.09949   0.10528   0.10931
 Alpha virt. eigenvalues --    0.12107   0.12659   0.13567   0.13969   0.14360
 Alpha virt. eigenvalues --    0.14787   0.15705   0.16176   0.16227   0.16735
 Alpha virt. eigenvalues --    0.17162   0.18266   0.18841   0.18945   0.19245
 Alpha virt. eigenvalues --    0.19726   0.19991   0.21072   0.21353   0.22993
 Alpha virt. eigenvalues --    0.25739   0.26274   0.27481   0.27820   0.28391
 Alpha virt. eigenvalues --    0.29240   0.30460   0.30899   0.31539   0.32794
 Alpha virt. eigenvalues --    0.33753   0.34094   0.34534   0.34684   0.36428
 Alpha virt. eigenvalues --    0.37387   0.40956   0.42013   0.44392   0.45050
 Alpha virt. eigenvalues --    0.46769   0.48920   0.49725   0.51038   0.51875
 Alpha virt. eigenvalues --    0.51900   0.52464   0.53623   0.54261   0.54876
 Alpha virt. eigenvalues --    0.55093   0.55635   0.55997   0.56282   0.56437
 Alpha virt. eigenvalues --    0.57848   0.58567   0.58862   0.59252   0.59574
 Alpha virt. eigenvalues --    0.59675   0.59992   0.60215   0.60538   0.60740
 Alpha virt. eigenvalues --    0.61164   0.61600   0.61717   0.62241   0.63259
 Alpha virt. eigenvalues --    0.64399   0.64718   0.66861   0.67235   0.68970
 Alpha virt. eigenvalues --    0.69796   0.70549   0.72469   0.73393   0.74999
 Alpha virt. eigenvalues --    0.76315   0.76650   0.77345   0.78450   0.80047
 Alpha virt. eigenvalues --    0.80808   0.81301   0.81891   0.82641   0.82975
 Alpha virt. eigenvalues --    0.83414   0.84112   0.84255   0.84492   0.84773
 Alpha virt. eigenvalues --    0.85472   0.86059   0.86575   0.87393   0.87839
 Alpha virt. eigenvalues --    0.88417   0.88834   0.89183   0.90240   0.91018
 Alpha virt. eigenvalues --    0.91828   0.92145   0.92528   0.93360   0.93822
 Alpha virt. eigenvalues --    0.94846   0.95140   0.95781   0.97385   0.98926
 Alpha virt. eigenvalues --    0.99406   1.00472   1.00662   1.01496   1.02476
 Alpha virt. eigenvalues --    1.03889   1.04218   1.05645   1.06560   1.06809
 Alpha virt. eigenvalues --    1.08950   1.10391   1.10626   1.10745   1.12246
 Alpha virt. eigenvalues --    1.12727   1.13692   1.14115   1.15413   1.16010
 Alpha virt. eigenvalues --    1.17197   1.17247   1.19257   1.19595   1.20321
 Alpha virt. eigenvalues --    1.22486   1.23982   1.25112   1.25928   1.27806
 Alpha virt. eigenvalues --    1.30007   1.31024   1.32570   1.35515   1.35673
 Alpha virt. eigenvalues --    1.39759   1.41384   1.41978   1.42580   1.42875
 Alpha virt. eigenvalues --    1.43343   1.45554   1.46034   1.47423   1.48369
 Alpha virt. eigenvalues --    1.48668   1.49084   1.49267   1.50759   1.51410
 Alpha virt. eigenvalues --    1.52165   1.57919   1.61428   1.63725   1.65770
 Alpha virt. eigenvalues --    1.68168   1.72220   1.73144   1.74306   1.74599
 Alpha virt. eigenvalues --    1.76445   1.77004   1.77535   1.78615   1.78784
 Alpha virt. eigenvalues --    1.79548   1.80160   1.80527   1.80813   1.81172
 Alpha virt. eigenvalues --    1.82098   1.83392   1.83801   1.85506   1.87101
 Alpha virt. eigenvalues --    1.87477   1.88633   1.89211   1.90508   1.92240
 Alpha virt. eigenvalues --    1.92802   1.92966   1.94149   1.95375   1.96989
 Alpha virt. eigenvalues --    1.97791   1.98023   1.98076   1.99675   2.01251
 Alpha virt. eigenvalues --    2.02681   2.03876   2.05140   2.05665   2.05904
 Alpha virt. eigenvalues --    2.09215   2.09729   2.10909   2.11914   2.12791
 Alpha virt. eigenvalues --    2.13223   2.13597   2.14044   2.14246   2.14823
 Alpha virt. eigenvalues --    2.15483   2.16574   2.17302   2.19382   2.22291
 Alpha virt. eigenvalues --    2.24827   2.26319   2.27025   2.27803   2.28062
 Alpha virt. eigenvalues --    2.28772   2.29738   2.30709   2.30835   2.31514
 Alpha virt. eigenvalues --    2.33934   2.38065   2.40595   2.41982   2.43994
 Alpha virt. eigenvalues --    2.46993   2.51998   2.53079   2.54333   2.56794
 Alpha virt. eigenvalues --    2.57695   2.58053   2.63266   2.64932   2.66189
 Alpha virt. eigenvalues --    2.67839   2.70262   2.70699   2.71819   2.72295
 Alpha virt. eigenvalues --    2.72586   2.73647   2.73881   2.74595   2.75083
 Alpha virt. eigenvalues --    2.76910   2.77628   2.80337   2.81083   2.82551
 Alpha virt. eigenvalues --    2.84989   2.93586   3.02477   3.05148   3.36961
 Alpha virt. eigenvalues --    3.41072   3.75754   3.79145   3.93900   3.99256
 Alpha virt. eigenvalues --    4.00715   4.05129   4.07548   4.08446   4.09168
 Alpha virt. eigenvalues --    4.10820   4.11628   4.15415   4.16038   4.22301
 Alpha virt. eigenvalues --    4.24634   4.32218   4.32907   4.33551   4.36940
 Alpha virt. eigenvalues --    4.41062   4.53194   4.64990   4.70478   4.74520
          Condensed to atoms (all electrons):
               1          2          3          4          5          6
     1  O    8.308173   0.395430  -0.053167   0.007276   0.000071   0.000278
     2  S    0.395430  13.662373   0.126418  -0.012231   0.000441   0.000310
     3  N   -0.053167   0.126418   7.382967   0.256733  -0.045436   0.003973
     4  C    0.007276  -0.012231   0.256733   4.858471   0.330328  -0.095456
     5  C    0.000071   0.000441  -0.045436   0.330328   5.708590   0.138778
     6  S    0.000278   0.000310   0.003973  -0.095456   0.138778  13.863914
     7  C    0.003236  -0.003501  -0.043882   0.339945  -0.172732   0.140825
     8  O   -0.000000  -0.000042  -0.000168   0.002949  -0.045098   0.433399
     9  O   -0.000000  -0.000001  -0.000031   0.001790  -0.045844   0.412240
    10  C   -0.008366  -0.004798  -0.071456   0.350394  -0.063099   0.010197
    11  C    0.000021  -0.000095  -0.004376  -0.032678  -0.006198  -0.000416
    12  C   -0.000009   0.000042   0.000347   0.003782   0.000111  -0.000016
    13  C   -0.000000   0.000001  -0.000003   0.000062   0.000005  -0.000011
    14  C   -0.000000  -0.000000  -0.000000   0.000002   0.000000  -0.000000
    15  C    0.000000   0.000000   0.000000  -0.000000   0.000000   0.000000
    16  C    0.000000  -0.000001  -0.000000   0.000002  -0.000000   0.000000
    17  C   -0.000024  -0.000035  -0.000008   0.000112  -0.000003  -0.000001
    18  C   -0.059412   0.201931  -0.056533  -0.001937  -0.000212  -0.000042
    19  C    0.001636  -0.019080   0.000577   0.000196  -0.000031   0.000032
    20  C   -0.000045   0.002082   0.000072   0.000003  -0.000001  -0.000000
    21  C   -0.000005  -0.000380   0.000010   0.000001   0.000000   0.000001
    22  C    0.000615   0.003341  -0.000113   0.000002  -0.000000  -0.000000
    23  C    0.001780  -0.032352   0.000658   0.000138   0.000000  -0.000003
    24  O   -0.040890   0.456122  -0.054855   0.001802  -0.000077   0.000005
    25  H    0.000554  -0.009519   0.298960  -0.023977  -0.005358  -0.000018
    26  H    0.000000  -0.000021   0.001207  -0.025864   0.345045  -0.010223
    27  H    0.000003   0.000123   0.000030  -0.023452   0.331009  -0.000843
    28  H    0.000216  -0.000082   0.001464  -0.026611   0.008786  -0.011226
    29  H   -0.001387  -0.000169  -0.002103  -0.024177   0.003561  -0.002115
    30  H    0.000124   0.000183   0.005190  -0.027028  -0.004573   0.006311
    31  H    0.011407   0.001624  -0.003311  -0.027570   0.004961  -0.000355
    32  H   -0.000127   0.002422   0.005968  -0.007098  -0.000113  -0.000024
    33  H   -0.000006  -0.000106  -0.000256  -0.004385   0.003161  -0.000001
    34  H    0.000000  -0.000000   0.000001  -0.000043  -0.000016   0.000000
    35  H   -0.000000   0.000000  -0.000000  -0.000000  -0.000000  -0.000000
    36  H    0.000000  -0.000000   0.000000   0.000000   0.000000   0.000000
    37  H   -0.000000  -0.000000   0.000000  -0.000000  -0.000000  -0.000000
    38  H    0.000074   0.000240  -0.000002  -0.000050   0.000000  -0.000000
    39  H    0.000047  -0.000772   0.003526   0.000091  -0.000016   0.000006
    40  H    0.000000  -0.000065   0.000001  -0.000000   0.000000   0.000000
    41  H   -0.000000   0.000007   0.000000  -0.000000  -0.000000   0.000000
    42  H    0.000003  -0.000075   0.000001   0.000000   0.000000   0.000000
    43  H    0.012247  -0.007248   0.000243  -0.000022   0.000001   0.000006
               7          8          9         10         11         12
     1  O    0.003236  -0.000000  -0.000000  -0.008366   0.000021  -0.000009
     2  S   -0.003501  -0.000042  -0.000001  -0.004798  -0.000095   0.000042
     3  N   -0.043882  -0.000168  -0.000031  -0.071456  -0.004376   0.000347
     4  C    0.339945   0.002949   0.001790   0.350394  -0.032678   0.003782
     5  C   -0.172732  -0.045098  -0.045844  -0.063099  -0.006198   0.000111
     6  S    0.140825   0.433399   0.412240   0.010197  -0.000416  -0.000016
     7  C    5.687062  -0.045980  -0.045209  -0.051302   0.003839  -0.000088
     8  O   -0.045980   8.253823  -0.045207  -0.000075   0.000000  -0.000000
     9  O   -0.045209  -0.045207   8.288713  -0.002660   0.000028  -0.000000
    10  C   -0.051302  -0.000075  -0.002660   5.179662   0.348075  -0.038428
    11  C    0.003839   0.000000   0.000028   0.348075   5.178623   0.353521
    12  C   -0.000088  -0.000000  -0.000000  -0.038428   0.353521   4.649266
    13  C   -0.000003  -0.000000  -0.000001  -0.004051  -0.057328   0.546719
    14  C   -0.000000  -0.000000   0.000000  -0.000086   0.006788  -0.021764
    15  C    0.000000   0.000000   0.000000   0.000019   0.000337  -0.034339
    16  C   -0.000000  -0.000000  -0.000000  -0.000044   0.006654  -0.021220
[...]
     6  S    0.057049  -0.021798   0.016143  -0.023631  -0.005032   0.006855
     7  C    0.306013  -0.070825   0.043148   0.038171  -0.120367  -0.050262
     8  O   -0.009826   0.004227  -0.001619   0.001549   0.001091  -0.000167
     9  O   -0.003539   0.001257  -0.000679   0.000975  -0.002646  -0.000027
    10  C    0.126969   0.056026   0.006936  -0.014261  -0.248605  -0.034628
    11  C   -0.054066   0.005946  -0.006920   0.010824   0.036193  -0.070592
    12  C   -0.004293  -0.004413   0.000251   0.001073   0.018882  -0.014920
    13  C   -0.004750  -0.000423  -0.000041   0.000128   0.000688  -0.004244
    14  C   -0.000303  -0.000057  -0.000009   0.000016   0.000151  -0.000235
    15  C   -0.000005   0.000026  -0.000002  -0.000014  -0.000159  -0.000045
    16  C    0.001280   0.000201  -0.000009  -0.000028  -0.000447   0.004848
    17  C    0.004717   0.001670  -0.000082  -0.000938  -0.007545  -0.001547
    18  C   -8.575386   2.898205  -4.711561   3.296170  -6.860253   0.426794
    19  C   19.943238  -5.459393   4.100089  -5.167025   1.789388  -0.304762
    20  C   -5.459393  12.607354  -3.688994   4.051739  -4.322429   0.010007
    21  C    4.100089  -3.688994  10.353497  -4.012434   3.678546  -0.028680
    22  C   -5.167025   4.051739  -4.012434  12.873335  -5.085862   0.042957
    23  C    1.789388  -4.322429   3.678546  -5.085862  18.184451   0.043107
    24  O   -0.304762   0.010007  -0.028680   0.042957   0.043107   9.360882
    25  H   -0.067743   0.021317  -0.004873   0.003656  -0.004190   0.054350
    26  H    0.010903   0.000048   0.000340  -0.002360  -0.005220   0.001472
    27  H   -0.018019   0.008132   0.000435  -0.003312  -0.004468  -0.002993
    28  H    0.033478  -0.002519   0.006273  -0.003740   0.044047  -0.000359
    29  H   -0.078726  -0.020334   0.017382   0.007718  -0.083073   0.006310
    30  H    0.003683   0.002324  -0.000395  -0.002659  -0.010867   0.002615
    31  H   -0.037200   0.005364  -0.007026   0.012496  -0.042061  -0.011406
    32  H   -0.000734   0.000463   0.000579   0.000046   0.003649   0.013573
    33  H   -0.005872  -0.000725  -0.000623   0.001766   0.000043  -0.002296
    34  H   -0.000342  -0.000060   0.000033   0.000001   0.000393  -0.000484
    35  H    0.000027   0.000001  -0.000000  -0.000002  -0.000010   0.000010
    36  H   -0.000011   0.000000  -0.000000  -0.000000  -0.000009  -0.000026
    37  H    0.000015  -0.000001   0.000001   0.000004   0.000084   0.000271
    38  H    0.000161  -0.000370   0.000029  -0.000275  -0.000207  -0.010633
    39  H   -1.555051   0.283263  -0.295283   0.206708  -0.161999   0.057037
    40  H    0.580102  -0.771651   0.375609  -0.285830   0.164836  -0.000349
    41  H   -0.145893   0.390405  -0.677775   0.374117  -0.150594  -0.000717
    42  H    0.137661  -0.260852   0.299405  -0.850692   0.662565   0.002387
    43  H   -0.160837   0.100772  -0.146560   0.572195  -1.095832  -0.004711
              25         26         27         28         29         30
     1  O    0.014153  -0.004184  -0.001202  -0.025130   0.057917  -0.008327
     2  S   -0.190129  -0.005667   0.022173  -0.001120  -0.136214   0.009835
     3  N    0.299413   0.234430  -0.340255   0.159859  -0.152693   0.133340
     4  C    0.117691  -0.707259   0.689027   0.023154   0.102517  -0.553770
     5  C   -0.133822   0.406628  -0.272329   0.069039   0.039888   0.208569
     6  S   -0.020472   0.117896  -0.201318   0.051734  -0.087527  -0.101926
     7  C   -0.040968   0.283183  -0.159269   0.128173   0.117263  -0.125107
     8  O    0.001525  -0.012706   0.048390  -0.011636   0.016774   0.002660
     9  O    0.002032  -0.011830   0.020992  -0.011934   0.007823   0.054490
    10  C    0.032157   0.078343   0.173709  -0.160959   0.036679   0.011885
    11  C    0.082113  -0.224877   0.146973  -0.019554   0.001444   0.006666
    12  C   -0.033621   0.048574  -0.009724   0.013436  -0.017237  -0.184668
    13  C    0.030878  -0.038535  -0.007000   0.004268  -0.007559   0.088527
    14  C   -0.005035   0.037202  -0.004712   0.002459   0.002018  -0.050404
    15  C    0.004930  -0.005378  -0.000012  -0.001708  -0.000724   0.030993
    16  C   -0.008640   0.004978   0.001164  -0.001524   0.000525  -0.047457
    17  C   -0.000302  -0.027824   0.013548  -0.001345  -0.006383   0.071727
    18  C    0.125404  -0.015755  -0.004607  -0.041038   0.071353   0.012548
    19  C   -0.067743   0.010903  -0.018019   0.033478  -0.078726   0.003683
    20  C    0.021317   0.000048   0.008132  -0.002519  -0.020334   0.002324
    21  C   -0.004873   0.000340   0.000435   0.006273   0.017382  -0.000395
    22  C    0.003656  -0.002360  -0.003312  -0.003740   0.007718  -0.002659
    23  C   -0.004190  -0.005220  -0.004468   0.044047  -0.083073  -0.010867
    24  O    0.054350   0.001472  -0.002993  -0.000359   0.006310   0.002615
    25  H    0.809394   0.001607  -0.007090  -0.003464   0.009764  -0.002733
    26  H    0.001607   1.386136  -0.285338   0.005998   0.020093  -0.023141
    27  H   -0.007090  -0.285338   1.430281  -0.006829   0.017891   0.014234
    28  H   -0.003464   0.005998  -0.006829   1.492173  -0.330372  -0.047759
    29  H    0.009764   0.020093   0.017891  -0.330372   1.576953   0.001990
    30  H   -0.002733  -0.023141   0.014234  -0.047759   0.001990   2.079826
    31  H    0.004901   0.023882  -0.004483  -0.032458   0.038722  -0.394857
    32  H   -0.043396   0.001294   0.015491  -0.005009   0.012793   0.104699
    33  H    0.003637  -0.054047   0.010242   0.002838   0.000608  -0.116707
    34  H    0.001707  -0.006230   0.004274  -0.001029  -0.001424  -0.006887
    35  H   -0.000183   0.002633  -0.000138   0.000128   0.000109  -0.004014
    36  H    0.000045  -0.000125   0.000007   0.000005  -0.000061  -0.000367
    37  H   -0.000312   0.000080  -0.000005  -0.000063   0.000151   0.001832
    38  H    0.001445  -0.000552   0.000252   0.001389  -0.002687   0.001014
    39  H    0.006159  -0.004476   0.008221  -0.003224   0.005366  -0.001244
    40  H    0.003284   0.000045  -0.000433  -0.000105  -0.000574   0.000175
    41  H    0.000005  -0.000005   0.000076   0.000340  -0.003737  -0.000022
    42  H   -0.000509  -0.000099   0.000012  -0.001534   0.006549  -0.000067
    43  H   -0.002306  -0.001239   0.001306   0.008607  -0.022571   0.002306
              31         32         33         34         35         36
     1  O    0.008975   0.025919  -0.001320   0.000287  -0.000052  -0.000077
     2  S    0.136123  -0.112208   0.017569   0.007046  -0.000606   0.000478
     3  N   -0.101794  -0.197678  -0.097071   0.000098  -0.000249  -0.000159
     4  C   -0.263731   0.341526   0.283786  -0.026555   0.007039  -0.000884
     5  C   -0.019005   0.060548  -0.042433  -0.003572   0.001612  -0.000219
     6  S   -0.038792   0.013562  -0.050031  -0.007541   0.000264  -0.000082
     7  C   -0.012606  -0.002324   0.036850  -0.019368   0.002019  -0.000696
     8  O    0.003057  -0.001166   0.004091  -0.000080   0.000001   0.000001
     9  O    0.005741  -0.000675   0.010286   0.000980   0.000128  -0.000005
    10  C   -0.232300  -0.244295  -0.124549   0.102336  -0.000464  -0.005179
    11  C    0.110839  -0.353070  -0.371238  -0.163441   0.005749  -0.000607
    12  C   -0.114206   0.152990   0.027924   0.820214  -0.127479   0.089030
    13  C    0.033429  -0.376250   0.308824  -1.260863   0.606766  -0.139128
    14  C   -0.028204  -0.059987   0.158129   0.339061  -0.741616   0.370452
    15  C    0.012842  -0.021661   0.011007  -0.144404   0.301962  -0.599030
    16  C   -0.003050   0.188152  -0.092440   0.111695  -0.226377   0.366612
    17  C    0.045395   0.193423  -0.251849  -0.023430   0.116423  -0.117250
    18  C    0.036223   0.016842   0.007267   0.000699  -0.000090   0.000023
    19  C   -0.037200  -0.000734  -0.005872  -0.000342   0.000027  -0.000011
    20  C    0.005364   0.000463  -0.000725  -0.000060   0.000001   0.000000
    21  C   -0.007026   0.000579  -0.000623   0.000033  -0.000000  -0.000000
    22  C    0.012496   0.000046   0.001766   0.000001  -0.000002  -0.000000
    23  C   -0.042061   0.003649   0.000043   0.000393  -0.000010  -0.000009
    24  O   -0.011406   0.013573  -0.002296  -0.000484   0.000010  -0.000026
    25  H    0.004901  -0.043396   0.003637   0.001707  -0.000183   0.000045
    26  H    0.023882   0.001294  -0.054047  -0.006230   0.002633  -0.000125
    27  H   -0.004483   0.015491   0.010242   0.004274  -0.000138   0.000007
    28  H   -0.032458  -0.005009   0.002838  -0.001029   0.000128   0.000005
    29  H    0.038722   0.012793   0.000608  -0.001424   0.000109  -0.000061
    30  H   -0.394857   0.104699  -0.116707  -0.006887  -0.004014  -0.000367
    31  H    2.098451  -0.104365   0.092152   0.010402   0.001380  -0.000416
    32  H   -0.104365   2.092401  -0.351361   0.009742  -0.000299   0.000878
    33  H    0.092152  -0.351361   1.922463  -0.041119  -0.000570   0.000568
    34  H    0.010402   0.009742  -0.041119   2.083356  -0.087061  -0.015954
    35  H    0.001380  -0.000299  -0.000570  -0.087061   1.671671  -0.051103
    36  H   -0.000416   0.000878   0.000568  -0.015954  -0.051103   1.607467
    37  H   -0.003951   0.000414  -0.000055   0.010505  -0.019683  -0.052100
    38  H    0.002248  -0.037559   0.018126  -0.017948   0.010130  -0.015136
    39  H    0.001907   0.009019   0.001620   0.000025   0.000004  -0.000001
    40  H   -0.000002  -0.000392  -0.000041  -0.000000  -0.000000   0.000000
    41  H   -0.000195   0.000029  -0.000010   0.000001  -0.000000  -0.000000
    42  H    0.001116   0.000104   0.000043  -0.000002  -0.000000  -0.000000
    43  H   -0.008734  -0.001354   0.000492   0.000123  -0.000005   0.000007
              37         38         39         40         41         42
     1  O    0.000287  -0.011872   0.019138   0.000013   0.000090   0.001002
     2  S   -0.002591   0.068070  -0.306840   0.034639   0.008446  -0.027606
     3  N   -0.000562  -0.008025  -0.194604   0.000814   0.001585  -0.004269
     4  C    0.008813  -0.006143   0.349436  -0.006966  -0.004062   0.017444
     5  C    0.000145   0.000482  -0.067074   0.003064   0.000141  -0.002228
     6  S    0.000136  -0.002443  -0.000916  -0.000897   0.000342  -0.000799
     7  C    0.000968  -0.009102  -0.046706  -0.004230   0.000647  -0.005753
     8  O    0.000000   0.000025  -0.001407   0.000123   0.000011   0.000240
     9  O    0.000022  -0.000041  -0.000704   0.000085  -0.000035   0.000073
    10  C   -0.003937   0.035932  -0.051652   0.002339  -0.000100   0.001116
    11  C    0.022228  -0.225276   0.009438   0.000327  -0.000044  -0.000073
    12  C   -0.142462   0.744700   0.006775  -0.000177   0.000015  -0.000083
    13  C    0.143319  -0.065006  -0.000115   0.000008  -0.000003  -0.000028
    14  C   -0.258947   0.124647   0.000269  -0.000003  -0.000000  -0.000004
    15  C    0.319028  -0.147333  -0.000125   0.000002  -0.000000   0.000002
    16  C   -0.829886   0.352165  -0.000140   0.000002   0.000001   0.000028
    17  C    0.689653  -1.143049  -0.000753   0.000029   0.000001   0.000035
    18  C    0.000086  -0.009488   1.154449  -0.169646   0.151119  -0.082119
    19  C    0.000015   0.000161  -1.555051   0.580102  -0.145893   0.137661
    20  C   -0.000001  -0.000370   0.283263  -0.771651   0.390405  -0.260852
    21  C    0.000001   0.000029  -0.295283   0.375609  -0.677775   0.299405
    22  C    0.000004  -0.000275   0.206708  -0.285830   0.374117  -0.850692
    23  C    0.000084  -0.000207  -0.161999   0.164836  -0.150594   0.662565
    24  O    0.000271  -0.010633   0.057037  -0.000349  -0.000717   0.002387
    25  H   -0.000312   0.001445   0.006159   0.003284   0.000005  -0.000509
    26  H    0.000080  -0.000552  -0.004476   0.000045  -0.000005  -0.000099
    27  H   -0.000005   0.000252   0.008221  -0.000433   0.000076   0.000012
    28  H   -0.000063   0.001389  -0.003224  -0.000105   0.000340  -0.001534
    29  H    0.000151  -0.002687   0.005366  -0.000574  -0.003737   0.006549
    30  H    0.001832   0.001014  -0.001244   0.000175  -0.000022  -0.000067
    31  H   -0.003951   0.002248   0.001907  -0.000002  -0.000195   0.001116
    32  H    0.000414  -0.037559   0.009019  -0.000392   0.000029   0.000104
    33  H   -0.000055   0.018126   0.001620  -0.000041  -0.000010   0.000043
    34  H    0.010505  -0.017948   0.000025  -0.000000   0.000001  -0.000002
    35  H   -0.019683   0.010130   0.000004  -0.000000  -0.000000  -0.000000
    36  H   -0.052100  -0.015136  -0.000001   0.000000  -0.000000  -0.000000
    37  H    1.682278  -0.091235   0.000023  -0.000001   0.000000   0.000001
    38  H   -0.091235   2.107954  -0.000152   0.000010  -0.000005  -0.000055
    39  H    0.000023  -0.000152   2.421037  -0.135947  -0.017776   0.016253
    40  H   -0.000001   0.000010  -0.135947   1.755660  -0.059082  -0.023218
    41  H    0.000000  -0.000005  -0.017776  -0.059082   1.645295  -0.058923
    42  H    0.000001  -0.000055   0.016253  -0.023218  -0.058923   1.727268
    43  H    0.000004   0.000618  -0.025838   0.011553  -0.013983  -0.096083
              43
     1  O   -0.077292
     2  S    0.009837
     3  N    0.014092
     4  C   -0.007688
     5  C   -0.002056
     6  S   -0.001896
     7  C    0.019164
     8  O    0.001083
     9  O   -0.000429
    10  C   -0.025334
    11  C    0.010652
    12  C    0.003067
    13  C    0.001453
    14  C    0.000140
    15  C   -0.000068
    16  C   -0.000950
    17  C   -0.001049
    18  C    0.375956
    19  C   -0.160837
    20  C    0.100772
    21  C   -0.146560
    22  C    0.572195
    23  C   -1.095832
    24  O   -0.004711
    25  H   -0.002306
    26  H   -0.001239
    27  H    0.001306
    28  H    0.008607
    29  H   -0.022571
    30  H    0.002306
    31  H   -0.008734
    32  H   -0.001354
    33  H    0.000492
    34  H    0.000123
    35  H   -0.000005
    36  H    0.000007
    37  H    0.000004
    38  H    0.000618
    39  H   -0.025838
    40  H    0.011553
    41  H   -0.013983
    42  H   -0.096083
    43  H    2.188872
 Mulliken charges:
               1
     1  O   -1.262437
     2  S    2.849583
     3  N   -0.904963
     4  C   -0.415143
     5  C    0.617107
     6  S    2.936751
     7  C    0.766156
     8  O   -1.247523
     9  O   -1.269972
    10  C   -0.023884
    11  C    1.033992
    12  C    1.037947
    13  C    0.510267
    14  C    0.077222
    15  C    0.675275
    16  C    0.010025
    17  C    0.512496
    18  C    0.714053
    19  C    0.344014
    20  C    0.358180
    21  C    0.685780
    22  C    0.369567
    23  C    0.392457
    24  O   -1.177243
    25  H   -0.061780
    26  H   -0.228917
    27  H   -0.293294
    28  H   -0.332983
    29  H   -0.224700
    30  H   -0.162562
    31  H   -0.224804
    32  H   -0.344353
    33  H   -0.315970
    34  H   -0.675185
    35  H   -0.468055
    36  H   -0.436948
    37  H   -0.474559
    38  H   -0.664807
    39  H   -0.684120
    40  H   -0.473174
    41  H   -0.439707
    42  H   -0.458306
    43  H   -0.625481
 Sum of Mulliken charges =  -0.00000
 Mulliken charges with hydrogens summed into heavy atoms:
               1
     1  O   -1.262437
     2  S    2.849583
     3  N   -0.966743
     4  C   -0.415143
     5  C    0.094895
     6  S    2.936751
     7  C    0.208472
     8  O   -1.247523
     9  O   -1.269972
    10  C   -0.411250
    11  C    0.373669
    12  C    1.037947
    13  C   -0.164918
    14  C   -0.390833
    15  C    0.238327
    16  C   -0.464534
    17  C   -0.152312
    18  C    0.714053
    19  C   -0.340106
    20  C   -0.114994
    21  C    0.246073
    22  C   -0.088740
    23  C   -0.233024
    24  O   -1.177243
 Electronic spatial extent (au):  <R**2>=          10869.8758
 Charge=             -0.0000 electrons
 Dipole moment (field-independent basis, Debye):
    X=              2.2368    Y=             -2.0861    Z=             -1.8116  Tot=              3.5549
 Quadrupole moment (field-independent basis, Debye-Ang):
   XX=           -129.0723   YY=           -198.9866   ZZ=           -150.4510
   XY=             -4.4164   XZ=              3.2505   YZ=            -10.2356
 Traceless Quadrupole moment (field-independent basis, Debye-Ang):
   XX=             30.4310   YY=            -39.4833   ZZ=              9.0523
   XY=             -4.4164   XZ=              3.2505   YZ=            -10.2356
 Octapole moment (field-independent basis, Debye-Ang**2):
  XXX=            123.8925  YYY=            -88.5279  ZZZ=             -7.1782  XYY=            -58.6556
  XXY=            -22.6244  XXZ=             37.6904  XZZ=             48.2547  YZZ=             16.1838
  YYZ=             -5.2395  XYZ=             14.1637
 Hexadecapole moment (field-independent basis, Debye-Ang**3):
 XXXX=          -9319.5499 YYYY=          -4037.6008 ZZZZ=           -761.0317 XXXY=           -104.0438
 XXXZ=           -179.4003 YYYX=             31.5436 YYYZ=           -126.3836 ZZZX=             25.5858
 ZZZY=             -3.6309 XXYY=          -2467.4321 XXZZ=          -1909.0922 YYZZ=           -716.6419
 XXYZ=           -113.8042 YYXZ=             29.0337 ZZXY=            -23.8121
 N-N= 2.439741119390D+03 E-N=-9.127430402942D+03  KE= 1.801883669127D+03
 Leave Link  601 at Tue Sep 15 11:53:23 2020, MaxMem=   262144000 cpu:               3.6 elap:               1.4
 (Enter /prod/apps/gaussian/g16b1/l9999.exe)
 1\1\GINC-PIRINEUS14\SP\RMP2-FC\Aug-CC-pVDZ\C17H19N1O4S2\UBAFAR01\15-Se
 p-2020\0\\#p mp2/aug-cc-pVDZ scf=(MaxCycle=2000,NoVarAcc,NoIncFock) ma
 xdisk=180GB geom=allcheck\\SM39_m0.n.12.pdb.xyz\\0,1\O,0,0.714226331,-
 1.7274496357,1.1613863552\S,0,1.3140915229,-1.619835156,-0.1790877117\
 N,0,0.6869770928,-0.293346943,-0.9966782672\C,0,-0.0987142699,0.750369
 6871,-0.3174056191\C,0,-0.169991854,2.0009837579,-1.2625301911\S,0,0.4
 008460767,3.066277534,0.1019817479\C,0,0.7063828836,1.4291077251,0.840
 8709709\O,0,1.6237243136,3.8335975092,-0.1988715909\O,0,-0.722003402,3
 .7649383561,0.7602976864\C,0,-1.4922379047,0.3047658462,0.1661320409\C
 ,0,-2.4271386985,-0.2104227728,-0.9409672298\C,0,-3.7868662618,-0.5897
 967896,-0.3967798054\C,0,-4.8233324177,0.350421501,-0.328553354\C,0,-6
 .0687502327,0.0068842863,0.2004870898\C,0,-6.2972723028,-1.2877066936,
 0.671335468\C,0,-5.2725116887,-2.2345985333,0.607864444\C,0,-4.0294652
 27,-1.8859545001,0.0777907562\C,0,3.0452789455,-1.2252044736,0.0432327
 999\C,0,3.8405485816,-0.9657567029,-1.0765557702\C,0,5.1965715369,-0.7
 107813593,-0.8904890355\C,0,5.7434778472,-0.721277038,0.3966605209\C,0
 ,4.9370007345,-0.9868534708,1.5030668725\C,0,3.5764084565,-1.244024927
 2,1.3320655087\O,0,1.2092793462,-2.7458305798,-1.1215743915\H,0,0.2835
 427774,-0.6049541842,-1.8823391794\H,0,-1.1525729059,2.2649924503,-1.6
 493183804\H,0,0.5780163895,1.9785353324,-2.0539931419\H,0,0.2965784998
 ,1.3169892769,1.8431661869\H,0,1.7742649302,1.2155921431,0.8275622784\
 H,0,-1.9634116561,1.1594398459,0.6637478646\H,0,-1.3507530919,-0.47030
 07708,0.923279008\H,0,-1.9786469338,-1.0834834397,-1.4249712978\H,0,-2
 .5430223678,0.5601913165,-1.7113965856\H,0,-4.653939838,1.3582077163,-
 0.6979495018\H,0,-6.8603666853,0.748608337,0.2403917353\H,0,-7.2656861
 274,-1.5576733702,1.0800216325\H,0,-5.4416894044,-3.2450977873,0.96637
 01288\H,0,-3.2374751599,-2.6278941349,0.0262891798\H,0,3.4089623915,-0
 .9557767942,-2.070505585\H,0,5.8255176986,-0.5032763994,-1.7487096104\
 H,0,6.8004108607,-0.5208545269,0.5341828234\H,0,5.3621041009,-0.995384
 5098,2.5002319128\H,0,2.9316371128,-1.4523671284,2.1762612364\\Version
 =ES64L-G16RevB.01\State=1-A\HF=-1803.7182322\MP2=-1807.3619818\RMSD=5.
 994e-09\PG=C01 [X(C17H19N1O4S2)]\\@


 HE THAT FOLLOWS NATURE IS NEVER LOST.

                             -- BACON
 Job cpu time:       0 days 12 hours 41 minutes 19.7 seconds.
 Elapsed time:       0 days  3 hours 53 minutes 43.8 seconds.
 File lengths (MBytes):  RWF= 121165 Int=      0 D2E=      0 Chk=     43 Scr=      1
 Normal termination of Gaussian 16 at Tue Sep 15 11:53:31 2020.
