 Entering Gaussian System, Link 0=g16
 Initial command:
 /prod/apps/gaussian/g16b1/l1.exe "/tmp/ubafar01/1460357/Gau-208452.inp" -scrdir="/tmp/ubafar01/1460357/"
 Entering Link 1 = /prod/apps/gaussian/g16b1/l1.exe PID=    208453.
  
 Copyright (c) 1988-2017, Gaussian, Inc.  All Rights Reserved.
  
 This is part of the Gaussian(R) 16 program.  It is based on
 the Gaussian(R) 09 system (copyright 2009, Gaussian, Inc.),
 the Gaussian(R) 03 system (copyright 2003, Gaussian, Inc.),
 the Gaussian(R) 98 system (copyright 1998, Gaussian, Inc.),
 the Gaussian(R) 94 system (copyright 1995, Gaussian, Inc.),
 the Gaussian 92(TM) system (copyright 1992, Gaussian, Inc.),
 the Gaussian 90(TM) system (copyright 1990, Gaussian, Inc.),
 the Gaussian 88(TM) system (copyright 1988, Gaussian, Inc.),
 the Gaussian 86(TM) system (copyright 1986, Carnegie Mellon
 University), and the Gaussian 82(TM) system (copyright 1983,
 Carnegie Mellon University). Gaussian is a federally registered
 trademark of Gaussian, Inc.
  
 This software contains proprietary and confidential information,
 including trade secrets, belonging to Gaussian, Inc.
  
 This software is provided under written license and may be
 used, copied, transmitted, or stored only in accord with that
 written license.
  
 The following legend is applicable only to US Government
 contracts under FAR:
  
                    RESTRICTED RIGHTS LEGEND
  
 Use, reproduction and disclosure by the US Government is
 subject to restrictions as set forth in subparagraphs (a)
 and (c) of the Commercial Computer Software - Restricted
 Rights clause in FAR 52.227-19.
  
 Gaussian, Inc.
 340 Quinnipiac St., Bldg. 40, Wallingford CT 06492
  
  
 ---------------------------------------------------------------
 Warning -- This program may not be used in any manner that
 competes with the business of Gaussian, Inc. or will provide
 assistance to any competitor of Gaussian, Inc.  The licensee
 of this program is prohibited from giving any competitor of
 Gaussian, Inc. access to this program.  By using this program,
 the user acknowledges that Gaussian, Inc. is engaged in the
 business of creating and licensing software in the field of
 computational chemistry and represents and warrants to the
 licensee that it is not a competitor of Gaussian, Inc. and that
 it will not use this program in any manner prohibited above.
 ---------------------------------------------------------------
  

 Cite this work as:
 Gaussian 16, Revision B.01,
 M. J. Frisch, G. W. Trucks, H. B. Schlegel, G. E. Scuseria, 
 M. A. Robb, J. R. Cheeseman, G. Scalmani, V. Barone, 
 G. A. Petersson, H. Nakatsuji, X. Li, M. Caricato, A. V. Marenich, 
 J. Bloino, B. G. Janesko, R. Gomperts, B. Mennucci, H. P. Hratchian, 
 J. V. Ortiz, A. F. Izmaylov, J. L. Sonnenberg, D. Williams-Young, 
 F. Ding, F. Lipparini, F. Egidi, J. Goings, B. Peng, A. Petrone, 
 T. Henderson, D. Ranasinghe, V. G. Zakrzewski, J. Gao, N. Rega, 
 G. Zheng, W. Liang, M. Hada, M. Ehara, K. Toyota, R. Fukuda, 
 J. Hasegawa, M. Ishida, T. Nakajima, Y. Honda, O. Kitao, H. Nakai, 
 T. Vreven, K. Throssell, J. A. Montgomery, Jr., J. E. Peralta, 
 F. Ogliaro, M. J. Bearpark, J. J. Heyd, E. N. Brothers, K. N. Kudin, 
 V. N. Staroverov, T. A. Keith, R. Kobayashi, J. Normand, 
 K. Raghavachari, A. P. Rendell, J. C. Burant, S. S. Iyengar, 
 J. Tomasi, M. Cossi, J. M. Millam, M. Klene, C. Adamo, R. Cammi, 
 J. W. Ochterski, R. L. Martin, K. Morokuma, O. Farkas, 
 J. B. Foresman, and D. J. Fox, Gaussian, Inc., Wallingford CT, 2016.
 
 ******************************************
 Gaussian 16:  ES64L-G16RevB.01 20-Dec-2017
                22-Sep-2020 
 ******************************************
 %nproc=4
 Will use up to    4 processors via shared memory.
 %Chk=SM39_m0.n.13.pdb.xyz.mst.n.w.chk
 %mem=16GB
 ----------------------------------------------------------------------
 #p b3lyp/6-31G(d) opt freq NoSymm scf=(MaxCycle=2000,NoVarAcc,NoIncFoc
 k) scrf=(iefpcm,read,solvent=water)
 ----------------------------------------------------------------------
 1/18=20,19=15,26=3,38=1,40=2/1,3;
 2/9=110,12=2,15=1,17=6,18=5,40=1/2;
 3/5=1,6=6,7=1,11=2,25=1,30=1,70=2203,71=1,72=1,74=-5/1,2,3;
 4//1;
 5/5=100002,7=2000,38=1,53=1/2;
 6/7=2,8=2,9=2,10=2,28=1/1;
 7/30=1/1,2,3,16;
 1/18=20,19=15,26=3/3(2);
 2/9=110,15=1/2;
 99//99;
 2/9=110,15=1/2;
 3/5=1,6=6,7=1,11=2,25=1,30=1,70=2205,71=1,72=1,74=-5/1,2,3;
 4/5=5,16=3,69=1/1;
 5/5=100002,7=2000,38=1,53=1/2;
 7/30=1/1,2,3,16;
 1/18=20,19=15,26=3/3(-5);
 2/9=110,15=1/2;
 6/7=2,8=2,9=2,10=2,19=2,28=1/1;
 99/9=1/99;
 Leave Link    1 at Tue Sep 22 03:17:42 2020, MaxMem=  2147483648 cpu:               0.2 elap:               0.0
 (Enter /prod/apps/gaussian/g16b1/l101.exe)
 --------------------
 SM39_m0.n.13.pdb.xyz
 --------------------
 Symbolic Z-matrix:
 Charge =  0 Multiplicity = 1
 O                     2.583     1.082     1.502 
 S                     2.142    -0.322     1.416 
 N                     0.54     -0.432     0.92 
 C                    -0.161     0.625     0.179 
 C                     0.622     1.156    -1.071 
 S                     0.181     2.869    -0.608 
 C                    -0.308     2.008     0.918 
 O                     1.339     3.769    -0.458 
 O                    -0.99      3.354    -1.367 
 C                    -1.529     0.066    -0.26 
 C                    -2.468    -0.36      0.883 
 C                    -3.826    -0.777     0.362 
 C                    -4.089    -2.118     0.048 
 C                    -5.331    -2.503    -0.462 
 C                    -6.331    -1.549    -0.666 
 C                    -6.081    -0.211    -0.354 
 C                    -4.838     0.169     0.155 
 C                     3.063    -1.093     0.092 
 C                     2.65     -2.33     -0.411 
 C                     3.431    -2.948    -1.385 
 C                     4.605    -2.339    -1.838 
 C                     5.006    -1.106    -1.32 
 C                     4.234    -0.473    -0.345 
 O                     2.218    -1.17      2.616 
 H                     0.004    -0.792     1.709 
 H                     0.238     0.844    -2.041 
 H                     1.704     1.038    -1.025 
 H                    -1.304     2.269     1.274 
 H                     0.448     2.169     1.683 
 H                    -1.349    -0.783    -0.926 
 H                    -2.023     0.842    -0.854 
 H                    -2.585     0.47      1.589 
 H                    -2.031    -1.196     1.437 
 H                    -3.316    -2.863     0.209 
 H                    -5.517    -3.546    -0.696 
 H                    -7.297    -1.848    -1.059 
 H                    -6.854     0.537    -0.503 
 H                    -4.652     1.211     0.399 
 H                     1.734    -2.789    -0.061 
 H                     3.121    -3.905    -1.791 
 H                     5.205    -2.827    -2.597 
 H                     5.915    -0.634    -1.674 
 H                     4.523     0.485     0.067 
 
 ITRead=  0  0  0  0  0  0  0  0  0  0  0  0  0  0  0  0  0  0  0  0
 ITRead=  0  0  0  0  0  0  0  0  0  0  0  0  0  0  0  0  0  0  0  0
 ITRead=  0  0  0
 MicOpt= -1 -1 -1 -1 -1 -1 -1 -1 -1 -1 -1 -1 -1 -1 -1 -1 -1 -1 -1 -1
 MicOpt= -1 -1 -1 -1 -1 -1 -1 -1 -1 -1 -1 -1 -1 -1 -1 -1 -1 -1 -1 -1
 MicOpt= -1 -1 -1
 NAtoms=     43 NQM=       43 NQMF=       0 NMMI=      0 NMMIF=      0
                NMic=       0 NMicF=      0.
                    Isotopes and Nuclear Properties:
 (Nuclear quadrupole moments (NQMom) in fm**2, nuclear magnetic moments (NMagM)
  in nuclear magnetons)

  Atom         1           2           3           4           5           6           7           8           9          10
 IAtWgt=          16          32          14          12          12          32          12          16          16          12
 AtmWgt=  15.9949146  31.9720718  14.0030740  12.0000000  12.0000000  31.9720718  12.0000000  15.9949146  15.9949146  12.0000000
 NucSpn=           0           0           2           0           0           0           0           0           0           0
 AtZEff=  -0.0000000  -0.0000000  -0.0000000  -0.0000000  -0.0000000  -0.0000000  -0.0000000  -0.0000000  -0.0000000  -0.0000000
 NQMom=    0.0000000   0.0000000   2.0440000   0.0000000   0.0000000   0.0000000   0.0000000   0.0000000   0.0000000   0.0000000
 NMagM=    0.0000000   0.0000000   0.4037610   0.0000000   0.0000000   0.0000000   0.0000000   0.0000000   0.0000000   0.0000000
 AtZNuc=   8.0000000  16.0000000   7.0000000   6.0000000   6.0000000  16.0000000   6.0000000   8.0000000   8.0000000   6.0000000

  Atom        11          12          13          14          15          16          17          18          19          20
 IAtWgt=          12          12          12          12          12          12          12          12          12          12
 AtmWgt=  12.0000000  12.0000000  12.0000000  12.0000000  12.0000000  12.0000000  12.0000000  12.0000000  12.0000000  12.0000000
 NucSpn=           0           0           0           0           0           0           0           0           0           0
 AtZEff=  -0.0000000  -0.0000000  -0.0000000  -0.0000000  -0.0000000  -0.0000000  -0.0000000  -0.0000000  -0.0000000  -0.0000000
 NQMom=    0.0000000   0.0000000   0.0000000   0.0000000   0.0000000   0.0000000   0.0000000   0.0000000   0.0000000   0.0000000
 NMagM=    0.0000000   0.0000000   0.0000000   0.0000000   0.0000000   0.0000000   0.0000000   0.0000000   0.0000000   0.0000000
 AtZNuc=   6.0000000   6.0000000   6.0000000   6.0000000   6.0000000   6.0000000   6.0000000   6.0000000   6.0000000   6.0000000

  Atom        21          22          23          24          25          26          27          28          29          30
 IAtWgt=          12          12          12          16           1           1           1           1           1           1
 AtmWgt=  12.0000000  12.0000000  12.0000000  15.9949146   1.0078250   1.0078250   1.0078250   1.0078250   1.0078250   1.0078250
 NucSpn=           0           0           0           0           1           1           1           1           1           1
 AtZEff=  -0.0000000  -0.0000000  -0.0000000  -0.0000000  -0.0000000  -0.0000000  -0.0000000  -0.0000000  -0.0000000  -0.0000000
 NQMom=    0.0000000   0.0000000   0.0000000   0.0000000   0.0000000   0.0000000   0.0000000   0.0000000   0.0000000   0.0000000
 NMagM=    0.0000000   0.0000000   0.0000000   0.0000000   2.7928460   2.7928460   2.7928460   2.7928460   2.7928460   2.7928460
 AtZNuc=   6.0000000   6.0000000   6.0000000   8.0000000   1.0000000   1.0000000   1.0000000   1.0000000   1.0000000   1.0000000

  Atom        31          32          33          34          35          36          37          38          39          40
 IAtWgt=           1           1           1           1           1           1           1           1           1           1
 AtmWgt=   1.0078250   1.0078250   1.0078250   1.0078250   1.0078250   1.0078250   1.0078250   1.0078250   1.0078250   1.0078250
 NucSpn=           1           1           1           1           1           1           1           1           1           1
 AtZEff=  -0.0000000  -0.0000000  -0.0000000  -0.0000000  -0.0000000  -0.0000000  -0.0000000  -0.0000000  -0.0000000  -0.0000000
 NQMom=    0.0000000   0.0000000   0.0000000   0.0000000   0.0000000   0.0000000   0.0000000   0.0000000   0.0000000   0.0000000
 NMagM=    2.7928460   2.7928460   2.7928460   2.7928460   2.7928460   2.7928460   2.7928460   2.7928460   2.7928460   2.7928460
 AtZNuc=   1.0000000   1.0000000   1.0000000   1.0000000   1.0000000   1.0000000   1.0000000   1.0000000   1.0000000   1.0000000

  Atom        41          42          43
 IAtWgt=           1           1           1
 AtmWgt=   1.0078250   1.0078250   1.0078250
 NucSpn=           1           1           1
 AtZEff=  -0.0000000  -0.0000000  -0.0000000
 NQMom=    0.0000000   0.0000000   0.0000000
 NMagM=    2.7928460   2.7928460   2.7928460
 AtZNuc=   1.0000000   1.0000000   1.0000000
 Leave Link  101 at Tue Sep 22 03:17:42 2020, MaxMem=  2147483648 cpu:               1.5 elap:               0.4
 (Enter /prod/apps/gaussian/g16b1/l103.exe)

 GradGradGradGradGradGradGradGradGradGradGradGradGradGradGradGradGradGrad
 Berny optimization.
 Initialization pass.
                           ----------------------------
                           !    Initial Parameters    !
                           ! (Angstroms and Degrees)  !
 --------------------------                            --------------------------
 ! Name  Definition              Value          Derivative Info.                !
 --------------------------------------------------------------------------------
 ! R1    R(1,2)                  1.4741         estimate D2E/DX2                !
 ! R2    R(2,3)                  1.6806         estimate D2E/DX2                !
 ! R3    R(2,18)                 1.7876         estimate D2E/DX2                !
 ! R4    R(2,24)                 1.4714         estimate D2E/DX2                !
 ! R5    R(3,4)                  1.4689         estimate D2E/DX2                !
 ! R6    R(3,25)                 1.0195         estimate D2E/DX2                !
 ! R7    R(4,5)                  1.5677         estimate D2E/DX2                !
 ! R8    R(4,7)                  1.5749         estimate D2E/DX2                !
 ! R9    R(4,10)                 1.5416         estimate D2E/DX2                !
 ! R10   R(5,6)                  1.8284         estimate D2E/DX2                !
 ! R11   R(5,26)                 1.0889         estimate D2E/DX2                !
 ! R12   R(5,27)                 1.0894         estimate D2E/DX2                !
 ! R13   R(6,7)                  1.8191         estimate D2E/DX2                !
 ! R14   R(6,8)                  1.4743         estimate D2E/DX2                !
 ! R15   R(6,9)                  1.4773         estimate D2E/DX2                !
 ! R16   R(7,28)                 1.0894         estimate D2E/DX2                !
 ! R17   R(7,29)                 1.0875         estimate D2E/DX2                !
 ! R18   R(10,11)                1.5394         estimate D2E/DX2                !
 ! R19   R(10,30)                1.094          estimate D2E/DX2                !
 ! R20   R(10,31)                1.095          estimate D2E/DX2                !
 ! R21   R(11,12)                1.5131         estimate D2E/DX2                !
 ! R22   R(11,32)                1.0959         estimate D2E/DX2                !
 ! R23   R(11,33)                1.094          estimate D2E/DX2                !
 ! R24   R(12,13)                1.4022         estimate D2E/DX2                !
 ! R25   R(12,17)                1.4007         estimate D2E/DX2                !
 ! R26   R(13,14)                1.3967         estimate D2E/DX2                !
 ! R27   R(13,34)                1.0856         estimate D2E/DX2                !
 ! R28   R(14,15)                1.397          estimate D2E/DX2                !
 ! R29   R(14,35)                1.085          estimate D2E/DX2                !
 ! R30   R(15,16)                1.3965         estimate D2E/DX2                !
 ! R31   R(15,36)                1.0849         estimate D2E/DX2                !
 ! R32   R(16,17)                1.3959         estimate D2E/DX2                !
 ! R33   R(16,37)                1.0859         estimate D2E/DX2                !
 ! R34   R(17,38)                1.0862         estimate D2E/DX2                !
 ! R35   R(18,19)                1.3978         estimate D2E/DX2                !
 ! R36   R(18,23)                1.3952         estimate D2E/DX2                !
 ! R37   R(19,20)                1.393          estimate D2E/DX2                !
 ! R38   R(19,39)                1.0827         estimate D2E/DX2                !
 ! R39   R(20,21)                1.398          estimate D2E/DX2                !
 ! R40   R(20,40)                1.0848         estimate D2E/DX2                !
 ! R41   R(21,22)                1.3962         estimate D2E/DX2                !
 ! R42   R(21,41)                1.0836         estimate D2E/DX2                !
 ! R43   R(22,23)                1.3955         estimate D2E/DX2                !
 ! R44   R(22,42)                1.0837         estimate D2E/DX2                !
 ! R45   R(23,43)                1.0821         estimate D2E/DX2                !
 ! A1    A(1,2,3)              111.3901         estimate D2E/DX2                !
 ! A2    A(1,2,18)             107.4489         estimate D2E/DX2                !
 ! A3    A(1,2,24)             119.0705         estimate D2E/DX2                !
 ! A4    A(3,2,18)             104.1397         estimate D2E/DX2                !
 ! A5    A(3,2,24)             104.6085         estimate D2E/DX2                !
 ! A6    A(18,2,24)            109.1999         estimate D2E/DX2                !
 ! A7    A(2,3,4)              123.8261         estimate D2E/DX2                !
 ! A8    A(2,3,25)             107.2088         estimate D2E/DX2                !
 ! A9    A(4,3,25)             113.1779         estimate D2E/DX2                !
 ! A10   A(3,4,5)              114.0549         estimate D2E/DX2                !
 ! A11   A(3,4,7)              116.0862         estimate D2E/DX2                !
 ! A12   A(3,4,10)             107.8305         estimate D2E/DX2                !
 ! A13   A(5,4,7)               97.0839         estimate D2E/DX2                !
 ! A14   A(5,4,10)             109.8146         estimate D2E/DX2                !
 ! A15   A(7,4,10)             111.6667         estimate D2E/DX2                !
 ! A16   A(4,5,6)               89.7112         estimate D2E/DX2                !
 ! A17   A(4,5,26)             115.9197         estimate D2E/DX2                !
 ! A18   A(4,5,27)             115.1966         estimate D2E/DX2                !
 ! A19   A(6,5,26)             114.1391         estimate D2E/DX2                !
 ! A20   A(6,5,27)             109.2894         estimate D2E/DX2                !
 ! A21   A(26,5,27)            110.9061         estimate D2E/DX2                !
 ! A22   A(5,6,7)               80.4347         estimate D2E/DX2                !
 ! A23   A(5,6,8)              114.0946         estimate D2E/DX2                !
 ! A24   A(5,6,9)              111.632          estimate D2E/DX2                !
 ! A25   A(7,6,8)              114.5029         estimate D2E/DX2                !
 ! A26   A(7,6,9)              111.9188         estimate D2E/DX2                !
 ! A27   A(8,6,9)              118.324          estimate D2E/DX2                !
 ! A28   A(4,7,6)               89.8233         estimate D2E/DX2                !
 ! A29   A(4,7,28)             116.6821         estimate D2E/DX2                !
 ! A30   A(4,7,29)             113.2778         estimate D2E/DX2                !
 ! A31   A(6,7,28)             113.9845         estimate D2E/DX2                !
 ! A32   A(6,7,29)             109.4606         estimate D2E/DX2                !
 ! A33   A(28,7,29)            111.7285         estimate D2E/DX2                !
 ! A34   A(4,10,11)            115.4799         estimate D2E/DX2                !
 ! A35   A(4,10,30)            107.9847         estimate D2E/DX2                !
 ! A36   A(4,10,31)            107.3275         estimate D2E/DX2                !
 ! A37   A(11,10,30)           109.733          estimate D2E/DX2                !
 ! A38   A(11,10,31)           108.8874         estimate D2E/DX2                !
 ! A39   A(30,10,31)           107.0954         estimate D2E/DX2                !
 ! A40   A(10,11,12)           111.5962         estimate D2E/DX2                !
 ! A41   A(10,11,32)           109.5038         estimate D2E/DX2                !
 ! A42   A(10,11,33)           110.1102         estimate D2E/DX2                !
 ! A43   A(12,11,32)           109.5557         estimate D2E/DX2                !
 ! A44   A(12,11,33)           108.8008         estimate D2E/DX2                !
 ! A45   A(32,11,33)           107.168          estimate D2E/DX2                !
 ! A46   A(11,12,13)           120.5986         estimate D2E/DX2                !
 ! A47   A(11,12,17)           120.877          estimate D2E/DX2                !
 ! A48   A(13,12,17)           118.5101         estimate D2E/DX2                !
 ! A49   A(12,13,14)           120.8088         estimate D2E/DX2                !
 ! A50   A(12,13,34)           119.3121         estimate D2E/DX2                !
 ! A51   A(14,13,34)           119.8786         estimate D2E/DX2                !
 ! A52   A(13,14,15)           120.105          estimate D2E/DX2                !
 ! A53   A(13,14,35)           119.7463         estimate D2E/DX2                !
 ! A54   A(15,14,35)           120.1484         estimate D2E/DX2                !
 ! A55   A(14,15,16)           119.5719         estimate D2E/DX2                !
 ! A56   A(14,15,36)           120.1354         estimate D2E/DX2                !
 ! A57   A(16,15,36)           120.2918         estimate D2E/DX2                !
 ! A58   A(15,16,17)           120.1135         estimate D2E/DX2                !
 ! A59   A(15,16,37)           120.125          estimate D2E/DX2                !
 ! A60   A(17,16,37)           119.7611         estimate D2E/DX2                !
 ! A61   A(12,17,16)           120.8904         estimate D2E/DX2                !
 ! A62   A(12,17,38)           119.4043         estimate D2E/DX2                !
 ! A63   A(16,17,38)           119.7046         estimate D2E/DX2                !
 ! A64   A(2,18,19)            119.7349         estimate D2E/DX2                !
 ! A65   A(2,18,23)            118.2118         estimate D2E/DX2                !
 ! A66   A(19,18,23)           121.9071         estimate D2E/DX2                !
 ! A67   A(18,19,20)           118.5917         estimate D2E/DX2                !
 ! A68   A(18,19,39)           120.5859         estimate D2E/DX2                !
 ! A69   A(20,19,39)           120.8154         estimate D2E/DX2                !
 ! A70   A(19,20,21)           120.2731         estimate D2E/DX2                !
 ! A71   A(19,20,40)           119.5273         estimate D2E/DX2                !
 ! A72   A(21,20,40)           120.1995         estimate D2E/DX2                !
 ! A73   A(20,21,22)           120.376          estimate D2E/DX2                !
 ! A74   A(20,21,41)           119.7206         estimate D2E/DX2                !
 ! A75   A(22,21,41)           119.9032         estimate D2E/DX2                !
 ! A76   A(21,22,23)           120.0608         estimate D2E/DX2                !
 ! A77   A(21,22,42)           120.2882         estimate D2E/DX2                !
 ! A78   A(23,22,42)           119.6507         estimate D2E/DX2                !
 ! A79   A(18,23,22)           118.7891         estimate D2E/DX2                !
 ! A80   A(18,23,43)           119.8874         estimate D2E/DX2                !
 ! A81   A(22,23,43)           121.3218         estimate D2E/DX2                !
 ! D1    D(1,2,3,4)             22.1998         estimate D2E/DX2                !
 ! D2    D(1,2,3,25)          -112.5113         estimate D2E/DX2                !
 ! D3    D(18,2,3,4)           -93.317          estimate D2E/DX2                !
 ! D4    D(18,2,3,25)          131.972          estimate D2E/DX2                !
 ! D5    D(24,2,3,4)           152.0926         estimate D2E/DX2                !
 ! D6    D(24,2,3,25)           17.3815         estimate D2E/DX2                !
 ! D7    D(1,2,18,19)         -165.9346         estimate D2E/DX2                !
 ! D8    D(1,2,18,23)           18.375          estimate D2E/DX2                !
 ! D9    D(3,2,18,19)          -47.6771         estimate D2E/DX2                !
 ! D10   D(3,2,18,23)          136.6325         estimate D2E/DX2                !
 ! D11   D(24,2,18,19)          63.616          estimate D2E/DX2                !
 ! D12   D(24,2,18,23)        -112.0744         estimate D2E/DX2                !
 ! D13   D(2,3,4,5)             49.7784         estimate D2E/DX2                !
 ! D14   D(2,3,4,7)            -61.8702         estimate D2E/DX2                !
 ! D15   D(2,3,4,10)           172.0222         estimate D2E/DX2                !
 ! D16   D(25,3,4,5)          -177.8213         estimate D2E/DX2                !
 ! D17   D(25,3,4,7)            70.5301         estimate D2E/DX2                !
 ! D18   D(25,3,4,10)          -55.5775         estimate D2E/DX2                !
 ! D19   D(3,4,5,6)           -136.6084         estimate D2E/DX2                !
 ! D20   D(3,4,5,26)           106.5037         estimate D2E/DX2                !
 ! D21   D(3,4,5,27)           -25.3418         estimate D2E/DX2                !
 ! D22   D(7,4,5,6)            -13.8759         estimate D2E/DX2                !
 ! D23   D(7,4,5,26)          -130.7638         estimate D2E/DX2                !
 ! D24   D(7,4,5,27)            97.3907         estimate D2E/DX2                !
 ! D25   D(10,4,5,6)           102.243          estimate D2E/DX2                !
 ! D26   D(10,4,5,26)          -14.6449         estimate D2E/DX2                !
 ! D27   D(10,4,5,27)         -146.4904         estimate D2E/DX2                !
 ! D28   D(3,4,7,6)            135.1586         estimate D2E/DX2                !
 ! D29   D(3,4,7,28)          -107.8802         estimate D2E/DX2                !
 ! D30   D(3,4,7,29)            23.975          estimate D2E/DX2                !
 ! D31   D(5,4,7,6)             13.9485         estimate D2E/DX2                !
 ! D32   D(5,4,7,28)           130.9098         estimate D2E/DX2                !
 ! D33   D(5,4,7,29)           -97.235          estimate D2E/DX2                !
 ! D34   D(10,4,7,6)          -100.6919         estimate D2E/DX2                !
 ! D35   D(10,4,7,28)           16.2693         estimate D2E/DX2                !
 ! D36   D(10,4,7,29)          148.1245         estimate D2E/DX2                !
 ! D37   D(3,4,10,11)           61.1761         estimate D2E/DX2                !
 ! D38   D(3,4,10,30)          -62.0488         estimate D2E/DX2                !
 ! D39   D(3,4,10,31)         -177.2019         estimate D2E/DX2                !
 ! D40   D(5,4,10,11)         -174.0027         estimate D2E/DX2                !
 ! D41   D(5,4,10,30)           62.7725         estimate D2E/DX2                !
 ! D42   D(5,4,10,31)          -52.3806         estimate D2E/DX2                !
 ! D43   D(7,4,10,11)          -67.4922         estimate D2E/DX2                !
 ! D44   D(7,4,10,30)          169.2829         estimate D2E/DX2                !
 ! D45   D(7,4,10,31)           54.1298         estimate D2E/DX2                !
 ! D46   D(4,5,6,7)             12.0609         estimate D2E/DX2                !
 ! D47   D(4,5,6,8)            124.7274         estimate D2E/DX2                !
 ! D48   D(4,5,6,9)            -97.8409         estimate D2E/DX2                !
 ! D49   D(26,5,6,7)           130.5337         estimate D2E/DX2                !
 ! D50   D(26,5,6,8)          -116.7997         estimate D2E/DX2                !
 ! D51   D(26,5,6,9)            20.632          estimate D2E/DX2                !
 ! D52   D(27,5,6,7)          -104.6371         estimate D2E/DX2                !
 ! D53   D(27,5,6,8)             8.0294         estimate D2E/DX2                !
 ! D54   D(27,5,6,9)           145.4611         estimate D2E/DX2                !
 ! D55   D(5,6,7,4)            -12.0042         estimate D2E/DX2                !
 ! D56   D(5,6,7,28)          -131.3518         estimate D2E/DX2                !
 ! D57   D(5,6,7,29)           102.7072         estimate D2E/DX2                !
 ! D58   D(8,6,7,4)           -124.2245         estimate D2E/DX2                !
 ! D59   D(8,6,7,28)           116.4279         estimate D2E/DX2                !
 ! D60   D(8,6,7,29)            -9.5131         estimate D2E/DX2                !
 ! D61   D(9,6,7,4)             97.5783         estimate D2E/DX2                !
 ! D62   D(9,6,7,28)           -21.7693         estimate D2E/DX2                !
 ! D63   D(9,6,7,29)          -147.7103         estimate D2E/DX2                !
 ! D64   D(4,10,11,12)         174.9069         estimate D2E/DX2                !
 ! D65   D(4,10,11,32)          53.4326         estimate D2E/DX2                !
 ! D66   D(4,10,11,33)         -64.1588         estimate D2E/DX2                !
 ! D67   D(30,10,11,12)        -62.7963         estimate D2E/DX2                !
 ! D68   D(30,10,11,32)        175.7294         estimate D2E/DX2                !
 ! D69   D(30,10,11,33)         58.1381         estimate D2E/DX2                !
 ! D70   D(31,10,11,12)         54.1271         estimate D2E/DX2                !
 ! D71   D(31,10,11,32)        -67.3472         estimate D2E/DX2                !
 ! D72   D(31,10,11,33)        175.0615         estimate D2E/DX2                !
 ! D73   D(10,11,12,13)         91.8224         estimate D2E/DX2                !
 ! D74   D(10,11,12,17)        -86.7815         estimate D2E/DX2                !
 ! D75   D(32,11,12,13)       -146.7334         estimate D2E/DX2                !
 ! D76   D(32,11,12,17)         34.6627         estimate D2E/DX2                !
 ! D77   D(33,11,12,13)        -29.8723         estimate D2E/DX2                !
 ! D78   D(33,11,12,17)        151.5238         estimate D2E/DX2                !
 ! D79   D(11,12,13,14)       -178.5276         estimate D2E/DX2                !
 ! D80   D(11,12,13,34)          1.7331         estimate D2E/DX2                !
 ! D81   D(17,12,13,14)          0.1088         estimate D2E/DX2                !
 ! D82   D(17,12,13,34)       -179.6304         estimate D2E/DX2                !
 ! D83   D(11,12,17,16)        178.5475         estimate D2E/DX2                !
 ! D84   D(11,12,17,38)         -1.7383         estimate D2E/DX2                !
 ! D85   D(13,12,17,16)         -0.085          estimate D2E/DX2                !
 ! D86   D(13,12,17,38)        179.6292         estimate D2E/DX2                !
 ! D87   D(12,13,14,15)          0.005          estimate D2E/DX2                !
 ! D88   D(12,13,14,35)       -179.7996         estimate D2E/DX2                !
 ! D89   D(34,13,14,15)        179.7428         estimate D2E/DX2                !
 ! D90   D(34,13,14,35)         -0.0618         estimate D2E/DX2                !
 ! D91   D(13,14,15,16)         -0.1441         estimate D2E/DX2                !
 ! D92   D(13,14,15,36)       -179.7959         estimate D2E/DX2                !
 ! D93   D(35,14,15,16)        179.6598         estimate D2E/DX2                !
 ! D94   D(35,14,15,36)          0.0079         estimate D2E/DX2                !
 ! D95   D(14,15,16,17)          0.1677         estimate D2E/DX2                !
 ! D96   D(14,15,16,37)       -179.6064         estimate D2E/DX2                !
 ! D97   D(36,15,16,17)        179.819          estimate D2E/DX2                !
 ! D98   D(36,15,16,37)          0.0449         estimate D2E/DX2                !
 ! D99   D(15,16,17,12)         -0.0528         estimate D2E/DX2                !
 ! D100  D(15,16,17,38)       -179.7662         estimate D2E/DX2                !
 ! D101  D(37,16,17,12)        179.7222         estimate D2E/DX2                !
 ! D102  D(37,16,17,38)          0.0088         estimate D2E/DX2                !
 ! D103  D(2,18,19,20)        -176.0967         estimate D2E/DX2                !
 ! D104  D(2,18,19,39)           4.8551         estimate D2E/DX2                !
 ! D105  D(23,18,19,20)         -0.5707         estimate D2E/DX2                !
 ! D106  D(23,18,19,39)       -179.6189         estimate D2E/DX2                !
 ! D107  D(2,18,23,22)         176.0865         estimate D2E/DX2                !
 ! D108  D(2,18,23,43)          -4.391          estimate D2E/DX2                !
 ! D109  D(19,18,23,22)          0.495          estimate D2E/DX2                !
 ! D110  D(19,18,23,43)       -179.9825         estimate D2E/DX2                !
 ! D111  D(18,19,20,21)          0.3346         estimate D2E/DX2                !
 ! D112  D(18,19,20,40)       -179.5711         estimate D2E/DX2                !
 ! D113  D(39,19,20,21)        179.3806         estimate D2E/DX2                !
 ! D114  D(39,19,20,40)         -0.5252         estimate D2E/DX2                !
 ! D115  D(19,20,21,22)         -0.0384         estimate D2E/DX2                !
 ! D116  D(19,20,21,41)       -179.9115         estimate D2E/DX2                !
 ! D117  D(40,20,21,22)        179.8667         estimate D2E/DX2                !
 ! D118  D(40,20,21,41)         -0.0064         estimate D2E/DX2                !
 ! D119  D(20,21,22,23)         -0.04           estimate D2E/DX2                !
 ! D120  D(20,21,22,42)       -179.8443         estimate D2E/DX2                !
 ! D121  D(41,21,22,23)        179.8329         estimate D2E/DX2                !
 ! D122  D(41,21,22,42)          0.0286         estimate D2E/DX2                !
 ! D123  D(21,22,23,18)         -0.182          estimate D2E/DX2                !
 ! D124  D(21,22,23,43)       -179.6973         estimate D2E/DX2                !
 ! D125  D(42,22,23,18)        179.6236         estimate D2E/DX2                !
 ! D126  D(42,22,23,43)          0.1082         estimate D2E/DX2                !
 --------------------------------------------------------------------------------
 Trust Radius=3.00D-01 FncErr=1.00D-07 GrdErr=1.00D-06 EigMax=2.50D+02 EigMin=1.00D-04
 Number of steps in this run=    258 maximum allowed number of steps=    258.
 GradGradGradGradGradGradGradGradGradGradGradGradGradGradGradGradGradGrad

 Leave Link  103 at Tue Sep 22 03:17:42 2020, MaxMem=  2147483648 cpu:               0.1 elap:               0.0
 (Enter /prod/apps/gaussian/g16b1/l202.exe)
                          Input orientation:                          
 ---------------------------------------------------------------------
 Center     Atomic      Atomic             Coordinates (Angstroms)
 Number     Number       Type             X           Y           Z
 ---------------------------------------------------------------------
      1          8           0        2.583000    1.082000    1.502000
      2         16           0        2.142000   -0.322000    1.416000
      3          7           0        0.540000   -0.432000    0.920000
      4          6           0       -0.161000    0.625000    0.179000
      5          6           0        0.622000    1.156000   -1.071000
      6         16           0        0.181000    2.869000   -0.608000
      7          6           0       -0.308000    2.008000    0.918000
      8          8           0        1.339000    3.769000   -0.458000
      9          8           0       -0.990000    3.354000   -1.367000
     10          6           0       -1.529000    0.066000   -0.260000
     11          6           0       -2.468000   -0.360000    0.883000
     12          6           0       -3.826000   -0.777000    0.362000
     13          6           0       -4.089000   -2.118000    0.048000
     14          6           0       -5.331000   -2.503000   -0.462000
     15          6           0       -6.331000   -1.549000   -0.666000
     16          6           0       -6.081000   -0.211000   -0.354000
     17          6           0       -4.838000    0.169000    0.155000
     18          6           0        3.063000   -1.093000    0.092000
     19          6           0        2.650000   -2.330000   -0.411000
     20          6           0        3.431000   -2.948000   -1.385000
     21          6           0        4.605000   -2.339000   -1.838000
     22          6           0        5.006000   -1.106000   -1.320000
     23          6           0        4.234000   -0.473000   -0.345000
     24          8           0        2.218000   -1.170000    2.616000
     25          1           0        0.004000   -0.792000    1.709000
     26          1           0        0.238000    0.844000   -2.041000
     27          1           0        1.704000    1.038000   -1.025000
     28          1           0       -1.304000    2.269000    1.274000
     29          1           0        0.448000    2.169000    1.683000
     30          1           0       -1.349000   -0.783000   -0.926000
     31          1           0       -2.023000    0.842000   -0.854000
     32          1           0       -2.585000    0.470000    1.589000
     33          1           0       -2.031000   -1.196000    1.437000
     34          1           0       -3.316000   -2.863000    0.209000
     35          1           0       -5.517000   -3.546000   -0.696000
     36          1           0       -7.297000   -1.848000   -1.059000
     37          1           0       -6.854000    0.537000   -0.503000
     38          1           0       -4.652000    1.211000    0.399000
     39          1           0        1.734000   -2.789000   -0.061000
     40          1           0        3.121000   -3.905000   -1.791000
     41          1           0        5.205000   -2.827000   -2.597000
     42          1           0        5.915000   -0.634000   -1.674000
     43          1           0        4.523000    0.485000    0.067000
 ---------------------------------------------------------------------
                    Distance matrix (angstroms):
                    1          2          3          4          5
     1  O    0.000000
     2  S    1.474141   0.000000
     3  N    2.608595   1.680631   0.000000
     4  C    3.080376   2.780429   1.468922   0.000000
     5  C    3.235943   3.268035   2.548048   1.567657   0.000000
     6  S    3.662659   4.257297   3.655170   2.402471   1.828447
     7  C    3.091345   3.417514   2.583159   1.574935   2.355191
     8  O    3.550930   4.570882   4.492848   3.541258   2.778062
     9  O    5.114633   5.573822   4.680285   3.244195   2.741781
    10  C    4.587531   4.054104   2.433344   1.541631   2.544135
    11  C    5.289152   4.640866   3.009089   2.605396   3.957837
    12  C    6.769842   6.077414   4.415014   3.928272   5.057142
    13  C    7.541200   6.627398   5.003061   4.792744   5.845063
    14  C    8.907352   8.008082   6.377116   6.076526   7.014084
    15  C    9.543678   8.810901   7.139589   6.596150   7.471630
    16  C    8.954411   8.412072   6.746077   6.002448   6.878444
    17  C    7.597317   7.109965   5.465282   4.699238   5.682327
    18  C    2.636119   1.787640   2.736427   3.654213   3.516966
    19  C    3.912263   2.761894   3.134655   4.120904   4.086634
    20  C    5.029391   4.050061   4.472266   5.302347   4.983161
    21  C    5.191081   4.552271   5.269482   5.963920   5.354214
    22  C    4.315317   4.037679   5.041531   5.651659   4.939443
    23  C    2.924933   2.738683   3.904810   4.560286   4.028307
    24  O    2.538843   1.471353   2.497347   3.849758   4.642355
    25  H    3.194678   2.208573   1.019518   2.091892   3.450366
    26  H    4.255410   4.115291   3.238348   2.266178   1.088899
    27  H    2.675875   2.828414   2.701633   2.257966   1.089387
    28  H    4.070592   4.313741   3.289537   2.282150   3.232224
    29  H    2.402614   3.024236   2.712164   2.239829   2.939551
    30  H    4.983376   4.229015   2.664440   2.148216   2.768680
    31  H    5.179148   4.884160   3.367361   2.140379   2.672398
    32  H    5.204838   4.796011   3.320661   2.808541   4.222682
    33  H    5.146116   4.263595   2.731488   2.897500   4.342854
    34  H    7.213396   6.140301   4.613461   4.703304   5.770494
    35  H    9.584341   8.574089   6.999693   6.844677   7.741883
    36  H   10.618758   9.876691   8.206099   7.653161   8.469635
    37  H    9.663023   9.238423   7.591780   6.728233   7.523055
    38  H    7.319732   7.038666   5.470626   4.534410   5.475308
    39  H    4.260095   2.904149   2.818412   3.912035   4.221335
    40  H    6.000288   4.907258   5.106154   5.930710   5.690090
    41  H    6.241552   5.635704   6.314075   6.958192   6.260739
    42  H    4.912622   4.886816   5.971622   6.475837   5.619925
    43  H    2.485807   2.853106   4.175259   4.687430   4.118627
                    6          7          8          9         10
     6  S    0.000000
     7  C    1.819098   0.000000
     8  O    1.474267   2.776168   0.000000
     9  O    1.477345   2.738259   2.534314   0.000000
    10  C    3.301820   2.578738   4.687946   3.510971   0.000000
    11  C    4.434718   3.205347   5.774095   4.587023   1.539365
    12  C    5.503659   4.521248   6.929339   5.300707   2.524627
    13  C    6.597985   5.663633   8.023465   6.445837   3.379100
    14  C    7.698171   6.890867   9.155703   7.346275   4.593013
    15  C    7.869449   7.172017   9.335593   7.284030   5.082545
    16  C    6.983091   6.314228   8.420666   6.297116   4.561389
    17  C    5.750003   4.948231   7.175730   5.221859   3.336512
    18  C    4.949077   4.654258   5.187843   6.191228   4.749068
    19  C    5.758852   5.416110   6.238488   6.816993   4.819508
    20  C    6.708481   6.621621   7.096047   7.698102   5.911973
    21  C    6.943194   7.115442   7.062494   7.996006   6.774959
    22  C    6.291915   6.553185   6.160808   7.473006   6.723348
    23  C    5.259747   5.327316   5.136960   6.555958   5.788775
    24  O    5.554914   4.400405   5.883523   6.828040   4.882528
    25  H    4.336213   2.926265   5.223106   5.257293   2.638790
    26  H    2.481403   3.226251   3.503386   2.874432   2.626696
    27  H    2.417846   2.960455   2.813019   3.569097   3.461546
    28  H    2.471265   1.089437   3.497896   2.872404   2.693880
    29  H    2.410388   1.087512   2.817403   3.574153   3.479423
    30  H    3.972295   3.503384   5.307078   4.175899   1.093964
    31  H    3.004473   2.727777   4.475175   2.764128   1.095011
    32  H    4.269984   2.828500   5.520089   4.427123   2.167292
    33  H    5.059565   3.674739   6.292786   5.445053   2.173582
    34  H    6.764046   5.768655   8.130027   6.822400   3.463000
    35  H    8.580628   7.783675  10.028490   8.279732   5.398220
    36  H    8.852908   8.223344  10.319515   8.181315   6.129569
    37  H    7.412184   6.858075   8.807559   6.562658   5.351310
    38  H    5.207773   4.446898   6.570380   4.595808   3.390934
    39  H    5.892706   5.304660   6.581869   6.845602   4.340253
    40  H    7.478647   7.352570   7.990162   8.353034   6.303594
    41  H    7.851185   8.131766   7.939049   8.837176   7.692709
    42  H    6.803390   7.240467   6.465666   7.979813   7.609371
    43  H    4.999204   5.136369   4.604143   6.378141   6.075294
                   11         12         13         14         15
    11  C    0.000000
    12  C    1.513107   0.000000
    13  C    2.532870   1.402158   0.000000
    14  C    3.820765   2.433737   1.396742   0.000000
    15  C    4.328498   2.815634   2.420769   1.397044   0.000000
    16  C    3.821798   2.432702   2.786811   2.414007   1.396456
    17  C    2.535099   1.400682   2.408904   2.786274   2.419631
    18  C    5.635151   6.901527   7.225210   8.529610   9.435557
    19  C    5.634648   6.704321   6.757939   7.983038   9.018500
    20  C    6.829332   7.773628   7.700181   8.821712   9.887912
    21  C    7.832472   8.852209   8.898959  10.032167  11.026957
    22  C    7.827541   8.996754   9.252815  10.466200  11.364486
    23  C    6.814511   8.096658   8.493103   9.778743  10.624502
    24  O    5.061421   6.462577   6.875433   8.260652   9.165182
    25  H    2.641909   4.059992   4.611924   6.008576   6.807782
    26  H    4.161950   4.991808   5.644492   6.686510   7.125225
    27  H    4.795879   5.983218   6.683600   7.896004   8.448827
    28  H    2.901623   4.058367   5.339014   6.480927   6.603897
    29  H    3.941941   5.356401   6.452594   7.734691   8.080604
    30  H    2.168772   2.791865   3.199766   4.362341   5.047245
    31  H    2.158703   2.711204   3.720693   4.720758   4.930628
    32  H    1.095913   2.144905   3.366666   4.537163   4.816005
    33  H    1.093975   2.133825   2.648541   4.025475   4.799710
    34  H    2.727341   2.152883   1.085576   2.154081   3.403299
    35  H    4.684041   3.412654   2.152186   1.084989   2.156735
    36  H    5.413386   3.900529   3.404352   2.156523   1.084899
    37  H    4.686427   3.412273   3.872706   3.400413   2.156732
    38  H    2.733524   2.153088   3.394468   3.872487   3.401598
    39  H    4.944490   5.927957   5.862546   7.082148   8.182167
    40  H    7.138223   7.917108   7.652411   8.669957   9.805950
    41  H    8.779033   9.721993   9.689022  10.755022  11.766110
    42  H    8.768581   9.952529  10.259023  11.464494  12.321437
    43  H    7.089003   8.448992   8.996806  10.310640  11.067238
                   16         17         18         19         20
    16  C    0.000000
    17  C    1.395898   0.000000
    18  C    9.197259   8.001401   0.000000
    19  C    8.984641   7.914259   1.397765   0.000000
    20  C    9.951496   8.970153   2.399579   1.393040   0.000000
    21  C   10.996419   9.971578   2.766800   2.420420   1.397986
    22  C   11.164934  10.035217   2.401908   2.806277   2.424420
    23  C   10.318331   9.108422   1.395210   2.441692   2.802148
    24  O    8.866453   7.591876   2.662805   3.270314   4.543199
    25  H    6.451415   5.175268   3.473150   3.723058   5.095635
    26  H    6.624859   5.571698   4.035131   4.306846   5.000485
    27  H    7.913057   6.704127   2.763283   3.551807   4.358936
    28  H    5.623212   4.260436   5.636564   6.294771   7.530445
    29  H    7.241658   5.854620   4.473271   5.429055   6.670427
    30  H    4.800645   3.774650   4.538520   4.318615   5.267476
    31  H    4.222105   3.065165   5.523272   5.665224   6.662745
    32  H    4.057219   2.687558   6.048461   6.264601   7.531245
    33  H    4.536563   3.374314   5.269580   5.158762   6.392701
    34  H    3.872376   3.392996   6.621044   6.021764   6.933258
    35  H    3.399601   3.871236   8.958491   8.261947   8.994389
    36  H    2.157649   3.404228  10.451049   9.979731  10.789173
    37  H    1.085925   2.152358  10.067662   9.927445  10.895154
    38  H    2.152007   1.086230   8.057536   8.155611   9.263629
    39  H    8.234449   7.210243   2.160108   1.082699   2.158255
    40  H   10.019352   9.150414   3.384730   2.146361   1.084797
    41  H   11.800352  10.835653   3.850408   3.399063   2.151897
    42  H   12.075817  10.936958   3.385756   3.889963   3.407106
    43  H   10.635153   9.366745   2.149956   3.414797   3.884103
                   21         22         23         24         25
    21  C    0.000000
    22  C    1.396214   0.000000
    23  C    2.418397   1.395456   0.000000
    24  O    5.186757   4.823809   3.649327   0.000000
    25  H    6.011956   5.856060   4.713128   2.422257   0.000000
    26  H    5.407716   5.201554   4.536400   5.446489   4.098018
    27  H    4.525583   3.948033   3.024305   4.289096   3.703195
    28  H    8.113846   7.611541   6.388205   5.102173   3.357054
    29  H    7.071079   6.365453   5.042494   3.892597   2.994217
    30  H    6.221173   6.375389   5.621703   5.041728   2.962080
    31  H    7.417372   7.308810   6.413919   5.837390   3.653444
    32  H    8.445763   8.280660   7.150410   5.178140   2.882701
    33  H    7.487895   7.558341   6.553509   4.409617   2.092469
    34  H    8.197989   8.641792   7.938609   6.267779   4.190637
    35  H   10.257480  10.820190  10.229786   8.743280   6.621932
    36  H   11.937568  12.328118  11.634620  10.222550   7.879185
    37  H   11.889587  12.001106  11.135026   9.743880   7.327438
    38  H   10.163598  10.079703   9.074711   7.601391   5.235117
    39  H    3.406299   3.888901   3.419724   3.165714   3.180222
    40  H    2.157967   3.407267   3.886941   5.264721   5.626407
    41  H    1.083617   2.152248   3.399362   6.232430   7.052181
    42  H    2.156391   1.083689   2.148935   5.688515   6.812457
    43  H    3.407451   2.165257   1.082141   3.814374   4.974762
                   26         27         28         29         30
    26  H    0.000000
    27  H    1.794171   0.000000
    28  H    3.923979   3.981058   0.000000
    29  H    3.958270   3.192172   1.801884   0.000000
    30  H    2.531585   3.556213   3.762543   4.330173   0.000000
    31  H    2.553643   3.736066   2.661141   3.781949   1.760706
    32  H    4.613687   5.054814   2.230827   3.477719   3.069679
    33  H    4.626710   5.000242   3.544196   4.186787   2.493885
    34  H    5.606716   6.476184   5.614249   6.454564   3.079564
    35  H    7.362143   8.559447   7.446106   8.596633   5.005926
    36  H    8.061477   9.452415   7.636009   9.145484   6.044056
    37  H    7.263343   8.588530   6.079478   7.794949   5.676826
    38  H    5.477261   6.515861   3.618576   5.345692   4.079396
    39  H    4.399671   3.946660   6.049383   5.410831   3.778512
    40  H    5.561222   5.198836   8.191039   7.490466   5.520508
    41  H    6.201328   5.446688   9.128030   8.118341   7.065769
    42  H    5.877712   4.577041   8.320581   7.001025   7.303931
    43  H    4.788922   3.073277   6.212361   4.696055   6.088863
                   31         32         33         34         35
    31  H    0.000000
    32  H    2.534261   0.000000
    33  H    3.066299   1.762264   0.000000
    34  H    4.065568   3.680713   2.436821   0.000000
    35  H    5.611376   5.472303   4.714275   2.475867   0.000000
    36  H    5.923951   5.881154   5.863947   4.299583   2.486639
    37  H    4.853327   4.754505   5.479801   4.958265   4.300664
    38  H    2.935611   2.497533   3.706850   4.291675   4.957449
    39  H    5.284700   5.656619   4.353950   5.057754   7.318010
    40  H    7.062062   7.945027   6.655957   6.820611   8.714525
    41  H    8.291176   9.438056   8.443519   8.971197  10.912930
    42  H    8.115591   9.171477   8.551788   9.681193  11.837519
    43  H    6.620106   7.269138   6.903447   8.525209  10.845862
                   36         37         38         39         40
    36  H    0.000000
    37  H    2.488696   0.000000
    38  H    4.298752   2.473193   0.000000
    39  H    9.134574   9.220162   7.549344   0.000000
    40  H   10.644332  10.995041   9.559764   2.482363   0.000000
    41  H   12.634235  12.693337  11.065347   4.298905   2.480882
    42  H   13.281904  12.875940  10.925330   4.972580   4.303437
    43  H   12.100544  11.391389   9.209665   4.302788   4.968890
                   41         42         43
    41  H    0.000000
    42  H    2.482998   0.000000
    43  H    4.304807   2.494174   0.000000
 Symmetry turned off by external request.
 Stoichiometry    C17H19NO4S2
 Framework group  C1[X(C17H19NO4S2)]
 Deg. of freedom   123
 Full point group                 C1      NOp   1
 Rotational constants (GHZ):           0.2925843           0.1193173           0.0991710
 Leave Link  202 at Tue Sep 22 03:17:42 2020, MaxMem=  2147483648 cpu:               0.1 elap:               0.1
 (Enter /prod/apps/gaussian/g16b1/l301.exe)
 Standard basis: 6-31G(d) (6D, 7F)
 Ernie: Thresh=  0.10000D-02 Tol=  0.10000D-05 Strict=F.
   406 basis functions,   796 primitive gaussians,   406 cartesian basis functions
    96 alpha electrons       96 beta electrons
       nuclear repulsion energy      2440.2709661310 Hartrees.
 IExCor=  402 DFT=T Ex+Corr=B3LYP ExCW=0 ScaHFX=  0.200000
 ScaDFX=  0.800000  0.720000  1.000000  0.810000 ScalE2=  1.000000  1.000000
 IRadAn=      5 IRanWt=     -1 IRanGd=            0 ICorTp=0 IEmpDi=  4
 NAtoms=   43 NActive=   43 NUniq=   43 SFac= 1.00D+00 NAtFMM=   60 NAOKFM=F Big=F
 Integral buffers will be    131072 words long.
 Raffenetti 2 integral format.
 Two-electron integral symmetry is turned off.
 Using the following non-standard input for PCM:
 MSTModel=DFT cav
 --- end of non-standard input.
 MST model for solvation energy: B3LYP parametrization.
 MST cavity parameters:
 ISph   IAn     Re0     Alpha   Atom Type   QCorr
 ------------------------------------------------
   1      8     1.40     1.25      O          F
   2     16     1.75     1.25      S          F
   3      7     1.50     1.25      NH         F
   4      6     1.50     1.25      C          F
   5      6     1.50     1.25      CH2        F
   6     16     1.75     1.25      S          F
   7      6     1.50     1.25      CH2        F
   8      8     1.40     1.25      O          F
   9      8     1.40     1.25      O          F
  10      6     1.50     1.25      CH2        F
  11      6     1.50     1.25      CH2        F
  12      6     1.50     1.25      C          F
  13      6     1.50     1.25      CH         F
  14      6     1.50     1.25      CH         F
  15      6     1.50     1.25      CH         F
  16      6     1.50     1.25      CH         F
  17      6     1.50     1.25      CH         F
  18      6     1.50     1.25      C          F
  19      6     1.50     1.25      CH         F
  20      6     1.50     1.25      CH         F
  21      6     1.50     1.25      CH         F
  22      6     1.50     1.25      CH         F
  23      6     1.50     1.25      CH         F
  24      8     1.40     1.25      O          F
  25      1     0.90     1.25      NH         F
  26      1     1.20     1.25      CH2        F
  27      1     1.20     1.25      CH2        F
  28      1     1.20     1.25      CH2        F
  29      1     1.20     1.25      CH2        F
  30      1     1.20     1.25      CH2        F
  31      1     1.20     1.25      CH2        F
  32      1     1.20     1.25      CH2        F
  33      1     1.20     1.25      CH2        F
  34      1     1.20     1.25      CH         F
  35      1     1.20     1.25      CH         F
  36      1     1.20     1.25      CH         F
  37      1     1.20     1.25      CH         F
  38      1     1.20     1.25      CH         F
  39      1     1.20     1.25      CH         F
  40      1     1.20     1.25      CH         F
  41      1     1.20     1.25      CH         F
  42      1     1.20     1.25      CH         F
  43      1     1.20     1.25      CH         F
 ------------------------------------------------------------------------------
 Polarizable Continuum Model (PCM)
 =================================
 Model                : PCM.
 Atomic radii         : MST.
 Polarization charges : Total charges.
 Charge compensation  : None.
 Solution method      : On-the-fly selection.
 Cavity type          : Scaled VdW (van der Waals Surface) (Alpha=1.250).
 Cavity algorithm     : GePol (No added spheres)
                        Default sphere list used, NSphG=   43.
                        Lebedev-Laikov grids with approx.  5.0 points / Ang**2.
                        Smoothing algorithm: York/Karplus (Gamma=1.0000).
                        Polarization charges: spherical gaussians, with
                                              point-specific exponents (IZeta= 3).
                        Self-potential: point-specific (ISelfS= 7).
                        Self-field    : sphere-specific E.n sum rule (ISelfD= 2).
 1st derivatives      : Analytical E(r).r(x)/FMM algorithm (CHGder, D1EAlg=3).
                        Cavity 1st derivative terms included.
 Solvent              : Water, Eps=  78.355300 Eps(inf)=   1.777849
 ------------------------------------------------------------------------------
 GePol: Number of generator spheres                  =      43
 GePol: Total number of spheres                      =      43
 GePol: Number of exposed spheres                    =      43 (100.00%)
 GePol: Number of points                             =    3122
 GePol: Average weight of points                     =       0.13
 GePol: Minimum weight of points                     =   0.12D-09
 GePol: Maximum weight of points                     =    0.22001
 GePol: Number of points with low weight             =     231
 GePol: Fraction of low-weight points (<1% of avg)   =       7.40%
 GePol: Cavity surface area                          =    408.236 Ang**2
 GePol: Cavity volume                                =    405.425 Ang**3
 PCM non-electrostatic energy =         0.0031565860 Hartrees.
 Nuclear repulsion after PCM non-electrostatic terms =     2440.2741227170 Hartrees.
 Leave Link  301 at Tue Sep 22 03:17:42 2020, MaxMem=  2147483648 cpu:               0.4 elap:               0.1
 (Enter /prod/apps/gaussian/g16b1/l302.exe)
 NPDir=0 NMtPBC=     1 NCelOv=     1 NCel=       1 NClECP=     1 NCelD=      1
         NCelK=      1 NCelE2=     1 NClLst=     1 CellRange=     0.0.
 One-electron integrals computed using PRISM.
 NBasis=   406 RedAO= T EigKep=  4.68D-04  NBF=   406
 NBsUse=   406 1.00D-06 EigRej= -1.00D+00 NBFU=   406
 Precomputing XC quadrature grid using
 IXCGrd= 4 IRadAn=           5 IRanWt=          -1 IRanGd=           0 AccXCQ= 0.00D+00.
 Generated NRdTot=       0 NPtTot=           0 NUsed=           0 NTot=          32
 NSgBfM=   402   402   402   402   402 MxSgAt=    43 MxSgA2=    43.
 Leave Link  302 at Tue Sep 22 03:17:43 2020, MaxMem=  2147483648 cpu:               2.8 elap:               0.7
 (Enter /prod/apps/gaussian/g16b1/l303.exe)
 DipDrv:  MaxL=1.
 Leave Link  303 at Tue Sep 22 03:17:43 2020, MaxMem=  2147483648 cpu:               0.2 elap:               0.1
 (Enter /prod/apps/gaussian/g16b1/l401.exe)
 ExpMin= 1.17D-01 ExpMax= 2.19D+04 ExpMxC= 3.30D+03 IAcc=3 IRadAn=         5 AccDes= 0.00D+00
 Harris functional with IExCor=  402 and IRadAn=       5 diagonalized for initial guess.
 HarFok:  IExCor=  402 AccDes= 0.00D+00 IRadAn=         5 IDoV= 1 UseB2=F ITyADJ=14
 ICtDFT=  3500011 ScaDFX=  1.000000  1.000000  1.000000  1.000000
 FoFCou: FMM=F IPFlag=           0 FMFlag=      100000 FMFlg1=           0
         NFxFlg=           0 DoJE=T BraDBF=F KetDBF=T FulRan=T
         wScrn=  0.000000 ICntrl=       500 IOpCl=  0 I1Cent=   200000004 NGrid=           0
         NMat0=    1 NMatS0=      1 NMatT0=    0 NMatD0=    1 NMtDS0=    0 NMtDT0=    0
 Symmetry not used in FoFCou.
 Harris En= -1811.21566785319    
 JPrj=0 DoOrth=F DoCkMO=F.
 Leave Link  401 at Tue Sep 22 03:17:47 2020, MaxMem=  2147483648 cpu:              15.4 elap:               3.9
 (Enter /prod/apps/gaussian/g16b1/l502.exe)
 Two-electron integral symmetry not used.
 Closed shell SCF:
 Using DIIS extrapolation, IDIIS=  1040.
 NGot=  2147483648 LenX=  2147148011 LenY=  2146982734
 Requested convergence on RMS density matrix=1.00D-08 within2000 cycles.
 Requested convergence on MAX density matrix=1.00D-06.
 Requested convergence on             energy=1.00D-06.
 No special actions if energy rises.

 Cycle   1  Pass 1  IDiag  1:
 FoFJK:  IHMeth= 1 ICntrl=       0 DoSepK=F KAlg= 0 I1Cent=           0 FoldK=F
 IRaf= 720000000 NMat=       1 IRICut=       1 DoRegI=T DoRafI=F ISym2E= 0 IDoP0=0 IntGTp=1.
 FoFCou: FMM=F IPFlag=           0 FMFlag=      100000 FMFlg1=           0
         NFxFlg=           0 DoJE=F BraDBF=F KetDBF=F FulRan=T
         wScrn=  0.000000 ICntrl=         0 IOpCl=  0 I1Cent=           0 NGrid=           0
         NMat0=    1 NMatS0=      1 NMatT0=    0 NMatD0=    1 NMtDS0=    0 NMtDT0=    0
 Symmetry not used in FoFCou.
 Inv3:  Mode=1 IEnd=    29240652.
 Iteration    1 A*A^-1 deviation from unit magnitude is 3.77D-15 for    218.
 Iteration    1 A*A^-1 deviation from orthogonality  is 3.55D-15 for   2653    341.
 Iteration    1 A^-1*A deviation from unit magnitude is 3.77D-15 for    218.
 Iteration    1 A^-1*A deviation from orthogonality  is 3.47D-12 for   2640   2633.
 E= -1810.29535875012    
 DIIS: error= 2.86D-02 at cycle   1 NSaved=   1.
 NSaved= 1 IEnMin= 1 EnMin= -1810.29535875012     IErMin= 1 ErrMin= 2.86D-02
 ErrMax= 2.86D-02  0.00D+00 EMaxC= 1.00D-01 BMatC= 9.91D-01 BMatP= 9.91D-01
 IDIUse=3 WtCom= 7.14D-01 WtEn= 2.86D-01
 Coeff-Com:  0.100D+01
 Coeff-En:   0.100D+01
 Coeff:      0.100D+01
 Gap=     0.271 Goal=   None    Shift=    0.000
 GapD=    0.271 DampG=1.000 DampE=0.500 DampFc=0.5000 IDamp=-1.
 Damping current iteration by 5.00D-01
 RMSDP=5.99D-03 MaxDP=5.61D-01              OVMax= 2.31D-01

 Cycle   2  Pass 1  IDiag  1:
 E= -1810.52561795762     Delta-E=       -0.230259207494 Rises=F Damp=T
 DIIS: error= 1.28D-02 at cycle   2 NSaved=   2.
 NSaved= 2 IEnMin= 2 EnMin= -1810.52561795762     IErMin= 2 ErrMin= 1.28D-02
 ErrMax= 1.28D-02  0.00D+00 EMaxC= 1.00D-01 BMatC= 1.37D-01 BMatP= 9.91D-01
 IDIUse=3 WtCom= 8.72D-01 WtEn= 1.28D-01
 Coeff-Com:  0.219D+00 0.781D+00
 Coeff-En:   0.350D+00 0.650D+00
 Coeff:      0.236D+00 0.764D+00
 Gap=     0.238 Goal=   None    Shift=    0.000
 RMSDP=1.69D-03 MaxDP=1.28D-01 DE=-2.30D-01 OVMax= 1.85D-01

 Cycle   3  Pass 1  IDiag  1:
 E= -1811.07988356180     Delta-E=       -0.554265604180 Rises=F Damp=F
 DIIS: error= 8.39D-03 at cycle   3 NSaved=   3.
 NSaved= 3 IEnMin= 3 EnMin= -1811.07988356180     IErMin= 3 ErrMin= 8.39D-03
 ErrMax= 8.39D-03  0.00D+00 EMaxC= 1.00D-01 BMatC= 7.59D-02 BMatP= 1.37D-01
 IDIUse=3 WtCom= 9.16D-01 WtEn= 8.39D-02
 Coeff-Com:  0.726D-01 0.433D+00 0.494D+00
 Coeff-En:   0.000D+00 0.000D+00 0.100D+01
 Coeff:      0.665D-01 0.397D+00 0.537D+00
 Gap=     0.204 Goal=   None    Shift=    0.000
 RMSDP=9.59D-04 MaxDP=3.13D-02 DE=-5.54D-01 OVMax= 6.31D-02

 Cycle   4  Pass 1  IDiag  1:
 E= -1811.14210321793     Delta-E=       -0.062219656131 Rises=F Damp=F
 DIIS: error= 2.92D-03 at cycle   4 NSaved=   4.
 NSaved= 4 IEnMin= 4 EnMin= -1811.14210321793     IErMin= 4 ErrMin= 2.92D-03
 ErrMax= 2.92D-03  0.00D+00 EMaxC= 1.00D-01 BMatC= 9.42D-03 BMatP= 7.59D-02
 IDIUse=3 WtCom= 9.71D-01 WtEn= 2.92D-02
 Coeff-Com:  0.368D-02 0.781D-01 0.279D+00 0.639D+00
 Coeff-En:   0.000D+00 0.000D+00 0.926D-01 0.907D+00
 Coeff:      0.357D-02 0.758D-01 0.274D+00 0.647D+00
 Gap=     0.204 Goal=   None    Shift=    0.000
 RMSDP=2.98D-04 MaxDP=1.34D-02 DE=-6.22D-02 OVMax= 1.90D-02

 Cycle   5  Pass 1  IDiag  1:
 E= -1811.15014796358     Delta-E=       -0.008044745651 Rises=F Damp=F
 DIIS: error= 8.77D-04 at cycle   5 NSaved=   5.
 NSaved= 5 IEnMin= 5 EnMin= -1811.15014796358     IErMin= 5 ErrMin= 8.77D-04
 ErrMax= 8.77D-04  0.00D+00 EMaxC= 1.00D-01 BMatC= 6.45D-04 BMatP= 9.42D-03
 IDIUse=3 WtCom= 9.91D-01 WtEn= 8.77D-03
 Coeff-Com: -0.264D-02 0.147D-01 0.105D+00 0.326D+00 0.557D+00
 Coeff-En:   0.000D+00 0.000D+00 0.000D+00 0.000D+00 0.100D+01
 Coeff:     -0.262D-02 0.146D-01 0.104D+00 0.323D+00 0.561D+00
 Gap=     0.203 Goal=   None    Shift=    0.000
 RMSDP=8.18D-05 MaxDP=5.68D-03 DE=-8.04D-03 OVMax= 5.48D-03

 Cycle   6  Pass 1  IDiag  1:
 E= -1811.15072410142     Delta-E=       -0.000576137839 Rises=F Damp=F
 DIIS: error= 2.12D-04 at cycle   6 NSaved=   6.
 NSaved= 6 IEnMin= 6 EnMin= -1811.15072410142     IErMin= 6 ErrMin= 2.12D-04
 ErrMax= 2.12D-04  0.00D+00 EMaxC= 1.00D-01 BMatC= 4.66D-05 BMatP= 6.45D-04
 IDIUse=3 WtCom= 9.98D-01 WtEn= 2.12D-03
 Coeff-Com: -0.159D-02 0.259D-02 0.343D-01 0.118D+00 0.287D+00 0.560D+00
 Coeff-En:   0.000D+00 0.000D+00 0.000D+00 0.000D+00 0.000D+00 0.100D+01
 Coeff:     -0.159D-02 0.259D-02 0.343D-01 0.118D+00 0.286D+00 0.561D+00
 Gap=     0.204 Goal=   None    Shift=    0.000
 RMSDP=2.03D-05 MaxDP=1.10D-03 DE=-5.76D-04 OVMax= 1.35D-03

 Cycle   7  Pass 1  IDiag  1:
 E= -1811.15076155704     Delta-E=       -0.000037455623 Rises=F Damp=F
 DIIS: error= 7.32D-05 at cycle   7 NSaved=   7.
 NSaved= 7 IEnMin= 7 EnMin= -1811.15076155704     IErMin= 7 ErrMin= 7.32D-05
 ErrMax= 7.32D-05  0.00D+00 EMaxC= 1.00D-01 BMatC= 5.17D-06 BMatP= 4.66D-05
 IDIUse=1 WtCom= 1.00D+00 WtEn= 0.00D+00
 Coeff-Com: -0.673D-03 0.121D-03 0.987D-02 0.373D-01 0.113D+00 0.316D+00
 Coeff-Com:  0.525D+00
 Coeff:     -0.673D-03 0.121D-03 0.987D-02 0.373D-01 0.113D+00 0.316D+00
 Coeff:      0.525D+00
 Gap=     0.204 Goal=   None    Shift=    0.000
 RMSDP=6.71D-06 MaxDP=4.82D-04 DE=-3.75D-05 OVMax= 4.22D-04

 Cycle   8  Pass 1  IDiag  1:
 E= -1811.15076561253     Delta-E=       -0.000004055492 Rises=F Damp=F
 DIIS: error= 2.86D-05 at cycle   8 NSaved=   8.
 NSaved= 8 IEnMin= 8 EnMin= -1811.15076561253     IErMin= 8 ErrMin= 2.86D-05
 ErrMax= 2.86D-05  0.00D+00 EMaxC= 1.00D-01 BMatC= 5.08D-07 BMatP= 5.17D-06
 IDIUse=1 WtCom= 1.00D+00 WtEn= 0.00D+00
 Coeff-Com: -0.208D-03-0.208D-03 0.157D-02 0.728D-02 0.309D-01 0.112D+00
 Coeff-Com:  0.289D+00 0.559D+00
 Coeff:     -0.208D-03-0.208D-03 0.157D-02 0.728D-02 0.309D-01 0.112D+00
 Coeff:      0.289D+00 0.559D+00
 Gap=     0.204 Goal=   None    Shift=    0.000
 RMSDP=2.09D-06 MaxDP=1.37D-04 DE=-4.06D-06 OVMax= 1.41D-04

 Cycle   9  Pass 1  IDiag  1:
 E= -1811.15076595970     Delta-E=       -0.000000347165 Rises=F Damp=F
 DIIS: error= 8.19D-06 at cycle   9 NSaved=   9.
 NSaved= 9 IEnMin= 9 EnMin= -1811.15076595970     IErMin= 9 ErrMin= 8.19D-06
 ErrMax= 8.19D-06  0.00D+00 EMaxC= 1.00D-01 BMatC= 6.03D-08 BMatP= 5.08D-07
 IDIUse=1 WtCom= 1.00D+00 WtEn= 0.00D+00
 Coeff-Com: -0.275D-04-0.109D-03-0.466D-03-0.104D-02 0.181D-02 0.186D-01
 Coeff-Com:  0.883D-01 0.308D+00 0.585D+00
 Coeff:     -0.275D-04-0.109D-03-0.466D-03-0.104D-02 0.181D-02 0.186D-01
 Coeff:      0.883D-01 0.308D+00 0.585D+00
 Gap=     0.204 Goal=   None    Shift=    0.000
 RMSDP=6.55D-07 MaxDP=3.98D-05 DE=-3.47D-07 OVMax= 3.44D-05

 Cycle  10  Pass 1  IDiag  1:
 E= -1811.15076600786     Delta-E=       -0.000000048160 Rises=F Damp=F
 DIIS: error= 1.83D-06 at cycle  10 NSaved=  10.
 NSaved=10 IEnMin=10 EnMin= -1811.15076600786     IErMin=10 ErrMin= 1.83D-06
 ErrMax= 1.83D-06  0.00D+00 EMaxC= 1.00D-01 BMatC= 3.03D-09 BMatP= 6.03D-08
 IDIUse=1 WtCom= 1.00D+00 WtEn= 0.00D+00
 Coeff-Com: -0.675D-05-0.391D-04-0.314D-03-0.868D-03-0.516D-03 0.410D-02
 Coeff-Com:  0.316D-01 0.129D+00 0.295D+00 0.542D+00
 Coeff:     -0.675D-05-0.391D-04-0.314D-03-0.868D-03-0.516D-03 0.410D-02
 Coeff:      0.316D-01 0.129D+00 0.295D+00 0.542D+00
 Gap=     0.204 Goal=   None    Shift=    0.000
 RMSDP=1.80D-07 MaxDP=1.00D-05 DE=-4.82D-08 OVMax= 9.38D-06

 Cycle  11  Pass 1  IDiag  1:
 E= -1811.15076600997     Delta-E=       -0.000000002109 Rises=F Damp=F
 DIIS: error= 1.01D-06 at cycle  11 NSaved=  11.
 NSaved=11 IEnMin=11 EnMin= -1811.15076600997     IErMin=11 ErrMin= 1.01D-06
 ErrMax= 1.01D-06  0.00D+00 EMaxC= 1.00D-01 BMatC= 6.08D-10 BMatP= 3.03D-09
 IDIUse=1 WtCom= 1.00D+00 WtEn= 0.00D+00
 Coeff-Com: -0.730D-06-0.198D-05-0.117D-03-0.356D-03-0.661D-03-0.836D-03
 Coeff-Com:  0.370D-02 0.242D-01 0.768D-01 0.325D+00 0.572D+00
 Coeff:     -0.730D-06-0.198D-05-0.117D-03-0.356D-03-0.661D-03-0.836D-03
 Coeff:      0.370D-02 0.242D-01 0.768D-01 0.325D+00 0.572D+00
 Gap=     0.204 Goal=   None    Shift=    0.000
 RMSDP=6.93D-08 MaxDP=4.35D-06 DE=-2.11D-09 OVMax= 4.27D-06

 Cycle  12  Pass 1  IDiag  1:
 E= -1811.15076601043     Delta-E=       -0.000000000467 Rises=F Damp=F
 DIIS: error= 3.16D-07 at cycle  12 NSaved=  12.
 NSaved=12 IEnMin=12 EnMin= -1811.15076601043     IErMin=12 ErrMin= 3.16D-07
 ErrMax= 3.16D-07  0.00D+00 EMaxC= 1.00D-01 BMatC= 5.90D-11 BMatP= 6.08D-10
 IDIUse=1 WtCom= 1.00D+00 WtEn= 0.00D+00
 Coeff-Com: -0.104D-06 0.288D-05-0.382D-04-0.119D-03-0.327D-03-0.854D-03
 Coeff-Com: -0.905D-03 0.116D-02 0.139D-01 0.121D+00 0.314D+00 0.552D+00
 Coeff:     -0.104D-06 0.288D-05-0.382D-04-0.119D-03-0.327D-03-0.854D-03
 Coeff:     -0.905D-03 0.116D-02 0.139D-01 0.121D+00 0.314D+00 0.552D+00
 Gap=     0.204 Goal=   None    Shift=    0.000
 RMSDP=2.22D-08 MaxDP=1.91D-06 DE=-4.67D-10 OVMax= 1.72D-06

 Cycle  13  Pass 1  IDiag  1:
 E= -1811.15076601047     Delta-E=       -0.000000000033 Rises=F Damp=F
 DIIS: error= 7.08D-08 at cycle  13 NSaved=  13.
 NSaved=13 IEnMin=13 EnMin= -1811.15076601047     IErMin=13 ErrMin= 7.08D-08
 ErrMax= 7.08D-08  0.00D+00 EMaxC= 1.00D-01 BMatC= 3.90D-12 BMatP= 5.90D-11
 IDIUse=1 WtCom= 1.00D+00 WtEn= 0.00D+00
 Coeff-Com: -0.175D-07 0.174D-05-0.583D-05-0.191D-04-0.914D-04-0.344D-03
 Coeff-Com: -0.943D-03-0.233D-02-0.216D-02 0.201D-01 0.883D-01 0.263D+00
 Coeff-Com:  0.634D+00
 Coeff:     -0.175D-07 0.174D-05-0.583D-05-0.191D-04-0.914D-04-0.344D-03
 Coeff:     -0.943D-03-0.233D-02-0.216D-02 0.201D-01 0.883D-01 0.263D+00
 Coeff:      0.634D+00
 Gap=     0.204 Goal=   None    Shift=    0.000
 RMSDP=6.13D-09 MaxDP=2.59D-07 DE=-3.27D-11 OVMax= 6.00D-07

 Error on total polarization charges =  0.02263
 SCF Done:  E(RB3LYP) =  -1811.15076601     A.U. after   13 cycles
            NFock= 13  Conv=0.61D-08     -V/T= 2.0069
 KE= 1.798651393434D+03 PE=-9.130187483573D+03 EE= 3.080111201411D+03
 Leave Link  502 at Tue Sep 22 03:19:55 2020, MaxMem=  2147483648 cpu:             509.7 elap:             127.5
 (Enter /prod/apps/gaussian/g16b1/l601.exe)
 Copying SCF densities to generalized density rwf, IOpCl= 0 IROHF=0.

 **********************************************************************

            Population analysis using the SCF Density.

 **********************************************************************

 Alpha  occ. eigenvalues --  -89.13025 -89.09851 -19.16158 -19.15914 -19.15632
 Alpha  occ. eigenvalues --  -19.15434 -14.37833 -10.27790 -10.23522 -10.23123
 Alpha  occ. eigenvalues --  -10.22558 -10.21548 -10.21480 -10.20781 -10.20655
 Alpha  occ. eigenvalues --  -10.20628 -10.20142 -10.19866 -10.19503 -10.19023
 Alpha  occ. eigenvalues --  -10.19012 -10.18873 -10.18849 -10.18836  -8.15518
 Alpha  occ. eigenvalues --   -8.12928  -6.12028  -6.11961  -6.11791  -6.09377
 Alpha  occ. eigenvalues --   -6.09278  -6.09179  -1.12657  -1.10767  -1.01625
 Alpha  occ. eigenvalues --   -1.00504  -0.94940  -0.87834  -0.86003  -0.85508
 Alpha  occ. eigenvalues --   -0.79575  -0.78249  -0.76538  -0.74357  -0.74101
 Alpha  occ. eigenvalues --   -0.72349  -0.69294  -0.66521  -0.62710  -0.62132
 Alpha  occ. eigenvalues --   -0.60533  -0.60304  -0.58164  -0.57280  -0.55073
 Alpha  occ. eigenvalues --   -0.53450  -0.52392  -0.51009  -0.49896  -0.49654
 Alpha  occ. eigenvalues --   -0.49103  -0.47919  -0.46937  -0.46131  -0.46005
 Alpha  occ. eigenvalues --   -0.45840  -0.45106  -0.44753  -0.44000  -0.43818
 Alpha  occ. eigenvalues --   -0.42712  -0.41872  -0.41696  -0.40340  -0.39238
 Alpha  occ. eigenvalues --   -0.38702  -0.38207  -0.37589  -0.36335  -0.35978
 Alpha  occ. eigenvalues --   -0.35960  -0.34977  -0.33866  -0.33680  -0.33517
 Alpha  occ. eigenvalues --   -0.33161  -0.32656  -0.32485  -0.31869  -0.31022
 Alpha  occ. eigenvalues --   -0.30151  -0.28319  -0.27065  -0.26608  -0.25210
 Alpha  occ. eigenvalues --   -0.24479
 Alpha virt. eigenvalues --   -0.04111  -0.01976  -0.00340  -0.00281   0.03231
 Alpha virt. eigenvalues --    0.04554   0.05272   0.05605   0.06188   0.07114
 Alpha virt. eigenvalues --    0.08305   0.08812   0.09737   0.10869   0.11214
 Alpha virt. eigenvalues --    0.11928   0.12089   0.13387   0.13998   0.14647
 Alpha virt. eigenvalues --    0.15119   0.15488   0.16032   0.16407   0.16857
 Alpha virt. eigenvalues --    0.17363   0.18448   0.18883   0.19149   0.19198
 Alpha virt. eigenvalues --    0.19795   0.20027   0.20568   0.21067   0.23787
 Alpha virt. eigenvalues --    0.25124   0.25650   0.27450   0.28209   0.28405
 Alpha virt. eigenvalues --    0.29185   0.30489   0.30802   0.31546   0.32640
 Alpha virt. eigenvalues --    0.33836   0.34223   0.34399   0.35226   0.35844
 Alpha virt. eigenvalues --    0.37985   0.40500   0.42970   0.44027   0.45470
 Alpha virt. eigenvalues --    0.46085   0.48005   0.49731   0.50244   0.50920
 Alpha virt. eigenvalues --    0.51974   0.52460   0.52858   0.53243   0.54620
 Alpha virt. eigenvalues --    0.54992   0.55230   0.55645   0.56394   0.57181
 Alpha virt. eigenvalues --    0.57913   0.58500   0.58836   0.59312   0.59574
 Alpha virt. eigenvalues --    0.59675   0.59830   0.60019   0.60564   0.61004
 Alpha virt. eigenvalues --    0.61156   0.61405   0.62030   0.62713   0.63538
 Alpha virt. eigenvalues --    0.64169   0.65152   0.66526   0.66929   0.68960
 Alpha virt. eigenvalues --    0.69558   0.70360   0.71960   0.73379   0.74017
 Alpha virt. eigenvalues --    0.76017   0.77025   0.77577   0.79303   0.79732
 Alpha virt. eigenvalues --    0.80553   0.81466   0.82172   0.82576   0.83469
 Alpha virt. eigenvalues --    0.83600   0.83938   0.84252   0.84394   0.84700
 Alpha virt. eigenvalues --    0.85903   0.86186   0.86627   0.86776   0.87141
 Alpha virt. eigenvalues --    0.87980   0.88473   0.89835   0.91050   0.91300
 Alpha virt. eigenvalues --    0.92051   0.92578   0.92996   0.93380   0.94006
 Alpha virt. eigenvalues --    0.94543   0.94779   0.95231   0.97297   0.99262
 Alpha virt. eigenvalues --    0.99970   1.00486   1.00868   1.01840   1.01941
 Alpha virt. eigenvalues --    1.02820   1.03923   1.05042   1.05383   1.06065
 Alpha virt. eigenvalues --    1.08395   1.08774   1.09925   1.10911   1.12291
 Alpha virt. eigenvalues --    1.12837   1.13241   1.14279   1.15720   1.16462
 Alpha virt. eigenvalues --    1.17186   1.17905   1.19282   1.20401   1.21984
 Alpha virt. eigenvalues --    1.22802   1.23590   1.25859   1.26357   1.27893
 Alpha virt. eigenvalues --    1.30672   1.31162   1.34305   1.35672   1.36922
 Alpha virt. eigenvalues --    1.39730   1.41819   1.41993   1.42215   1.42524
 Alpha virt. eigenvalues --    1.43246   1.45461   1.46934   1.47374   1.48199
 Alpha virt. eigenvalues --    1.48333   1.48970   1.49006   1.50246   1.50824
 Alpha virt. eigenvalues --    1.51329   1.54183   1.60783   1.63201   1.65633
 Alpha virt. eigenvalues --    1.68321   1.70785   1.72873   1.73384   1.74923
 Alpha virt. eigenvalues --    1.76735   1.77070   1.77901   1.78619   1.78842
 Alpha virt. eigenvalues --    1.79810   1.80125   1.80358   1.80637   1.81110
 Alpha virt. eigenvalues --    1.81320   1.82384   1.84088   1.86388   1.86728
 Alpha virt. eigenvalues --    1.87401   1.87880   1.89694   1.90297   1.91057
 Alpha virt. eigenvalues --    1.92661   1.92988   1.94366   1.95152   1.96866
 Alpha virt. eigenvalues --    1.97805   1.98501   1.99330   2.00737   2.02372
 Alpha virt. eigenvalues --    2.03384   2.03678   2.04992   2.05706   2.06529
 Alpha virt. eigenvalues --    2.09003   2.09163   2.09793   2.11546   2.12443
 Alpha virt. eigenvalues --    2.13331   2.13672   2.13992   2.14189   2.14792
 Alpha virt. eigenvalues --    2.15858   2.16447   2.17415   2.19225   2.22403
 Alpha virt. eigenvalues --    2.22758   2.23980   2.26058   2.27247   2.28460
 Alpha virt. eigenvalues --    2.28690   2.29006   2.30435   2.30790   2.32016
 Alpha virt. eigenvalues --    2.34884   2.36379   2.39239   2.41112   2.42415
 Alpha virt. eigenvalues --    2.45736   2.50232   2.52544   2.55800   2.57098
 Alpha virt. eigenvalues --    2.57921   2.59516   2.63094   2.65148   2.66099
 Alpha virt. eigenvalues --    2.68165   2.70035   2.70609   2.71440   2.72038
 Alpha virt. eigenvalues --    2.72332   2.73400   2.73899   2.74405   2.75269
 Alpha virt. eigenvalues --    2.76731   2.77356   2.78795   2.81014   2.83156
 Alpha virt. eigenvalues --    2.85450   2.94613   3.01920   3.04978   3.36793
 Alpha virt. eigenvalues --    3.40921   3.74217   3.79323   3.94035   3.97638
 Alpha virt. eigenvalues --    3.99548   4.05633   4.07715   4.08978   4.10531
 Alpha virt. eigenvalues --    4.11396   4.12316   4.14307   4.15963   4.21748
 Alpha virt. eigenvalues --    4.25259   4.32415   4.32787   4.33726   4.36944
 Alpha virt. eigenvalues --    4.41017   4.52845   4.64948   4.70330   4.74612
          Condensed to atoms (all electrons):
               1          2          3          4          5          6
     1  O    8.329343   0.380423  -0.052158   0.005555  -0.004988   0.003149
     2  S    0.380423  13.709332   0.114962  -0.002171  -0.002534   0.000806
     3  N   -0.052158   0.114962   7.393594   0.246490  -0.036184   0.001561
     4  C    0.005555  -0.002171   0.246490   4.864143   0.333619  -0.094056
     5  C   -0.004988  -0.002534  -0.036184   0.333619   5.700538   0.147526
     6  S    0.003149   0.000806   0.001561  -0.094056   0.147526  13.854219
     7  C   -0.007374  -0.006528  -0.053896   0.344081  -0.184359   0.147182
     8  O   -0.000129  -0.000129  -0.000103   0.002367  -0.045500   0.432080
     9  O    0.000000   0.000007  -0.000042   0.000673  -0.045280   0.410515
    10  C    0.000102   0.000638  -0.053179   0.335424  -0.043870   0.006335
    11  C   -0.000001  -0.000098  -0.004547  -0.030915   0.003815  -0.000423
    12  C    0.000000   0.000002   0.000199   0.003744  -0.000086  -0.000008
    13  C   -0.000000  -0.000000  -0.000004   0.000078  -0.000002  -0.000000
    14  C   -0.000000   0.000000  -0.000000   0.000002  -0.000000   0.000000
    15  C    0.000000  -0.000000   0.000000  -0.000000   0.000000   0.000000
    16  C   -0.000000   0.000000  -0.000000   0.000002  -0.000000  -0.000000
    17  C   -0.000000   0.000000  -0.000002   0.000100  -0.000004  -0.000022
    18  C   -0.060167   0.190497  -0.051295  -0.003221   0.000412  -0.000010
    19  C    0.001516  -0.022133  -0.001076   0.000063   0.000308   0.000024
    20  C   -0.000046   0.002003   0.000175  -0.000009   0.000057   0.000000
    21  C   -0.000004  -0.000440   0.000011   0.000001   0.000010   0.000000
    22  C    0.000565   0.003311  -0.000110   0.000004  -0.000082  -0.000004
    23  C    0.002410  -0.037370   0.001753   0.000101  -0.001632  -0.000013
    24  O   -0.043188   0.464868  -0.057632   0.001801  -0.000069   0.000011
    25  H   -0.000340  -0.010117   0.292565  -0.024399   0.004084  -0.000206
    26  H    0.000114   0.000057   0.001300  -0.026677   0.346968  -0.011449
    27  H    0.003601   0.009953  -0.006067  -0.021880   0.324584  -0.003652
    28  H    0.000170   0.000225   0.001665  -0.026509   0.009132  -0.011065
    29  H    0.013062   0.001401  -0.005090  -0.020891   0.003696  -0.003436
    30  H    0.000003  -0.000172  -0.000687  -0.029791  -0.005711  -0.000256
    31  H    0.000002   0.000055   0.004367  -0.031559  -0.006176   0.008151
    32  H    0.000001  -0.000037  -0.000623  -0.003922   0.000070   0.000025
    33  H    0.000003   0.000071   0.003718  -0.007208  -0.000057  -0.000016
    34  H    0.000000   0.000000   0.000003  -0.000047   0.000000  -0.000000
    35  H   -0.000000  -0.000000  -0.000000  -0.000000   0.000000  -0.000000
    36  H    0.000000   0.000000   0.000000   0.000000  -0.000000   0.000000
    37  H   -0.000000  -0.000000  -0.000000  -0.000000   0.000000  -0.000000
    38  H    0.000000  -0.000000   0.000000  -0.000062   0.000002   0.000007
    39  H    0.000050  -0.003133   0.007831   0.000066  -0.000086   0.000002
    40  H    0.000000  -0.000077  -0.000001   0.000000  -0.000000   0.000000
    41  H   -0.000000   0.000007   0.000000  -0.000000   0.000000  -0.000000
    42  H    0.000002  -0.000083   0.000000   0.000000  -0.000001  -0.000000
    43  H    0.011911  -0.007096   0.000223  -0.000006  -0.000108   0.000041
               7          8          9         10         11         12
     1  O   -0.007374  -0.000129   0.000000   0.000102  -0.000001   0.000000
     2  S   -0.006528  -0.000129   0.000007   0.000638  -0.000098   0.000002
     3  N   -0.053896  -0.000103  -0.000042  -0.053179  -0.004547   0.000199
     4  C    0.344081   0.002367   0.000673   0.335424  -0.030915   0.003744
     5  C   -0.184359  -0.045500  -0.045280  -0.043870   0.003815  -0.000086
     6  S    0.147182   0.432080   0.410515   0.006335  -0.000423  -0.000008
     7  C    5.715335  -0.044442  -0.045508  -0.058410  -0.007327   0.000040
     8  O   -0.044442   8.258326  -0.045339  -0.000057   0.000000  -0.000000
     9  O   -0.045508  -0.045339   8.293002  -0.002839   0.000032   0.000000
    10  C   -0.058410  -0.000057  -0.002839   5.156000   0.348923  -0.038492
    11  C   -0.007327   0.000000   0.000032   0.348923   5.181849   0.351809
    12  C    0.000040  -0.000000   0.000000  -0.038492   0.351809   4.654799
    13  C   -0.000003  -0.000000  -0.000000  -0.003289  -0.057516   0.546562
    14  C   -0.000000  -0.000000  -0.000000  -0.000061   0.006762  -0.021919
    15  C    0.000000   0.000000   0.000000   0.000015   0.000340  -0.034292
    16  C    0.000000  -0.000000  -0.000000  -0.000033   0.006623  -0.021464
[...]
     7  C    0.260564   0.062800   0.010130  -0.059056  -0.048991  -0.078438
     8  O    0.000336  -0.001429  -0.000034  -0.000022   0.011661   0.000102
     9  O   -0.003048   0.000733  -0.000384   0.000496  -0.000836   0.000106
    10  C   -0.727717  -0.061424  -0.084375   0.093544  -0.185234   0.126052
    11  C   -0.137581  -0.029465  -0.010009   0.017003   0.018117   0.026851
    12  C    0.039890   0.002466   0.002448  -0.002845   0.015336  -0.011249
    13  C   -0.020350  -0.004177  -0.002139   0.001148  -0.001642   0.000281
    14  C   -0.001402  -0.000697  -0.000071  -0.000001  -0.000083  -0.000254
    15  C   -0.000227  -0.000262  -0.000076   0.000046  -0.000099   0.000013
    16  C    0.001250   0.000296   0.000110  -0.000108   0.000269   0.000074
    17  C   -0.002132  -0.001341  -0.000205   0.000207   0.000308   0.001080
    18  C   -9.260211   3.366185  -4.897559   3.937425  -6.824781   0.370417
    19  C   20.692507  -6.240339   4.456944  -5.307884   2.555421  -0.273379
    20  C   -6.240339  13.225798  -4.174196   4.411476  -4.775625  -0.022614
    21  C    4.456944  -4.174196  10.623825  -4.361134   4.070765  -0.021270
    22  C   -5.307884   4.411476  -4.361134  12.710369  -5.388004   0.042671
    23  C    2.555421  -4.775625   4.070765  -5.388004  17.783666   0.088418
    24  O   -0.273379  -0.022614  -0.021270   0.042671   0.088418   9.346949
    25  H   -0.059821   0.019678   0.005134  -0.012215  -0.008617   0.040925
    26  H    0.052475  -0.006963   0.007309  -0.011577   0.044067  -0.005734
    27  H    0.049184  -0.028083   0.056327  -0.037947  -0.035360   0.014124
    28  H    0.021633   0.002204   0.001683  -0.004180   0.005405  -0.003501
    29  H   -0.010445   0.003981  -0.004015   0.004632  -0.032432  -0.013652
    30  H   -0.044351  -0.009728  -0.001548  -0.003211  -0.001507   0.003375
    31  H    0.004751   0.005890  -0.002880   0.002737  -0.013093   0.002368
    32  H   -0.003864  -0.003274  -0.000342   0.001274   0.000666   0.004733
    33  H    0.002555  -0.004303  -0.001548   0.002346   0.003746   0.003353
    34  H   -0.003796   0.003992  -0.000195   0.000244  -0.000365  -0.000031
    35  H    0.000091  -0.000155   0.000008  -0.000018   0.000061  -0.000015
    36  H   -0.000003  -0.000005  -0.000002   0.000001  -0.000002   0.000000
    37  H    0.000027   0.000003   0.000003  -0.000004   0.000020   0.000003
    38  H   -0.000296  -0.000091  -0.000040   0.000045  -0.000144  -0.000262
    39  H   -1.417420   0.323164  -0.280538   0.185813  -0.214379   0.063892
    40  H    0.592073  -0.789477   0.374288  -0.282895   0.157134  -0.001570
    41  H   -0.143772   0.401552  -0.701658   0.397349  -0.150660  -0.000616
    42  H    0.155617  -0.285885   0.336843  -0.887610   0.706109   0.001790
    43  H   -0.187787   0.147577  -0.208534   0.572986  -1.285684  -0.003646
              25         26         27         28         29         30
     1  O    0.006176   0.001894   0.084701   0.004239   0.006412  -0.000289
     2  S   -0.136476   0.103980  -0.234915   0.087740   0.082394  -0.049846
     3  N    0.481373   0.236492  -0.034042   0.174659   0.012608  -0.085752
     4  C   -0.160087  -0.147637  -0.778391  -0.603947  -0.122397  -0.302381
     5  C    0.068177   0.264999   0.465692   0.356496  -0.073303  -0.084266
     6  S   -0.002175   0.035583  -0.062310   0.103684  -0.214176  -0.040424
     7  C   -0.106187   0.210521   0.003781   0.421145   0.087124   0.070123
     8  O    0.000728  -0.001118   0.041072  -0.006660   0.051782   0.002452
     9  O   -0.000045  -0.016226   0.017543  -0.014337   0.029599   0.011306
    10  C    0.201156  -0.469575   0.362174  -0.260907   0.209072   0.127167
    11  C    0.079017  -0.083945   0.005881  -0.266973   0.150642   0.148105
    12  C   -0.149139   0.063809  -0.037451   0.121480  -0.020955  -0.230649
    13  C   -0.001323  -0.017016  -0.003151  -0.048097   0.021534   0.023653
    14  C   -0.015623   0.002205  -0.002831   0.004281   0.001778  -0.008145
    15  C    0.007392  -0.004932   0.000427  -0.006745   0.000269   0.024908
    16  C   -0.007944   0.009117   0.001462   0.045968  -0.009115  -0.043970
    17  C    0.069428  -0.011066  -0.000940  -0.040909  -0.009886   0.056156
    18  C   -0.002167  -0.078410  -0.057959  -0.023465  -0.018613   0.038627
    19  C   -0.059821   0.052475   0.049184   0.021633  -0.010445  -0.044351
    20  C    0.019678  -0.006963  -0.028083   0.002204   0.003981  -0.009728
    21  C    0.005134   0.007309   0.056327   0.001683  -0.004015  -0.001548
    22  C   -0.012215  -0.011577  -0.037947  -0.004180   0.004632  -0.003211
    23  C   -0.008617   0.044067  -0.035360   0.005405  -0.032432  -0.001507
    24  O    0.040925  -0.005734   0.014124  -0.003501  -0.013652   0.003375
    25  H    0.890274  -0.004092   0.015681   0.001300   0.001890   0.030319
    26  H   -0.004092   1.496763  -0.348476   0.014681   0.005294  -0.004411
    27  H    0.015681  -0.348476   1.734774   0.032071  -0.005926   0.046639
    28  H    0.001300   0.014681   0.032071   1.524532  -0.323117   0.021626
    29  H    0.001890   0.005294  -0.005926  -0.323117   1.466393  -0.001454
    30  H    0.030319  -0.004411   0.046639   0.021626  -0.001454   1.854328
    31  H    0.003304  -0.039394   0.008492  -0.013796   0.012009  -0.272293
    32  H   -0.004380  -0.000940   0.001549  -0.032461   0.000079   0.078708
    33  H   -0.189365   0.000392   0.008550   0.017665   0.001354  -0.120035
    34  H    0.011741   0.000912  -0.000858  -0.000097   0.000188  -0.017468
    35  H   -0.000479   0.000155  -0.000098   0.000081  -0.000032  -0.002939
    36  H    0.000091  -0.000069  -0.000010  -0.000142   0.000022  -0.000251
    37  H   -0.000621   0.000349   0.000003   0.003171  -0.000350   0.000945
    38  H    0.003663  -0.001955  -0.000643  -0.013170   0.008620   0.006270
    39  H   -0.007741   0.002298   0.009015   0.002691  -0.002741   0.004731
    40  H    0.001708  -0.001583   0.002129  -0.000045   0.000329   0.000850
    41  H   -0.000206   0.000535  -0.002419   0.000063  -0.000055  -0.000271
    42  H    0.000487  -0.001834   0.002358  -0.000318  -0.000014   0.000226
    43  H   -0.011401   0.006119   0.002621   0.002204  -0.000358   0.000344
              31         32         33         34         35         36
     1  O    0.003968   0.004814  -0.006974  -0.000073  -0.000004  -0.000001
     2  S   -0.002154  -0.062912   0.028866   0.003623   0.000567  -0.000038
     3  N    0.183624  -0.048855  -0.069400   0.022551   0.000535  -0.000156
     4  C    0.392842   0.146368   0.393201   0.031801   0.011460  -0.002733
     5  C    0.110282  -0.005145   0.019381  -0.002885   0.000085  -0.000430
     6  S   -0.128270  -0.045646  -0.006849   0.000935  -0.000012  -0.000063
     7  C    0.128983  -0.026258   0.086847   0.004986   0.000097  -0.000120
     8  O    0.003830   0.004623  -0.000394  -0.000056   0.000001   0.000001
     9  O    0.057413   0.013150   0.002550  -0.000482   0.000021  -0.000002
    10  C   -1.046645   0.001751  -0.400549   0.091097  -0.009522  -0.002584
    11  C   -0.369881   0.019782  -0.842672  -0.230746   0.009411   0.005751
    12  C   -0.053554  -0.268686   0.590591   0.780872  -0.150007   0.093892
    13  C    0.066932  -0.222249   0.146540  -1.206985   0.624675  -0.142830
    14  C   -0.050705  -0.117535   0.215595   0.321747  -0.749348   0.378777
    15  C    0.036202   0.032181  -0.042681  -0.129466   0.316471  -0.607425
    16  C   -0.050874   0.097734  -0.023754   0.105918  -0.237650   0.380903
    17  C    0.037966   0.315674  -0.527257  -0.052224   0.126609  -0.137376
    18  C    0.003464   0.017022   0.000850   0.001032  -0.000253   0.000015
    19  C    0.004751  -0.003864   0.002555  -0.003796   0.000091  -0.000003
    20  C    0.005890  -0.003274  -0.004303   0.003992  -0.000155  -0.000005
    21  C   -0.002880  -0.000342  -0.001548  -0.000195   0.000008  -0.000002
    22  C    0.002737   0.001274   0.002346   0.000244  -0.000018   0.000001
    23  C   -0.013093   0.000666   0.003746  -0.000365   0.000061  -0.000002
    24  O    0.002368   0.004733   0.003353  -0.000031  -0.000015   0.000000
    25  H    0.003304  -0.004380  -0.189365   0.011741  -0.000479   0.000091
    26  H   -0.039394  -0.000940   0.000392   0.000912   0.000155  -0.000069
    27  H    0.008492   0.001549   0.008550  -0.000858  -0.000098  -0.000010
    28  H   -0.013796  -0.032461   0.017665  -0.000097   0.000081  -0.000142
    29  H    0.012009   0.000079   0.001354   0.000188  -0.000032   0.000022
    30  H   -0.272293   0.078708  -0.120035  -0.017468  -0.002939  -0.000251
    31  H    2.087205  -0.087647   0.108542   0.007011   0.001309  -0.000227
    32  H   -0.087647   1.765703  -0.262583   0.006524   0.000018   0.000623
    33  H    0.108542  -0.262583   2.224813  -0.040494   0.000356   0.000759
    34  H    0.007011   0.006524  -0.040494   2.077861  -0.080027  -0.017753
    35  H    0.001309   0.000018   0.000356  -0.080027   1.662038  -0.049336
    36  H   -0.000227   0.000623   0.000759  -0.017753  -0.049336   1.603842
    37  H   -0.004930  -0.002526   0.000987   0.010551  -0.020248  -0.051299
    38  H    0.003036  -0.041605   0.003932  -0.021448   0.011035  -0.016362
    39  H    0.001906   0.002133   0.011677  -0.006781   0.000571  -0.000036
    40  H   -0.000097  -0.000239  -0.000019   0.000370  -0.000024   0.000001
    41  H   -0.000077  -0.000012   0.000060  -0.000014   0.000002  -0.000000
    42  H    0.000212   0.000092  -0.000054   0.000004  -0.000001   0.000000
    43  H   -0.001357  -0.000582   0.001297  -0.000029   0.000006  -0.000000
              37         38         39         40         41         42
     1  O    0.000005  -0.000176   0.018152  -0.001419   0.000316   0.000717
     2  S    0.000229   0.000658  -0.217780   0.041246   0.006724  -0.014928
     3  N    0.000764   0.001935  -0.262170  -0.011139   0.004794  -0.002949
     4  C    0.012950  -0.089026   0.338892   0.011458  -0.008628   0.018037
     5  C    0.001582  -0.010845   0.021408  -0.012344   0.003769  -0.008792
     6  S    0.000301  -0.004865   0.001570  -0.000842   0.000388  -0.000538
     7  C    0.000348   0.018804   0.003900   0.001943   0.000515  -0.003339
     8  O   -0.000002   0.000063   0.000651  -0.000068  -0.000014   0.000396
     9  O    0.000108   0.001464  -0.000149   0.000045  -0.000023   0.000102
    10  C   -0.001795   0.140784  -0.159140   0.005654  -0.001660   0.002836
    11  C   -0.007948  -0.138618  -0.062679   0.000923  -0.000226   0.000573
    12  C   -0.126189   0.730716   0.038360  -0.000990   0.000147  -0.000187
    13  C    0.133161  -0.086384  -0.017213   0.001024  -0.000084   0.000054
    14  C   -0.238321   0.118246   0.001987   0.000137  -0.000008   0.000003
    15  C    0.308767  -0.150602  -0.001509   0.000060  -0.000004   0.000002
    16  C   -0.744360   0.347193   0.001521  -0.000046   0.000006  -0.000007
    17  C    0.614603  -1.168712  -0.002546  -0.000105  -0.000000   0.000001
    18  C   -0.000011  -0.001091   0.936327  -0.167138   0.136097  -0.122878
    19  C    0.000027  -0.000296  -1.417420   0.592073  -0.143772   0.155617
    20  C    0.000003  -0.000091   0.323164  -0.789477   0.401552  -0.285885
    21  C    0.000003  -0.000040  -0.280538   0.374288  -0.701658   0.336843
    22  C   -0.000004   0.000045   0.185813  -0.282895   0.397349  -0.887610
    23  C    0.000020  -0.000144  -0.214379   0.157134  -0.150660   0.706109
    24  O    0.000003  -0.000262   0.063892  -0.001570  -0.000616   0.001790
    25  H   -0.000621   0.003663  -0.007741   0.001708  -0.000206   0.000487
    26  H    0.000349  -0.001955   0.002298  -0.001583   0.000535  -0.001834
    27  H    0.000003  -0.000643   0.009015   0.002129  -0.002419   0.002358
    28  H    0.003171  -0.013170   0.002691  -0.000045   0.000063  -0.000318
    29  H   -0.000350   0.008620  -0.002741   0.000329  -0.000055  -0.000014
    30  H    0.000945   0.006270   0.004731   0.000850  -0.000271   0.000226
    31  H   -0.004930   0.003036   0.001906  -0.000097  -0.000077   0.000212
    32  H   -0.002526  -0.041605   0.002133  -0.000239  -0.000012   0.000092
    33  H    0.000987   0.003932   0.011677  -0.000019   0.000060  -0.000054
    34  H    0.010551  -0.021448  -0.006781   0.000370  -0.000014   0.000004
    35  H   -0.020248   0.011035   0.000571  -0.000024   0.000002  -0.000001
    36  H   -0.051299  -0.016362  -0.000036   0.000001  -0.000000   0.000000
    37  H    1.670215  -0.093838   0.000061  -0.000002   0.000000  -0.000000
    38  H   -0.093838   2.117270  -0.000513   0.000010  -0.000002   0.000002
    39  H    0.000061  -0.000513   2.561638  -0.136934  -0.017781   0.015815
    40  H   -0.000002   0.000010  -0.136934   1.766257  -0.060167  -0.023859
    41  H    0.000000  -0.000002  -0.017781  -0.060167   1.650100  -0.059544
    42  H   -0.000000   0.000002   0.015815  -0.023859  -0.059544   1.723235
    43  H    0.000005  -0.000024  -0.028067   0.011666  -0.014671  -0.098275
              43
     1  O   -0.036693
     2  S   -0.039065
     3  N   -0.010868
     4  C    0.023229
     5  C    0.018002
     6  S    0.001173
     7  C    0.012825
     8  O   -0.002659
     9  O   -0.000636
    10  C   -0.016420
    11  C   -0.002469
    12  C    0.002479
    13  C   -0.000391
    14  C    0.000016
    15  C   -0.000024
    16  C    0.000082
    17  C   -0.000036
    18  C    0.622073
    19  C   -0.187787
    20  C    0.147577
    21  C   -0.208534
    22  C    0.572986
    23  C   -1.285684
    24  O   -0.003646
    25  H   -0.011401
    26  H    0.006119
    27  H    0.002621
    28  H    0.002204
    29  H   -0.000358
    30  H    0.000344
    31  H   -0.001357
    32  H   -0.000582
    33  H    0.001297
    34  H   -0.000029
    35  H    0.000006
    36  H   -0.000000
    37  H    0.000005
    38  H   -0.000024
    39  H   -0.028067
    40  H    0.011666
    41  H   -0.014671
    42  H   -0.098275
    43  H    2.167172
 Mulliken charges:
               1
     1  O   -1.289048
     2  S    2.794396
     3  N   -1.181398
     4  C    0.738251
     5  C    0.106712
     6  S    2.943801
     7  C    0.217354
     8  O   -1.256362
     9  O   -1.280063
    10  C    0.412377
    11  C    0.850331
    12  C    1.194294
    13  C    0.565067
    14  C    0.028828
    15  C    0.652399
    16  C    0.047681
    17  C    0.403353
    18  C    0.689234
    19  C    0.524872
    20  C    0.281079
    21  C    0.730356
    22  C    0.363829
    23  C    0.335745
    24  O   -1.196649
    25  H   -0.059538
    26  H   -0.302997
    27  H   -0.294439
    28  H   -0.307836
    29  H   -0.294969
    30  H   -0.225669
    31  H   -0.136405
    32  H   -0.277462
    33  H   -0.337874
    34  H   -0.671685
    35  H   -0.465494
    36  H   -0.435420
    37  H   -0.466714
    38  H   -0.673032
    39  H   -0.712058
    40  H   -0.478305
    41  H   -0.439846
    42  H   -0.454498
    43  H   -0.642199
 Sum of Mulliken charges =  -0.00000
 Mulliken charges with hydrogens summed into heavy atoms:
               1
     1  O   -1.289048
     2  S    2.794396
     3  N   -1.240936
     4  C    0.738251
     5  C   -0.490724
     6  S    2.943801
     7  C   -0.385451
     8  O   -1.256362
     9  O   -1.280063
    10  C    0.050304
    11  C    0.234995
    12  C    1.194294
    13  C   -0.106617
    14  C   -0.436666
    15  C    0.216978
    16  C   -0.419033
    17  C   -0.269679
    18  C    0.689234
    19  C   -0.187186
    20  C   -0.197226
    21  C    0.290510
    22  C   -0.090670
    23  C   -0.306454
    24  O   -1.196649
 Electronic spatial extent (au):  <R**2>=          10898.2024
 Charge=             -0.0000 electrons
 Dipole moment (field-independent basis, Debye):
    X=             -1.2708    Y=             -7.1257    Z=             -2.3987  Tot=              7.6252
 Quadrupole moment (field-independent basis, Debye-Ang):
   XX=           -142.3899   YY=           -175.9893   ZZ=           -166.8919
   XY=             -8.0800   XZ=            -19.7379   YZ=             17.3648
 Traceless Quadrupole moment (field-independent basis, Debye-Ang):
   XX=             19.3671   YY=            -14.2323   ZZ=             -5.1348
   XY=             -8.0800   XZ=            -19.7379   YZ=             17.3648
 Octapole moment (field-independent basis, Debye-Ang**2):
  XXX=             41.4319  YYY=           -121.5877  ZZZ=            -14.8603  XYY=            -18.0718
  XXY=            -22.1227  XXZ=            -94.9592  XZZ=             12.0927  YZZ=             11.3183
  YYZ=             14.6610  XYZ=              7.9680
 Hexadecapole moment (field-independent basis, Debye-Ang**3):
 XXXX=          -9342.0312 YYYY=          -3654.5278 ZZZZ=          -1341.1653 XXXY=            -41.1865
 XXXZ=            -31.3527 YYYX=            -62.6182 YYYZ=            192.1695 ZZZX=            -93.0179
 ZZZY=             34.6537 XXYY=          -2237.8829 XXZZ=          -2027.6102 YYZZ=           -790.7070
 XXYZ=            184.0441 YYXZ=            -80.8371 ZZXY=            -26.1322
 N-N= 2.443682035221D+03 E-N=-9.135191834533D+03  KE= 1.801909088832D+03
 Leave Link  601 at Tue Sep 22 06:34:13 2020, MaxMem=   262144000 cpu:               2.2 elap:               1.2
 (Enter /prod/apps/gaussian/g16b1/l9999.exe)
 1\1\GINC-PIRINEUS15\SP\RMP2-FC\Aug-CC-pVDZ\C17H19N1O4S2\UBAFAR01\22-Se
 p-2020\0\\#p mp2/aug-cc-pVDZ scf=(MaxCycle=2000,NoVarAcc,NoIncFock) ma
 xdisk=120GB geom=allcheck\\SM39_m0.n.13.pdb.xyz\\0,1\O,0,2.5721922236,
 1.0818477853,1.4969996543\S,0,2.1432471898,-0.3264934928,1.4190233413\
 N,0,0.5388529403,-0.4509082394,0.937271966\C,0,-0.1589741928,0.6051666
 523,0.1918623699\C,0,0.6325963434,1.1299268756,-1.0506141271\S,0,0.188
 724037,2.841848336,-0.5980135686\C,0,-0.3016370309,1.9855635721,0.9300
 353963\O,0,1.3444611183,3.7462578781,-0.4514731287\O,0,-0.9819019275,3
 .3219085019,-1.3624804135\C,0,-1.5233964338,0.050675301,-0.256815726\C
 ,0,-2.4722193492,-0.3678873465,0.8803179714\C,0,-3.8318585951,-0.77460
 35515,0.3543739493\C,0,-4.1134206507,-2.1153164069,0.0619329906\C,0,-5
 .3567968243,-2.4912515371,-0.4494541318\C,0,-6.3413705588,-1.527380316
 2,-0.6756203619\C,0,-6.0730544899,-0.1875184901,-0.3863065298\C,0,-4.8
 284504429,0.183219231,0.1241276506\C,0,3.0598992846,-1.0887260579,0.09
 08557652\C,0,2.6745720434,-2.3425171635,-0.3908892247\C,0,3.4547554565
 ,-2.9496033533,-1.3719449608\C,0,4.6022349025,-2.3110177828,-1.8524523
 085\C,0,4.9755644612,-1.0617110804,-1.3561610947\C,0,4.2044753417,-0.4
 409740938,-0.37409213\O,0,2.238824088,-1.1686801601,2.6220267749\H,0,0
 .0063919004,-0.7911427474,1.7410028405\H,0,0.2599101377,0.8136779231,-
 2.0235100965\H,0,1.7130833089,1.0118069364,-0.9899107071\H,0,-1.293290
 0692,2.2521301421,1.2929740239\H,0,0.464082007,2.1405594518,1.68794586
 38\H,0,-1.3392300887,-0.8012897132,-0.9186373161\H,0,-2.0079278582,0.8
 266703108,-0.8581319881\H,0,-2.5844188227,0.4624453806,1.5862704058\H,
 0,-2.0439300283,-1.2084952322,1.43485754\H,0,-3.3527368366,-2.87003602
 57,0.2419375508\H,0,-5.5570712667,-3.5358394818,-0.6663028308\H,0,-7.3
 098801167,-1.8176633147,-1.0695973706\H,0,-6.8339094462,0.5684224637,-
 0.553473697\H,0,-4.6285470799,1.2264421865,0.3519198754\H,0,1.77907158
 71,-2.8241229788,-0.0170902169\H,0,3.1664473649,-3.9189526646,-1.76254
 03248\H,0,5.2041949873,-2.7893886423,-2.6171136647\H,0,5.8648610664,-0
 .5679791824,-1.7307032438\H,0,4.4715803192,0.5299301271,0.0235932327\\
 Version=ES64L-G16RevB.01\State=1-A\HF=-1803.7149212\MP2=-1807.3608952\
 RMSD=7.154e-09\PG=C01 [X(C17H19N1O4S2)]\\@


 NO MATTER HOW THIN YOU SLICE IT, IT'S STILL BALONEY

                                   -- ALFRED E. SMITH
 Job cpu time:       0 days  6 hours 15 minutes  9.5 seconds.
 Elapsed time:       0 days  1 hours 41 minutes  2.3 seconds.
 File lengths (MBytes):  RWF= 121139 Int=      0 D2E=      0 Chk=     45 Scr=      1
 Normal termination of Gaussian 16 at Tue Sep 22 06:34:17 2020.
