 Entering Gaussian System, Link 0=g16
 Initial command:
 /prod/apps/gaussian/g16b1/l1.exe "/tmp/ubafar01/1460356/Gau-127955.inp" -scrdir="/tmp/ubafar01/1460356/"
 Entering Link 1 = /prod/apps/gaussian/g16b1/l1.exe PID=    127956.
  
 Copyright (c) 1988-2017, Gaussian, Inc.  All Rights Reserved.
  
 This is part of the Gaussian(R) 16 program.  It is based on
 the Gaussian(R) 09 system (copyright 2009, Gaussian, Inc.),
 the Gaussian(R) 03 system (copyright 2003, Gaussian, Inc.),
 the Gaussian(R) 98 system (copyright 1998, Gaussian, Inc.),
 the Gaussian(R) 94 system (copyright 1995, Gaussian, Inc.),
 the Gaussian 92(TM) system (copyright 1992, Gaussian, Inc.),
 the Gaussian 90(TM) system (copyright 1990, Gaussian, Inc.),
 the Gaussian 88(TM) system (copyright 1988, Gaussian, Inc.),
 the Gaussian 86(TM) system (copyright 1986, Carnegie Mellon
 University), and the Gaussian 82(TM) system (copyright 1983,
 Carnegie Mellon University). Gaussian is a federally registered
 trademark of Gaussian, Inc.
  
 This software contains proprietary and confidential information,
 including trade secrets, belonging to Gaussian, Inc.
  
 This software is provided under written license and may be
 used, copied, transmitted, or stored only in accord with that
 written license.
  
 The following legend is applicable only to US Government
 contracts under FAR:
  
                    RESTRICTED RIGHTS LEGEND
  
 Use, reproduction and disclosure by the US Government is
 subject to restrictions as set forth in subparagraphs (a)
 and (c) of the Commercial Computer Software - Restricted
 Rights clause in FAR 52.227-19.
  
 Gaussian, Inc.
 340 Quinnipiac St., Bldg. 40, Wallingford CT 06492
  
  
 ---------------------------------------------------------------
 Warning -- This program may not be used in any manner that
 competes with the business of Gaussian, Inc. or will provide
 assistance to any competitor of Gaussian, Inc.  The licensee
 of this program is prohibited from giving any competitor of
 Gaussian, Inc. access to this program.  By using this program,
 the user acknowledges that Gaussian, Inc. is engaged in the
 business of creating and licensing software in the field of
 computational chemistry and represents and warrants to the
 licensee that it is not a competitor of Gaussian, Inc. and that
 it will not use this program in any manner prohibited above.
 ---------------------------------------------------------------
  

 Cite this work as:
 Gaussian 16, Revision B.01,
 M. J. Frisch, G. W. Trucks, H. B. Schlegel, G. E. Scuseria, 
 M. A. Robb, J. R. Cheeseman, G. Scalmani, V. Barone, 
 G. A. Petersson, H. Nakatsuji, X. Li, M. Caricato, A. V. Marenich, 
 J. Bloino, B. G. Janesko, R. Gomperts, B. Mennucci, H. P. Hratchian, 
 J. V. Ortiz, A. F. Izmaylov, J. L. Sonnenberg, D. Williams-Young, 
 F. Ding, F. Lipparini, F. Egidi, J. Goings, B. Peng, A. Petrone, 
 T. Henderson, D. Ranasinghe, V. G. Zakrzewski, J. Gao, N. Rega, 
 G. Zheng, W. Liang, M. Hada, M. Ehara, K. Toyota, R. Fukuda, 
 J. Hasegawa, M. Ishida, T. Nakajima, Y. Honda, O. Kitao, H. Nakai, 
 T. Vreven, K. Throssell, J. A. Montgomery, Jr., J. E. Peralta, 
 F. Ogliaro, M. J. Bearpark, J. J. Heyd, E. N. Brothers, K. N. Kudin, 
 V. N. Staroverov, T. A. Keith, R. Kobayashi, J. Normand, 
 K. Raghavachari, A. P. Rendell, J. C. Burant, S. S. Iyengar, 
 J. Tomasi, M. Cossi, J. M. Millam, M. Klene, C. Adamo, R. Cammi, 
 J. W. Ochterski, R. L. Martin, K. Morokuma, O. Farkas, 
 J. B. Foresman, and D. J. Fox, Gaussian, Inc., Wallingford CT, 2016.
 
 ******************************************
 Gaussian 16:  ES64L-G16RevB.01 20-Dec-2017
                22-Sep-2020 
 ******************************************
 %nproc=4
 Will use up to    4 processors via shared memory.
 %Chk=SM39_m0.n.10.pdb.xyz.mst.n.w.chk
 %mem=16GB
 ----------------------------------------------------------------------
 #p b3lyp/6-31G(d) opt freq NoSymm scf=(MaxCycle=2000,NoVarAcc,NoIncFoc
 k) scrf=(iefpcm,read,solvent=water)
 ----------------------------------------------------------------------
 1/18=20,19=15,26=3,38=1,40=2/1,3;
 2/9=110,12=2,15=1,17=6,18=5,40=1/2;
 3/5=1,6=6,7=1,11=2,25=1,30=1,70=2203,71=1,72=1,74=-5/1,2,3;
 4//1;
 5/5=100002,7=2000,38=1,53=1/2;
 6/7=2,8=2,9=2,10=2,28=1/1;
 7/30=1/1,2,3,16;
 1/18=20,19=15,26=3/3(2);
 2/9=110,15=1/2;
 99//99;
 2/9=110,15=1/2;
 3/5=1,6=6,7=1,11=2,25=1,30=1,70=2205,71=1,72=1,74=-5/1,2,3;
 4/5=5,16=3,69=1/1;
 5/5=100002,7=2000,38=1,53=1/2;
 7/30=1/1,2,3,16;
 1/18=20,19=15,26=3/3(-5);
 2/9=110,15=1/2;
 6/7=2,8=2,9=2,10=2,19=2,28=1/1;
 99/9=1/99;
 Leave Link    1 at Tue Sep 22 03:17:42 2020, MaxMem=  2147483648 cpu:               0.2 elap:               0.0
 (Enter /prod/apps/gaussian/g16b1/l101.exe)
 --------------------
 SM39_m0.n.10.pdb.xyz
 --------------------
 Symbolic Z-matrix:
 Charge =  0 Multiplicity = 1
 O                     2.123    -2.136     0.981 
 S                     2.232    -1.453    -0.319 
 N                     0.698    -1.059    -0.906 
 C                    -0.472    -1.095    -0.015 
 C                    -0.799    -2.503     0.61 
 S                    -2.522    -2.346     0.048 
 C                    -1.768    -0.976    -0.886 
 O                    -3.001    -3.463    -0.789 
 O                    -3.407    -1.848     1.122 
 C                    -0.377    -0.024     1.084 
 C                    -0.275     1.437     0.605 
 C                    -1.582     2.104     0.227 
 C                    -2.663     2.141     1.121 
 C                    -3.852     2.788     0.783 
 C                    -3.982     3.416    -0.459 
 C                    -2.914     3.391    -1.356 
 C                    -1.727     2.741    -1.013 
 C                     3.046     0.111    -0.045 
 C                     3.514     0.409     1.233 
 C                     4.197     1.61      1.433 
 C                     4.403     2.484     0.366 
 C                     3.933     2.165    -0.913 
 C                     3.252     0.97     -1.128 
 O                     2.9      -2.13     -1.443 
 H                     0.567    -1.591    -1.769 
 H                    -0.691    -2.601     1.689 
 H                    -0.32     -3.334     0.093 
 H                    -2.313    -0.037    -0.821 
 H                    -1.631    -1.274    -1.925 
 H                     0.501    -0.269     1.689 
 H                    -1.242    -0.139     1.744 
 H                     0.417     1.497    -0.24 
 H                     0.185     2.009     1.419 
 H                    -2.572     1.658     2.09 
 H                    -4.677     2.805     1.49 
 H                    -4.908     3.919    -0.722 
 H                    -3.004     3.874    -2.324 
 H                    -0.898     2.723    -1.715 
 H                     3.344    -0.287     2.044 
 H                     4.567     1.859     2.422 
 H                     4.933     3.417     0.527 
 H                     4.096     2.846    -1.741 
 H                     2.884     0.712    -2.113 
 
 ITRead=  0  0  0  0  0  0  0  0  0  0  0  0  0  0  0  0  0  0  0  0
 ITRead=  0  0  0  0  0  0  0  0  0  0  0  0  0  0  0  0  0  0  0  0
 ITRead=  0  0  0
 MicOpt= -1 -1 -1 -1 -1 -1 -1 -1 -1 -1 -1 -1 -1 -1 -1 -1 -1 -1 -1 -1
 MicOpt= -1 -1 -1 -1 -1 -1 -1 -1 -1 -1 -1 -1 -1 -1 -1 -1 -1 -1 -1 -1
 MicOpt= -1 -1 -1
 NAtoms=     43 NQM=       43 NQMF=       0 NMMI=      0 NMMIF=      0
                NMic=       0 NMicF=      0.
                    Isotopes and Nuclear Properties:
 (Nuclear quadrupole moments (NQMom) in fm**2, nuclear magnetic moments (NMagM)
  in nuclear magnetons)

  Atom         1           2           3           4           5           6           7           8           9          10
 IAtWgt=          16          32          14          12          12          32          12          16          16          12
 AtmWgt=  15.9949146  31.9720718  14.0030740  12.0000000  12.0000000  31.9720718  12.0000000  15.9949146  15.9949146  12.0000000
 NucSpn=           0           0           2           0           0           0           0           0           0           0
 AtZEff=  -0.0000000  -0.0000000  -0.0000000  -0.0000000  -0.0000000  -0.0000000  -0.0000000  -0.0000000  -0.0000000  -0.0000000
 NQMom=    0.0000000   0.0000000   2.0440000   0.0000000   0.0000000   0.0000000   0.0000000   0.0000000   0.0000000   0.0000000
 NMagM=    0.0000000   0.0000000   0.4037610   0.0000000   0.0000000   0.0000000   0.0000000   0.0000000   0.0000000   0.0000000
 AtZNuc=   8.0000000  16.0000000   7.0000000   6.0000000   6.0000000  16.0000000   6.0000000   8.0000000   8.0000000   6.0000000

  Atom        11          12          13          14          15          16          17          18          19          20
 IAtWgt=          12          12          12          12          12          12          12          12          12          12
 AtmWgt=  12.0000000  12.0000000  12.0000000  12.0000000  12.0000000  12.0000000  12.0000000  12.0000000  12.0000000  12.0000000
 NucSpn=           0           0           0           0           0           0           0           0           0           0
 AtZEff=  -0.0000000  -0.0000000  -0.0000000  -0.0000000  -0.0000000  -0.0000000  -0.0000000  -0.0000000  -0.0000000  -0.0000000
 NQMom=    0.0000000   0.0000000   0.0000000   0.0000000   0.0000000   0.0000000   0.0000000   0.0000000   0.0000000   0.0000000
 NMagM=    0.0000000   0.0000000   0.0000000   0.0000000   0.0000000   0.0000000   0.0000000   0.0000000   0.0000000   0.0000000
 AtZNuc=   6.0000000   6.0000000   6.0000000   6.0000000   6.0000000   6.0000000   6.0000000   6.0000000   6.0000000   6.0000000

  Atom        21          22          23          24          25          26          27          28          29          30
 IAtWgt=          12          12          12          16           1           1           1           1           1           1
 AtmWgt=  12.0000000  12.0000000  12.0000000  15.9949146   1.0078250   1.0078250   1.0078250   1.0078250   1.0078250   1.0078250
 NucSpn=           0           0           0           0           1           1           1           1           1           1
 AtZEff=  -0.0000000  -0.0000000  -0.0000000  -0.0000000  -0.0000000  -0.0000000  -0.0000000  -0.0000000  -0.0000000  -0.0000000
 NQMom=    0.0000000   0.0000000   0.0000000   0.0000000   0.0000000   0.0000000   0.0000000   0.0000000   0.0000000   0.0000000
 NMagM=    0.0000000   0.0000000   0.0000000   0.0000000   2.7928460   2.7928460   2.7928460   2.7928460   2.7928460   2.7928460
 AtZNuc=   6.0000000   6.0000000   6.0000000   8.0000000   1.0000000   1.0000000   1.0000000   1.0000000   1.0000000   1.0000000

  Atom        31          32          33          34          35          36          37          38          39          40
 IAtWgt=           1           1           1           1           1           1           1           1           1           1
 AtmWgt=   1.0078250   1.0078250   1.0078250   1.0078250   1.0078250   1.0078250   1.0078250   1.0078250   1.0078250   1.0078250
 NucSpn=           1           1           1           1           1           1           1           1           1           1
 AtZEff=  -0.0000000  -0.0000000  -0.0000000  -0.0000000  -0.0000000  -0.0000000  -0.0000000  -0.0000000  -0.0000000  -0.0000000
 NQMom=    0.0000000   0.0000000   0.0000000   0.0000000   0.0000000   0.0000000   0.0000000   0.0000000   0.0000000   0.0000000
 NMagM=    2.7928460   2.7928460   2.7928460   2.7928460   2.7928460   2.7928460   2.7928460   2.7928460   2.7928460   2.7928460
 AtZNuc=   1.0000000   1.0000000   1.0000000   1.0000000   1.0000000   1.0000000   1.0000000   1.0000000   1.0000000   1.0000000

  Atom        41          42          43
 IAtWgt=           1           1           1
 AtmWgt=   1.0078250   1.0078250   1.0078250
 NucSpn=           1           1           1
 AtZEff=  -0.0000000  -0.0000000  -0.0000000
 NQMom=    0.0000000   0.0000000   0.0000000
 NMagM=    2.7928460   2.7928460   2.7928460
 AtZNuc=   1.0000000   1.0000000   1.0000000
 Leave Link  101 at Tue Sep 22 03:17:42 2020, MaxMem=  2147483648 cpu:               1.3 elap:               0.3
 (Enter /prod/apps/gaussian/g16b1/l103.exe)

 GradGradGradGradGradGradGradGradGradGradGradGradGradGradGradGradGradGrad
 Berny optimization.
 Initialization pass.
                           ----------------------------
                           !    Initial Parameters    !
                           ! (Angstroms and Degrees)  !
 --------------------------                            --------------------------
 ! Name  Definition              Value          Derivative Info.                !
 --------------------------------------------------------------------------------
 ! R1    R(1,2)                  1.4725         estimate D2E/DX2                !
 ! R2    R(2,3)                  1.6891         estimate D2E/DX2                !
 ! R3    R(2,18)                 1.7843         estimate D2E/DX2                !
 ! R4    R(2,24)                 1.4724         estimate D2E/DX2                !
 ! R5    R(3,4)                  1.4711         estimate D2E/DX2                !
 ! R6    R(3,25)                 1.0222         estimate D2E/DX2                !
 ! R7    R(4,5)                  1.5748         estimate D2E/DX2                !
 ! R8    R(4,7)                  1.566          estimate D2E/DX2                !
 ! R9    R(4,10)                 1.5375         estimate D2E/DX2                !
 ! R10   R(5,6)                  1.8191         estimate D2E/DX2                !
 ! R11   R(5,26)                 1.0888         estimate D2E/DX2                !
 ! R12   R(5,27)                 1.0896         estimate D2E/DX2                !
 ! R13   R(6,7)                  1.8215         estimate D2E/DX2                !
 ! R14   R(6,8)                  1.4757         estimate D2E/DX2                !
 ! R15   R(6,9)                  1.4781         estimate D2E/DX2                !
 ! R16   R(7,28)                 1.0876         estimate D2E/DX2                !
 ! R17   R(7,29)                 1.0895         estimate D2E/DX2                !
 ! R18   R(10,11)                1.5409         estimate D2E/DX2                !
 ! R19   R(10,30)                1.094          estimate D2E/DX2                !
 ! R20   R(10,31)                1.0941         estimate D2E/DX2                !
 ! R21   R(11,12)                1.5153         estimate D2E/DX2                !
 ! R22   R(11,32)                1.0938         estimate D2E/DX2                !
 ! R23   R(11,33)                1.0961         estimate D2E/DX2                !
 ! R24   R(12,13)                1.4033         estimate D2E/DX2                !
 ! R25   R(12,17)                1.4016         estimate D2E/DX2                !
 ! R26   R(13,14)                1.3952         estimate D2E/DX2                !
 ! R27   R(13,34)                1.0865         estimate D2E/DX2                !
 ! R28   R(14,15)                1.3978         estimate D2E/DX2                !
 ! R29   R(14,35)                1.0866         estimate D2E/DX2                !
 ! R30   R(15,16)                1.3949         estimate D2E/DX2                !
 ! R31   R(15,36)                1.0861         estimate D2E/DX2                !
 ! R32   R(16,17)                1.3961         estimate D2E/DX2                !
 ! R33   R(16,37)                1.0855         estimate D2E/DX2                !
 ! R34   R(17,38)                1.0864         estimate D2E/DX2                !
 ! R35   R(18,19)                1.3932         estimate D2E/DX2                !
 ! R36   R(18,23)                1.3976         estimate D2E/DX2                !
 ! R37   R(19,20)                1.396          estimate D2E/DX2                !
 ! R38   R(19,39)                1.0821         estimate D2E/DX2                !
 ! R39   R(20,21)                1.3946         estimate D2E/DX2                !
 ! R40   R(20,40)                1.0849         estimate D2E/DX2                !
 ! R41   R(21,22)                1.3995         estimate D2E/DX2                !
 ! R42   R(21,41)                1.085          estimate D2E/DX2                !
 ! R43   R(22,23)                1.3921         estimate D2E/DX2                !
 ! R44   R(22,42)                1.0844         estimate D2E/DX2                !
 ! R45   R(23,43)                1.0827         estimate D2E/DX2                !
 ! A1    A(1,2,3)              110.3513         estimate D2E/DX2                !
 ! A2    A(1,2,18)             107.7435         estimate D2E/DX2                !
 ! A3    A(1,2,24)             119.6207         estimate D2E/DX2                !
 ! A4    A(3,2,18)             105.2612         estimate D2E/DX2                !
 ! A5    A(3,2,24)             104.7137         estimate D2E/DX2                !
 ! A6    A(18,2,24)            108.2571         estimate D2E/DX2                !
 ! A7    A(2,3,4)              120.4055         estimate D2E/DX2                !
 ! A8    A(2,3,25)             106.7612         estimate D2E/DX2                !
 ! A9    A(4,3,25)             113.3704         estimate D2E/DX2                !
 ! A10   A(3,4,5)              115.3029         estimate D2E/DX2                !
 ! A11   A(3,4,7)              108.6308         estimate D2E/DX2                !
 ! A12   A(3,4,10)             111.5153         estimate D2E/DX2                !
 ! A13   A(5,4,7)               96.7095         estimate D2E/DX2                !
 ! A14   A(5,4,10)             110.6066         estimate D2E/DX2                !
 ! A15   A(7,4,10)             113.3138         estimate D2E/DX2                !
 ! A16   A(4,5,6)               89.8223         estimate D2E/DX2                !
 ! A17   A(4,5,26)             116.9475         estimate D2E/DX2                !
 ! A18   A(4,5,27)             113.7206         estimate D2E/DX2                !
 ! A19   A(6,5,26)             114.0713         estimate D2E/DX2                !
 ! A20   A(6,5,27)             109.6094         estimate D2E/DX2                !
 ! A21   A(26,5,27)            110.9744         estimate D2E/DX2                !
 ! A22   A(5,6,7)               80.285          estimate D2E/DX2                !
 ! A23   A(5,6,8)              114.6667         estimate D2E/DX2                !
 ! A24   A(5,6,9)              111.8211         estimate D2E/DX2                !
 ! A25   A(7,6,8)              114.3834         estimate D2E/DX2                !
 ! A26   A(7,6,9)              111.5326         estimate D2E/DX2                !
 ! A27   A(8,6,9)              118.2167         estimate D2E/DX2                !
 ! A28   A(4,7,6)               90.0129         estimate D2E/DX2                !
 ! A29   A(4,7,28)             116.5545         estimate D2E/DX2                !
 ! A30   A(4,7,29)             113.9252         estimate D2E/DX2                !
 ! A31   A(6,7,28)             114.2851         estimate D2E/DX2                !
 ! A32   A(6,7,29)             109.592          estimate D2E/DX2                !
 ! A33   A(28,7,29)            110.8626         estimate D2E/DX2                !
 ! A34   A(4,10,11)            116.2546         estimate D2E/DX2                !
 ! A35   A(4,10,30)            106.7906         estimate D2E/DX2                !
 ! A36   A(4,10,31)            108.0066         estimate D2E/DX2                !
 ! A37   A(11,10,30)           109.336          estimate D2E/DX2                !
 ! A38   A(11,10,31)           109.8473         estimate D2E/DX2                !
 ! A39   A(30,10,31)           106.1026         estimate D2E/DX2                !
 ! A40   A(10,11,12)           115.9644         estimate D2E/DX2                !
 ! A41   A(10,11,32)           109.5133         estimate D2E/DX2                !
 ! A42   A(10,11,33)           106.9613         estimate D2E/DX2                !
 ! A43   A(12,11,32)           109.1975         estimate D2E/DX2                !
 ! A44   A(12,11,33)           108.5144         estimate D2E/DX2                !
 ! A45   A(32,11,33)           106.2348         estimate D2E/DX2                !
 ! A46   A(11,12,13)           121.1408         estimate D2E/DX2                !
 ! A47   A(11,12,17)           120.664          estimate D2E/DX2                !
 ! A48   A(13,12,17)           118.1618         estimate D2E/DX2                !
 ! A49   A(12,13,14)           120.9561         estimate D2E/DX2                !
 ! A50   A(12,13,34)           119.4678         estimate D2E/DX2                !
 ! A51   A(14,13,34)           119.5761         estimate D2E/DX2                !
 ! A52   A(13,14,15)           120.1894         estimate D2E/DX2                !
 ! A53   A(13,14,35)           119.7789         estimate D2E/DX2                !
 ! A54   A(15,14,35)           120.0315         estimate D2E/DX2                !
 ! A55   A(14,15,16)           119.4792         estimate D2E/DX2                !
 ! A56   A(14,15,36)           120.1667         estimate D2E/DX2                !
 ! A57   A(16,15,36)           120.3542         estimate D2E/DX2                !
 ! A58   A(15,16,17)           120.0867         estimate D2E/DX2                !
 ! A59   A(15,16,37)           120.1296         estimate D2E/DX2                !
 ! A60   A(17,16,37)           119.7834         estimate D2E/DX2                !
 ! A61   A(12,17,16)           121.1261         estimate D2E/DX2                !
 ! A62   A(12,17,38)           119.0247         estimate D2E/DX2                !
 ! A63   A(16,17,38)           119.8491         estimate D2E/DX2                !
 ! A64   A(2,18,19)            118.7887         estimate D2E/DX2                !
 ! A65   A(2,18,23)            119.1432         estimate D2E/DX2                !
 ! A66   A(19,18,23)           121.9949         estimate D2E/DX2                !
 ! A67   A(18,19,20)           118.6701         estimate D2E/DX2                !
 ! A68   A(18,19,39)           119.8092         estimate D2E/DX2                !
 ! A69   A(20,19,39)           121.5207         estimate D2E/DX2                !
 ! A70   A(19,20,21)           120.1207         estimate D2E/DX2                !
 ! A71   A(19,20,40)           119.6633         estimate D2E/DX2                !
 ! A72   A(21,20,40)           120.2159         estimate D2E/DX2                !
 ! A73   A(20,21,22)           120.4501         estimate D2E/DX2                !
 ! A74   A(20,21,41)           119.8365         estimate D2E/DX2                !
 ! A75   A(22,21,41)           119.7132         estimate D2E/DX2                !
 ! A76   A(21,22,23)           120.0729         estimate D2E/DX2                !
 ! A77   A(21,22,42)           120.2784         estimate D2E/DX2                !
 ! A78   A(23,22,42)           119.6487         estimate D2E/DX2                !
 ! A79   A(18,23,22)           118.6875         estimate D2E/DX2                !
 ! A80   A(18,23,43)           120.5594         estimate D2E/DX2                !
 ! A81   A(22,23,43)           120.7524         estimate D2E/DX2                !
 ! D1    D(1,2,3,4)             15.0347         estimate D2E/DX2                !
 ! D2    D(1,2,3,25)          -116.0426         estimate D2E/DX2                !
 ! D3    D(18,2,3,4)          -100.9502         estimate D2E/DX2                !
 ! D4    D(18,2,3,25)          127.9725         estimate D2E/DX2                !
 ! D5    D(24,2,3,4)           145.0088         estimate D2E/DX2                !
 ! D6    D(24,2,3,25)           13.9315         estimate D2E/DX2                !
 ! D7    D(1,2,18,19)            4.1706         estimate D2E/DX2                !
 ! D8    D(1,2,18,23)         -178.8787         estimate D2E/DX2                !
 ! D9    D(3,2,18,19)          121.9324         estimate D2E/DX2                !
 ! D10   D(3,2,18,23)          -61.117          estimate D2E/DX2                !
 ! D11   D(24,2,18,19)        -126.5224         estimate D2E/DX2                !
 ! D12   D(24,2,18,23)          50.4282         estimate D2E/DX2                !
 ! D13   D(2,3,4,5)            -61.3187         estimate D2E/DX2                !
 ! D14   D(2,3,4,7)           -168.5221         estimate D2E/DX2                !
 ! D15   D(2,3,4,10)            65.8978         estimate D2E/DX2                !
 ! D16   D(25,3,4,5)            66.8396         estimate D2E/DX2                !
 ! D17   D(25,3,4,7)           -40.3638         estimate D2E/DX2                !
 ! D18   D(25,3,4,10)         -165.9439         estimate D2E/DX2                !
 ! D19   D(3,4,5,6)           -128.712          estimate D2E/DX2                !
 ! D20   D(3,4,5,26)           114.1601         estimate D2E/DX2                !
 ! D21   D(3,4,5,27)           -17.2912         estimate D2E/DX2                !
 ! D22   D(7,4,5,6)            -14.4177         estimate D2E/DX2                !
 ! D23   D(7,4,5,26)          -131.5456         estimate D2E/DX2                !
 ! D24   D(7,4,5,27)            97.0031         estimate D2E/DX2                !
 ! D25   D(10,4,5,6)           103.6145         estimate D2E/DX2                !
 ! D26   D(10,4,5,26)          -13.5134         estimate D2E/DX2                !
 ! D27   D(10,4,5,27)         -144.9647         estimate D2E/DX2                !
 ! D28   D(3,4,7,6)            133.99           estimate D2E/DX2                !
 ! D29   D(3,4,7,28)          -108.6298         estimate D2E/DX2                !
 ! D30   D(3,4,7,29)            22.463          estimate D2E/DX2                !
 ! D31   D(5,4,7,6)             14.3986         estimate D2E/DX2                !
 ! D32   D(5,4,7,28)           131.7788         estimate D2E/DX2                !
 ! D33   D(5,4,7,29)           -97.1284         estimate D2E/DX2                !
 ! D34   D(10,4,7,6)          -101.4873         estimate D2E/DX2                !
 ! D35   D(10,4,7,28)           15.8928         estimate D2E/DX2                !
 ! D36   D(10,4,7,29)          146.9857         estimate D2E/DX2                !
 ! D37   D(3,4,10,11)           59.2684         estimate D2E/DX2                !
 ! D38   D(3,4,10,30)          -63.0393         estimate D2E/DX2                !
 ! D39   D(3,4,10,31)         -176.7869         estimate D2E/DX2                !
 ! D40   D(5,4,10,11)         -171.0107         estimate D2E/DX2                !
 ! D41   D(5,4,10,30)           66.6816         estimate D2E/DX2                !
 ! D42   D(5,4,10,31)          -47.066          estimate D2E/DX2                !
 ! D43   D(7,4,10,11)          -63.6756         estimate D2E/DX2                !
 ! D44   D(7,4,10,30)          174.0167         estimate D2E/DX2                !
 ! D45   D(7,4,10,31)           60.2691         estimate D2E/DX2                !
 ! D46   D(4,5,6,7)             12.4564         estimate D2E/DX2                !
 ! D47   D(4,5,6,8)            124.9314         estimate D2E/DX2                !
 ! D48   D(4,5,6,9)            -96.9679         estimate D2E/DX2                !
 ! D49   D(26,5,6,7)           132.123          estimate D2E/DX2                !
 ! D50   D(26,5,6,8)          -115.4019         estimate D2E/DX2                !
 ! D51   D(26,5,6,9)            22.6988         estimate D2E/DX2                !
 ! D52   D(27,5,6,7)          -102.7539         estimate D2E/DX2                !
 ! D53   D(27,5,6,8)             9.7211         estimate D2E/DX2                !
 ! D54   D(27,5,6,9)           147.8218         estimate D2E/DX2                !
 ! D55   D(5,6,7,4)            -12.5273         estimate D2E/DX2                !
 ! D56   D(5,6,7,28)          -131.9041         estimate D2E/DX2                !
 ! D57   D(5,6,7,29)           102.9749         estimate D2E/DX2                !
 ! D58   D(8,6,7,4)           -125.3124         estimate D2E/DX2                !
 ! D59   D(8,6,7,28)           115.3109         estimate D2E/DX2                !
 ! D60   D(8,6,7,29)            -9.8102         estimate D2E/DX2                !
 ! D61   D(9,6,7,4)             97.2192         estimate D2E/DX2                !
 ! D62   D(9,6,7,28)           -22.1575         estimate D2E/DX2                !
 ! D63   D(9,6,7,29)          -147.2786         estimate D2E/DX2                !
 ! D64   D(4,10,11,12)          81.538          estimate D2E/DX2                !
 ! D65   D(4,10,11,32)         -42.5592         estimate D2E/DX2                !
 ! D66   D(4,10,11,33)        -157.279          estimate D2E/DX2                !
 ! D67   D(30,10,11,12)       -157.5021         estimate D2E/DX2                !
 ! D68   D(30,10,11,32)         78.4007         estimate D2E/DX2                !
 ! D69   D(30,10,11,33)        -36.3191         estimate D2E/DX2                !
 ! D70   D(31,10,11,12)        -41.4519         estimate D2E/DX2                !
 ! D71   D(31,10,11,32)       -165.5491         estimate D2E/DX2                !
 ! D72   D(31,10,11,33)         79.7311         estimate D2E/DX2                !
 ! D73   D(10,11,12,13)         54.1709         estimate D2E/DX2                !
 ! D74   D(10,11,12,17)       -127.9709         estimate D2E/DX2                !
 ! D75   D(32,11,12,13)        178.4314         estimate D2E/DX2                !
 ! D76   D(32,11,12,17)         -3.7104         estimate D2E/DX2                !
 ! D77   D(33,11,12,13)        -66.1776         estimate D2E/DX2                !
 ! D78   D(33,11,12,17)        111.6806         estimate D2E/DX2                !
 ! D79   D(11,12,13,14)        178.2268         estimate D2E/DX2                !
 ! D80   D(11,12,13,34)         -1.81           estimate D2E/DX2                !
 ! D81   D(17,12,13,14)          0.3164         estimate D2E/DX2                !
 ! D82   D(17,12,13,34)       -179.7204         estimate D2E/DX2                !
 ! D83   D(11,12,17,16)       -178.176          estimate D2E/DX2                !
 ! D84   D(11,12,17,38)          1.9387         estimate D2E/DX2                !
 ! D85   D(13,12,17,16)         -0.2553         estimate D2E/DX2                !
 ! D86   D(13,12,17,38)        179.8594         estimate D2E/DX2                !
 ! D87   D(12,13,14,15)         -0.1739         estimate D2E/DX2                !
 ! D88   D(12,13,14,35)       -179.9947         estimate D2E/DX2                !
 ! D89   D(34,13,14,15)        179.863          estimate D2E/DX2                !
 ! D90   D(34,13,14,35)          0.0422         estimate D2E/DX2                !
 ! D91   D(13,14,15,16)         -0.0382         estimate D2E/DX2                !
 ! D92   D(13,14,15,36)        179.9597         estimate D2E/DX2                !
 ! D93   D(35,14,15,16)        179.7822         estimate D2E/DX2                !
 ! D94   D(35,14,15,36)         -0.22           estimate D2E/DX2                !
 ! D95   D(14,15,16,17)          0.099          estimate D2E/DX2                !
 ! D96   D(14,15,16,37)        179.907          estimate D2E/DX2                !
 ! D97   D(36,15,16,17)       -179.8988         estimate D2E/DX2                !
 ! D98   D(36,15,16,37)         -0.0908         estimate D2E/DX2                !
 ! D99   D(15,16,17,12)          0.0507         estimate D2E/DX2                !
 ! D100  D(15,16,17,38)        179.9351         estimate D2E/DX2                !
 ! D101  D(37,16,17,12)       -179.7579         estimate D2E/DX2                !
 ! D102  D(37,16,17,38)          0.1265         estimate D2E/DX2                !
 ! D103  D(2,18,19,20)         177.5055         estimate D2E/DX2                !
 ! D104  D(2,18,19,39)          -2.4656         estimate D2E/DX2                !
 ! D105  D(23,18,19,20)          0.6459         estimate D2E/DX2                !
 ! D106  D(23,18,19,39)       -179.3252         estimate D2E/DX2                !
 ! D107  D(2,18,23,22)        -177.5913         estimate D2E/DX2                !
 ! D108  D(2,18,23,43)           2.7252         estimate D2E/DX2                !
 ! D109  D(19,18,23,22)         -0.7425         estimate D2E/DX2                !
 ! D110  D(19,18,23,43)        179.574          estimate D2E/DX2                !
 ! D111  D(18,19,20,21)         -0.1497         estimate D2E/DX2                !
 ! D112  D(18,19,20,40)        179.9011         estimate D2E/DX2                !
 ! D113  D(39,19,20,21)        179.821          estimate D2E/DX2                !
 ! D114  D(39,19,20,40)         -0.1282         estimate D2E/DX2                !
 ! D115  D(19,20,21,22)         -0.2321         estimate D2E/DX2                !
 ! D116  D(19,20,21,41)        179.8978         estimate D2E/DX2                !
 ! D117  D(40,20,21,22)        179.7169         estimate D2E/DX2                !
 ! D118  D(40,20,21,41)         -0.1533         estimate D2E/DX2                !
 ! D119  D(20,21,22,23)          0.1336         estimate D2E/DX2                !
 ! D120  D(20,21,22,42)       -179.9104         estimate D2E/DX2                !
 ! D121  D(41,21,22,23)       -179.9961         estimate D2E/DX2                !
 ! D122  D(41,21,22,42)         -0.0401         estimate D2E/DX2                !
 ! D123  D(21,22,23,18)          0.3419         estimate D2E/DX2                !
 ! D124  D(21,22,23,43)       -179.9752         estimate D2E/DX2                !
 ! D125  D(42,22,23,18)       -179.6144         estimate D2E/DX2                !
 ! D126  D(42,22,23,43)          0.0685         estimate D2E/DX2                !
 --------------------------------------------------------------------------------
 Trust Radius=3.00D-01 FncErr=1.00D-07 GrdErr=1.00D-06 EigMax=2.50D+02 EigMin=1.00D-04
 Number of steps in this run=    258 maximum allowed number of steps=    258.
 GradGradGradGradGradGradGradGradGradGradGradGradGradGradGradGradGradGrad

 Leave Link  103 at Tue Sep 22 03:17:42 2020, MaxMem=  2147483648 cpu:               0.0 elap:               0.0
 (Enter /prod/apps/gaussian/g16b1/l202.exe)
                          Input orientation:                          
 ---------------------------------------------------------------------
 Center     Atomic      Atomic             Coordinates (Angstroms)
 Number     Number       Type             X           Y           Z
 ---------------------------------------------------------------------
      1          8           0        2.123000   -2.136000    0.981000
      2         16           0        2.232000   -1.453000   -0.319000
      3          7           0        0.698000   -1.059000   -0.906000
      4          6           0       -0.472000   -1.095000   -0.015000
      5          6           0       -0.799000   -2.503000    0.610000
      6         16           0       -2.522000   -2.346000    0.048000
      7          6           0       -1.768000   -0.976000   -0.886000
      8          8           0       -3.001000   -3.463000   -0.789000
      9          8           0       -3.407000   -1.848000    1.122000
     10          6           0       -0.377000   -0.024000    1.084000
     11          6           0       -0.275000    1.437000    0.605000
     12          6           0       -1.582000    2.104000    0.227000
     13          6           0       -2.663000    2.141000    1.121000
     14          6           0       -3.852000    2.788000    0.783000
     15          6           0       -3.982000    3.416000   -0.459000
     16          6           0       -2.914000    3.391000   -1.356000
     17          6           0       -1.727000    2.741000   -1.013000
     18          6           0        3.046000    0.111000   -0.045000
     19          6           0        3.514000    0.409000    1.233000
     20          6           0        4.197000    1.610000    1.433000
     21          6           0        4.403000    2.484000    0.366000
     22          6           0        3.933000    2.165000   -0.913000
     23          6           0        3.252000    0.970000   -1.128000
     24          8           0        2.900000   -2.130000   -1.443000
     25          1           0        0.567000   -1.591000   -1.769000
     26          1           0       -0.691000   -2.601000    1.689000
     27          1           0       -0.320000   -3.334000    0.093000
     28          1           0       -2.313000   -0.037000   -0.821000
     29          1           0       -1.631000   -1.274000   -1.925000
     30          1           0        0.501000   -0.269000    1.689000
     31          1           0       -1.242000   -0.139000    1.744000
     32          1           0        0.417000    1.497000   -0.240000
     33          1           0        0.185000    2.009000    1.419000
     34          1           0       -2.572000    1.658000    2.090000
     35          1           0       -4.677000    2.805000    1.490000
     36          1           0       -4.908000    3.919000   -0.722000
     37          1           0       -3.004000    3.874000   -2.324000
     38          1           0       -0.898000    2.723000   -1.715000
     39          1           0        3.344000   -0.287000    2.044000
     40          1           0        4.567000    1.859000    2.422000
     41          1           0        4.933000    3.417000    0.527000
     42          1           0        4.096000    2.846000   -1.741000
     43          1           0        2.884000    0.712000   -2.113000
 ---------------------------------------------------------------------
                    Distance matrix (angstroms):
                    1          2          3          4          5
     1  O    0.000000
     2  S    1.472539   0.000000
     3  N    2.598331   1.689071   0.000000
     4  C    2.968118   2.744485   1.471080   0.000000
     5  C    2.968234   3.339536   2.573791   1.574807   0.000000
     6  S    4.742427   4.851047   3.596510   2.402388   1.819127
     7  C    4.468912   4.068048   2.467477   1.566020   2.347063
     8  O    5.581147   5.625415   4.413106   3.549978   2.779857
     9  O    5.539289   5.833595   4.646109   3.236356   2.737304
    10  C    3.274317   3.288971   2.487358   1.537487   2.558945
    11  C    4.319503   3.935851   3.075690   2.614237   3.974695
    12  C    5.680945   5.243754   4.060377   3.394741   4.688734
    13  C    6.420134   6.241111   5.064094   4.069726   5.030144
    14  C    7.745037   7.497702   6.193111   5.209500   6.111090
    15  C    8.376713   7.895604   6.490596   5.732919   6.805058
    16  C    7.834581   7.142900   5.749047   5.280705   6.563354
    17  C    6.525616   5.809041   4.509110   4.157635   5.567302
    18  C    2.636971   1.784312   2.761037   3.719094   4.695322
    19  C    2.911256   2.742129   3.828864   4.439337   5.241168
    20  C    4.305612   4.038898   4.983722   5.586886   6.523351
    21  C    5.188547   4.547795   5.281842   6.059705   7.210444
    22  C    5.036064   4.041802   4.567215   5.553200   6.819206
    23  C    3.920428   2.750602   3.269410   4.401269   5.611860
    24  O    2.545494   1.472389   2.506833   3.805364   4.246945
    25  H    3.206347   2.212186   1.022230   2.098107   2.890907
    26  H    2.938722   3.727452   3.322817   2.284647   1.088811
    27  H    2.862166   3.196969   2.685135   2.246751   1.089629
    28  H    5.227916   4.786866   3.180854   2.271185   3.228175
    29  H    4.824976   4.187367   2.551240   2.241299   2.937497
    30  H    2.572516   2.903495   2.719731   2.128995   2.800892
    31  H    3.986653   4.248675   3.410645   2.144975   2.659079
    32  H    4.195231   3.464530   2.656248   2.749438   4.266281
    33  H    4.596598   4.381358   3.883480   3.481784   4.688377
    34  H    6.137373   6.209671   5.201058   4.052164   4.758976
    35  H    8.420960   8.314886   7.040024   5.929338   6.632356
    36  H    9.433885   8.944294   7.499438   6.731875   7.739521
    37  H    8.563250   7.733864   6.328508   6.036014   7.357752
    38  H    6.324930   5.402286   4.183924   4.201024   5.720708
    39  H    2.457562   2.860047   4.037301   4.410692   4.912378
    40  H    4.899963   4.892305   5.878730   6.329029   7.148730
    41  H    6.240034   5.632763   6.326396   7.061581   8.240699
    42  H    6.010186   4.896732   5.243344   6.275124   7.622337
    43  H    4.273530   2.886306   3.061354   4.350815   5.596020
                    6          7          8          9         10
     6  S    0.000000
     7  C    1.821475   0.000000
     8  O    1.475703   2.777565   0.000000
     9  O    1.478075   2.734734   2.534755   0.000000
    10  C    3.326561   2.592698   4.713833   3.536852   0.000000
    11  C    4.435126   3.205417   5.777916   4.568144   1.540898
    12  C    4.551718   3.280208   5.834150   4.444092   2.591304
    13  C    4.615667   3.813760   5.930191   4.057790   3.148712
    14  C    5.354165   4.614793   6.501568   4.669630   4.480354
    15  C    5.965676   4.936982   6.956429   5.526290   5.216366
    16  C    5.919295   4.539263   6.877963   5.816412   4.904304
    17  C    5.256930   3.719395   6.337418   5.332874   3.723592
    18  C    6.086717   5.006341   7.063513   6.844032   3.606909
    19  C    6.739996   5.857295   7.843857   7.280564   3.917853
    20  C    7.919162   6.902636   9.082060   8.359145   4.869623
    21  C    8.449003   7.184730   9.566611   8.962916   5.445548
    22  C    7.933452   6.509071   8.931412   8.609355   5.230280
    23  C    6.761502   5.389423   7.672445   7.572708   4.364702
    24  O    5.627417   4.840681   6.084933   6.814470   4.643242
    25  H    3.662436   2.571019   4.146735   4.921037   3.389135
    26  H    2.471936   3.229734   3.495658   2.874918   2.665624
    27  H    2.413912   2.935185   2.825301   3.577234   3.455637
    28  H    2.475949   1.087645   3.494545   2.872596   2.716117
    29  H    2.415739   1.089538   2.821191   3.573214   3.491289
    30  H    4.018126   3.504117   5.348469   4.252904   1.094045
    31  H    3.063603   2.809652   4.534219   2.827506   1.094098
    32  H    4.846578   3.362628   6.048613   5.259947   2.167222
    33  H    5.307873   4.247053   6.705866   5.278932   2.135687
    34  H    4.494917   4.054744   5.890443   3.731794   2.942649
    35  H    5.766818   5.329504   6.876819   4.837224   5.163146
    36  H    6.748046   5.817862   7.624635   6.237918   6.272069
    37  H    6.674362   5.207498   7.495852   6.691682   5.806031
    38  H    5.607166   3.889311   6.598991   5.936134   3.956242
    39  H    6.529430   5.932298   7.640150   6.990194   3.851832
    40  H    8.577402   7.688453   9.793305   8.889124   5.457020
    41  H    9.434969   8.136241  10.583696   9.880782   6.351915
    42  H    8.599727   7.051610   9.543437   9.301904   6.018742
    43  H    6.576178   5.098625   7.335995   7.522998   4.625649
                   11         12         13         14         15
    11  C    0.000000
    12  C    1.515263   0.000000
    13  C    2.542522   1.403270   0.000000
    14  C    3.827769   2.435137   1.395197   0.000000
    15  C    4.334788   2.819918   2.421113   1.397801   0.000000
    16  C    3.824651   2.436490   2.785863   2.412214   1.394940
    17  C    2.535083   1.401568   2.406253   2.782706   2.418174
    18  C    3.634531   5.046228   6.170343   7.445423   7.777352
    19  C    3.975888   5.463907   6.416206   7.753715   8.251965
    20  C    4.551296   5.924130   6.887591   8.160673   8.587045
    21  C    4.799689   5.998662   7.114494   8.271114   8.476879
    22  C    4.532281   5.631922   6.902532   7.991919   8.026104
    23  C    3.957412   5.146799   6.435563   7.577853   7.665588
    24  O    5.196000   6.387799   7.467430   8.644727   8.893160
    25  H    3.938734   4.717546   5.719513   6.724277   6.890541
    26  H    4.201613   5.006830   5.167008   6.313009   7.186715
    27  H    4.798605   5.584124   6.043348   7.101409   7.699185
    28  H    2.891297   2.493300   2.938971   3.594713   3.852248
    29  H    3.948311   4.005545   4.690988   5.363390   5.447243
    30  H    2.165102   3.479578   4.017664   5.395803   6.187925
    31  H    2.171678   2.729091   2.757856   4.037691   4.999883
    32  H    1.093841   2.140687   3.428332   4.575759   4.804344
    33  H    1.096075   2.133583   2.866589   4.160373   4.782303
    34  H    2.744135   2.156336   1.086522   2.150244   3.402362
    35  H    4.693853   3.415493   2.152499   1.086629   2.157533
    36  H    5.420880   3.906034   3.405577   2.158546   1.086119
    37  H    4.686731   3.415053   3.871382   3.398816   2.155104
    38  H    2.724761   2.149972   3.390700   3.869153   3.401300
    39  H    4.259115   5.769215   6.544552   7.926422   8.581812
    40  H    5.188886   6.533625   7.351532   8.627220   9.154770
    41  H    5.572230   6.652758   7.725298   8.811209   8.969360
    42  H    5.156999   6.055020   7.373747   8.339343   8.198933
    43  H    4.229944   5.230528   6.577994   7.620386   7.562360
                   16         17         18         19         20
    16  C    0.000000
    17  C    1.396108   0.000000
    18  C    6.928111   5.534930   0.000000
    19  C    7.544165   6.160424   1.393238   0.000000
    20  C    7.843265   6.508137   2.399226   1.396027   0.000000
    21  C    7.571421   6.288449   2.764326   2.418188   1.394561
    22  C    6.969988   5.690112   2.399814   2.804356   2.425167
    23  C    6.628181   5.285840   1.397571   2.440837   2.803809
    24  O    8.018205   6.732063   2.645336   3.739585   4.892973
    25  H    6.091654   4.959858   3.466182   4.657984   5.803112
    26  H    7.079394   6.075448   4.932228   5.191345   6.456826
    27  H    7.352147   6.333128   4.818405   5.478066   6.829497
    28  H    3.521166   2.845618   5.416914   6.194494   7.083306
    29  H    4.871558   4.118396   5.227519   6.267095   7.318415
    30  H    5.859168   4.617888   3.102931   3.121825   4.154106
    31  H    4.986631   4.016301   4.652952   4.814661   5.721752
    32  H    3.991022   2.596498   2.978366   3.597900   4.135226
    33  H    4.383418   3.179024   3.732428   3.698221   4.031816
    34  H    3.872360   3.393453   6.205913   6.271670   6.800979
    35  H    3.398718   3.869316   8.322175   8.538111   8.954281
    36  H    2.157956   3.404574   8.844507   9.331249   9.637247
    37  H    1.085547   2.152473   7.480408   8.194071   8.431794
    38  H    2.153918   1.086448   5.016630   5.788872   6.091609
    39  H    8.015625   6.650494   2.147354   1.082145   2.167842
    40  H    8.519722   7.224374   3.384529   2.150588   1.084906
    41  H    8.069806   6.869074   3.849362   3.400009   2.151228
    42  H    7.041687   5.869271   3.385135   3.888749   3.407664
    43  H    6.431710   5.156371   2.159646   3.418249   3.886449
                   21         22         23         24         25
    21  C    0.000000
    22  C    1.399465   0.000000
    23  C    2.418477   1.392125   0.000000
    24  O    5.178850   4.449159   3.135782   0.000000
    25  H    5.989887   5.115685   3.765478   2.416544   0.000000
    26  H    7.318223   7.132078   6.019533   4.788167   3.815813
    27  H    7.498692   7.024176   5.724897   3.765277   2.700345
    28  H    7.271112   6.623427   5.663702   5.651805   3.407054
    29  H    7.468628   6.618834   5.432719   4.636272   2.226214
    30  H    4.955294   4.947058   4.127785   4.362103   3.702675
    31  H    6.375346   6.256891   5.447412   5.592604   4.209745
    32  H    4.150855   3.641622   3.017200   4.557151   3.449070
    33  H    4.373323   4.417020   4.119857   5.717831   4.823823
    34  H    7.232225   7.182624   6.689383   7.534840   5.941482
    35  H    9.154934   8.961926   8.549280   9.506190   7.579277
    36  H    9.483548   9.015336   8.686025   9.903288   7.837853
    37  H    8.001990   7.282415   7.000083   8.466486   6.551816
    38  H    5.699849   4.928806   4.543135   6.168500   4.556285
    39  H    3.408168   3.886267   3.413224   3.968999   4.893988
    40  H    2.155147   3.408492   3.888707   5.799072   6.742921
    41  H    1.085039   2.154322   3.398911   6.227616   7.029483
    42  H    2.159801   1.084396   2.146504   5.126382   5.669356
    43  H    3.404818   2.156759   1.082688   2.919952   3.284910
                   26         27         28         29         30
    26  H    0.000000
    27  H    1.795034   0.000000
    28  H    3.937649   3.959502   0.000000
    29  H    3.963020   3.167751   1.792794   0.000000
    30  H    2.618986   3.551828   3.777899   4.314678   0.000000
    31  H    2.523504   3.712669   2.781487   3.860195   1.748706
    32  H    4.662865   4.898226   3.184905   3.835619   2.616649
    33  H    4.700253   5.528196   3.929850   5.025762   2.315608
    34  H    4.673119   5.829200   3.378465   5.059875   3.649309
    35  H    6.719571   7.656525   4.359608   6.130137   6.025011
    36  H    8.130585   8.620904   4.732205   6.257251   7.253244
    37  H    7.961141   8.062320   4.246459   5.342868   6.749344
    38  H    6.322582   6.347456   3.227857   4.069078   4.743046
    39  H    4.664959   5.149321   6.346052   6.440323   2.865135
    40  H    6.933646   7.501617   7.838767   8.193125   4.647368
    41  H    8.318410   8.564950   8.139517   8.432312   5.880431
    42  H    8.021850   7.813899   7.087550   7.057392   5.864482
    43  H    6.181569   5.612679   5.407317   4.936068   4.593066
                   31         32         33         34         35
    31  H    0.000000
    32  H    3.060234   0.000000
    33  H    2.599203   1.751642   0.000000
    34  H    2.262261   3.793276   2.859107   0.000000
    35  H    4.531101   5.536479   4.927241   2.471160   0.000000
    36  H    5.999006   5.869756   5.845565   4.298414   2.487429
    37  H    5.979752   4.657942   5.259087   4.957890   4.299801
    38  H    4.502673   2.325495   3.391849   4.291215   4.955763
    39  H    4.598184   4.119058   3.954936   6.227696   8.614164
    40  H    6.180305   4.943661   4.497825   7.149542   9.338901
    41  H    7.228890   4.966784   5.032060   7.865245   9.677500
    42  H    7.039154   4.196170   5.097263   7.781396   9.349148
    43  H    5.711788   3.195378   4.630533   6.951839   8.633133
                   36         37         38         39         40
    36  H    0.000000
    37  H    2.488703   0.000000
    38  H    4.300763   2.476069   0.000000
    39  H    9.666266   8.757308   6.417534   0.000000
    40  H   10.193329   9.159955   6.908509   2.498786   0.000000
    41  H    9.932637   8.445888   6.285599   4.306487   2.480392
    42  H    9.124785   7.197685   4.995582   4.970656   4.304251
    43  H    8.540199   6.686652   4.301866   4.300029   4.971350
                   41         42         43
    41  H    0.000000
    42  H    2.484036   0.000000
    43  H    4.299422   2.482193   0.000000
 Symmetry turned off by external request.
 Stoichiometry    C17H19NO4S2
 Framework group  C1[X(C17H19NO4S2)]
 Deg. of freedom   123
 Full point group                 C1      NOp   1
 Rotational constants (GHZ):           0.2619096           0.1653078           0.1156092
 Leave Link  202 at Tue Sep 22 03:17:42 2020, MaxMem=  2147483648 cpu:               0.0 elap:               0.0
 (Enter /prod/apps/gaussian/g16b1/l301.exe)
 Standard basis: 6-31G(d) (6D, 7F)
 Ernie: Thresh=  0.10000D-02 Tol=  0.10000D-05 Strict=F.
   406 basis functions,   796 primitive gaussians,   406 cartesian basis functions
    96 alpha electrons       96 beta electrons
       nuclear repulsion energy      2507.7135987727 Hartrees.
 IExCor=  402 DFT=T Ex+Corr=B3LYP ExCW=0 ScaHFX=  0.200000
 ScaDFX=  0.800000  0.720000  1.000000  0.810000 ScalE2=  1.000000  1.000000
 IRadAn=      5 IRanWt=     -1 IRanGd=            0 ICorTp=0 IEmpDi=  4
 NAtoms=   43 NActive=   43 NUniq=   43 SFac= 1.00D+00 NAtFMM=   60 NAOKFM=F Big=F
 Integral buffers will be    131072 words long.
 Raffenetti 2 integral format.
 Two-electron integral symmetry is turned off.
 Using the following non-standard input for PCM:
 MSTModel=DFT cav
 --- end of non-standard input.
 MST model for solvation energy: B3LYP parametrization.
 MST cavity parameters:
 ISph   IAn     Re0     Alpha   Atom Type   QCorr
 ------------------------------------------------
   1      8     1.40     1.25      O          F
   2     16     1.75     1.25      S          F
   3      7     1.50     1.25      NH         F
   4      6     1.50     1.25      C          F
   5      6     1.50     1.25      CH2        F
   6     16     1.75     1.25      S          F
   7      6     1.50     1.25      CH2        F
   8      8     1.40     1.25      O          F
   9      8     1.40     1.25      O          F
  10      6     1.50     1.25      CH2        F
  11      6     1.50     1.25      CH2        F
  12      6     1.50     1.25      C          F
  13      6     1.50     1.25      CH         F
  14      6     1.50     1.25      CH         F
  15      6     1.50     1.25      CH         F
  16      6     1.50     1.25      CH         F
  17      6     1.50     1.25      CH         F
  18      6     1.50     1.25      C          F
  19      6     1.50     1.25      CH         F
  20      6     1.50     1.25      CH         F
  21      6     1.50     1.25      CH         F
  22      6     1.50     1.25      CH         F
  23      6     1.50     1.25      CH         F
  24      8     1.40     1.25      O          F
  25      1     0.90     1.25      NH         F
  26      1     1.20     1.25      CH2        F
  27      1     1.20     1.25      CH2        F
  28      1     1.20     1.25      CH2        F
  29      1     1.20     1.25      CH2        F
  30      1     1.20     1.25      CH2        F
  31      1     1.20     1.25      CH2        F
  32      1     1.20     1.25      CH2        F
  33      1     1.20     1.25      CH2        F
  34      1     1.20     1.25      CH         F
  35      1     1.20     1.25      CH         F
  36      1     1.20     1.25      CH         F
  37      1     1.20     1.25      CH         F
  38      1     1.20     1.25      CH         F
  39      1     1.20     1.25      CH         F
  40      1     1.20     1.25      CH         F
  41      1     1.20     1.25      CH         F
  42      1     1.20     1.25      CH         F
  43      1     1.20     1.25      CH         F
 ------------------------------------------------------------------------------
 Polarizable Continuum Model (PCM)
 =================================
 Model                : PCM.
 Atomic radii         : MST.
 Polarization charges : Total charges.
 Charge compensation  : None.
 Solution method      : On-the-fly selection.
 Cavity type          : Scaled VdW (van der Waals Surface) (Alpha=1.250).
 Cavity algorithm     : GePol (No added spheres)
                        Default sphere list used, NSphG=   43.
                        Lebedev-Laikov grids with approx.  5.0 points / Ang**2.
                        Smoothing algorithm: York/Karplus (Gamma=1.0000).
                        Polarization charges: spherical gaussians, with
                                              point-specific exponents (IZeta= 3).
                        Self-potential: point-specific (ISelfS= 7).
                        Self-field    : sphere-specific E.n sum rule (ISelfD= 2).
 1st derivatives      : Analytical E(r).r(x)/FMM algorithm (CHGder, D1EAlg=3).
                        Cavity 1st derivative terms included.
 Solvent              : Water, Eps=  78.355300 Eps(inf)=   1.777849
 ------------------------------------------------------------------------------
 GePol: Number of generator spheres                  =      43
 GePol: Total number of spheres                      =      43
 GePol: Number of exposed spheres                    =      43 (100.00%)
 GePol: Number of points                             =    3070
 GePol: Average weight of points                     =       0.13
 GePol: Minimum weight of points                     =   0.18D-10
 GePol: Maximum weight of points                     =    0.22001
 GePol: Number of points with low weight             =     224
 GePol: Fraction of low-weight points (<1% of avg)   =       7.30%
 GePol: Cavity surface area                          =    398.780 Ang**2
 GePol: Cavity volume                                =    403.976 Ang**3
 PCM non-electrostatic energy =         0.0031358005 Hartrees.
 Nuclear repulsion after PCM non-electrostatic terms =     2507.7167345732 Hartrees.
 Leave Link  301 at Tue Sep 22 03:17:43 2020, MaxMem=  2147483648 cpu:               0.3 elap:               0.1
 (Enter /prod/apps/gaussian/g16b1/l302.exe)
 NPDir=0 NMtPBC=     1 NCelOv=     1 NCel=       1 NClECP=     1 NCelD=      1
         NCelK=      1 NCelE2=     1 NClLst=     1 CellRange=     0.0.
 One-electron integrals computed using PRISM.
 NBasis=   406 RedAO= T EigKep=  4.68D-04  NBF=   406
 NBsUse=   406 1.00D-06 EigRej= -1.00D+00 NBFU=   406
 Precomputing XC quadrature grid using
 IXCGrd= 4 IRadAn=           5 IRanWt=          -1 IRanGd=           0 AccXCQ= 0.00D+00.
 Generated NRdTot=       0 NPtTot=           0 NUsed=           0 NTot=          32
 NSgBfM=   402   402   402   402   402 MxSgAt=    43 MxSgA2=    43.
 Leave Link  302 at Tue Sep 22 03:17:43 2020, MaxMem=  2147483648 cpu:               2.4 elap:               0.6
 (Enter /prod/apps/gaussian/g16b1/l303.exe)
 DipDrv:  MaxL=1.
 Leave Link  303 at Tue Sep 22 03:17:43 2020, MaxMem=  2147483648 cpu:               0.2 elap:               0.1
 (Enter /prod/apps/gaussian/g16b1/l401.exe)
 ExpMin= 1.17D-01 ExpMax= 2.19D+04 ExpMxC= 3.30D+03 IAcc=3 IRadAn=         5 AccDes= 0.00D+00
 Harris functional with IExCor=  402 and IRadAn=       5 diagonalized for initial guess.
 HarFok:  IExCor=  402 AccDes= 0.00D+00 IRadAn=         5 IDoV= 1 UseB2=F ITyADJ=14
 ICtDFT=  3500011 ScaDFX=  1.000000  1.000000  1.000000  1.000000
 FoFCou: FMM=F IPFlag=           0 FMFlag=      100000 FMFlg1=           0
         NFxFlg=           0 DoJE=T BraDBF=F KetDBF=T FulRan=T
         wScrn=  0.000000 ICntrl=       500 IOpCl=  0 I1Cent=   200000004 NGrid=           0
         NMat0=    1 NMatS0=      1 NMatT0=    0 NMatD0=    1 NMtDS0=    0 NMtDT0=    0
 Symmetry not used in FoFCou.
 Harris En= -1811.21279928888    
 JPrj=0 DoOrth=F DoCkMO=F.
 Leave Link  401 at Tue Sep 22 03:17:47 2020, MaxMem=  2147483648 cpu:              13.1 elap:               3.3
 (Enter /prod/apps/gaussian/g16b1/l502.exe)
 Two-electron integral symmetry not used.
 Closed shell SCF:
 Using DIIS extrapolation, IDIIS=  1040.
 NGot=  2147483648 LenX=  2147148011 LenY=  2146982734
 Requested convergence on RMS density matrix=1.00D-08 within2000 cycles.
 Requested convergence on MAX density matrix=1.00D-06.
 Requested convergence on             energy=1.00D-06.
 No special actions if energy rises.

 Cycle   1  Pass 1  IDiag  1:
 FoFJK:  IHMeth= 1 ICntrl=       0 DoSepK=F KAlg= 0 I1Cent=           0 FoldK=F
 IRaf= 780000000 NMat=       1 IRICut=       1 DoRegI=T DoRafI=F ISym2E= 0 IDoP0=0 IntGTp=1.
 FoFCou: FMM=F IPFlag=           0 FMFlag=      100000 FMFlg1=           0
         NFxFlg=           0 DoJE=F BraDBF=F KetDBF=F FulRan=T
         wScrn=  0.000000 ICntrl=         0 IOpCl=  0 I1Cent=           0 NGrid=           0
         NMat0=    1 NMatS0=      1 NMatT0=    0 NMatD0=    1 NMtDS0=    0 NMtDT0=    0
 Symmetry not used in FoFCou.
 Inv3:  Mode=1 IEnd=    28274700.
 Iteration    1 A*A^-1 deviation from unit magnitude is 3.44D-15 for   1100.
 Iteration    1 A*A^-1 deviation from orthogonality  is 2.66D-15 for   3051   1289.
 Iteration    1 A^-1*A deviation from unit magnitude is 3.22D-15 for   2260.
 Iteration    1 A^-1*A deviation from orthogonality  is 6.16D-14 for   2841   2834.
 E= -1810.29696739566    
 DIIS: error= 3.58D-02 at cycle   1 NSaved=   1.
 NSaved= 1 IEnMin= 1 EnMin= -1810.29696739566     IErMin= 1 ErrMin= 3.58D-02
 ErrMax= 3.58D-02  0.00D+00 EMaxC= 1.00D-01 BMatC= 9.88D-01 BMatP= 9.88D-01
 IDIUse=3 WtCom= 6.42D-01 WtEn= 3.58D-01
 Coeff-Com:  0.100D+01
 Coeff-En:   0.100D+01
 Coeff:      0.100D+01
 Gap=     0.266 Goal=   None    Shift=    0.000
 GapD=    0.266 DampG=1.000 DampE=0.500 DampFc=0.5000 IDamp=-1.
 Damping current iteration by 5.00D-01
 RMSDP=5.94D-03 MaxDP=5.59D-01              OVMax= 2.22D-01

 Cycle   2  Pass 1  IDiag  1:
 E= -1810.53048205749     Delta-E=       -0.233514661829 Rises=F Damp=T
 DIIS: error= 1.31D-02 at cycle   2 NSaved=   2.
 NSaved= 2 IEnMin= 2 EnMin= -1810.53048205749     IErMin= 2 ErrMin= 1.31D-02
 ErrMax= 1.31D-02  0.00D+00 EMaxC= 1.00D-01 BMatC= 1.34D-01 BMatP= 9.88D-01
 IDIUse=3 WtCom= 8.69D-01 WtEn= 1.31D-01
 Coeff-Com:  0.217D+00 0.783D+00
 Coeff-En:   0.346D+00 0.654D+00
 Coeff:      0.234D+00 0.766D+00
 Gap=     0.234 Goal=   None    Shift=    0.000
 RMSDP=1.68D-03 MaxDP=1.27D-01 DE=-2.34D-01 OVMax= 1.72D-01

 Cycle   3  Pass 1  IDiag  1:
 E= -1811.07968407658     Delta-E=       -0.549202019091 Rises=F Damp=F
 DIIS: error= 8.76D-03 at cycle   3 NSaved=   3.
 NSaved= 3 IEnMin= 3 EnMin= -1811.07968407658     IErMin= 3 ErrMin= 8.76D-03
 ErrMax= 8.76D-03  0.00D+00 EMaxC= 1.00D-01 BMatC= 7.46D-02 BMatP= 1.34D-01
 IDIUse=3 WtCom= 9.12D-01 WtEn= 8.76D-02
 Coeff-Com:  0.715D-01 0.434D+00 0.495D+00
 Coeff-En:   0.000D+00 0.000D+00 0.100D+01
 Coeff:      0.652D-01 0.396D+00 0.539D+00
 Gap=     0.203 Goal=   None    Shift=    0.000
 RMSDP=9.57D-04 MaxDP=3.27D-02 DE=-5.49D-01 OVMax= 6.19D-02

 Cycle   4  Pass 1  IDiag  1:
 E= -1811.14005661541     Delta-E=       -0.060372538832 Rises=F Damp=F
 DIIS: error= 3.44D-03 at cycle   4 NSaved=   4.
 NSaved= 4 IEnMin= 4 EnMin= -1811.14005661541     IErMin= 4 ErrMin= 3.44D-03
 ErrMax= 3.44D-03  0.00D+00 EMaxC= 1.00D-01 BMatC= 1.00D-02 BMatP= 7.46D-02
 IDIUse=3 WtCom= 9.66D-01 WtEn= 3.44D-02
 Coeff-Com:  0.401D-02 0.802D-01 0.286D+00 0.630D+00
 Coeff-En:   0.000D+00 0.000D+00 0.107D+00 0.893D+00
 Coeff:      0.387D-02 0.774D-01 0.280D+00 0.639D+00
 Gap=     0.203 Goal=   None    Shift=    0.000
 RMSDP=3.08D-04 MaxDP=1.48D-02 DE=-6.04D-02 OVMax= 2.10D-02

 Cycle   5  Pass 1  IDiag  1:
 E= -1811.14859175590     Delta-E=       -0.008535140485 Rises=F Damp=F
 DIIS: error= 9.82D-04 at cycle   5 NSaved=   5.
 NSaved= 5 IEnMin= 5 EnMin= -1811.14859175590     IErMin= 5 ErrMin= 9.82D-04
 ErrMax= 9.82D-04  0.00D+00 EMaxC= 1.00D-01 BMatC= 7.08D-04 BMatP= 1.00D-02
 IDIUse=3 WtCom= 9.90D-01 WtEn= 9.82D-03
 Coeff-Com: -0.249D-02 0.155D-01 0.109D+00 0.328D+00 0.550D+00
 Coeff-En:   0.000D+00 0.000D+00 0.000D+00 0.000D+00 0.100D+01
 Coeff:     -0.246D-02 0.153D-01 0.108D+00 0.325D+00 0.554D+00
 Gap=     0.202 Goal=   None    Shift=    0.000
 RMSDP=8.23D-05 MaxDP=4.96D-03 DE=-8.54D-03 OVMax= 6.32D-03

 Cycle   6  Pass 1  IDiag  1:
 E= -1811.14921751256     Delta-E=       -0.000625756665 Rises=F Damp=F
 DIIS: error= 2.57D-04 at cycle   6 NSaved=   6.
 NSaved= 6 IEnMin= 6 EnMin= -1811.14921751256     IErMin= 6 ErrMin= 2.57D-04
 ErrMax= 2.57D-04  0.00D+00 EMaxC= 1.00D-01 BMatC= 5.54D-05 BMatP= 7.08D-04
 IDIUse=3 WtCom= 9.97D-01 WtEn= 2.57D-03
 Coeff-Com: -0.160D-02 0.271D-02 0.363D-01 0.122D+00 0.291D+00 0.549D+00
 Coeff-En:   0.000D+00 0.000D+00 0.000D+00 0.000D+00 0.000D+00 0.100D+01
 Coeff:     -0.160D-02 0.271D-02 0.362D-01 0.122D+00 0.291D+00 0.550D+00
 Gap=     0.202 Goal=   None    Shift=    0.000
 RMSDP=2.18D-05 MaxDP=1.28D-03 DE=-6.26D-04 OVMax= 1.49D-03

 Cycle   7  Pass 1  IDiag  1:
 E= -1811.14926134029     Delta-E=       -0.000043827730 Rises=F Damp=F
 DIIS: error= 7.28D-05 at cycle   7 NSaved=   7.
 NSaved= 7 IEnMin= 7 EnMin= -1811.14926134029     IErMin= 7 ErrMin= 7.28D-05
 ErrMax= 7.28D-05  0.00D+00 EMaxC= 1.00D-01 BMatC= 6.15D-06 BMatP= 5.54D-05
 IDIUse=1 WtCom= 1.00D+00 WtEn= 0.00D+00
 Coeff-Com: -0.703D-03 0.163D-03 0.110D-01 0.403D-01 0.119D+00 0.317D+00
 Coeff-Com:  0.514D+00
 Coeff:     -0.703D-03 0.163D-03 0.110D-01 0.403D-01 0.119D+00 0.317D+00
 Coeff:      0.514D+00
 Gap=     0.202 Goal=   None    Shift=    0.000
 RMSDP=7.25D-06 MaxDP=5.67D-04 DE=-4.38D-05 OVMax= 5.04D-04

 Cycle   8  Pass 1  IDiag  1:
 E= -1811.14926623455     Delta-E=       -0.000004894262 Rises=F Damp=F
 DIIS: error= 2.07D-05 at cycle   8 NSaved=   8.
 NSaved= 8 IEnMin= 8 EnMin= -1811.14926623455     IErMin= 8 ErrMin= 2.07D-05
 ErrMax= 2.07D-05  0.00D+00 EMaxC= 1.00D-01 BMatC= 5.04D-07 BMatP= 6.15D-06
 IDIUse=1 WtCom= 1.00D+00 WtEn= 0.00D+00
 Coeff-Com: -0.208D-03-0.217D-03 0.167D-02 0.752D-02 0.310D-01 0.107D+00
 Coeff-Com:  0.273D+00 0.580D+00
 Coeff:     -0.208D-03-0.217D-03 0.167D-02 0.752D-02 0.310D-01 0.107D+00
 Coeff:      0.273D+00 0.580D+00
 Gap=     0.202 Goal=   None    Shift=    0.000
 RMSDP=2.08D-06 MaxDP=1.34D-04 DE=-4.89D-06 OVMax= 1.11D-04

 Cycle   9  Pass 1  IDiag  1:
 E= -1811.14926658976     Delta-E=       -0.000000355201 Rises=F Damp=F
 DIIS: error= 5.90D-06 at cycle   9 NSaved=   9.
 NSaved= 9 IEnMin= 9 EnMin= -1811.14926658976     IErMin= 9 ErrMin= 5.90D-06
 ErrMax= 5.90D-06  0.00D+00 EMaxC= 1.00D-01 BMatC= 5.58D-08 BMatP= 5.04D-07
 IDIUse=1 WtCom= 1.00D+00 WtEn= 0.00D+00
 Coeff-Com: -0.255D-04-0.111D-03-0.475D-03-0.106D-02 0.161D-02 0.164D-01
 Coeff-Com:  0.800D-01 0.305D+00 0.599D+00
 Coeff:     -0.255D-04-0.111D-03-0.475D-03-0.106D-02 0.161D-02 0.164D-01
 Coeff:      0.800D-01 0.305D+00 0.599D+00
 Gap=     0.202 Goal=   None    Shift=    0.000
 RMSDP=6.51D-07 MaxDP=4.24D-05 DE=-3.55D-07 OVMax= 3.50D-05

 Cycle  10  Pass 1  IDiag  1:
 E= -1811.14926663508     Delta-E=       -0.000000045322 Rises=F Damp=F
 DIIS: error= 2.18D-06 at cycle  10 NSaved=  10.
 NSaved=10 IEnMin=10 EnMin= -1811.14926663508     IErMin=10 ErrMin= 2.18D-06
 ErrMax= 2.18D-06  0.00D+00 EMaxC= 1.00D-01 BMatC= 3.16D-09 BMatP= 5.58D-08
 IDIUse=1 WtCom= 1.00D+00 WtEn= 0.00D+00
 Coeff-Com: -0.636D-05-0.399D-04-0.317D-03-0.865D-03-0.510D-03 0.357D-02
 Coeff-Com:  0.291D-01 0.130D+00 0.305D+00 0.534D+00
 Coeff:     -0.636D-05-0.399D-04-0.317D-03-0.865D-03-0.510D-03 0.357D-02
 Coeff:      0.291D-01 0.130D+00 0.305D+00 0.534D+00
 Gap=     0.202 Goal=   None    Shift=    0.000
 RMSDP=1.77D-07 MaxDP=8.42D-06 DE=-4.53D-08 OVMax= 1.35D-05

 Cycle  11  Pass 1  IDiag  1:
 E= -1811.14926663724     Delta-E=       -0.000000002165 Rises=F Damp=F
 DIIS: error= 9.45D-07 at cycle  11 NSaved=  11.
 NSaved=11 IEnMin=11 EnMin= -1811.14926663724     IErMin=11 ErrMin= 9.45D-07
 ErrMax= 9.45D-07  0.00D+00 EMaxC= 1.00D-01 BMatC= 6.08D-10 BMatP= 3.16D-09
 IDIUse=1 WtCom= 1.00D+00 WtEn= 0.00D+00
 Coeff-Com: -0.105D-05-0.338D-05-0.124D-03-0.367D-03-0.615D-03-0.675D-03
 Coeff-Com:  0.446D-02 0.281D-01 0.871D-01 0.320D+00 0.562D+00
 Coeff:     -0.105D-05-0.338D-05-0.124D-03-0.367D-03-0.615D-03-0.675D-03
 Coeff:      0.446D-02 0.281D-01 0.871D-01 0.320D+00 0.562D+00
 Gap=     0.202 Goal=   None    Shift=    0.000
 RMSDP=6.83D-08 MaxDP=5.16D-06 DE=-2.16D-09 OVMax= 6.04D-06

 Cycle  12  Pass 1  IDiag  1:
 E= -1811.14926663770     Delta-E=       -0.000000000459 Rises=F Damp=F
 DIIS: error= 3.12D-07 at cycle  12 NSaved=  12.
 NSaved=12 IEnMin=12 EnMin= -1811.14926663770     IErMin=12 ErrMin= 3.12D-07
 ErrMax= 3.12D-07  0.00D+00 EMaxC= 1.00D-01 BMatC= 7.14D-11 BMatP= 6.08D-10
 IDIUse=1 WtCom= 1.00D+00 WtEn= 0.00D+00
 Coeff-Com: -0.239D-06 0.300D-05-0.388D-04-0.118D-03-0.312D-03-0.846D-03
 Coeff-Com: -0.828D-03 0.887D-03 0.140D-01 0.116D+00 0.321D+00 0.549D+00
 Coeff:     -0.239D-06 0.300D-05-0.388D-04-0.118D-03-0.312D-03-0.846D-03
 Coeff:     -0.828D-03 0.887D-03 0.140D-01 0.116D+00 0.321D+00 0.549D+00
 Gap=     0.202 Goal=   None    Shift=    0.000
 RMSDP=2.31D-08 MaxDP=1.78D-06 DE=-4.59D-10 OVMax= 1.73D-06

 Cycle  13  Pass 1  IDiag  1:
 E= -1811.14926663778     Delta-E=       -0.000000000083 Rises=F Damp=F
 DIIS: error= 7.82D-08 at cycle  13 NSaved=  13.
 NSaved=13 IEnMin=13 EnMin= -1811.14926663778     IErMin=13 ErrMin= 7.82D-08
 ErrMax= 7.82D-08  0.00D+00 EMaxC= 1.00D-01 BMatC= 3.52D-12 BMatP= 7.14D-11
 IDIUse=1 WtCom= 1.00D+00 WtEn= 0.00D+00
 Coeff-Com: -0.708D-07 0.184D-05-0.637D-05-0.203D-04-0.891D-04-0.339D-03
 Coeff-Com: -0.857D-03-0.239D-02-0.215D-02 0.206D-01 0.927D-01 0.249D+00
 Coeff-Com:  0.644D+00
 Coeff:     -0.708D-07 0.184D-05-0.637D-05-0.203D-04-0.891D-04-0.339D-03
 Coeff:     -0.857D-03-0.239D-02-0.215D-02 0.206D-01 0.927D-01 0.249D+00
 Coeff:      0.644D+00
 Gap=     0.202 Goal=   None    Shift=    0.000
 RMSDP=5.86D-09 MaxDP=2.47D-07 DE=-8.28D-11 OVMax= 6.12D-07

 Error on total polarization charges =  0.02104
 SCF Done:  E(RB3LYP) =  -1811.14926664     A.U. after   13 cycles
            NFock= 13  Conv=0.59D-08     -V/T= 2.0069
 KE= 1.798685235288D+03 PE=-9.265122550995D+03 EE= 3.147571314497D+03
 Leave Link  502 at Tue Sep 22 03:19:47 2020, MaxMem=  2147483648 cpu:             483.4 elap:             120.9
 (Enter /prod/apps/gaussian/g16b1/l601.exe)
 Copying SCF densities to generalized density rwf, IOpCl= 0 IROHF=0.

 **********************************************************************

            Population analysis using the SCF Density.

 **********************************************************************

 Alpha  occ. eigenvalues --  -89.12787 -89.09711 -19.16074 -19.15805 -19.15565
 Alpha  occ. eigenvalues --  -19.15353 -14.37670 -10.27500 -10.23429 -10.22861
 Alpha  occ. eigenvalues --  -10.22647 -10.21530 -10.21435 -10.20775 -10.20667
 Alpha  occ. eigenvalues --  -10.20613 -10.19795 -10.19775 -10.19072 -10.19013
 Alpha  occ. eigenvalues --  -10.18988 -10.18877 -10.18818 -10.18804  -8.15313
 Alpha  occ. eigenvalues --   -8.12802  -6.11814  -6.11758  -6.11582  -6.09253
 Alpha  occ. eigenvalues --   -6.09151  -6.09049  -1.12525  -1.10651  -1.01567
 Alpha  occ. eigenvalues --   -1.00382  -0.94765  -0.87835  -0.85934  -0.85303
 Alpha  occ. eigenvalues --   -0.79187  -0.78233  -0.76543  -0.74401  -0.73956
 Alpha  occ. eigenvalues --   -0.72238  -0.69321  -0.66585  -0.62702  -0.62315
 Alpha  occ. eigenvalues --   -0.60407  -0.59579  -0.58088  -0.57213  -0.54911
 Alpha  occ. eigenvalues --   -0.53409  -0.52080  -0.51171  -0.50322  -0.49243
 Alpha  occ. eigenvalues --   -0.48647  -0.47880  -0.46356  -0.46171  -0.45764
 Alpha  occ. eigenvalues --   -0.45650  -0.45210  -0.44873  -0.44014  -0.43936
 Alpha  occ. eigenvalues --   -0.42528  -0.42127  -0.41551  -0.39973  -0.39014
 Alpha  occ. eigenvalues --   -0.38469  -0.38087  -0.37460  -0.36423  -0.36285
 Alpha  occ. eigenvalues --   -0.35938  -0.35029  -0.33845  -0.33448  -0.33428
 Alpha  occ. eigenvalues --   -0.33105  -0.32579  -0.31754  -0.31526  -0.30936
 Alpha  occ. eigenvalues --   -0.30246  -0.28486  -0.27055  -0.26509  -0.25257
 Alpha  occ. eigenvalues --   -0.24307
 Alpha virt. eigenvalues --   -0.04096  -0.01939  -0.00596  -0.00203   0.03487
 Alpha virt. eigenvalues --    0.04166   0.05099   0.05671   0.06324   0.08161
 Alpha virt. eigenvalues --    0.08766   0.09567   0.09792   0.10398   0.11667
 Alpha virt. eigenvalues --    0.11927   0.12325   0.13093   0.14160   0.14565
 Alpha virt. eigenvalues --    0.14695   0.15607   0.16226   0.16439   0.16754
 Alpha virt. eigenvalues --    0.17134   0.17739   0.18042   0.18474   0.19465
 Alpha virt. eigenvalues --    0.20039   0.20522   0.21201   0.21909   0.23722
 Alpha virt. eigenvalues --    0.24076   0.25225   0.26838   0.28114   0.28941
 Alpha virt. eigenvalues --    0.29228   0.30499   0.30823   0.31389   0.32627
 Alpha virt. eigenvalues --    0.34239   0.34583   0.34699   0.35136   0.35713
 Alpha virt. eigenvalues --    0.38057   0.41229   0.43004   0.44837   0.44879
 Alpha virt. eigenvalues --    0.46185   0.48026   0.49167   0.50548   0.51616
 Alpha virt. eigenvalues --    0.52028   0.53326   0.53420   0.54240   0.54659
 Alpha virt. eigenvalues --    0.55305   0.55796   0.56049   0.56415   0.57010
 Alpha virt. eigenvalues --    0.57777   0.58434   0.59123   0.59212   0.59783
 Alpha virt. eigenvalues --    0.59932   0.60167   0.60264   0.60622   0.60994
 Alpha virt. eigenvalues --    0.61443   0.61889   0.62170   0.63549   0.64050
 Alpha virt. eigenvalues --    0.64811   0.65265   0.66492   0.67482   0.69995
 Alpha virt. eigenvalues --    0.70791   0.70898   0.71541   0.72634   0.75041
 Alpha virt. eigenvalues --    0.76343   0.77473   0.79067   0.79698   0.80240
 Alpha virt. eigenvalues --    0.80610   0.81062   0.81612   0.82565   0.83460
 Alpha virt. eigenvalues --    0.83670   0.84262   0.84428   0.84528   0.85282
 Alpha virt. eigenvalues --    0.85458   0.85728   0.86762   0.87193   0.88074
 Alpha virt. eigenvalues --    0.88738   0.88951   0.89884   0.91137   0.91625
 Alpha virt. eigenvalues --    0.91974   0.93055   0.93431   0.93835   0.94523
 Alpha virt. eigenvalues --    0.94803   0.95156   0.95922   0.97023   0.98198
 Alpha virt. eigenvalues --    0.99182   1.00695   1.01071   1.02954   1.03407
 Alpha virt. eigenvalues --    1.04492   1.06146   1.07110   1.07271   1.09029
 Alpha virt. eigenvalues --    1.09299   1.09758   1.09800   1.10853   1.12514
 Alpha virt. eigenvalues --    1.13288   1.13818   1.15087   1.15346   1.16855
 Alpha virt. eigenvalues --    1.17668   1.17776   1.18582   1.19748   1.20707
 Alpha virt. eigenvalues --    1.22696   1.23476   1.24427   1.25308   1.26769
 Alpha virt. eigenvalues --    1.29422   1.29995   1.32161   1.35156   1.39073
 Alpha virt. eigenvalues --    1.39666   1.40483   1.41793   1.43300   1.43959
 Alpha virt. eigenvalues --    1.44585   1.45257   1.45616   1.47330   1.47979
 Alpha virt. eigenvalues --    1.48573   1.48882   1.49015   1.51339   1.51419
 Alpha virt. eigenvalues --    1.53247   1.55635   1.62261   1.63021   1.65283
 Alpha virt. eigenvalues --    1.70266   1.71507   1.73144   1.73549   1.74909
 Alpha virt. eigenvalues --    1.76589   1.77333   1.78414   1.78851   1.79175
 Alpha virt. eigenvalues --    1.79342   1.80335   1.80451   1.81424   1.81759
 Alpha virt. eigenvalues --    1.82321   1.82857   1.85033   1.85416   1.87132
 Alpha virt. eigenvalues --    1.87407   1.88120   1.89367   1.90682   1.91420
 Alpha virt. eigenvalues --    1.91665   1.92899   1.93348   1.95062   1.97368
 Alpha virt. eigenvalues --    1.97634   1.98304   1.98936   2.00995   2.01614
 Alpha virt. eigenvalues --    2.03251   2.04062   2.05751   2.06824   2.08310
 Alpha virt. eigenvalues --    2.09617   2.09921   2.11171   2.12753   2.13573
 Alpha virt. eigenvalues --    2.13789   2.13970   2.14277   2.14683   2.14823
 Alpha virt. eigenvalues --    2.16666   2.17596   2.18633   2.21046   2.23145
 Alpha virt. eigenvalues --    2.23911   2.24867   2.26315   2.28058   2.28110
 Alpha virt. eigenvalues --    2.29201   2.30111   2.31168   2.31309   2.32140
 Alpha virt. eigenvalues --    2.34224   2.37723   2.39561   2.40067   2.42537
 Alpha virt. eigenvalues --    2.48420   2.49826   2.54023   2.56752   2.57877
 Alpha virt. eigenvalues --    2.58408   2.59633   2.63204   2.64255   2.65342
 Alpha virt. eigenvalues --    2.67836   2.70163   2.70529   2.71122   2.72374
 Alpha virt. eigenvalues --    2.72706   2.73284   2.74454   2.75225   2.75370
 Alpha virt. eigenvalues --    2.77164   2.77870   2.79650   2.80965   2.83150
 Alpha virt. eigenvalues --    2.85138   2.90044   3.02502   3.06157   3.37007
 Alpha virt. eigenvalues --    3.40879   3.74971   3.79390   3.94336   3.97986
 Alpha virt. eigenvalues --    4.01095   4.05488   4.08184   4.09069   4.09648
 Alpha virt. eigenvalues --    4.11379   4.12412   4.17286   4.18749   4.20925
 Alpha virt. eigenvalues --    4.26205   4.32632   4.33366   4.35223   4.36667
 Alpha virt. eigenvalues --    4.44470   4.55291   4.65534   4.69956   4.75920
          Condensed to atoms (all electrons):
               1          2          3          4          5          6
     1  O    8.318343   0.387497  -0.052446   0.006921   0.005419   0.000346
     2  S    0.387497  13.671340   0.128713  -0.006494  -0.006899   0.000028
     3  N   -0.052446   0.128713   7.374776   0.253586  -0.059564   0.002520
     4  C    0.006921  -0.006494   0.253586   4.851663   0.350681  -0.094593
     5  C    0.005419  -0.006899  -0.059564   0.350681   5.689156   0.142923
     6  S    0.000346   0.000028   0.002520  -0.094593   0.142923  13.874107
     7  C    0.000099   0.001251  -0.035389   0.325526  -0.184349   0.138746
     8  O   -0.000000  -0.000018  -0.000127   0.002839  -0.044900   0.432753
     9  O   -0.000000  -0.000000  -0.000033   0.001075  -0.045377   0.410115
    10  C   -0.008033  -0.001977  -0.059529   0.355411  -0.056883   0.006687
    11  C    0.000004  -0.000566  -0.003420  -0.033485   0.004410  -0.000372
    12  C   -0.000003  -0.000035  -0.000417  -0.003255  -0.000092  -0.000016
    13  C    0.000000  -0.000000   0.000005  -0.000840  -0.000039   0.000265
    14  C    0.000000   0.000000   0.000000  -0.000019   0.000001  -0.000005
    15  C   -0.000000  -0.000000   0.000000   0.000002   0.000000   0.000000
    16  C    0.000000   0.000000   0.000000   0.000004  -0.000000  -0.000002
    17  C    0.000000   0.000007   0.000066   0.000681  -0.000007   0.000082
    18  C   -0.057747   0.195716  -0.055491  -0.003833  -0.000277   0.000009
    19  C    0.001398  -0.031428   0.000543   0.000070  -0.000001  -0.000000
    20  C    0.000602   0.003219  -0.000102   0.000004  -0.000000  -0.000000
    21  C   -0.000005  -0.000340   0.000008   0.000001   0.000000   0.000000
    22  C   -0.000046   0.002225   0.000049   0.000005   0.000000   0.000000
    23  C    0.001697  -0.018712  -0.000131   0.000213   0.000001  -0.000000
    24  O   -0.041192   0.457243  -0.056072   0.001893  -0.000046  -0.000004
    25  H    0.000088  -0.009888   0.293680  -0.021147  -0.000543   0.000550
    26  H    0.000134   0.000315   0.002037  -0.025098   0.345843  -0.012278
    27  H   -0.000080   0.001250  -0.002879  -0.021826   0.332909  -0.002389
    28  H    0.000001   0.000006   0.001304  -0.022189   0.008319  -0.009706
    29  H    0.000003  -0.000052  -0.004485  -0.025109   0.003545  -0.003070
    30  H    0.006759   0.011033  -0.005966  -0.034393  -0.005968  -0.000459
    31  H    0.000093  -0.000136   0.004119  -0.031442  -0.004511   0.007407
    32  H    0.000010  -0.000985   0.007404  -0.010520   0.000263  -0.000001
    33  H   -0.000002  -0.000099   0.000171   0.004593  -0.000137   0.000023
    34  H   -0.000000  -0.000000   0.000001   0.000167  -0.000002   0.000018
    35  H    0.000000  -0.000000  -0.000000   0.000000   0.000000   0.000001
    36  H   -0.000000  -0.000000   0.000000  -0.000000   0.000000  -0.000000
    37  H    0.000000  -0.000000  -0.000000   0.000000   0.000000   0.000000
    38  H    0.000000   0.000002   0.000052  -0.000027   0.000001   0.000005
    39  H    0.011869  -0.007673   0.000247  -0.000017  -0.000006  -0.000000
    40  H    0.000003  -0.000077   0.000001   0.000000   0.000000   0.000000
    41  H   -0.000000   0.000008   0.000000  -0.000000  -0.000000   0.000000
    42  H    0.000000  -0.000071   0.000001   0.000000  -0.000000  -0.000000
    43  H    0.000052  -0.000135   0.002777   0.000044   0.000002   0.000000
               7          8          9         10         11         12
     1  O    0.000099  -0.000000  -0.000000  -0.008033   0.000004  -0.000003
     2  S    0.001251  -0.000018  -0.000000  -0.001977  -0.000566  -0.000035
     3  N   -0.035389  -0.000127  -0.000033  -0.059529  -0.003420  -0.000417
     4  C    0.325526   0.002839   0.001075   0.355411  -0.033485  -0.003255
     5  C   -0.184349  -0.044900  -0.045377  -0.056883   0.004410  -0.000092
     6  S    0.138746   0.432753   0.410115   0.006687  -0.000372  -0.000016
     7  C    5.725205  -0.045977  -0.045734  -0.048032  -0.003908  -0.003687
     8  O   -0.045977   8.258450  -0.045538  -0.000064   0.000000   0.000000
     9  O   -0.045734  -0.045538   8.295946  -0.002268   0.000058  -0.000122
    10  C   -0.048032  -0.000064  -0.002268   5.173415   0.326983  -0.029354
    11  C   -0.003908   0.000000   0.000058   0.326983   5.176798   0.351249
    12  C   -0.003687   0.000000  -0.000122  -0.029354   0.351249   4.678437
    13  C   -0.001771  -0.000000   0.000314  -0.004614  -0.067816   0.532551
    14  C   -0.000043  -0.000000  -0.000043   0.000230   0.006074  -0.019797
    15  C    0.000068   0.000000   0.000000   0.000003   0.000303  -0.034874
    16  C   -0.000037  -0.000000  -0.000000  -0.000194   0.007185  -0.023397
[...]
     6  S   -0.009275  -0.001094   0.000177   0.000426   0.005674   0.004944
     7  C   -0.197602  -0.056718   0.012164   0.089632   0.106808   0.100565
     8  O    0.000211  -0.000004   0.000013   0.000026   0.000245  -0.000586
     9  O   -0.000291  -0.000326   0.000025   0.000037  -0.000044  -0.000050
    10  C   -0.013847   0.116264  -0.062150   0.117381   0.041151  -0.046879
    11  C    0.482246  -0.045655   0.055794  -0.004145   0.325001  -0.016906
    12  C   -0.186029   0.046438  -0.064706   0.029646  -0.419754   0.005225
    13  C    0.063282  -0.003760  -0.008542   0.017967   0.032498  -0.003592
    14  C   -0.003371   0.003345  -0.005013   0.004701  -0.016488  -0.000125
    15  C    0.001187  -0.000630   0.001942  -0.002781   0.006322   0.000028
    16  C   -0.013472  -0.004163   0.017762  -0.006614   0.005334   0.001140
    17  C   -0.020959  -0.017769   0.037594  -0.026392   0.029642   0.002844
    18  C   -7.548700   2.866667  -4.229544   2.860629  -8.291620   0.236515
    19  C   19.205723  -4.956942   3.227104  -4.042074   1.724676   0.020864
    20  C   -4.956942  13.052941  -4.093959   4.251198  -5.034215   0.031847
    21  C    3.227104  -4.093959  10.567572  -3.818783   3.841805  -0.024905
    22  C   -4.042074   4.251198  -3.818783  12.556994  -5.368806  -0.014576
    23  C    1.724676  -5.034215   3.841805  -5.368806  20.044645  -0.189708
    24  O    0.020864   0.031847  -0.024905  -0.014576  -0.189708   9.367138
    25  H   -0.000456  -0.002749   0.004198   0.015711  -0.061209   0.039278
    26  H    0.003521   0.010700  -0.000999   0.002100  -0.003177   0.002787
    27  H   -0.005317  -0.005995   0.001234  -0.003207   0.009876  -0.007600
    28  H   -0.018870  -0.010427   0.006233   0.011889   0.024759   0.006654
    29  H   -0.002312   0.002064  -0.002430   0.000328  -0.003005   0.002164
    30  H   -0.062721  -0.061617   0.028822  -0.026130   0.060387   0.013638
    31  H   -0.009894  -0.002599  -0.005664   0.008887  -0.003328  -0.004996
    32  H   -0.484174   0.071846  -0.006203  -0.071839  -0.340469   0.020918
    33  H    0.045742   0.030731   0.000682  -0.003466  -0.016132   0.000625
    34  H    0.005234  -0.001525   0.000524  -0.000223   0.005173   0.000010
    35  H   -0.000348   0.000193  -0.000123   0.000028  -0.000719   0.000001
    36  H    0.000041   0.000017  -0.000006  -0.000024   0.000079  -0.000000
    37  H   -0.000215  -0.000027   0.000249   0.000354  -0.000138   0.000012
    38  H    0.007576   0.001097  -0.004320   0.001620  -0.001023  -0.001329
    39  H   -1.341295   0.680325  -0.159735   0.113485  -0.171566  -0.003199
    40  H    0.583610  -0.863372   0.349572  -0.249764   0.127342   0.001907
    41  H   -0.107099   0.396047  -0.759908   0.411496  -0.085495  -0.000558
    42  H    0.134124  -0.274864   0.482843  -0.743950   0.436135  -0.000678
    43  H   -0.186916   0.206924  -0.300563   0.327758  -1.611291   0.073831
              25         26         27         28         29         30
     1  O    0.014917   0.006683  -0.001855  -0.002495   0.003368   0.047498
     2  S   -0.180051   0.004030   0.059407  -0.041993  -0.020945  -0.166790
     3  N    0.132851   0.189906  -0.029990   0.318659  -0.106357  -0.014830
     4  C    0.343150  -0.212730   0.048722  -0.978817   0.133557  -0.657651
     5  C    0.031236   0.116046   0.039427   0.182379  -0.171436  -0.166704
     6  S    0.006589   0.064033  -0.170268   0.272424  -0.321273  -0.055061
     7  C   -0.167098   0.157683  -0.068733   0.652137  -0.034684   0.198131
     8  O   -0.003358  -0.017920   0.047956  -0.051579   0.065299   0.005007
     9  O   -0.000986  -0.002870   0.017110  -0.028470   0.031926   0.007294
    10  C    0.002562  -0.246456   0.233428  -0.067589   0.203399   0.139317
    11  C    0.018494   0.079681  -0.009833  -0.127253   0.095690   0.105787
    12  C   -0.014822   0.010531  -0.004245  -0.117136   0.064359   0.209069
    13  C    0.012022   0.001383   0.001747   0.041463  -0.053677  -0.082683
    14  C   -0.002963  -0.005329   0.003421  -0.085998   0.008685  -0.016502
    15  C    0.002521  -0.000819  -0.001417   0.042827  -0.011098   0.000858
    16  C   -0.001924   0.001504  -0.000499   0.008257   0.018308  -0.002112
    17  C    0.013940  -0.003279  -0.003494  -0.102631  -0.035943   0.016403
    18  C    0.091730   0.012833  -0.059024  -0.034192   0.017109   0.040856
    19  C   -0.000456   0.003521  -0.005317  -0.018870  -0.002312  -0.062721
    20  C   -0.002749   0.010700  -0.005995  -0.010427   0.002064  -0.061617
    21  C    0.004198  -0.000999   0.001234   0.006233  -0.002430   0.028822
    22  C    0.015711   0.002100  -0.003207   0.011889   0.000328  -0.026130
    23  C   -0.061209  -0.003177   0.009876   0.024759  -0.003005   0.060387
    24  O    0.039278   0.002787  -0.007600   0.006654   0.002164   0.013638
    25  H    0.893214  -0.001239  -0.013570  -0.006284  -0.041967   0.024794
    26  H   -0.001239   1.357472  -0.240265   0.010753   0.001969   0.005711
    27  H   -0.013570  -0.240265   1.351016   0.010362   0.021415   0.001398
    28  H   -0.006284   0.010753   0.010362   1.544468  -0.333599   0.017990
    29  H   -0.041967   0.001969   0.021415  -0.333599   1.700962   0.006557
    30  H    0.024794   0.005711   0.001398   0.017990   0.006557   2.327365
    31  H   -0.015375  -0.049534   0.032856  -0.016399   0.029015  -0.800702
    32  H   -0.031129   0.026106   0.002445  -0.065721   0.104530   0.204485
    33  H    0.002296   0.002935   0.001241   0.011809  -0.003330  -0.260587
    34  H    0.001795   0.007887  -0.001091   0.046517  -0.004649   0.024601
    35  H   -0.000158  -0.000664   0.000060   0.001513   0.000495   0.000958
    36  H    0.000063   0.000014  -0.000055  -0.008529  -0.000194  -0.000006
    37  H    0.000093   0.000118  -0.000088   0.004259   0.000226  -0.001746
    38  H    0.005938  -0.001981   0.001322   0.041949  -0.014548   0.014449
    39  H   -0.004044  -0.000620  -0.001481  -0.001978   0.001125  -0.020390
    40  H   -0.000209   0.000482  -0.000248  -0.000143  -0.000007   0.006046
    41  H   -0.000050  -0.000034   0.000026  -0.000040  -0.000019   0.000671
    42  H    0.001908   0.000060  -0.000262   0.000577  -0.000446  -0.000478
    43  H    0.008818  -0.000257  -0.000756  -0.007922   0.006903  -0.002758
              31         32         33         34         35         36
     1  O   -0.015217  -0.007304   0.001834  -0.000219   0.000009   0.000007
     2  S    0.058908   0.061540   0.022167   0.001672  -0.000196   0.000076
     3  N    0.132329   0.223701   0.007938   0.014480  -0.001105   0.000487
     4  C   -0.652261  -1.066720   0.162470  -0.021262  -0.006362  -0.000872
     5  C    0.079533  -0.096286   0.049743   0.031072  -0.001657  -0.000703
     6  S   -0.093083  -0.035957   0.003005  -0.020046   0.000085  -0.000084
     7  C    0.184624   0.303392  -0.043260   0.034025   0.001801   0.000868
     8  O   -0.000429   0.001505  -0.000573   0.001936   0.000270  -0.000023
     9  O    0.032905   0.006684  -0.001038   0.010399   0.000061   0.000181
    10  C   -0.028428  -0.115003  -0.204452  -0.056521   0.027923  -0.001557
    11  C   -0.593677  -1.195652  -0.000474  -0.101823  -0.003325   0.001754
    12  C    0.099910   0.985181  -0.067961   0.787794  -0.066339   0.057053
    13  C   -0.053034  -0.607049   0.109451  -1.358433   0.664164  -0.049447
    14  C    0.111235  -0.075880   0.064729   0.517425  -0.924663   0.375042
    15  C   -0.004120  -0.001936   0.011355  -0.194409   0.331560  -0.723520
    16  C    0.001629   0.051263  -0.030826   0.155968  -0.290503   0.362904
    17  C   -0.103020   0.009356   0.055446  -0.193640   0.169705  -0.079202
    18  C   -0.024587   0.336609  -0.033533  -0.007315   0.000971  -0.000087
    19  C   -0.009894  -0.484174   0.045742   0.005234  -0.000348   0.000041
    20  C   -0.002599   0.071846   0.030731  -0.001525   0.000193   0.000017
    21  C   -0.005664  -0.006203   0.000682   0.000524  -0.000123  -0.000006
    22  C    0.008887  -0.071839  -0.003466  -0.000223   0.000028  -0.000024
    23  C   -0.003328  -0.340469  -0.016132   0.005173  -0.000719   0.000079
    24  O   -0.004996   0.020918   0.000625   0.000010   0.000001  -0.000000
    25  H   -0.015375  -0.031129   0.002296   0.001795  -0.000158   0.000063
    26  H   -0.049534   0.026106   0.002935   0.007887  -0.000664   0.000014
    27  H    0.032856   0.002445   0.001241  -0.001091   0.000060  -0.000055
    28  H   -0.016399  -0.065721   0.011809   0.046517   0.001513  -0.008529
    29  H    0.029015   0.104530  -0.003330  -0.004649   0.000495  -0.000194
    30  H   -0.800702   0.204485  -0.260587   0.024601   0.000958  -0.000006
    31  H    2.734737   0.174418   0.074577  -0.099930   0.006782  -0.000279
    32  H    0.174418   3.544505  -0.433522  -0.013762   0.009489   0.002253
    33  H    0.074577  -0.433522   1.507351  -0.015625  -0.003445   0.000542
    34  H   -0.099930  -0.013762  -0.015625   2.273665  -0.089851  -0.016454
    35  H    0.006782   0.009489  -0.003445  -0.089851   1.737675  -0.053541
    36  H   -0.000279   0.002253   0.000542  -0.016454  -0.053541   1.655679
    37  H    0.000344   0.002266   0.001653   0.010339  -0.020361  -0.050553
    38  H   -0.012053  -0.149072   0.015603  -0.022848   0.009630  -0.018570
    39  H    0.006839   0.041603   0.002140  -0.000243  -0.000023   0.000006
    40  H   -0.001262   0.001742  -0.000341   0.000055  -0.000002   0.000001
    41  H   -0.000352  -0.003568  -0.001825   0.000139  -0.000011   0.000001
    42  H    0.000239   0.041779  -0.001866   0.000076   0.000003   0.000000
    43  H    0.001146   0.039203   0.001635  -0.000700   0.000004  -0.000054
              37         38         39         40         41         42
     1  O   -0.000005  -0.000307  -0.055899   0.000123   0.000076   0.000555
     2  S    0.000170   0.001233  -0.017403  -0.023301   0.004384   0.020268
     3  N    0.000321  -0.018505   0.006343  -0.000395   0.000755   0.003077
     4  C    0.019452  -0.055006  -0.080685   0.013896  -0.000922  -0.010038
     5  C    0.000198   0.003388  -0.023417  -0.000084  -0.000030  -0.000387
     6  S   -0.001230  -0.000761  -0.003737   0.000113  -0.000035   0.000189
     7  C   -0.006922   0.038916  -0.002866  -0.001287   0.000003   0.002337
     8  O    0.000213  -0.000332   0.000211  -0.000005   0.000001  -0.000008
     9  O    0.000180  -0.000851   0.000378  -0.000031   0.000003  -0.000005
    10  C   -0.020981   0.116683   0.016718  -0.011077   0.000217  -0.001235
    11  C    0.047445   0.066349   0.011211   0.009372   0.003728  -0.015990
    12  C   -0.035268   0.603252   0.004590  -0.004751  -0.000355  -0.000418
    13  C    0.098943   0.031926   0.001401   0.000118   0.000483  -0.001123
    14  C   -0.220543   0.060870   0.000222  -0.000075  -0.000255   0.000311
    15  C    0.294832  -0.117578   0.000229   0.000005   0.000122  -0.000247
    16  C   -0.819039   0.272200  -0.000809  -0.000088   0.000338   0.003137
    17  C    0.574711  -1.407108   0.002566   0.000438  -0.001945   0.004785
    18  C    0.000241   0.003501   0.526548  -0.053178   0.075517  -0.170957
    19  C   -0.000215   0.007576  -1.341295   0.583610  -0.107099   0.134124
    20  C   -0.000027   0.001097   0.680325  -0.863372   0.396047  -0.274864
    21  C    0.000249  -0.004320  -0.159735   0.349572  -0.759908   0.482843
    22  C    0.000354   0.001620   0.113485  -0.249764   0.411496  -0.743950
    23  C   -0.000138  -0.001023  -0.171566   0.127342  -0.085495   0.436135
    24  O    0.000012  -0.001329  -0.003199   0.001907  -0.000558  -0.000678
    25  H    0.000093   0.005938  -0.004044  -0.000209  -0.000050   0.001908
    26  H    0.000118  -0.001981  -0.000620   0.000482  -0.000034   0.000060
    27  H   -0.000088   0.001322  -0.001481  -0.000248   0.000026  -0.000262
    28  H    0.004259   0.041949  -0.001978  -0.000143  -0.000040   0.000577
    29  H    0.000226  -0.014548   0.001125  -0.000007  -0.000019  -0.000446
    30  H   -0.001746   0.014449  -0.020390   0.006046   0.000671  -0.000478
    31  H    0.000344  -0.012053   0.006839  -0.001262  -0.000352   0.000239
    32  H    0.002266  -0.149072   0.041603   0.001742  -0.003568   0.041779
    33  H    0.001653   0.015603   0.002140  -0.000341  -0.001825  -0.001866
    34  H    0.010339  -0.022848  -0.000243   0.000055   0.000139   0.000076
    35  H   -0.020361   0.009630  -0.000023  -0.000002  -0.000011   0.000003
    36  H   -0.050553  -0.018570   0.000006   0.000001   0.000001   0.000000
    37  H    1.710888  -0.103992  -0.000000   0.000012  -0.000024   0.000188
    38  H   -0.103992   2.329451  -0.000980  -0.000290   0.000537  -0.002048
    39  H   -0.000000  -0.000980   2.242986  -0.098839  -0.013460   0.008843
    40  H    0.000012  -0.000290  -0.098839   1.771301  -0.062103  -0.022074
    41  H   -0.000024   0.000537  -0.013460  -0.062103   1.685516  -0.064148
    42  H    0.000188  -0.002048   0.008843  -0.022074  -0.064148   1.791305
    43  H    0.000527  -0.006211  -0.024630   0.014052  -0.016024  -0.117253
              43
     1  O    0.016331
     2  S   -0.311893
     3  N   -0.061009
     4  C    0.094019
     5  C   -0.000689
     6  S   -0.004348
     7  C   -0.035952
     8  O    0.000318
     9  O    0.000015
    10  C    0.001032
    11  C    0.066196
    12  C   -0.029393
    13  C   -0.001304
    14  C    0.000637
    15  C   -0.001373
    16  C    0.000861
    17  C   -0.011377
    18  C    1.216783
    19  C   -0.186916
    20  C    0.206924
    21  C   -0.300563
    22  C    0.327758
    23  C   -1.611291
    24  O    0.073831
    25  H    0.008818
    26  H   -0.000257
    27  H   -0.000756
    28  H   -0.007922
    29  H    0.006903
    30  H   -0.002758
    31  H    0.001146
    32  H    0.039203
    33  H    0.001635
    34  H   -0.000700
    35  H    0.000004
    36  H   -0.000054
    37  H    0.000527
    38  H   -0.006211
    39  H   -0.024630
    40  H    0.014052
    41  H   -0.016024
    42  H   -0.117253
    43  H    2.330976
 Mulliken charges:
               1
     1  O   -1.264623
     2  S    2.834949
     3  N   -1.315851
     4  C    0.047988
     5  C    0.635143
     6  S    2.954060
     7  C    0.715542
     8  O   -1.256687
     9  O   -1.276305
    10  C    0.649780
    11  C    0.107091
    12  C    0.840214
    13  C    0.524733
    14  C    0.075402
    15  C    0.802192
    16  C    0.070340
    17  C    0.740654
    18  C    0.701893
    19  C    0.474020
    20  C    0.232016
    21  C    0.748850
    22  C    0.109796
    23  C    0.640049
    24  O   -1.193661
    25  H   -0.118475
    26  H   -0.288755
    27  H   -0.255176
    28  H   -0.149816
    29  H   -0.357535
    30  H   -0.108625
    31  H   -0.180691
    32  H   -0.465577
    33  H   -0.065445
    34  H   -0.710218
    35  H   -0.499986
    36  H   -0.453310
    37  H   -0.487100
    38  H   -0.687777
    39  H   -0.640471
    40  H   -0.487262
    41  H   -0.461802
    42  H   -0.504266
    43  H   -0.675296
 Sum of Mulliken charges =  -0.00000
 Mulliken charges with hydrogens summed into heavy atoms:
               1
     1  O   -1.264623
     2  S    2.834949
     3  N   -1.434326
     4  C    0.047988
     5  C    0.091213
     6  S    2.954060
     7  C    0.208191
     8  O   -1.256687
     9  O   -1.276305
    10  C    0.360464
    11  C   -0.423931
    12  C    0.840214
    13  C   -0.185485
    14  C   -0.424584
    15  C    0.348881
    16  C   -0.416760
    17  C    0.052877
    18  C    0.701893
    19  C   -0.166451
    20  C   -0.255246
    21  C    0.287048
    22  C   -0.394470
    23  C   -0.035247
    24  O   -1.193661
 Electronic spatial extent (au):  <R**2>=           9268.1917
 Charge=              0.0000 electrons
 Dipole moment (field-independent basis, Debye):
    X=              4.2984    Y=              7.6915    Z=             -0.1227  Tot=              8.8120
 Quadrupole moment (field-independent basis, Debye-Ang):
   XX=           -172.7907   YY=           -173.0928   ZZ=           -150.0028
   XY=             -0.2246   XZ=              7.7956   YZ=             -5.8026
 Traceless Quadrupole moment (field-independent basis, Debye-Ang):
   XX=             -7.4953   YY=             -7.7974   ZZ=             15.2927
   XY=             -0.2246   XZ=              7.7956   YZ=             -5.8026
 Octapole moment (field-independent basis, Debye-Ang**2):
  XXX=             74.1708  YYY=             12.2540  ZZZ=             -1.1913  XYY=             41.0494
  XXY=            163.6505  XXZ=             20.7475  XZZ=              9.8611  YZZ=             10.9914
  YYZ=              1.7658  XYZ=              0.9337
 Hexadecapole moment (field-independent basis, Debye-Ang**3):
 XXXX=          -7382.2570 YYYY=          -4629.2053 ZZZZ=           -956.2373 XXXY=            -77.8316
 XXXZ=            135.1477 YYYX=            -15.8036 YYYZ=           -149.7204 ZZZX=             24.8750
 ZZZY=            -13.6226 XXYY=          -1984.2740 XXZZ=          -1343.0515 YYZZ=           -884.8884
 XXYZ=            -28.8758 YYXZ=              2.3808 ZZXY=             28.2430
 N-N= 2.506102325106D+03 E-N=-9.260075940680D+03  KE= 1.801866392183D+03
 Leave Link  601 at Tue Sep 22 06:46:12 2020, MaxMem=   262144000 cpu:               1.6 elap:               0.5
 (Enter /prod/apps/gaussian/g16b1/l9999.exe)
 1\1\GINC-PIRINEUS8\SP\RMP2-FC\Aug-CC-pVDZ\C17H19N1O4S2\UBAFAR01\22-Sep
 -2020\0\\#p mp2/aug-cc-pVDZ scf=(MaxCycle=2000,NoVarAcc,NoIncFock) max
 disk=120GB geom=allcheck\\SM39_m0.n.10.pdb.xyz\\0,1\O,0,2.1420669916,-
 2.1284922765,0.9316109394\S,0,2.2149962586,-1.4253046851,-0.3603930229
 \N,0,0.6622638887,-1.015996124,-0.8886545058\C,0,-0.4946217582,-1.1000
 566982,0.0157781045\C,0,-0.7874975366,-2.5331648325,0.6027443938\S,0,-
 2.5262227431,-2.382664528,0.0777529075\C,0,-1.8029281683,-0.9811045172
 ,-0.8347935744\O,0,-3.0098128226,-3.4822479137,-0.7793014908\O,0,-3.39
 71132856,-1.9196919616,1.1797614382\C,0,-0.4142670862,-0.0560954838,1.
 1431199012\C,0,-0.2866866451,1.4131742794,0.6967813815\C,0,-1.57165865
 5,2.0938936482,0.2662212529\C,0,-2.6873497856,2.1433081947,1.115968021
 7\C,0,-3.8569451191,2.795948418,0.7254340043\C,0,-3.9317442836,3.41728
 02601,-0.5243351011\C,0,-2.8275784254,3.3805478874,-1.3773497844\C,0,-
 1.6595513908,2.7237410691,-0.982113487\C,0,3.0455712507,0.1342582508,-
 0.0832973522\C,0,3.5110126913,0.4296548492,1.1972026392\C,0,4.19615509
 13,1.628234322,1.404036677\C,0,4.4079010866,2.5055609504,0.339990897\C
 ,0,3.9406985056,2.1911770038,-0.940444761\C,0,3.2569646385,0.997790537
 9,-1.1626433012\O,0,2.8480776499,-2.0818230737,-1.5167630328\H,0,0.516
 8435154,-1.491268151,-1.7822976817\H,0,-0.6541517397,-2.6687095466,1.6
 744675019\H,0,-0.3120079911,-3.3362942321,0.0422479876\H,0,-2.35931761
 6,-0.051752594,-0.7460966728\H,0,-1.6750638829,-1.2574095956,-1.881664
 6357\H,0,0.4442514442,-0.3186892569,1.7669608267\H,0,-1.2969457141,-0.
 1781586703,1.7783363571\H,0,0.4444089858,1.4826846808,-0.1122117834\H,
 0,0.13537466,1.9678802155,1.5431844384\H,0,-2.6394452902,1.6645768476,
 2.089833404\H,0,-4.7084494743,2.8220559081,1.3966181649\H,0,-4.8413591
 634,3.9245492429,-0.8281679114\H,0,-2.8737940787,3.8596830871,-2.35034
 74335\H,0,-0.8023379439,2.694489504,-1.6485433906\H,0,3.3384867114,-0.
 2680039907,2.0071243405\H,0,4.5628742394,1.8719167396,2.3947363214\H,0
 ,4.9394390682,3.4363126947,0.5053562037\H,0,4.110260938,2.8738451532,-
 1.7655426744\H,0,2.8942029843,0.7453643871,-2.1523065071\\Version=ES64
 L-G16RevB.01\State=1-A\HF=-1803.7156488\MP2=-1807.3675892\RMSD=7.593e-
 09\PG=C01 [X(C17H19N1O4S2)]\\@


 YOU ARE IN A MAZE OF TWISTY LITTLE PASSAGES.
 Job cpu time:       0 days  7 hours 32 minutes 31.2 seconds.
 Elapsed time:       0 days  2 hours  8 minutes 11.8 seconds.
 File lengths (MBytes):  RWF=  87754 Int=      0 D2E=      0 Chk=     43 Scr=      1
 Normal termination of Gaussian 16 at Tue Sep 22 06:46:14 2020.
