 Entering Gaussian System, Link 0=g16
 Initial command:
 /prod/apps/gaussian/g16b1/l1.exe "/tmp/ubafar01/1461099/Gau-191985.inp" -scrdir="/tmp/ubafar01/1461099/"
 Entering Link 1 = /prod/apps/gaussian/g16b1/l1.exe PID=    191986.
  
 Copyright (c) 1988-2017, Gaussian, Inc.  All Rights Reserved.
  
 This is part of the Gaussian(R) 16 program.  It is based on
 the Gaussian(R) 09 system (copyright 2009, Gaussian, Inc.),
 the Gaussian(R) 03 system (copyright 2003, Gaussian, Inc.),
 the Gaussian(R) 98 system (copyright 1998, Gaussian, Inc.),
 the Gaussian(R) 94 system (copyright 1995, Gaussian, Inc.),
 the Gaussian 92(TM) system (copyright 1992, Gaussian, Inc.),
 the Gaussian 90(TM) system (copyright 1990, Gaussian, Inc.),
 the Gaussian 88(TM) system (copyright 1988, Gaussian, Inc.),
 the Gaussian 86(TM) system (copyright 1986, Carnegie Mellon
 University), and the Gaussian 82(TM) system (copyright 1983,
 Carnegie Mellon University). Gaussian is a federally registered
 trademark of Gaussian, Inc.
  
 This software contains proprietary and confidential information,
 including trade secrets, belonging to Gaussian, Inc.
  
 This software is provided under written license and may be
 used, copied, transmitted, or stored only in accord with that
 written license.
  
 The following legend is applicable only to US Government
 contracts under FAR:
  
                    RESTRICTED RIGHTS LEGEND
  
 Use, reproduction and disclosure by the US Government is
 subject to restrictions as set forth in subparagraphs (a)
 and (c) of the Commercial Computer Software - Restricted
 Rights clause in FAR 52.227-19.
  
 Gaussian, Inc.
 340 Quinnipiac St., Bldg. 40, Wallingford CT 06492
  
  
 ---------------------------------------------------------------
 Warning -- This program may not be used in any manner that
 competes with the business of Gaussian, Inc. or will provide
 assistance to any competitor of Gaussian, Inc.  The licensee
 of this program is prohibited from giving any competitor of
 Gaussian, Inc. access to this program.  By using this program,
 the user acknowledges that Gaussian, Inc. is engaged in the
 business of creating and licensing software in the field of
 computational chemistry and represents and warrants to the
 licensee that it is not a competitor of Gaussian, Inc. and that
 it will not use this program in any manner prohibited above.
 ---------------------------------------------------------------
  

 Cite this work as:
 Gaussian 16, Revision B.01,
 M. J. Frisch, G. W. Trucks, H. B. Schlegel, G. E. Scuseria, 
 M. A. Robb, J. R. Cheeseman, G. Scalmani, V. Barone, 
 G. A. Petersson, H. Nakatsuji, X. Li, M. Caricato, A. V. Marenich, 
 J. Bloino, B. G. Janesko, R. Gomperts, B. Mennucci, H. P. Hratchian, 
 J. V. Ortiz, A. F. Izmaylov, J. L. Sonnenberg, D. Williams-Young, 
 F. Ding, F. Lipparini, F. Egidi, J. Goings, B. Peng, A. Petrone, 
 T. Henderson, D. Ranasinghe, V. G. Zakrzewski, J. Gao, N. Rega, 
 G. Zheng, W. Liang, M. Hada, M. Ehara, K. Toyota, R. Fukuda, 
 J. Hasegawa, M. Ishida, T. Nakajima, Y. Honda, O. Kitao, H. Nakai, 
 T. Vreven, K. Throssell, J. A. Montgomery, Jr., J. E. Peralta, 
 F. Ogliaro, M. J. Bearpark, J. J. Heyd, E. N. Brothers, K. N. Kudin, 
 V. N. Staroverov, T. A. Keith, R. Kobayashi, J. Normand, 
 K. Raghavachari, A. P. Rendell, J. C. Burant, S. S. Iyengar, 
 J. Tomasi, M. Cossi, J. M. Millam, M. Klene, C. Adamo, R. Cammi, 
 J. W. Ochterski, R. L. Martin, K. Morokuma, O. Farkas, 
 J. B. Foresman, and D. J. Fox, Gaussian, Inc., Wallingford CT, 2016.
 
 ******************************************
 Gaussian 16:  ES64L-G16RevB.01 20-Dec-2017
                24-Sep-2020 
 ******************************************
 %nproc=4
 Will use up to    4 processors via shared memory.
 %Chk=SM40_38.b.15.pdb.xyz.mst.b.w.chk
 %mem=16GB
 ----------------------------------------------------------------------
 #p b3lyp/6-31G(d) opt freq NoSymm scf=(MaxCycle=2000,NoVarAcc,NoIncFoc
 k) scrf=(iefpcm,read,solvent=water)
 ----------------------------------------------------------------------
 1/18=20,19=15,26=3,38=1,40=2/1,3;
 2/9=110,12=2,15=1,17=6,18=5,40=1/2;
 3/5=1,6=6,7=1,11=2,25=1,30=1,70=2203,71=1,72=1,74=-5/1,2,3;
 4//1;
 5/5=100002,7=2000,38=1,53=1/2;
 6/7=2,8=2,9=2,10=2,28=1/1;
 7/30=1/1,2,3,16;
 1/18=20,19=15,26=3/3(2);
 2/9=110,15=1/2;
 99//99;
 2/9=110,15=1/2;
 3/5=1,6=6,7=1,11=2,25=1,30=1,70=2205,71=1,72=1,74=-5/1,2,3;
 4/5=5,16=3,69=1/1;
 5/5=100002,7=2000,38=1,53=1/2;
 7/30=1/1,2,3,16;
 1/18=20,19=15,26=3/3(-5);
 2/9=110,15=1/2;
 6/7=2,8=2,9=2,10=2,19=2,28=1/1;
 99/9=1/99;
 Leave Link    1 at Thu Sep 24 01:19:44 2020, MaxMem=  2147483648 cpu:               0.2 elap:               0.1
 (Enter /prod/apps/gaussian/g16b1/l101.exe)
 --------------------
 SM40_38.b.15.pdb.xyz
 --------------------
 Symbolic Z-matrix:
 Charge =  1 Multiplicity = 1
 S                     2.789    -0.695    -0.525 
 N                     1.172    -0.688    -0.487 
 C                     0.253     0.468    -0.29 
 C                     0.368     1.562    -1.408 
 S                     0.533     2.866    -0.134 
 C                     0.609     1.377     0.934 
 O                     1.811     3.599    -0.201 
 O                    -0.711     3.636     0.055 
 C                    -1.145    -0.189    -0.194 
 C                    -2.346     0.752     0.031 
 C                    -3.64     -0.038     0.086 
 C                    -4.114    -0.555     1.3 
 C                    -5.292    -1.304     1.347 
 C                    -6.017    -1.546     0.177 
 C                    -5.555    -1.034    -1.038 
 C                    -4.376    -0.287    -1.081 
 O                     3.322     0.65     -0.392 
 O                     3.283    -1.675    -1.477 
 H                     0.775    -1.504    -0.959 
 H                    -0.504     1.688    -2.051 
 H                     1.278     1.502    -2.005 
 H                    -0.111     1.38      1.751 
 H                     1.622     1.272     1.319 
 H                    -1.107    -0.92      0.622 
 H                    -1.314    -0.748    -1.123 
 H                    -2.407     1.491    -0.774 
 H                    -2.223     1.309     0.966 
 H                    -3.558    -0.367     2.215 
 H                    -5.646    -1.693     2.298 
 H                    -6.935    -2.125     0.213 
 H                    -6.115    -1.213    -1.953 
 H                    -4.026     0.113    -2.03 
 N                     3.242    -1.486     1.123 
 C                     4.731    -1.451     1.308 
 H                     5.069    -0.419     1.227 
 H                     4.947    -1.842     2.303 
 H                     5.191    -2.077     0.544 
 C                     2.668    -2.863     1.262 
 H                     3.123    -3.51      0.513 
 H                     2.906    -3.215     2.266 
 H                     1.588    -2.81      1.135 
 H                     2.809    -0.874     1.839 
 
 ITRead=  0  0  0  0  0  0  0  0  0  0  0  0  0  0  0  0  0  0  0  0
 ITRead=  0  0  0  0  0  0  0  0  0  0  0  0  0  0  0  0  0  0  0  0
 ITRead=  0  0
 MicOpt= -1 -1 -1 -1 -1 -1 -1 -1 -1 -1 -1 -1 -1 -1 -1 -1 -1 -1 -1 -1
 MicOpt= -1 -1 -1 -1 -1 -1 -1 -1 -1 -1 -1 -1 -1 -1 -1 -1 -1 -1 -1 -1
 MicOpt= -1 -1
 NAtoms=     42 NQM=       42 NQMF=       0 NMMI=      0 NMMIF=      0
                NMic=       0 NMicF=      0.
                    Isotopes and Nuclear Properties:
 (Nuclear quadrupole moments (NQMom) in fm**2, nuclear magnetic moments (NMagM)
  in nuclear magnetons)

  Atom         1           2           3           4           5           6           7           8           9          10
 IAtWgt=          32          14          12          12          32          12          16          16          12          12
 AtmWgt=  31.9720718  14.0030740  12.0000000  12.0000000  31.9720718  12.0000000  15.9949146  15.9949146  12.0000000  12.0000000
 NucSpn=           0           2           0           0           0           0           0           0           0           0
 AtZEff=  -0.0000000  -0.0000000  -0.0000000  -0.0000000  -0.0000000  -0.0000000  -0.0000000  -0.0000000  -0.0000000  -0.0000000
 NQMom=    0.0000000   2.0440000   0.0000000   0.0000000   0.0000000   0.0000000   0.0000000   0.0000000   0.0000000   0.0000000
 NMagM=    0.0000000   0.4037610   0.0000000   0.0000000   0.0000000   0.0000000   0.0000000   0.0000000   0.0000000   0.0000000
 AtZNuc=  16.0000000   7.0000000   6.0000000   6.0000000  16.0000000   6.0000000   8.0000000   8.0000000   6.0000000   6.0000000

  Atom        11          12          13          14          15          16          17          18          19          20
 IAtWgt=          12          12          12          12          12          12          16          16           1           1
 AtmWgt=  12.0000000  12.0000000  12.0000000  12.0000000  12.0000000  12.0000000  15.9949146  15.9949146   1.0078250   1.0078250
 NucSpn=           0           0           0           0           0           0           0           0           1           1
 AtZEff=  -0.0000000  -0.0000000  -0.0000000  -0.0000000  -0.0000000  -0.0000000  -0.0000000  -0.0000000  -0.0000000  -0.0000000
 NQMom=    0.0000000   0.0000000   0.0000000   0.0000000   0.0000000   0.0000000   0.0000000   0.0000000   0.0000000   0.0000000
 NMagM=    0.0000000   0.0000000   0.0000000   0.0000000   0.0000000   0.0000000   0.0000000   0.0000000   2.7928460   2.7928460
 AtZNuc=   6.0000000   6.0000000   6.0000000   6.0000000   6.0000000   6.0000000   8.0000000   8.0000000   1.0000000   1.0000000

  Atom        21          22          23          24          25          26          27          28          29          30
 IAtWgt=           1           1           1           1           1           1           1           1           1           1
 AtmWgt=   1.0078250   1.0078250   1.0078250   1.0078250   1.0078250   1.0078250   1.0078250   1.0078250   1.0078250   1.0078250
 NucSpn=           1           1           1           1           1           1           1           1           1           1
 AtZEff=  -0.0000000  -0.0000000  -0.0000000  -0.0000000  -0.0000000  -0.0000000  -0.0000000  -0.0000000  -0.0000000  -0.0000000
 NQMom=    0.0000000   0.0000000   0.0000000   0.0000000   0.0000000   0.0000000   0.0000000   0.0000000   0.0000000   0.0000000
 NMagM=    2.7928460   2.7928460   2.7928460   2.7928460   2.7928460   2.7928460   2.7928460   2.7928460   2.7928460   2.7928460
 AtZNuc=   1.0000000   1.0000000   1.0000000   1.0000000   1.0000000   1.0000000   1.0000000   1.0000000   1.0000000   1.0000000

  Atom        31          32          33          34          35          36          37          38          39          40
 IAtWgt=           1           1          14          12           1           1           1          12           1           1
 AtmWgt=   1.0078250   1.0078250  14.0030740  12.0000000   1.0078250   1.0078250   1.0078250  12.0000000   1.0078250   1.0078250
 NucSpn=           1           1           2           0           1           1           1           0           1           1
 AtZEff=  -0.0000000  -0.0000000  -0.0000000  -0.0000000  -0.0000000  -0.0000000  -0.0000000  -0.0000000  -0.0000000  -0.0000000
 NQMom=    0.0000000   0.0000000   2.0440000   0.0000000   0.0000000   0.0000000   0.0000000   0.0000000   0.0000000   0.0000000
 NMagM=    2.7928460   2.7928460   0.4037610   0.0000000   2.7928460   2.7928460   2.7928460   0.0000000   2.7928460   2.7928460
 AtZNuc=   1.0000000   1.0000000   7.0000000   6.0000000   1.0000000   1.0000000   1.0000000   6.0000000   1.0000000   1.0000000

  Atom        41          42
 IAtWgt=           1           1
 AtmWgt=   1.0078250   1.0078250
 NucSpn=           1           1
 AtZEff=  -0.0000000  -0.0000000
 NQMom=    0.0000000   0.0000000
 NMagM=    2.7928460   2.7928460
 AtZNuc=   1.0000000   1.0000000
 Leave Link  101 at Thu Sep 24 01:19:45 2020, MaxMem=  2147483648 cpu:               1.3 elap:               0.3
 (Enter /prod/apps/gaussian/g16b1/l103.exe)

 GradGradGradGradGradGradGradGradGradGradGradGradGradGradGradGradGradGrad
 Berny optimization.
 Initialization pass.
                           ----------------------------
                           !    Initial Parameters    !
                           ! (Angstroms and Degrees)  !
 --------------------------                            --------------------------
 ! Name  Definition              Value          Derivative Info.                !
 --------------------------------------------------------------------------------
 ! R1    R(1,2)                  1.6175         estimate D2E/DX2                !
 ! R2    R(1,17)                 1.4529         estimate D2E/DX2                !
 ! R3    R(1,18)                 1.4528         estimate D2E/DX2                !
 ! R4    R(1,33)                 1.8833         estimate D2E/DX2                !
 ! R5    R(2,3)                  1.4899         estimate D2E/DX2                !
 ! R6    R(2,19)                 1.0229         estimate D2E/DX2                !
 ! R7    R(3,4)                  1.5684         estimate D2E/DX2                !
 ! R8    R(3,6)                  1.5656         estimate D2E/DX2                !
 ! R9    R(3,9)                  1.5477         estimate D2E/DX2                !
 ! R10   R(4,5)                  1.8305         estimate D2E/DX2                !
 ! R11   R(4,20)                 1.0907         estimate D2E/DX2                !
 ! R12   R(4,21)                 1.09           estimate D2E/DX2                !
 ! R13   R(5,6)                  1.834          estimate D2E/DX2                !
 ! R14   R(5,7)                  1.4748         estimate D2E/DX2                !
 ! R15   R(5,8)                  1.4752         estimate D2E/DX2                !
 ! R16   R(6,22)                 1.089          estimate D2E/DX2                !
 ! R17   R(6,23)                 1.0888         estimate D2E/DX2                !
 ! R18   R(9,10)                 1.5422         estimate D2E/DX2                !
 ! R19   R(9,24)                 1.0962         estimate D2E/DX2                !
 ! R20   R(9,25)                 1.0973         estimate D2E/DX2                !
 ! R21   R(10,11)                1.5171         estimate D2E/DX2                !
 ! R22   R(10,26)                1.0945         estimate D2E/DX2                !
 ! R23   R(10,27)                1.0953         estimate D2E/DX2                !
 ! R24   R(11,12)                1.4021         estimate D2E/DX2                !
 ! R25   R(11,16)                1.402          estimate D2E/DX2                !
 ! R26   R(12,13)                1.3967         estimate D2E/DX2                !
 ! R27   R(12,28)                1.0871         estimate D2E/DX2                !
 ! R28   R(13,14)                1.3975         estimate D2E/DX2                !
 ! R29   R(13,29)                1.0868         estimate D2E/DX2                !
 ! R30   R(14,15)                1.3971         estimate D2E/DX2                !
 ! R31   R(14,30)                1.0859         estimate D2E/DX2                !
 ! R32   R(15,16)                1.3964         estimate D2E/DX2                !
 ! R33   R(15,31)                1.0876         estimate D2E/DX2                !
 ! R34   R(16,32)                1.0877         estimate D2E/DX2                !
 ! R35   R(33,34)                1.5009         estimate D2E/DX2                !
 ! R36   R(33,38)                1.4983         estimate D2E/DX2                !
 ! R37   R(33,42)                1.0367         estimate D2E/DX2                !
 ! R38   R(34,35)                1.089          estimate D2E/DX2                !
 ! R39   R(34,36)                1.0907         estimate D2E/DX2                !
 ! R40   R(34,37)                1.0896         estimate D2E/DX2                !
 ! R41   R(38,39)                1.0893         estimate D2E/DX2                !
 ! R42   R(38,40)                1.0902         estimate D2E/DX2                !
 ! R43   R(38,41)                1.0887         estimate D2E/DX2                !
 ! A1    A(2,1,17)             111.1371         estimate D2E/DX2                !
 ! A2    A(2,1,18)             110.9922         estimate D2E/DX2                !
 ! A3    A(2,1,33)             102.8105         estimate D2E/DX2                !
 ! A4    A(17,1,18)            124.0356         estimate D2E/DX2                !
 ! A5    A(17,1,33)            102.7371         estimate D2E/DX2                !
 ! A6    A(18,1,33)            102.0227         estimate D2E/DX2                !
 ! A7    A(1,2,3)              128.5445         estimate D2E/DX2                !
 ! A8    A(1,2,19)             111.9453         estimate D2E/DX2                !
 ! A9    A(3,2,19)             116.1419         estimate D2E/DX2                !
 ! A10   A(2,3,4)              113.686          estimate D2E/DX2                !
 ! A11   A(2,3,6)              114.4315         estimate D2E/DX2                !
 ! A12   A(2,3,9)              103.6508         estimate D2E/DX2                !
 ! A13   A(4,3,6)               97.7949         estimate D2E/DX2                !
 ! A14   A(4,3,9)              113.9881         estimate D2E/DX2                !
 ! A15   A(6,3,9)              113.7891         estimate D2E/DX2                !
 ! A16   A(3,4,5)               90.4235         estimate D2E/DX2                !
 ! A17   A(3,4,20)             116.2423         estimate D2E/DX2                !
 ! A18   A(3,4,21)             114.4078         estimate D2E/DX2                !
 ! A19   A(5,4,20)             113.582          estimate D2E/DX2                !
 ! A20   A(5,4,21)             110.1912         estimate D2E/DX2                !
 ! A21   A(20,4,21)            110.5434         estimate D2E/DX2                !
 ! A22   A(4,5,6)               80.2507         estimate D2E/DX2                !
 ! A23   A(4,5,7)              113.6127         estimate D2E/DX2                !
 ! A24   A(4,5,8)              112.6434         estimate D2E/DX2                !
 ! A25   A(6,5,7)              113.2078         estimate D2E/DX2                !
 ! A26   A(6,5,8)              112.5891         estimate D2E/DX2                !
 ! A27   A(7,5,8)              118.4992         estimate D2E/DX2                !
 ! A28   A(3,6,5)               90.3834         estimate D2E/DX2                !
 ! A29   A(3,6,22)             115.9631         estimate D2E/DX2                !
 ! A30   A(3,6,23)             115.5957         estimate D2E/DX2                !
 ! A31   A(5,6,22)             114.0325         estimate D2E/DX2                !
 ! A32   A(5,6,23)             108.8308         estimate D2E/DX2                !
 ! A33   A(22,6,23)            110.495          estimate D2E/DX2                !
 ! A34   A(3,9,10)             116.9661         estimate D2E/DX2                !
 ! A35   A(3,9,24)             107.3342         estimate D2E/DX2                !
 ! A36   A(3,9,25)             107.6296         estimate D2E/DX2                !
 ! A37   A(10,9,24)            108.9821         estimate D2E/DX2                !
 ! A38   A(10,9,25)            108.325          estimate D2E/DX2                !
 ! A39   A(24,9,25)            107.2079         estimate D2E/DX2                !
 ! A40   A(9,10,11)            110.5966         estimate D2E/DX2                !
 ! A41   A(9,10,26)            110.3698         estimate D2E/DX2                !
 ! A42   A(9,10,27)            110.3274         estimate D2E/DX2                !
 ! A43   A(11,10,26)           109.3132         estimate D2E/DX2                !
 ! A44   A(11,10,27)           109.2481         estimate D2E/DX2                !
 ! A45   A(26,10,27)           106.904          estimate D2E/DX2                !
 ! A46   A(10,11,12)           120.7817         estimate D2E/DX2                !
 ! A47   A(10,11,16)           120.669          estimate D2E/DX2                !
 ! A48   A(12,11,16)           118.5399         estimate D2E/DX2                !
 ! A49   A(11,12,13)           120.7974         estimate D2E/DX2                !
 ! A50   A(11,12,28)           119.4808         estimate D2E/DX2                !
 ! A51   A(13,12,28)           119.7216         estimate D2E/DX2                !
 ! A52   A(12,13,14)           120.1466         estimate D2E/DX2                !
 ! A53   A(12,13,29)           119.7436         estimate D2E/DX2                !
 ! A54   A(14,13,29)           120.1088         estimate D2E/DX2                !
 ! A55   A(13,14,15)           119.5426         estimate D2E/DX2                !
 ! A56   A(13,14,30)           120.2065         estimate D2E/DX2                !
 ! A57   A(15,14,30)           120.2505         estimate D2E/DX2                !
 ! A58   A(14,15,16)           120.135          estimate D2E/DX2                !
 ! A59   A(14,15,31)           120.0711         estimate D2E/DX2                !
 ! A60   A(16,15,31)           119.7935         estimate D2E/DX2                !
 ! A61   A(11,16,15)           120.8384         estimate D2E/DX2                !
 ! A62   A(11,16,32)           119.4723         estimate D2E/DX2                !
 ! A63   A(15,16,32)           119.6881         estimate D2E/DX2                !
 ! A64   A(1,33,34)            109.6762         estimate D2E/DX2                !
 ! A65   A(1,33,38)            112.0265         estimate D2E/DX2                !
 ! A66   A(1,33,42)            104.8305         estimate D2E/DX2                !
 ! A67   A(34,33,38)           112.9588         estimate D2E/DX2                !
 ! A68   A(34,33,42)           108.3899         estimate D2E/DX2                !
 ! A69   A(38,33,42)           108.5702         estimate D2E/DX2                !
 ! A70   A(33,34,35)           108.7154         estimate D2E/DX2                !
 ! A71   A(33,34,36)           107.4918         estimate D2E/DX2                !
 ! A72   A(33,34,37)           108.6036         estimate D2E/DX2                !
 ! A73   A(35,34,36)           110.2509         estimate D2E/DX2                !
 ! A74   A(35,34,37)           111.1793         estimate D2E/DX2                !
 ! A75   A(36,34,37)           110.4938         estimate D2E/DX2                !
 ! A76   A(33,38,39)           108.7871         estimate D2E/DX2                !
 ! A77   A(33,38,40)           107.3696         estimate D2E/DX2                !
 ! A78   A(33,38,41)           108.9332         estimate D2E/DX2                !
 ! A79   A(39,38,40)           110.5029         estimate D2E/DX2                !
 ! A80   A(39,38,41)           111.2874         estimate D2E/DX2                !
 ! A81   A(40,38,41)           109.8584         estimate D2E/DX2                !
 ! D1    D(17,1,2,3)            -2.4919         estimate D2E/DX2                !
 ! D2    D(17,1,2,19)          155.6862         estimate D2E/DX2                !
 ! D3    D(18,1,2,3)          -144.7789         estimate D2E/DX2                !
 ! D4    D(18,1,2,19)           13.3992         estimate D2E/DX2                !
 ! D5    D(33,1,2,3)           106.7967         estimate D2E/DX2                !
 ! D6    D(33,1,2,19)          -95.0252         estimate D2E/DX2                !
 ! D7    D(2,1,33,34)         -174.6439         estimate D2E/DX2                !
 ! D8    D(2,1,33,38)           59.0898         estimate D2E/DX2                !
 ! D9    D(2,1,33,42)          -58.4588         estimate D2E/DX2                !
 ! D10   D(17,1,33,34)         -59.1424         estimate D2E/DX2                !
 ! D11   D(17,1,33,38)         174.5912         estimate D2E/DX2                !
 ! D12   D(17,1,33,42)          57.0426         estimate D2E/DX2                !
 ! D13   D(18,1,33,34)          70.2655         estimate D2E/DX2                !
 ! D14   D(18,1,33,38)         -56.0009         estimate D2E/DX2                !
 ! D15   D(18,1,33,42)        -173.5495         estimate D2E/DX2                !
 ! D16   D(1,2,3,4)             61.9005         estimate D2E/DX2                !
 ! D17   D(1,2,3,6)            -49.3198         estimate D2E/DX2                !
 ! D18   D(1,2,3,9)           -173.809          estimate D2E/DX2                !
 ! D19   D(19,2,3,4)           -95.5131         estimate D2E/DX2                !
 ! D20   D(19,2,3,6)           153.2667         estimate D2E/DX2                !
 ! D21   D(19,2,3,9)            28.7774         estimate D2E/DX2                !
 ! D22   D(2,3,4,5)           -129.8019         estimate D2E/DX2                !
 ! D23   D(2,3,4,20)           113.4744         estimate D2E/DX2                !
 ! D24   D(2,3,4,21)           -17.3199         estimate D2E/DX2                !
 ! D25   D(6,3,4,5)             -8.7432         estimate D2E/DX2                !
 ! D26   D(6,3,4,20)          -125.4669         estimate D2E/DX2                !
 ! D27   D(6,3,4,21)           103.7388         estimate D2E/DX2                !
 ! D28   D(9,3,4,5)            111.6902         estimate D2E/DX2                !
 ! D29   D(9,3,4,20)            -5.0335         estimate D2E/DX2                !
 ! D30   D(9,3,4,21)          -135.8278         estimate D2E/DX2                !
 ! D31   D(2,3,6,5)            129.2263         estimate D2E/DX2                !
 ! D32   D(2,3,6,22)          -113.629          estimate D2E/DX2                !
 ! D33   D(2,3,6,23)            18.0579         estimate D2E/DX2                !
 ! D34   D(4,3,6,5)              8.7264         estimate D2E/DX2                !
 ! D35   D(4,3,6,22)           125.8711         estimate D2E/DX2                !
 ! D36   D(4,3,6,23)          -102.442          estimate D2E/DX2                !
 ! D37   D(9,3,6,5)           -111.8566         estimate D2E/DX2                !
 ! D38   D(9,3,6,22)             5.2881         estimate D2E/DX2                !
 ! D39   D(9,3,6,23)           136.975          estimate D2E/DX2                !
 ! D40   D(2,3,9,10)           179.3562         estimate D2E/DX2                !
 ! D41   D(2,3,9,24)            56.5965         estimate D2E/DX2                !
 ! D42   D(2,3,9,25)           -58.5146         estimate D2E/DX2                !
 ! D43   D(4,3,9,10)           -56.5498         estimate D2E/DX2                !
 ! D44   D(4,3,9,24)          -179.3094         estimate D2E/DX2                !
 ! D45   D(4,3,9,25)            65.5794         estimate D2E/DX2                !
 ! D46   D(6,3,9,10)            54.4517         estimate D2E/DX2                !
 ! D47   D(6,3,9,24)           -68.308          estimate D2E/DX2                !
 ! D48   D(6,3,9,25)           176.5809         estimate D2E/DX2                !
 ! D49   D(3,4,5,6)              7.4955         estimate D2E/DX2                !
 ! D50   D(3,4,5,7)            118.6735         estimate D2E/DX2                !
 ! D51   D(3,4,5,8)           -103.0301         estimate D2E/DX2                !
 ! D52   D(20,4,5,6)           126.5537         estimate D2E/DX2                !
 ! D53   D(20,4,5,7)          -122.2684         estimate D2E/DX2                !
 ! D54   D(20,4,5,8)            16.0281         estimate D2E/DX2                !
 ! D55   D(21,4,5,6)          -108.801          estimate D2E/DX2                !
 ! D56   D(21,4,5,7)             2.377          estimate D2E/DX2                !
 ! D57   D(21,4,5,8)           140.6734         estimate D2E/DX2                !
 ! D58   D(4,5,6,3)             -7.509          estimate D2E/DX2                !
 ! D59   D(4,5,6,22)          -126.3472         estimate D2E/DX2                !
 ! D60   D(4,5,6,23)           109.797          estimate D2E/DX2                !
 ! D61   D(7,5,6,3)           -119.1343         estimate D2E/DX2                !
 ! D62   D(7,5,6,22)           122.0275         estimate D2E/DX2                !
 ! D63   D(7,5,6,23)            -1.8283         estimate D2E/DX2                !
 ! D64   D(8,5,6,3)            103.077          estimate D2E/DX2                !
 ! D65   D(8,5,6,22)           -15.7613         estimate D2E/DX2                !
 ! D66   D(8,5,6,23)          -139.6171         estimate D2E/DX2                !
 ! D67   D(3,9,10,11)          179.3359         estimate D2E/DX2                !
 ! D68   D(3,9,10,26)           58.2434         estimate D2E/DX2                !
 ! D69   D(3,9,10,27)          -59.6815         estimate D2E/DX2                !
 ! D70   D(24,9,10,11)         -58.7584         estimate D2E/DX2                !
 ! D71   D(24,9,10,26)        -179.8508         estimate D2E/DX2                !
 ! D72   D(24,9,10,27)          62.2243         estimate D2E/DX2                !
 ! D73   D(25,9,10,11)          57.5685         estimate D2E/DX2                !
 ! D74   D(25,9,10,26)         -63.5239         estimate D2E/DX2                !
 ! D75   D(25,9,10,27)         178.5512         estimate D2E/DX2                !
 ! D76   D(9,10,11,12)          88.9008         estimate D2E/DX2                !
 ! D77   D(9,10,11,16)         -89.9694         estimate D2E/DX2                !
 ! D78   D(26,10,11,12)       -149.3823         estimate D2E/DX2                !
 ! D79   D(26,10,11,16)         31.7476         estimate D2E/DX2                !
 ! D80   D(27,10,11,12)        -32.7205         estimate D2E/DX2                !
 ! D81   D(27,10,11,16)        148.4093         estimate D2E/DX2                !
 ! D82   D(10,11,12,13)       -178.7724         estimate D2E/DX2                !
 ! D83   D(10,11,12,28)          1.4085         estimate D2E/DX2                !
 ! D84   D(16,11,12,13)          0.1213         estimate D2E/DX2                !
 ! D85   D(16,11,12,28)       -179.6978         estimate D2E/DX2                !
 ! D86   D(10,11,16,15)        178.8497         estimate D2E/DX2                !
 ! D87   D(10,11,16,32)         -1.5463         estimate D2E/DX2                !
 ! D88   D(12,11,16,15)         -0.0453         estimate D2E/DX2                !
 ! D89   D(12,11,16,32)        179.5586         estimate D2E/DX2                !
 ! D90   D(11,12,13,14)         -0.1055         estimate D2E/DX2                !
 ! D91   D(11,12,13,29)       -179.7401         estimate D2E/DX2                !
 ! D92   D(28,12,13,14)        179.7131         estimate D2E/DX2                !
 ! D93   D(28,12,13,29)          0.0785         estimate D2E/DX2                !
 ! D94   D(12,13,14,15)          0.0115         estimate D2E/DX2                !
 ! D95   D(12,13,14,30)       -179.7665         estimate D2E/DX2                !
 ! D96   D(29,13,14,15)        179.6447         estimate D2E/DX2                !
 ! D97   D(29,13,14,30)         -0.1333         estimate D2E/DX2                !
 ! D98   D(13,14,15,16)          0.0639         estimate D2E/DX2                !
 ! D99   D(13,14,15,31)       -179.7012         estimate D2E/DX2                !
 ! D100  D(30,14,15,16)        179.8417         estimate D2E/DX2                !
 ! D101  D(30,14,15,31)          0.0767         estimate D2E/DX2                !
 ! D102  D(14,15,16,11)         -0.0468         estimate D2E/DX2                !
 ! D103  D(14,15,16,32)       -179.6499         estimate D2E/DX2                !
 ! D104  D(31,15,16,11)        179.7189         estimate D2E/DX2                !
 ! D105  D(31,15,16,32)          0.1158         estimate D2E/DX2                !
 ! D106  D(1,33,34,35)          56.1697         estimate D2E/DX2                !
 ! D107  D(1,33,34,36)         175.5062         estimate D2E/DX2                !
 ! D108  D(1,33,34,37)         -64.9297         estimate D2E/DX2                !
 ! D109  D(38,33,34,35)       -178.0952         estimate D2E/DX2                !
 ! D110  D(38,33,34,36)        -58.7587         estimate D2E/DX2                !
 ! D111  D(38,33,34,37)         60.8053         estimate D2E/DX2                !
 ! D112  D(42,33,34,35)        -57.743          estimate D2E/DX2                !
 ! D113  D(42,33,34,36)         61.5935         estimate D2E/DX2                !
 ! D114  D(42,33,34,37)       -178.8424         estimate D2E/DX2                !
 ! D115  D(1,33,38,39)          64.8827         estimate D2E/DX2                !
 ! D116  D(1,33,38,40)        -175.5102         estimate D2E/DX2                !
 ! D117  D(1,33,38,41)         -56.5905         estimate D2E/DX2                !
 ! D118  D(34,33,38,39)        -59.5783         estimate D2E/DX2                !
 ! D119  D(34,33,38,40)         60.0288         estimate D2E/DX2                !
 ! D120  D(34,33,38,41)        178.9485         estimate D2E/DX2                !
 ! D121  D(42,33,38,39)       -179.8275         estimate D2E/DX2                !
 ! D122  D(42,33,38,40)        -60.2204         estimate D2E/DX2                !
 ! D123  D(42,33,38,41)         58.6993         estimate D2E/DX2                !
 --------------------------------------------------------------------------------
 Trust Radius=3.00D-01 FncErr=1.00D-07 GrdErr=1.00D-06 EigMax=2.50D+02 EigMin=1.00D-04
 Number of steps in this run=    252 maximum allowed number of steps=    252.
 GradGradGradGradGradGradGradGradGradGradGradGradGradGradGradGradGradGrad

 Leave Link  103 at Thu Sep 24 01:19:45 2020, MaxMem=  2147483648 cpu:               0.1 elap:               0.0
 (Enter /prod/apps/gaussian/g16b1/l202.exe)
                          Input orientation:                          
 ---------------------------------------------------------------------
 Center     Atomic      Atomic             Coordinates (Angstroms)
 Number     Number       Type             X           Y           Z
 ---------------------------------------------------------------------
      1         16           0        2.789000   -0.695000   -0.525000
      2          7           0        1.172000   -0.688000   -0.487000
      3          6           0        0.253000    0.468000   -0.290000
      4          6           0        0.368000    1.562000   -1.408000
      5         16           0        0.533000    2.866000   -0.134000
      6          6           0        0.609000    1.377000    0.934000
      7          8           0        1.811000    3.599000   -0.201000
      8          8           0       -0.711000    3.636000    0.055000
      9          6           0       -1.145000   -0.189000   -0.194000
     10          6           0       -2.346000    0.752000    0.031000
     11          6           0       -3.640000   -0.038000    0.086000
     12          6           0       -4.114000   -0.555000    1.300000
     13          6           0       -5.292000   -1.304000    1.347000
     14          6           0       -6.017000   -1.546000    0.177000
     15          6           0       -5.555000   -1.034000   -1.038000
     16          6           0       -4.376000   -0.287000   -1.081000
     17          8           0        3.322000    0.650000   -0.392000
     18          8           0        3.283000   -1.675000   -1.477000
     19          1           0        0.775000   -1.504000   -0.959000
     20          1           0       -0.504000    1.688000   -2.051000
     21          1           0        1.278000    1.502000   -2.005000
     22          1           0       -0.111000    1.380000    1.751000
     23          1           0        1.622000    1.272000    1.319000
     24          1           0       -1.107000   -0.920000    0.622000
     25          1           0       -1.314000   -0.748000   -1.123000
     26          1           0       -2.407000    1.491000   -0.774000
     27          1           0       -2.223000    1.309000    0.966000
     28          1           0       -3.558000   -0.367000    2.215000
     29          1           0       -5.646000   -1.693000    2.298000
     30          1           0       -6.935000   -2.125000    0.213000
     31          1           0       -6.115000   -1.213000   -1.953000
     32          1           0       -4.026000    0.113000   -2.030000
     33          7           0        3.242000   -1.486000    1.123000
     34          6           0        4.731000   -1.451000    1.308000
     35          1           0        5.069000   -0.419000    1.227000
     36          1           0        4.947000   -1.842000    2.303000
     37          1           0        5.191000   -2.077000    0.544000
     38          6           0        2.668000   -2.863000    1.262000
     39          1           0        3.123000   -3.510000    0.513000
     40          1           0        2.906000   -3.215000    2.266000
     41          1           0        1.588000   -2.810000    1.135000
     42          1           0        2.809000   -0.874000    1.839000
 ---------------------------------------------------------------------
                    Distance matrix (angstroms):
                    1          2          3          4          5
     1  S    0.000000
     2  N    1.617462   0.000000
     3  C    2.799837   1.489868   0.000000
     4  C    3.425636   2.560695   1.568434   0.000000
     5  S    4.233573   3.628201   2.419326   1.830496   0.000000
     6  C    3.342793   2.569131   1.565629   2.361624   1.833990
     7  O    4.415869   4.343787   3.498349   2.772809   1.474809
     8  O    5.598568   4.747255   3.329346   2.757913   1.475180
     9  C    3.980195   2.388166   1.547666   2.613229   3.486016
    10  C    5.363876   3.836437   2.634103   3.176888   3.575593
    11  C    6.491303   4.889394   3.943712   4.566848   5.088767
    12  C    7.141543   5.581474   4.758710   5.648299   5.945940
    13  C    8.317321   6.747319   6.047047   6.916616   7.315250
    14  C    8.874832   7.270404   6.602059   7.275996   7.903478
    15  C    8.366626   6.758391   6.045525   6.477503   7.286354
    16  C    7.198113   5.594099   4.756401   5.102084   5.910711
    17  O    1.452860   2.534121   3.076083   3.254246   3.571518
    18  O    1.452839   2.531914   3.896449   4.356622   5.476023
    19  H    2.213376   1.022863   2.146818   3.125317   4.453772
    20  H    4.341798   3.301583   2.272129   1.090738   2.477487
    21  H    3.049644   2.666770   2.249668   1.090004   2.432316
    22  H    4.230343   3.306260   2.264933   3.200288   2.485188
    23  H    2.937910   2.702913   2.260411   3.015484   2.416188
    24  H    4.067561   2.545102   2.146599   3.529426   4.194631
    25  H    4.146688   2.566767   2.151287   2.871663   4.177383
    26  H    5.642607   4.199958   2.890741   2.847389   3.308145
    27  H    5.599932   4.198243   2.900930   3.523232   3.351087
    28  H    6.920953   5.456807   4.636375   5.679846   5.718948
    29  H    8.950674   7.433127   6.794547   7.778024   8.054759
    30  H    9.856253   8.263076   7.657937   8.339989   8.988966
    31  H    9.032648   7.451520   6.792846   7.072972   8.008927
    32  H    7.025818   5.481027   4.632868   4.668375   5.653168
    33  N    1.883293   2.741132   3.840417   4.894501   5.278128
    34  C    2.775390   4.058408   5.127246   5.957398   6.191854
    35  H    2.888612   4.265767   5.126589   5.741689   5.763579
    36  H    3.737667   4.833885   5.838954   6.806319   6.898379
    37  H    2.970234   4.375459   5.617511   6.349327   6.825679
    38  C    2.812158   3.166645   4.397328   5.656812   6.271242
    39  H    3.018812   3.573526   4.970532   6.083211   6.912314
    40  H    3.762150   4.119647   5.209226   6.539071   6.954832
    41  H    2.944695   2.703114   3.815512   5.202849   5.911037
    42  H    2.370852   2.850376   3.587024   4.736622   4.802135
                    6          7          8          9         10
     6  C    0.000000
     7  O    2.769533   0.000000
     8  O    2.760095   2.535230   0.000000
     9  C    2.607922   4.804886   3.857588   0.000000
    10  C    3.152469   5.043796   3.315306   1.542241   0.000000
    11  C    4.557996   6.559233   4.698753   2.515199   1.517090
    12  C    5.115986   7.390152   5.540299   3.343793   2.538589
    13  C    6.494623   8.768599   6.859914   4.562402   3.825952
    14  C    7.281542   9.375046   7.417658   5.071043   4.333401
    15  C    6.906273   8.742037   6.816736   4.568858   3.824949
    16  C    5.628441   7.358965   5.487499   3.351975   2.537117
    17  O    3.105990   3.319067   5.037965   4.549419   5.684677
    18  O    4.719947   5.622280   6.819515   4.843704   6.312688
    19  H    3.451256   5.261983   5.445732   2.449663   3.976214
    20  H    3.200893   3.526138   2.876246   2.717068   2.933221
    21  H    3.016771   2.817075   3.571229   3.465564   4.223881
    22  H    1.088989   3.525386   2.885473   2.704430   2.889292
    23  H    1.088769   2.785866   3.553742   3.475626   4.204089
    24  H    2.884131   5.441821   4.608193   1.096203   2.163328
    25  H    3.527719   5.432506   4.579383   1.097307   2.155630
    26  H    3.467927   4.750107   2.857391   2.179781   1.094471
    27  H    2.832997   4.783215   2.920787   2.179837   1.095264
    28  H    4.695358   7.098759   5.366099   3.414313   2.736962
    29  H    7.100030   9.479299   7.601547   5.360138   4.691195
    30  H    8.348400  10.460788   8.482468   6.118647   5.419333
    31  H    7.762412   9.436436   7.533132   5.370620   4.690719
    32  H    5.645017   7.040455   5.267635   3.429615   2.734674
    33  N    3.894249   5.445912   6.557569   4.760511   6.117749
    34  C    5.012818   6.025444   7.554002   6.194838   7.521161
    35  H    4.816956   5.366384   7.157165   6.378553   7.601571
    36  H    5.572644   6.760843   8.189930   6.788216   8.067135
    37  H    5.751256   6.648037   8.228675   6.652374   8.066770
    38  C    4.724898   6.680738   7.423711   4.879465   6.302681
    39  H    5.511824   7.264229   8.122477   5.453871   6.950319
    40  H    5.304422   7.329100   8.056514   5.623067   6.950958
    41  H    4.304627   6.550565   6.928399   4.013125   5.420610
    42  H    3.275061   5.016506   5.992759   4.498492   5.699716
                   11         12         13         14         15
    11  C    0.000000
    12  C    1.402056   0.000000
    13  C    2.433512   1.396744   0.000000
    14  C    2.816465   2.421698   1.397530   0.000000
    15  C    2.433643   2.787860   2.414600   1.397073   0.000000
    16  C    1.401994   2.410317   2.787208   2.420852   1.396388
    17  O    7.012223   7.720686   9.002402   9.610572   9.058383
    18  O    7.283589   7.980084   9.035665   9.446817   8.872082
    19  H    4.767956   5.468638   6.493545   6.886474   6.347916
    20  H    4.168974   5.412241   6.589644   6.768745   5.826496
    21  H    5.561529   6.650409   7.891416   8.201735   7.352297
    22  H    4.151721   4.468964   5.848917   6.776414   6.575945
    23  H    5.561028   6.019966   7.378344   8.221898   7.898254
    24  H    2.735198   3.104023   4.264658   4.969708   4.749031
    25  H    2.715890   3.707854   4.715349   4.944190   4.251482
    26  H    2.144232   3.376602   4.542454   4.812470   4.044159
    27  H    2.143991   2.676179   4.048665   4.813313   4.539591
    28  H    2.155831   1.087063   2.153636   3.404433   3.874907
    29  H    3.414089   2.153618   1.086756   2.158215   3.401685
    30  H    3.902400   3.406539   2.158575   1.085938   2.158630
    31  H    3.415226   3.875432   3.402295   2.158099   1.087596
    32  H    2.156213   3.397480   3.874890   3.403999   2.153489
    33  N    7.108727   7.416794   8.538879   9.307395   9.069809
    34  C    8.576916   8.890270  10.024154  10.807761  10.558381
    35  H    8.791685   9.184297  10.399420  11.192499  10.880157
    36  H    9.050197   9.206742  10.297597  11.172143  11.050210
    37  H    9.074902   9.458914  10.542088  11.226572  10.911787
    38  C    7.011025   7.164065   8.111677   8.851042   8.732295
    39  H    7.614150   7.856562   8.739234   9.354667   9.156629
    40  H    7.595778   7.568960   8.467803   9.315010   9.341397
    41  H    6.009690   6.133926   7.046090   7.768622   7.674539
    42  H    6.735095   6.951274   8.127310   9.006226   8.846424
                   16         17         18         19         20
    16  C    0.000000
    17  O    7.785364   0.000000
    18  O    7.793821   2.566003   0.000000
    19  H    5.294221   3.383551   2.566638   0.000000
    20  H    4.453528   4.297441   5.097118   3.607931   0.000000
    21  H    6.001834   2.739637   3.793697   3.222291   1.792271
    22  H    5.384175   4.112279   5.592159   4.055435   3.834647
    23  H    6.645787   2.490864   4.388775   3.689562   4.006224
    24  H    3.739954   4.807196   4.924218   2.526369   3.782883
    25  H    3.096793   4.897067   4.702877   2.227634   2.729722
    26  H    2.670673   5.802986   6.549341   4.373714   2.300206
    27  H    3.372363   5.746779   6.722242   4.539449   3.492977
    28  H    3.396931   7.427324   7.882957   5.490167   5.634598
    29  H    3.873936   9.651465   9.694225   7.202292   7.535591
    30  H    3.406048  10.642965  10.366587   7.823255   7.811685
    31  H    2.154526   9.744971   9.421381   6.967411   6.317335
    32  H    1.087704   7.547484   7.544815   5.177966   3.858180
    33  N    8.020545   2.619947   2.607183   3.228179   5.846458
    34  C    9.486815   3.047865   3.146920   4.559828   6.967168
    35  H    9.723801   2.610734   3.475478   4.939054   6.800225
    36  H   10.039313   4.014189   4.133423   5.306644   7.818671
    37  H    9.867736   3.435955   2.808293   4.699829   7.303580
    38  C    7.857694   3.937588   3.048227   3.219188   6.461359
    39  H    8.316464   4.261951   2.711628   3.421100   6.837282
    40  H    8.532474   4.709166   4.064945   4.227210   7.369125
    41  H    6.844376   4.160539   3.314181   2.598354   5.895682
    42  H    7.777866   2.750110   3.444145   3.516086   5.715935
                   21         22         23         24         25
    21  H    0.000000
    22  H    4.006462   0.000000
    23  H    3.349658   1.789295   0.000000
    24  H    4.295979   2.748937   3.569049   0.000000
    25  H    3.543852   3.772992   4.320169   1.765632   0.000000
    26  H    3.885191   3.414610   4.545487   3.074368   2.515864
    27  H    4.595769   2.254287   3.861347   2.516393   3.069438
    28  H    6.684943   3.892186   5.506500   2.975039   4.040166
    29  H    8.755890   6.354429   7.910341   4.899901   5.600222
    30  H    9.248136   7.824158   9.272815   5.965307   5.939416
    31  H    7.875937   7.516068   8.760273   5.638842   4.894357
    32  H    5.482915   5.588244   6.667757   4.076856   2.986455
    33  N    4.750771   4.455440   3.204587   4.414200   5.132864
    34  C    5.623112   5.626346   4.132884   5.902101   6.553319
    35  H    5.339265   5.508482   3.840541   6.225753   6.809804
    36  H    6.572881   6.022404   4.660566   6.350336   7.220418
    37  H    5.883724   6.443516   4.955218   6.403869   6.845448
    38  C    5.626599   5.095587   4.265629   4.293655   5.100762
    39  H    5.904616   5.991953   5.076432   4.961137   5.476505
    40  H    6.568250   5.521009   4.762209   4.906519   5.948093
    41  H    5.343131   4.563130   4.086286   3.331410   4.215686
    42  H    4.771339   3.689805   2.506927   4.101007   5.078233
                   26         27         28         29         30
    26  H    0.000000
    27  H    1.759142   0.000000
    28  H    3.702848   2.480162   0.000000
    29  H    5.483262   4.743749   2.474855   0.000000
    30  H    5.878130   5.878972   4.301476   2.489050   0.000000
    31  H    4.738240   5.479846   4.962478   4.303645   2.489116
    32  H    2.469328   3.695570   4.297610   4.961615   4.301392
    33  N    6.661257   6.140269   6.977437   8.967721  10.237566
    34  C    7.996320   7.489505   8.408640  10.426926  11.736646
    35  H    7.971366   7.498491   8.683546  10.843493  12.166949
    36  H    8.640494   7.945141   8.632404  10.594049  12.067730
    37  H    8.496902   8.161524   9.069804  10.984741  12.130612
    38  C    6.989867   6.435455   6.775050   8.459598   9.688274
    39  H    7.566193   7.211635   7.577006   9.131433  10.157342
    40  H    7.721140   6.961553   7.063781   8.686438  10.111785
    41  H    6.172755   5.614129   5.797928   7.411546   8.600049
    42  H    6.295050   5.554155   6.398212   8.506966   9.957631
                   31         32         33         34         35
    31  H    0.000000
    32  H    2.475505   0.000000
    33  N    9.853413   8.082205   0.000000
    34  C   11.328128   9.501231   1.500857   0.000000
    35  H   11.654385   9.675231   2.118309   1.088958   0.000000
    36  H   11.869163  10.154390   2.103844   1.090670   1.788180
    37  H   11.610648   9.817060   2.117339   1.089574   1.797314
    38  C    9.497358   8.031406   1.498308   2.500366   3.426246
    39  H    9.833515   8.408399   2.117271   2.730782   3.721692
    40  H   10.158071   8.808168   2.099711   2.712948   3.684522
    41  H    8.451175   7.076592   2.118687   3.428594   4.224063
    42  H    9.702163   7.915842   1.036672   2.075807   2.385198
                   36         37         38         39         40
    36  H    0.000000
    37  H    1.791324   0.000000
    38  C    2.705543   2.738403   0.000000
    39  H    3.051770   2.516163   1.089328   0.000000
    40  H    2.460118   3.079213   1.090213   1.790844   0.000000
    41  H    3.685665   3.724000   1.088732   1.798085   1.783342
    42  H    2.392355   2.966169   2.075796   2.967384   2.381600
                   41         42
    41  H    0.000000
    42  H    2.394693   0.000000
 Symmetry turned off by external request.
 Stoichiometry    C13H21N2O4S2(1+)
 Framework group  C1[X(C13H21N2O4S2)]
 Deg. of freedom   120
 Full point group                 C1      NOp   1
 Rotational constants (GHZ):           0.3724712           0.1429970           0.1151922
 Leave Link  202 at Thu Sep 24 01:19:45 2020, MaxMem=  2147483648 cpu:               0.0 elap:               0.0
 (Enter /prod/apps/gaussian/g16b1/l301.exe)
 Standard basis: 6-31G(d) (6D, 7F)
 Ernie: Thresh=  0.10000D-02 Tol=  0.10000D-05 Strict=F.
   365 basis functions,   720 primitive gaussians,   365 cartesian basis functions
    88 alpha electrons       88 beta electrons
       nuclear repulsion energy      2151.7168169056 Hartrees.
 IExCor=  402 DFT=T Ex+Corr=B3LYP ExCW=0 ScaHFX=  0.200000
 ScaDFX=  0.800000  0.720000  1.000000  0.810000 ScalE2=  1.000000  1.000000
 IRadAn=      5 IRanWt=     -1 IRanGd=            0 ICorTp=0 IEmpDi=  4
 NAtoms=   42 NActive=   42 NUniq=   42 SFac= 1.00D+00 NAtFMM=   60 NAOKFM=F Big=F
 Integral buffers will be    131072 words long.
 Raffenetti 2 integral format.
 Two-electron integral symmetry is turned off.
 Using the following non-standard input for PCM:
 MSTModel=DFT cav MSTcharged
 --- end of non-standard input.
 MST model for solvation energy: B3LYP parametrization.
 MST cavity parameters:
 ISph   IAn     Re0     Alpha   Atom Type   QCorr
 ------------------------------------------------
   1     16     1.75     1.25      S          F
   2      7     1.50     1.25      NH         F
   3      6     1.50     1.25      C          F
   4      6     1.50     1.25      CH2        F
   5     16     1.75     1.25      S          F
   6      6     1.50     1.25      CH2        F
   7      8     1.40     1.25      O          F
   8      8     1.40     1.25      O          F
   9      6     1.50     1.25      CH2        F
  10      6     1.50     1.25      CH2        F
  11      6     1.50     1.25      C          F
  12      6     1.50     1.25      CH         F
  13      6     1.50     1.25      CH         F
  14      6     1.50     1.25      CH         F
  15      6     1.50     1.25      CH         F
  16      6     1.50     1.25      CH         F
  17      8     1.40     1.25      O          F
  18      8     1.40     1.15      O          T
  19      1     0.90     1.25      NH         F
  20      1     1.20     1.25      CH2        F
  21      1     1.20     1.25      CH2        F
  22      1     1.20     1.25      CH2        F
  23      1     1.20     1.25      CH2        F
  24      1     1.20     1.25      CH2        F
  25      1     1.20     1.25      CH2        F
  26      1     1.20     1.25      CH2        F
  27      1     1.20     1.25      CH2        F
  28      1     1.20     1.25      CH         F
  29      1     1.20     1.25      CH         F
  30      1     1.20     1.25      CH         F
  31      1     1.20     1.25      CH         F
  32      1     1.20     1.25      CH         F
  33      7     1.50     1.25      NH         F
  34      6     1.50     1.25      CH3        F
  35      1     1.20     1.25      CH3        F
  36      1     1.20     1.25      CH3        F
  37      1     1.20     1.25      CH3        F
  38      6     1.50     1.25      CH3        F
  39      1     1.20     1.25      CH3        F
  40      1     1.20     1.25      CH3        F
  41      1     1.20     1.25      CH3        F
  42      1     0.90     1.15      NH         T
 ------------------------------------------------------------------------------
 Polarizable Continuum Model (PCM)
 =================================
 Model                : PCM.
 Atomic radii         : MST.
 Polarization charges : Total charges.
 Charge compensation  : None.
 Solution method      : On-the-fly selection.
 Cavity type          : Scaled VdW (van der Waals Surface) (Alpha=1.250).
 Cavity algorithm     : GePol (No added spheres)
                        Default sphere list used, NSphG=   42.
                        Lebedev-Laikov grids with approx.  5.0 points / Ang**2.
                        Smoothing algorithm: York/Karplus (Gamma=1.0000).
                        Polarization charges: spherical gaussians, with
                                              point-specific exponents (IZeta= 3).
                        Self-potential: point-specific (ISelfS= 7).
                        Self-field    : sphere-specific E.n sum rule (ISelfD= 2).
 1st derivatives      : Analytical E(r).r(x)/FMM algorithm (CHGder, D1EAlg=3).
                        Cavity 1st derivative terms included.
 Solvent              : Water, Eps=  78.355300 Eps(inf)=   1.777849
 ------------------------------------------------------------------------------
 GePol: Number of generator spheres                  =      42
 GePol: Total number of spheres                      =      42
 GePol: Number of exposed spheres                    =      42 (100.00%)
 GePol: Number of points                             =    2852
 GePol: Average weight of points                     =       0.13
 GePol: Minimum weight of points                     =   0.29D-09
 GePol: Maximum weight of points                     =    0.22001
 GePol: Number of points with low weight             =     215
 GePol: Fraction of low-weight points (<1% of avg)   =       7.54%
 GePol: Cavity surface area                          =    380.408 Ang**2
 GePol: Cavity volume                                =    377.411 Ang**3
 PCM non-electrostatic energy =         0.0033427001 Hartrees.
 Nuclear repulsion after PCM non-electrostatic terms =     2151.7201596057 Hartrees.
 Leave Link  301 at Thu Sep 24 01:19:45 2020, MaxMem=  2147483648 cpu:               0.3 elap:               0.1
 (Enter /prod/apps/gaussian/g16b1/l302.exe)
 NPDir=0 NMtPBC=     1 NCelOv=     1 NCel=       1 NClECP=     1 NCelD=      1
         NCelK=      1 NCelE2=     1 NClLst=     1 CellRange=     0.0.
 One-electron integrals computed using PRISM.
 NBasis=   365 RedAO= T EigKep=  4.70D-04  NBF=   365
 NBsUse=   365 1.00D-06 EigRej= -1.00D+00 NBFU=   365
 Precomputing XC quadrature grid using
 IXCGrd= 4 IRadAn=           5 IRanWt=          -1 IRanGd=           0 AccXCQ= 0.00D+00.
 Generated NRdTot=       0 NPtTot=           0 NUsed=           0 NTot=          32
 NSgBfM=   362   362   362   362   362 MxSgAt=    42 MxSgA2=    42.
 Leave Link  302 at Thu Sep 24 01:19:45 2020, MaxMem=  2147483648 cpu:               2.4 elap:               0.6
 (Enter /prod/apps/gaussian/g16b1/l303.exe)
 DipDrv:  MaxL=1.
 Leave Link  303 at Thu Sep 24 01:19:45 2020, MaxMem=  2147483648 cpu:               0.2 elap:               0.1
 (Enter /prod/apps/gaussian/g16b1/l401.exe)
 ExpMin= 1.17D-01 ExpMax= 2.19D+04 ExpMxC= 3.30D+03 IAcc=3 IRadAn=         5 AccDes= 0.00D+00
 Harris functional with IExCor=  402 and IRadAn=       5 diagonalized for initial guess.
 HarFok:  IExCor=  402 AccDes= 0.00D+00 IRadAn=         5 IDoV= 1 UseB2=F ITyADJ=14
 ICtDFT=  3500011 ScaDFX=  1.000000  1.000000  1.000000  1.000000
 FoFCou: FMM=F IPFlag=           0 FMFlag=      100000 FMFlg1=           0
         NFxFlg=           0 DoJE=T BraDBF=F KetDBF=T FulRan=T
         wScrn=  0.000000 ICntrl=       500 IOpCl=  0 I1Cent=   200000004 NGrid=           0
         NMat0=    1 NMatS0=      1 NMatT0=    0 NMatD0=    1 NMtDS0=    0 NMtDT0=    0
 Symmetry not used in FoFCou.
 Harris En= -1714.52222078263    
 JPrj=0 DoOrth=F DoCkMO=F.
 Leave Link  401 at Thu Sep 24 01:19:49 2020, MaxMem=  2147483648 cpu:              12.1 elap:               3.0
 (Enter /prod/apps/gaussian/g16b1/l502.exe)
 Two-electron integral symmetry not used.
 Closed shell SCF:
 Using DIIS extrapolation, IDIIS=  1040.
 NGot=  2147483648 LenX=  2147211715 LenY=  2147078049
 Requested convergence on RMS density matrix=1.00D-08 within2000 cycles.
 Requested convergence on MAX density matrix=1.00D-06.
 Requested convergence on             energy=1.00D-06.
 No special actions if energy rises.

 Cycle   1  Pass 1  IDiag  1:
 FoFJK:  IHMeth= 1 ICntrl=       0 DoSepK=F KAlg= 0 I1Cent=           0 FoldK=F
 IRaf= 760000000 NMat=       1 IRICut=       1 DoRegI=T DoRafI=F ISym2E= 0 IDoP0=0 IntGTp=1.
 FoFCou: FMM=F IPFlag=           0 FMFlag=      100000 FMFlg1=           0
         NFxFlg=           0 DoJE=F BraDBF=F KetDBF=F FulRan=T
         wScrn=  0.000000 ICntrl=         0 IOpCl=  0 I1Cent=           0 NGrid=           0
         NMat0=    1 NMatS0=      1 NMatT0=    0 NMatD0=    1 NMtDS0=    0 NMtDT0=    0
 Symmetry not used in FoFCou.
 Inv3:  Mode=1 IEnd=    24401712.
 Iteration    1 A*A^-1 deviation from unit magnitude is 3.11D-15 for    367.
 Iteration    1 A*A^-1 deviation from orthogonality  is 2.11D-15 for   2484    978.
 Iteration    1 A^-1*A deviation from unit magnitude is 3.77D-15 for    977.
 Iteration    1 A^-1*A deviation from orthogonality  is 2.76D-15 for   2017   2001.
 E= -1713.69064248816    
 DIIS: error= 4.01D-02 at cycle   1 NSaved=   1.
 NSaved= 1 IEnMin= 1 EnMin= -1713.69064248816     IErMin= 1 ErrMin= 4.01D-02
 ErrMax= 4.01D-02  0.00D+00 EMaxC= 1.00D-01 BMatC= 9.57D-01 BMatP= 9.57D-01
 IDIUse=3 WtCom= 5.99D-01 WtEn= 4.01D-01
 Coeff-Com:  0.100D+01
 Coeff-En:   0.100D+01
 Coeff:      0.100D+01
 Gap=     0.404 Goal=   None    Shift=    0.000
 GapD=    0.404 DampG=2.000 DampE=0.500 DampFc=1.0000 IDamp=-1.
 RMSDP=6.57D-03 MaxDP=6.60D-01              OVMax= 2.65D-01

 Cycle   2  Pass 1  IDiag  1:
 E= -1712.40052670285     Delta-E=        1.290115785311 Rises=F Damp=F
 DIIS: error= 6.50D-02 at cycle   2 NSaved=   2.
 NSaved= 2 IEnMin= 1 EnMin= -1713.69064248816     IErMin= 1 ErrMin= 4.01D-02
 ErrMax= 6.50D-02  0.00D+00 EMaxC= 1.00D-01 BMatC= 2.68D+00 BMatP= 9.57D-01
 IDIUse=2 WtCom= 0.00D+00 WtEn= 1.00D+00
 Coeff-En:   0.698D+00 0.302D+00
 Coeff:      0.698D+00 0.302D+00
 Gap=     0.150 Goal=   None    Shift=    0.000
 RMSDP=3.98D-03 MaxDP=4.21D-01 DE= 1.29D+00 OVMax= 1.63D-01

 Cycle   3  Pass 1  IDiag  1:
 E= -1714.43097288799     Delta-E=       -2.030446185146 Rises=F Damp=F
 DIIS: error= 1.26D-02 at cycle   3 NSaved=   3.
 NSaved= 3 IEnMin= 3 EnMin= -1714.43097288799     IErMin= 3 ErrMin= 1.26D-02
 ErrMax= 1.26D-02  0.00D+00 EMaxC= 1.00D-01 BMatC= 7.33D-02 BMatP= 9.57D-01
 IDIUse=3 WtCom= 8.74D-01 WtEn= 1.26D-01
 Coeff-Com:  0.287D+00 0.977D-01 0.616D+00
 Coeff-En:   0.000D+00 0.000D+00 0.100D+01
 Coeff:      0.251D+00 0.853D-01 0.664D+00
 Gap=     0.204 Goal=   None    Shift=    0.000
 RMSDP=1.01D-03 MaxDP=7.12D-02 DE=-2.03D+00 OVMax= 4.77D-02

 Cycle   4  Pass 1  IDiag  1:
 E= -1714.49009186830     Delta-E=       -0.059118980305 Rises=F Damp=F
 DIIS: error= 3.60D-03 at cycle   4 NSaved=   4.
 NSaved= 4 IEnMin= 4 EnMin= -1714.49009186830     IErMin= 4 ErrMin= 3.60D-03
 ErrMax= 3.60D-03  0.00D+00 EMaxC= 1.00D-01 BMatC= 1.36D-02 BMatP= 7.33D-02
 IDIUse=3 WtCom= 9.64D-01 WtEn= 3.60D-02
 Coeff-Com:  0.489D-01-0.772D-02 0.365D+00 0.594D+00
 Coeff-En:   0.000D+00 0.000D+00 0.915D-01 0.909D+00
 Coeff:      0.471D-01-0.744D-02 0.355D+00 0.606D+00
 Gap=     0.206 Goal=   None    Shift=    0.000
 RMSDP=3.48D-04 MaxDP=2.40D-02 DE=-5.91D-02 OVMax= 2.18D-02

 Cycle   5  Pass 1  IDiag  1:
 E= -1714.50191553282     Delta-E=       -0.011823664523 Rises=F Damp=F
 DIIS: error= 1.06D-03 at cycle   5 NSaved=   5.
 NSaved= 5 IEnMin= 5 EnMin= -1714.50191553282     IErMin= 5 ErrMin= 1.06D-03
 ErrMax= 1.06D-03  0.00D+00 EMaxC= 1.00D-01 BMatC= 8.55D-04 BMatP= 1.36D-02
 IDIUse=3 WtCom= 9.89D-01 WtEn= 1.06D-02
 Coeff-Com:  0.132D-01-0.887D-02 0.165D+00 0.331D+00 0.499D+00
 Coeff-En:   0.000D+00 0.000D+00 0.000D+00 0.000D+00 0.100D+01
 Coeff:      0.131D-01-0.878D-02 0.163D+00 0.328D+00 0.505D+00
 Gap=     0.204 Goal=   None    Shift=    0.000
 RMSDP=8.85D-05 MaxDP=5.71D-03 DE=-1.18D-02 OVMax= 5.70D-03

 Cycle   6  Pass 1  IDiag  1:
 E= -1714.50260857692     Delta-E=       -0.000693044101 Rises=F Damp=F
 DIIS: error= 3.04D-04 at cycle   6 NSaved=   6.
 NSaved= 6 IEnMin= 6 EnMin= -1714.50260857692     IErMin= 6 ErrMin= 3.04D-04
 ErrMax= 3.04D-04  0.00D+00 EMaxC= 1.00D-01 BMatC= 6.41D-05 BMatP= 8.55D-04
 IDIUse=3 WtCom= 9.97D-01 WtEn= 3.04D-03
 Coeff-Com:  0.327D-02-0.417D-02 0.569D-01 0.121D+00 0.271D+00 0.552D+00
 Coeff-En:   0.000D+00 0.000D+00 0.000D+00 0.000D+00 0.000D+00 0.100D+01
 Coeff:      0.326D-02-0.416D-02 0.567D-01 0.120D+00 0.271D+00 0.553D+00
 Gap=     0.204 Goal=   None    Shift=    0.000
 RMSDP=2.49D-05 MaxDP=1.22D-03 DE=-6.93D-04 OVMax= 1.76D-03

 Cycle   7  Pass 1  IDiag  1:
 E= -1714.50265423533     Delta-E=       -0.000045658407 Rises=F Damp=F
 DIIS: error= 1.45D-04 at cycle   7 NSaved=   7.
 NSaved= 7 IEnMin= 7 EnMin= -1714.50265423533     IErMin= 7 ErrMin= 1.45D-04
 ErrMax= 1.45D-04  0.00D+00 EMaxC= 1.00D-01 BMatC= 8.16D-06 BMatP= 6.41D-05
 IDIUse=3 WtCom= 9.99D-01 WtEn= 1.45D-03
 Coeff-Com:  0.551D-03-0.156D-02 0.155D-01 0.343D-01 0.106D+00 0.327D+00
 Coeff-Com:  0.518D+00
 Coeff-En:   0.000D+00 0.000D+00 0.000D+00 0.000D+00 0.000D+00 0.607D-01
 Coeff-En:   0.939D+00
 Coeff:      0.551D-03-0.156D-02 0.155D-01 0.343D-01 0.106D+00 0.327D+00
 Coeff:      0.519D+00
 Gap=     0.205 Goal=   None    Shift=    0.000
 RMSDP=8.66D-06 MaxDP=5.90D-04 DE=-4.57D-05 OVMax= 6.37D-04

 Cycle   8  Pass 1  IDiag  1:
 E= -1714.50266090796     Delta-E=       -0.000006672637 Rises=F Damp=F
 DIIS: error= 2.06D-05 at cycle   8 NSaved=   8.
 NSaved= 8 IEnMin= 8 EnMin= -1714.50266090796     IErMin= 8 ErrMin= 2.06D-05
 ErrMax= 2.06D-05  0.00D+00 EMaxC= 1.00D-01 BMatC= 3.74D-07 BMatP= 8.16D-06
 IDIUse=1 WtCom= 1.00D+00 WtEn= 0.00D+00
 Coeff-Com:  0.184D-04-0.379D-03 0.256D-02 0.624D-02 0.287D-01 0.111D+00
 Coeff-Com:  0.248D+00 0.604D+00
 Coeff:      0.184D-04-0.379D-03 0.256D-02 0.624D-02 0.287D-01 0.111D+00
 Coeff:      0.248D+00 0.604D+00
 Gap=     0.204 Goal=   None    Shift=    0.000
 RMSDP=1.94D-06 MaxDP=1.35D-04 DE=-6.67D-06 OVMax= 1.09D-04

 Cycle   9  Pass 1  IDiag  1:
 E= -1714.50266117263     Delta-E=       -0.000000264663 Rises=F Damp=F
 DIIS: error= 6.77D-06 at cycle   9 NSaved=   9.
 NSaved= 9 IEnMin= 9 EnMin= -1714.50266117263     IErMin= 9 ErrMin= 6.77D-06
 ErrMax= 6.77D-06  0.00D+00 EMaxC= 1.00D-01 BMatC= 5.35D-08 BMatP= 3.74D-07
 IDIUse=1 WtCom= 1.00D+00 WtEn= 0.00D+00
 Coeff-Com: -0.497D-04-0.417D-04-0.169D-03 0.708D-04 0.536D-02 0.275D-01
 Coeff-Com:  0.825D-01 0.328D+00 0.557D+00
 Coeff:     -0.497D-04-0.417D-04-0.169D-03 0.708D-04 0.536D-02 0.275D-01
 Coeff:      0.825D-01 0.328D+00 0.557D+00
 Gap=     0.204 Goal=   None    Shift=    0.000
 RMSDP=6.33D-07 MaxDP=3.60D-05 DE=-2.65D-07 OVMax= 3.83D-05

 Cycle  10  Pass 1  IDiag  1:
 E= -1714.50266121499     Delta-E=       -0.000000042360 Rises=F Damp=F
 DIIS: error= 2.38D-06 at cycle  10 NSaved=  10.
 NSaved=10 IEnMin=10 EnMin= -1714.50266121499     IErMin=10 ErrMin= 2.38D-06
 ErrMax= 2.38D-06  0.00D+00 EMaxC= 1.00D-01 BMatC= 4.25D-09 BMatP= 5.35D-08
 IDIUse=1 WtCom= 1.00D+00 WtEn= 0.00D+00
 Coeff-Com: -0.293D-04-0.475D-05-0.177D-03-0.125D-03 0.187D-02 0.102D-01
 Coeff-Com:  0.342D-01 0.154D+00 0.306D+00 0.495D+00
 Coeff:     -0.293D-04-0.475D-05-0.177D-03-0.125D-03 0.187D-02 0.102D-01
 Coeff:      0.342D-01 0.154D+00 0.306D+00 0.495D+00
 Gap=     0.204 Goal=   None    Shift=    0.000
 RMSDP=1.86D-07 MaxDP=1.37D-05 DE=-4.24D-08 OVMax= 1.49D-05

 Cycle  11  Pass 1  IDiag  1:
 E= -1714.50266121793     Delta-E=       -0.000000002940 Rises=F Damp=F
 DIIS: error= 8.49D-07 at cycle  11 NSaved=  11.
 NSaved=11 IEnMin=11 EnMin= -1714.50266121793     IErMin=11 ErrMin= 8.49D-07
 ErrMax= 8.49D-07  0.00D+00 EMaxC= 1.00D-01 BMatC= 5.51D-10 BMatP= 4.25D-09
 IDIUse=1 WtCom= 1.00D+00 WtEn= 0.00D+00
 Coeff-Com: -0.930D-05 0.672D-05-0.681D-04-0.548D-04 0.139D-03 0.782D-03
 Coeff-Com:  0.429D-02 0.260D-01 0.620D-01 0.272D+00 0.635D+00
 Coeff:     -0.930D-05 0.672D-05-0.681D-04-0.548D-04 0.139D-03 0.782D-03
 Coeff:      0.429D-02 0.260D-01 0.620D-01 0.272D+00 0.635D+00
 Gap=     0.204 Goal=   None    Shift=    0.000
 RMSDP=6.52D-08 MaxDP=3.62D-06 DE=-2.94D-09 OVMax= 4.79D-06

 Cycle  12  Pass 1  IDiag  1:
 E= -1714.50266121833     Delta-E=       -0.000000000399 Rises=F Damp=F
 DIIS: error= 3.79D-07 at cycle  12 NSaved=  12.
 NSaved=12 IEnMin=12 EnMin= -1714.50266121833     IErMin=12 ErrMin= 3.79D-07
 ErrMax= 3.79D-07  0.00D+00 EMaxC= 1.00D-01 BMatC= 5.09D-11 BMatP= 5.51D-10
 IDIUse=1 WtCom= 1.00D+00 WtEn= 0.00D+00
 Coeff-Com: -0.382D-05 0.440D-05-0.298D-04-0.287D-04-0.623D-04-0.268D-03
 Coeff-Com:  0.263D-04 0.365D-02 0.106D-01 0.108D+00 0.337D+00 0.542D+00
 Coeff:     -0.382D-05 0.440D-05-0.298D-04-0.287D-04-0.623D-04-0.268D-03
 Coeff:      0.263D-04 0.365D-02 0.106D-01 0.108D+00 0.337D+00 0.542D+00
 Gap=     0.204 Goal=   None    Shift=    0.000
 RMSDP=2.12D-08 MaxDP=1.44D-06 DE=-3.99D-10 OVMax= 1.20D-06

 Cycle  13  Pass 1  IDiag  1:
 E= -1714.50266121838     Delta-E=       -0.000000000053 Rises=F Damp=F
 DIIS: error= 1.16D-07 at cycle  13 NSaved=  13.
 NSaved=13 IEnMin=13 EnMin= -1714.50266121838     IErMin=13 ErrMin= 1.16D-07
 ErrMax= 1.16D-07  0.00D+00 EMaxC= 1.00D-01 BMatC= 7.09D-12 BMatP= 5.09D-11
 IDIUse=1 WtCom= 1.00D+00 WtEn= 0.00D+00
 Coeff-Com: -0.765D-06 0.117D-05-0.398D-05-0.345D-05-0.450D-04-0.230D-03
 Coeff-Com: -0.591D-03-0.178D-02-0.432D-02 0.145D-01 0.784D-01 0.300D+00
 Coeff-Com:  0.614D+00
 Coeff:     -0.765D-06 0.117D-05-0.398D-05-0.345D-05-0.450D-04-0.230D-03
 Coeff:     -0.591D-03-0.178D-02-0.432D-02 0.145D-01 0.784D-01 0.300D+00
 Coeff:      0.614D+00
 Gap=     0.204 Goal=   None    Shift=    0.000
 RMSDP=8.32D-09 MaxDP=5.85D-07 DE=-5.28D-11 OVMax= 7.26D-07

 Error on total polarization charges =  0.02040
 SCF Done:  E(RB3LYP) =  -1714.50266122     A.U. after   13 cycles
            NFock= 13  Conv=0.83D-08     -V/T= 2.0069
 KE= 1.702672154094D+03 PE=-8.304919197703D+03 EE= 2.736024222784D+03
 Leave Link  502 at Thu Sep 24 01:21:35 2020, MaxMem=  2147483648 cpu:             427.2 elap:             106.9
 (Enter /prod/apps/gaussian/g16b1/l601.exe)
 Copying SCF densities to generalized density rwf, IOpCl= 0 IROHF=0.

 **********************************************************************

            Population analysis using the SCF Density.

 **********************************************************************

 Alpha  occ. eigenvalues --  -89.18556 -89.10486 -19.20931 -19.20783 -19.16137
 Alpha  occ. eigenvalues --  -19.16090 -14.48064 -14.41924 -10.29970 -10.25256
 Alpha  occ. eigenvalues --  -10.25250 -10.24002 -10.23783 -10.21284 -10.20115
 Alpha  occ. eigenvalues --  -10.19970 -10.19187 -10.19176 -10.19054 -10.19047
 Alpha  occ. eigenvalues --  -10.19037  -8.20864  -8.13559  -6.17341  -6.17280
 Alpha  occ. eigenvalues --   -6.17246  -6.10001  -6.09907  -6.09821  -1.18190
 Alpha  occ. eigenvalues --   -1.11335  -1.07068  -1.01085  -1.01066  -0.98300
 Alpha  occ. eigenvalues --   -0.87748  -0.85784  -0.79960  -0.76371  -0.75697
 Alpha  occ. eigenvalues --   -0.74487  -0.73277  -0.72558  -0.69695  -0.65550
 Alpha  occ. eigenvalues --   -0.63482  -0.60941  -0.60578  -0.58809  -0.57828
 Alpha  occ. eigenvalues --   -0.55921  -0.55469  -0.54531  -0.51582  -0.51124
 Alpha  occ. eigenvalues --   -0.50733  -0.50508  -0.49594  -0.47976  -0.46896
 Alpha  occ. eigenvalues --   -0.46337  -0.45722  -0.45075  -0.44528  -0.44224
 Alpha  occ. eigenvalues --   -0.43650  -0.42895  -0.42368  -0.42100  -0.41920
 Alpha  occ. eigenvalues --   -0.41068  -0.40463  -0.39178  -0.38042  -0.37926
 Alpha  occ. eigenvalues --   -0.36915  -0.36443  -0.35905  -0.35624  -0.34074
 Alpha  occ. eigenvalues --   -0.33986  -0.33752  -0.33156  -0.32441  -0.31442
 Alpha  occ. eigenvalues --   -0.29692  -0.25346  -0.24714
 Alpha virt. eigenvalues --   -0.04265  -0.00558  -0.00439   0.01155   0.01786
 Alpha virt. eigenvalues --    0.03394   0.04435   0.04721   0.05269   0.05922
 Alpha virt. eigenvalues --    0.06739   0.08905   0.09580   0.10295   0.10484
 Alpha virt. eigenvalues --    0.11286   0.12052   0.12565   0.13232   0.13496
 Alpha virt. eigenvalues --    0.14400   0.14603   0.15348   0.15497   0.15946
 Alpha virt. eigenvalues --    0.16534   0.17038   0.17840   0.18234   0.18903
 Alpha virt. eigenvalues --    0.19315   0.19493   0.19954   0.20631   0.22317
 Alpha virt. eigenvalues --    0.22870   0.23011   0.24969   0.26479   0.28800
 Alpha virt. eigenvalues --    0.30636   0.32096   0.32547   0.33698   0.34151
 Alpha virt. eigenvalues --    0.35217   0.35713   0.36205   0.41130   0.43000
 Alpha virt. eigenvalues --    0.43614   0.44882   0.45882   0.46275   0.47210
 Alpha virt. eigenvalues --    0.49486   0.49726   0.50670   0.51645   0.52271
 Alpha virt. eigenvalues --    0.52530   0.53696   0.53960   0.54926   0.55092
 Alpha virt. eigenvalues --    0.55831   0.56861   0.58201   0.58760   0.59472
 Alpha virt. eigenvalues --    0.59720   0.60907   0.61030   0.61641   0.62504
 Alpha virt. eigenvalues --    0.63768   0.64405   0.65395   0.67186   0.67686
 Alpha virt. eigenvalues --    0.68713   0.69861   0.71633   0.72108   0.73102
 Alpha virt. eigenvalues --    0.73897   0.74881   0.75861   0.76299   0.77940
 Alpha virt. eigenvalues --    0.78380   0.79439   0.79634   0.81083   0.81909
 Alpha virt. eigenvalues --    0.82106   0.82536   0.82982   0.83692   0.83894
 Alpha virt. eigenvalues --    0.84314   0.85540   0.86057   0.86784   0.87099
 Alpha virt. eigenvalues --    0.87455   0.87777   0.88477   0.90123   0.90638
 Alpha virt. eigenvalues --    0.91640   0.92263   0.93431   0.93629   0.93959
 Alpha virt. eigenvalues --    0.94832   0.95010   0.95885   0.96212   0.98431
 Alpha virt. eigenvalues --    0.98501   0.99420   0.99496   1.00249   1.01863
 Alpha virt. eigenvalues --    1.02643   1.03136   1.04363   1.05759   1.07599
 Alpha virt. eigenvalues --    1.08738   1.09859   1.10901   1.12098   1.12318
 Alpha virt. eigenvalues --    1.13354   1.14366   1.16306   1.16517   1.17254
 Alpha virt. eigenvalues --    1.17743   1.18334   1.19059   1.20749   1.25374
 Alpha virt. eigenvalues --    1.26118   1.27549   1.28995   1.32344   1.35143
 Alpha virt. eigenvalues --    1.36594   1.39296   1.40142   1.41935   1.43096
 Alpha virt. eigenvalues --    1.45047   1.46668   1.48089   1.48937   1.49694
 Alpha virt. eigenvalues --    1.51143   1.53184   1.56266   1.57072   1.59032
 Alpha virt. eigenvalues --    1.62821   1.67316   1.68976   1.70288   1.71120
 Alpha virt. eigenvalues --    1.72956   1.74063   1.75036   1.76249   1.77675
 Alpha virt. eigenvalues --    1.77976   1.78418   1.78589   1.79554   1.79770
 Alpha virt. eigenvalues --    1.80061   1.80297   1.81442   1.82152   1.83686
 Alpha virt. eigenvalues --    1.84586   1.85554   1.86880   1.88008   1.89245
 Alpha virt. eigenvalues --    1.89864   1.92322   1.93098   1.95016   1.95847
 Alpha virt. eigenvalues --    1.97457   1.98172   2.00072   2.00467   2.01737
 Alpha virt. eigenvalues --    2.02026   2.03027   2.03236   2.04513   2.04934
 Alpha virt. eigenvalues --    2.05674   2.06469   2.08426   2.10135   2.12654
 Alpha virt. eigenvalues --    2.12886   2.13944   2.14649   2.15243   2.16630
 Alpha virt. eigenvalues --    2.17613   2.19673   2.21974   2.22388   2.24090
 Alpha virt. eigenvalues --    2.24297   2.26265   2.26794   2.29921   2.30590
 Alpha virt. eigenvalues --    2.30967   2.32140   2.32455   2.37222   2.40185
 Alpha virt. eigenvalues --    2.40507   2.40916   2.41321   2.44728   2.47422
 Alpha virt. eigenvalues --    2.54218   2.56318   2.57479   2.58317   2.64749
 Alpha virt. eigenvalues --    2.65783   2.68351   2.69226   2.70776   2.71197
 Alpha virt. eigenvalues --    2.72254   2.74065   2.75225   2.76457   2.76814
 Alpha virt. eigenvalues --    2.78825   2.81115   2.86178   2.94101   3.04660
 Alpha virt. eigenvalues --    3.40521   3.77853   3.78409   3.87228   3.93453
 Alpha virt. eigenvalues --    3.97683   4.00947   4.03821   4.08768   4.11282
 Alpha virt. eigenvalues --    4.12530   4.14725   4.20322   4.20892   4.21967
 Alpha virt. eigenvalues --    4.31545   4.32834   4.34075   4.41086   4.53268
 Alpha virt. eigenvalues --    4.69957   4.73531
          Condensed to atoms (all electrons):
               1          2          3          4          5          6
     1  S   13.523020   0.198546  -0.008651  -0.000921  -0.000194  -0.000877
     2  N    0.198546   7.310905   0.203311  -0.053448   0.002820  -0.036627
     3  C   -0.008651   0.203311   4.848595   0.355905  -0.092821   0.342595
     4  C   -0.000921  -0.053448   0.355905   5.669261   0.156256  -0.192620
     5  S   -0.000194   0.002820  -0.092821   0.156256  13.838024   0.155068
     6  C   -0.000877  -0.036627   0.342595  -0.192620   0.155068   5.680928
     7  O   -0.000084  -0.000136   0.001831  -0.043422   0.426700  -0.044444
     8  O    0.000008  -0.000041   0.000609  -0.042409   0.408746  -0.042639
     9  C    0.001740  -0.040972   0.338846  -0.044897   0.001292  -0.038544
    10  C   -0.000031   0.002741  -0.027677  -0.003191  -0.000935  -0.005246
    11  C    0.000003  -0.000074   0.003796  -0.000105   0.000345  -0.000058
    12  C    0.000000  -0.000003   0.000088  -0.000001  -0.000008  -0.000004
    13  C   -0.000000  -0.000000   0.000002  -0.000000  -0.000000   0.000000
    14  C   -0.000000   0.000000  -0.000000   0.000000   0.000000   0.000000
    15  C    0.000000  -0.000000   0.000002   0.000000  -0.000000  -0.000000
    16  C    0.000000  -0.000002   0.000077  -0.000004  -0.000010  -0.000001
    17  O    0.402372  -0.049854   0.003379  -0.001871   0.000891  -0.005108
    18  O    0.441909  -0.051819   0.001008   0.000053  -0.000004  -0.000050
    19  H   -0.009528   0.293668  -0.020083   0.000727  -0.000181   0.002883
    20  H   -0.000012   0.002236  -0.026894   0.344547  -0.011800   0.008459
    21  H    0.003213  -0.005861  -0.019714   0.335522  -0.006140   0.004977
    22  H    0.000129   0.001842  -0.026745   0.008349  -0.011927   0.345901
    23  H    0.005870  -0.007101  -0.020209   0.004861  -0.007633   0.333445
    24  H   -0.000041  -0.002010  -0.033978   0.004931  -0.000179  -0.005922
    25  H   -0.000207  -0.004489  -0.032309  -0.006119  -0.000220   0.004864
    26  H    0.000002   0.000019  -0.004805   0.002376   0.001022  -0.000477
    27  H    0.000001   0.000011  -0.004995  -0.000392   0.000557   0.002533
    28  H   -0.000000   0.000000  -0.000051   0.000000  -0.000001  -0.000010
    29  H   -0.000000   0.000000  -0.000000   0.000000  -0.000000  -0.000000
    30  H    0.000000  -0.000000   0.000000   0.000000   0.000000   0.000000
    31  H   -0.000000   0.000000  -0.000000  -0.000000  -0.000000   0.000000
    32  H   -0.000000   0.000000  -0.000052  -0.000010  -0.000002   0.000000
    33  N    0.087097  -0.046118   0.000106  -0.000076   0.000012  -0.000146
    34  C   -0.011177   0.001633  -0.000001   0.000003   0.000000  -0.000015
    35  H   -0.002284   0.000045   0.000005  -0.000000   0.000001  -0.000010
    36  H    0.001667  -0.000067  -0.000000  -0.000000  -0.000000   0.000001
    37  H   -0.001670  -0.000001  -0.000001   0.000000  -0.000000   0.000000
    38  C   -0.011797  -0.002776   0.000316  -0.000005   0.000003  -0.000026
    39  H   -0.002359  -0.000165  -0.000005  -0.000000  -0.000000  -0.000000
    40  H    0.001863  -0.000037  -0.000002   0.000000   0.000000   0.000002
    41  H   -0.003808   0.008187  -0.000069   0.000014   0.000001  -0.000039
    42  H   -0.004669   0.000935  -0.000062   0.000014  -0.000008   0.000802
               7          8          9         10         11         12
     1  S   -0.000084   0.000008   0.001740  -0.000031   0.000003   0.000000
     2  N   -0.000136  -0.000041  -0.040972   0.002741  -0.000074  -0.000003
     3  C    0.001831   0.000609   0.338846  -0.027677   0.003796   0.000088
     4  C   -0.043422  -0.042409  -0.044897  -0.003191  -0.000105  -0.000001
     5  S    0.426700   0.408746   0.001292  -0.000935   0.000345  -0.000008
     6  C   -0.044444  -0.042639  -0.038544  -0.005246  -0.000058  -0.000004
     7  O    8.259745  -0.045096  -0.000051  -0.000003   0.000000  -0.000000
     8  O   -0.045096   8.281161  -0.000534   0.000309   0.000213  -0.000002
     9  C   -0.000051  -0.000534   5.132716   0.343081  -0.035248  -0.004098
    10  C   -0.000003   0.000309   0.343081   5.186974   0.341799  -0.057757
    11  C    0.000000   0.000213  -0.035248   0.341799   4.667339   0.544858
    12  C   -0.000000  -0.000002  -0.004098  -0.057757   0.544858   4.977146
    13  C   -0.000000  -0.000000  -0.000050   0.006661  -0.021785   0.518881
    14  C    0.000000   0.000000   0.000017   0.000314  -0.034232  -0.038159
    15  C   -0.000000  -0.000000  -0.000065   0.006715  -0.022003  -0.046714
    16  C   -0.000000  -0.000002  -0.004445  -0.057269   0.545275  -0.038496
    17  O    0.000250   0.000000   0.000124   0.000001   0.000000  -0.000000
    18  O   -0.000000  -0.000000  -0.000069   0.000000  -0.000000  -0.000000
    19  H    0.000002   0.000001  -0.002111   0.000071  -0.000019  -0.000000
    20  H    0.000803  -0.000901  -0.004857   0.000145  -0.000150   0.000001
    21  H    0.000044   0.000976   0.002317   0.000184   0.000005   0.000000
    22  H    0.000828  -0.000863  -0.005778   0.000562  -0.000160   0.000011
    23  H    0.000678   0.000931   0.002195   0.000195   0.000004  -0.000000
    24  H    0.000001  -0.000001   0.368741  -0.033564  -0.002345   0.003636
    25  H    0.000001  -0.000002   0.367580  -0.035285  -0.002023   0.000033
    26  H    0.000007   0.002510  -0.036599   0.361619  -0.026997   0.003610
    27  H    0.000005   0.001885  -0.036980   0.362508  -0.027263  -0.004020
    28  H    0.000000  -0.000000   0.000239  -0.009044  -0.044960   0.360301
    29  H   -0.000000  -0.000000  -0.000001  -0.000174   0.003642  -0.038574
    30  H    0.000000   0.000000   0.000000   0.000006   0.000619   0.004567
    31  H   -0.000000  -0.000000  -0.000001  -0.000174   0.003638   0.000756
    32  H    0.000000  -0.000000   0.000221  -0.009097  -0.044826   0.005905
    33  N    0.000000  -0.000000  -0.000081   0.000000  -0.000000   0.000000
    34  C   -0.000000   0.000000   0.000001  -0.000000   0.000000   0.000000
    35  H   -0.000000  -0.000000  -0.000000  -0.000000   0.000000   0.000000
    36  H    0.000000   0.000000  -0.000000   0.000000  -0.000000   0.000000
    37  H   -0.000000  -0.000000   0.000000  -0.000000   0.000000   0.000000
    38  C    0.000000   0.000000  -0.000035   0.000000   0.000000  -0.000000
    39  H    0.000000  -0.000000   0.000001  -0.000000   0.000000   0.000000
    40  H    0.000000   0.000000  -0.000000   0.000000  -0.000000  -0.000000
    41  H    0.000000   0.000000   0.000072  -0.000001   0.000000  -0.000000
[...]
    31  H   -0.240550   0.318778  -0.739536   0.614545  -0.000002   0.000003
    32  H    0.121642  -0.148034   0.358347  -1.234488   0.000087  -0.000097
    33  N   -0.000172   0.000178  -0.000337  -0.000093  -0.069373  -0.026557
    34  C   -0.000134   0.000029  -0.000064  -0.000307  -0.028929  -0.029602
    35  H   -0.000028   0.000002   0.000011   0.000043   0.006034   0.007678
    36  H   -0.000008   0.000003  -0.000009  -0.000027  -0.017097  -0.017898
    37  H   -0.000015   0.000004  -0.000018  -0.000029   0.020266   0.017301
    38  C    0.000578   0.000111   0.000041   0.000110   0.000981   0.011836
    39  H    0.000049   0.000037   0.000128   0.000185   0.006080   0.015817
    40  H    0.000127   0.000026  -0.000010  -0.000036   0.002110  -0.008958
    41  H    0.000477  -0.000554  -0.001678  -0.002176  -0.012471   0.025013
    42  H   -0.000432  -0.000371   0.000752   0.000701   0.054517   0.019268
              19         20         21         22         23         24
     1  S   -0.064924   0.050291   0.116364   0.095437  -0.018745  -0.089988
     2  N    0.096115   0.203754  -0.010591   0.258115  -0.068785  -0.089788
     3  C    0.159811  -0.464276  -0.458677  -0.485215  -0.415407  -0.180141
     4  C   -0.049976   0.294562   0.328816   0.167153   0.049493   0.111744
     5  S    0.008147   0.077761  -0.133629   0.109354  -0.123651  -0.050933
     6  C   -0.041530   0.187026   0.126232   0.357842   0.232461  -0.401783
     7  O   -0.000423  -0.008568   0.042681  -0.010817   0.036358   0.003842
     8  O   -0.000953   0.002539   0.012668  -0.009249   0.012016   0.012355
     9  C   -0.117041  -0.370330   0.176651  -0.537231   0.365893   0.325196
    10  C    0.021997   0.119057  -0.040002   0.048106  -0.012962  -0.049317
    11  C    0.008981   0.012214  -0.014130   0.043360  -0.039662  -0.101219
    12  C    0.000672   0.003259  -0.002991  -0.035946   0.011305   0.072909
    13  C   -0.002156  -0.000964  -0.001151   0.005594   0.006642  -0.006593
    14  C   -0.000393  -0.001971  -0.000198  -0.003244   0.000831   0.030610
    15  C   -0.000712   0.001448   0.004047   0.001313  -0.003519  -0.023159
    16  C    0.002294  -0.035046  -0.001414   0.003137  -0.007002   0.025951
    17  O    0.015061   0.001393   0.046151   0.004587   0.041918   0.006273
    18  O    0.035757  -0.003225  -0.010682  -0.006039   0.016348   0.013323
    19  H    1.017140   0.004333  -0.000307   0.000570   0.006468   0.037395
    20  H    0.004333   1.567692  -0.354332   0.015367   0.007860   0.001124
    21  H   -0.000307  -0.354332   1.497934   0.007326   0.008340   0.011220
    22  H    0.000570   0.015367   0.007326   1.782407  -0.486748  -0.044064
    23  H    0.006468   0.007860   0.008340  -0.486748   1.754757   0.011067
    24  H    0.037395   0.001124   0.011220  -0.044064   0.011067   2.056775
    25  H   -0.000928  -0.008994   0.001195   0.009165   0.017392  -0.336048
    26  H    0.002902  -0.022937   0.008659   0.005890  -0.004307   0.070301
    27  H    0.002104   0.006006   0.000441  -0.039411   0.019962  -0.099408
    28  H    0.000884   0.000719  -0.000519  -0.008661   0.003573  -0.003383
    29  H   -0.000144  -0.000305   0.000018   0.001338  -0.000108  -0.001833
    30  H    0.000008   0.000003  -0.000026  -0.000031   0.000001  -0.000388
    31  H    0.000052   0.001373  -0.000026  -0.000193  -0.000009   0.001729
    32  H   -0.000296  -0.007426   0.002871   0.001105  -0.001054   0.002717
    33  N   -0.050913  -0.002501  -0.001853   0.026296  -0.035670  -0.003563
    34  C    0.018835   0.003300  -0.001947   0.017483  -0.010022  -0.012283
    35  H    0.001473   0.000362  -0.000445   0.001919  -0.013258   0.002603
    36  H    0.001757   0.000089   0.000259   0.002580  -0.003975  -0.004849
    37  H   -0.001483   0.000256   0.000007   0.000398   0.004441  -0.000948
    38  C   -0.037569   0.001900  -0.004244   0.006189   0.005991  -0.003425
    39  H    0.006884  -0.000755  -0.000167  -0.001224   0.001815   0.004317
    40  H   -0.002999   0.000359  -0.000014  -0.000276  -0.005581   0.001410
    41  H   -0.013596   0.001601   0.000527   0.011990   0.011811  -0.061177
    42  H   -0.000190  -0.001416   0.002146  -0.001775  -0.005752   0.011902
              25         26         27         28         29         30
     1  S   -0.054456   0.012566   0.003359   0.001281  -0.000189  -0.000001
     2  N   -0.213901   0.024932  -0.000715  -0.007062  -0.000287   0.000033
     3  C    0.318149   0.294343   0.248263   0.039734  -0.000538   0.000384
     4  C   -0.185995   0.036475   0.051417  -0.002466  -0.000252  -0.000422
     5  S   -0.023562  -0.032369  -0.033697  -0.001960   0.000029  -0.000024
     6  C    0.222050  -0.058662   0.050184  -0.003910   0.001047  -0.000271
     7  O    0.001938   0.002351   0.002908   0.000097  -0.000005   0.000001
     8  O    0.006799  -0.002221   0.002747   0.000303  -0.000082  -0.000002
     9  C   -0.362774  -0.113607  -0.159371   0.104567   0.008504  -0.006960
    10  C   -0.099654  -0.293938  -0.256771  -0.259319   0.000827   0.000012
    11  C   -0.154043  -0.199450  -0.225298   0.823909  -0.155842   0.112601
    12  C    0.038148  -0.230307   0.223956  -1.229131   0.606106  -0.142195
    13  C   -0.026634  -0.082092   0.060455   0.376311  -0.729087   0.370396
    14  C    0.022409   0.012469   0.014493  -0.157610   0.322416  -0.594720
    15  C   -0.010971   0.056365  -0.087927   0.130655  -0.234860   0.369375
    16  C    0.077315   0.227036  -0.246689  -0.103778   0.136123  -0.144978
    17  O   -0.001354  -0.000771  -0.001138   0.000189  -0.000004   0.000000
    18  O    0.005587  -0.000344   0.000867  -0.000031   0.000001   0.000000
    19  H   -0.000928   0.002902   0.002104   0.000884  -0.000144   0.000008
    20  H   -0.008994  -0.022937   0.006006   0.000719  -0.000305   0.000003
    21  H    0.001195   0.008659   0.000441  -0.000519   0.000018  -0.000026
    22  H    0.009165   0.005890  -0.039411  -0.008661   0.001338  -0.000031
    23  H    0.017392  -0.004307   0.019962   0.003573  -0.000108   0.000001
    24  H   -0.336048   0.070301  -0.099408  -0.003383  -0.001833  -0.000388
    25  H    1.980859  -0.092208   0.071447   0.002794   0.001335  -0.000172
    26  H   -0.092208   1.828722  -0.121228   0.008314  -0.000194   0.000675
    27  H    0.071447  -0.121228   1.839212  -0.032850  -0.003216   0.000649
    28  H    0.002794   0.008314  -0.032850   2.124128  -0.089179  -0.016303
    29  H    0.001335  -0.000194  -0.003216  -0.089179   1.660256  -0.054015
    30  H   -0.000172   0.000675   0.000649  -0.016303  -0.054015   1.598984
    31  H   -0.004039  -0.002630  -0.000184   0.010500  -0.019410  -0.052954
    32  H   -0.004904  -0.042602   0.008987  -0.024124   0.010646  -0.017027
    33  N    0.007605   0.001116  -0.003569   0.000290  -0.000059   0.000008
    34  C   -0.004663   0.000176  -0.001398   0.000272  -0.000019   0.000001
    35  H   -0.000988  -0.000048  -0.000158  -0.000019  -0.000000   0.000000
    36  H   -0.000005   0.000070  -0.000207   0.000022  -0.000002   0.000000
    37  H   -0.000293   0.000007   0.000016   0.000014  -0.000002   0.000000
    38  C    0.002581   0.000466  -0.002106  -0.000182   0.000056   0.000007
    39  H    0.000708   0.000016  -0.000329   0.000138   0.000002   0.000004
    40  H   -0.001323  -0.000036   0.000161  -0.000007   0.000014  -0.000000
    41  H    0.017438   0.000876   0.001786  -0.002569  -0.000050  -0.000044
    42  H   -0.001769  -0.000936   0.001538  -0.000157   0.000034  -0.000004
              31         32         33         34         35         36
     1  S   -0.000095  -0.001057  -0.312054   0.199405   0.025561   0.101057
     2  N   -0.000577  -0.005308  -0.256794   0.018079   0.018358  -0.011613
     3  C    0.001632   0.044828  -0.005715  -0.348919   0.015624  -0.065914
     4  C    0.000889  -0.009865  -0.069188   0.050974   0.005922   0.003621
     5  S    0.000034  -0.002731   0.005679   0.008605  -0.001225   0.000840
     6  C    0.000010  -0.005334   0.088608   0.121346   0.003588   0.015992
     7  O   -0.000006   0.000036  -0.001530  -0.001140  -0.000536  -0.000132
     8  O   -0.000057  -0.000168  -0.001286  -0.000380  -0.000032  -0.000028
     9  C    0.008087   0.130529  -0.225746  -0.133275  -0.009333  -0.008375
    10  C    0.004868  -0.233927  -0.016873  -0.004821   0.000316  -0.000814
    11  C   -0.150826   0.824145   0.008149   0.002326   0.000591   0.000118
    12  C    0.137111  -0.104905   0.000376  -0.000424  -0.000124  -0.000016
    13  C   -0.240550   0.121642  -0.000172  -0.000134  -0.000028  -0.000008
    14  C    0.318778  -0.148034   0.000178   0.000029   0.000002   0.000003
    15  C   -0.739536   0.358347  -0.000337  -0.000064   0.000011  -0.000009
    16  C    0.614545  -1.234488  -0.000093  -0.000307   0.000043  -0.000027
    17  O   -0.000002   0.000087  -0.069373  -0.028929   0.006034  -0.017097
    18  O    0.000003  -0.000097  -0.026557  -0.029602   0.007678  -0.017898
    19  H    0.000052  -0.000296  -0.050913   0.018835   0.001473   0.001757
    20  H    0.001373  -0.007426  -0.002501   0.003300   0.000362   0.000089
    21  H   -0.000026   0.002871  -0.001853  -0.001947  -0.000445   0.000259
    22  H   -0.000193   0.001105   0.026296   0.017483   0.001919   0.002580
    23  H   -0.000009  -0.001054  -0.035670  -0.010022  -0.013258  -0.003975
    24  H    0.001729   0.002717  -0.003563  -0.012283   0.002603  -0.004849
    25  H   -0.004039  -0.004904   0.007605  -0.004663  -0.000988  -0.000005
    26  H   -0.002630  -0.042602   0.001116   0.000176  -0.000048   0.000070
    27  H   -0.000184   0.008987  -0.003569  -0.001398  -0.000158  -0.000207
    28  H    0.010500  -0.024124   0.000290   0.000272  -0.000019   0.000022
    29  H   -0.019410   0.010646  -0.000059  -0.000019  -0.000000  -0.000002
    30  H   -0.052954  -0.017027   0.000008   0.000001   0.000000   0.000000
    31  H    1.654031  -0.087015  -0.000012  -0.000003   0.000000  -0.000000
    32  H   -0.087015   2.107985   0.000213   0.000025   0.000003  -0.000001
    33  N   -0.000012   0.000213   9.486209  -0.041214   0.059485  -0.269570
    34  C   -0.000003   0.000025  -0.041214   4.358319   0.328860   0.447594
    35  H    0.000000   0.000003   0.059485   0.328860   1.219171  -0.309884
    36  H   -0.000000  -0.000001  -0.269570   0.447594  -0.309884   1.373565
    37  H   -0.000001   0.000004  -0.127160   0.275594  -0.176257  -0.188767
    38  C    0.000019  -0.000083  -0.129671  -0.065254  -0.054386   0.055077
    39  H    0.000006   0.000018  -0.193012   0.049690   0.003115   0.001372
    40  H    0.000001  -0.000011  -0.112424   0.014001   0.006736  -0.004998
    41  H   -0.000066  -0.000127  -0.083848  -0.042718  -0.019153   0.026261
    42  H    0.000011   0.000115   0.134961  -0.031396  -0.002398  -0.018701
              37         38         39         40         41         42
     1  S   -0.071165  -0.075053   0.016628  -0.040091   0.122787  -0.114094
     2  N    0.037463   0.126701  -0.055153   0.060610   0.031904   0.003591
     3  C   -0.000580  -0.161687   0.044152   0.015219  -0.202370   0.149218
     4  C    0.004326   0.009182  -0.007455   0.003588   0.011712   0.001738
     5  S    0.001005   0.001445  -0.000965  -0.000348   0.009227  -0.016971
     6  C    0.002390   0.043364  -0.011104  -0.004501   0.105265  -0.084783
     7  O   -0.000133  -0.000354   0.000134   0.000073  -0.001210   0.003918
     8  O   -0.000053  -0.000087   0.000050   0.000025  -0.000737   0.001062
     9  C   -0.003515   0.068650  -0.004790   0.005346  -0.032357   0.064509
    10  C   -0.000351  -0.008808   0.000485   0.000291   0.001179   0.001681
    11  C   -0.000199   0.003856   0.001508   0.000003  -0.013095   0.003280
    12  C    0.000009   0.000596  -0.000063   0.000050  -0.000468  -0.002000
    13  C   -0.000015   0.000578   0.000049   0.000127   0.000477  -0.000432
    14  C    0.000004   0.000111   0.000037   0.000026  -0.000554  -0.000371
    15  C   -0.000018   0.000041   0.000128  -0.000010  -0.001678   0.000752
    16  C   -0.000029   0.000110   0.000185  -0.000036  -0.002176   0.000701
    17  O    0.020266   0.000981   0.006080   0.002110  -0.012471   0.054517
    18  O    0.017301   0.011836   0.015817  -0.008958   0.025013   0.019268
    19  H   -0.001483  -0.037569   0.006884  -0.002999  -0.013596  -0.000190
    20  H    0.000256   0.001900  -0.000755   0.000359   0.001601  -0.001416
    21  H    0.000007  -0.004244  -0.000167  -0.000014   0.000527   0.002146
    22  H    0.000398   0.006189  -0.001224  -0.000276   0.011990  -0.001775
    23  H    0.004441   0.005991   0.001815  -0.005581   0.011811  -0.005752
    24  H   -0.000948  -0.003425   0.004317   0.001410  -0.061177   0.011902
    25  H   -0.000293   0.002581   0.000708  -0.001323   0.017438  -0.001769
    26  H    0.000007   0.000466   0.000016  -0.000036   0.000876  -0.000936
    27  H    0.000016  -0.002106  -0.000329   0.000161   0.001786   0.001538
    28  H    0.000014  -0.000182   0.000138  -0.000007  -0.002569  -0.000157
    29  H   -0.000002   0.000056   0.000002   0.000014  -0.000050   0.000034
    30  H    0.000000   0.000007   0.000004  -0.000000  -0.000044  -0.000004
    31  H   -0.000001   0.000019   0.000006   0.000001  -0.000066   0.000011
    32  H    0.000004  -0.000083   0.000018  -0.000011  -0.000127   0.000115
    33  N   -0.127160  -0.129671  -0.193012  -0.112424  -0.083848   0.134961
    34  C    0.275594  -0.065254   0.049690   0.014001  -0.042718  -0.031396
    35  H   -0.176257  -0.054386   0.003115   0.006736  -0.019153  -0.002398
    36  H   -0.188767   0.055077   0.001372  -0.004998   0.026261  -0.018701
    37  H    1.154573   0.053899   0.012600  -0.001776   0.010109   0.026439
    38  C    0.053899   4.198656   0.328067   0.368686   0.380283   0.010860
    39  H    0.012600   0.328067   1.177761  -0.192782  -0.197766   0.025069
    40  H   -0.001776   0.368686  -0.192782   1.314525  -0.310499  -0.009565
    41  H    0.010109   0.380283  -0.197766  -0.310499   1.481381  -0.030137
    42  H    0.026439   0.010860   0.025069  -0.009565  -0.030137   0.610554
 Mulliken charges:
               1
     1  S    2.892222
     2  N   -0.832876
     3  C    0.860241
     4  C    0.200654
     5  S    3.013273
     6  C    0.150122
     7  O   -1.232132
     8  O   -1.233921
     9  C    0.272120
    10  C    0.833261
    11  C    1.219875
    12  C    0.506208
    13  C    0.004295
    14  C    0.666367
    15  C    0.014726
    16  C    0.483013
    17  O   -1.092351
    18  O   -1.073765
    19  H   -0.063104
    20  H   -0.282604
    21  H   -0.357206
    22  H   -0.313894
    23  H   -0.370522
    24  H   -0.250472
    25  H   -0.215237
    26  H   -0.293841
    27  H   -0.295287
    28  H   -0.685471
    29  H   -0.459072
    30  H   -0.422603
    31  H   -0.455488
    32  H   -0.683718
    33  N   -0.778414
    34  C    0.843998
    35  H   -0.119184
    36  H   -0.107386
    37  H   -0.048374
    38  C    0.862718
    39  H   -0.031270
    40  H   -0.097126
    41  H   -0.222758
    42  H    0.194985
 Sum of Mulliken charges =   1.00000
 Mulliken charges with hydrogens summed into heavy atoms:
               1
     1  S    2.892222
     2  N   -0.895981
     3  C    0.860241
     4  C   -0.439155
     5  S    3.013273
     6  C   -0.534295
     7  O   -1.232132
     8  O   -1.233921
     9  C   -0.193589
    10  C    0.244133
    11  C    1.219875
    12  C   -0.179264
    13  C   -0.454778
    14  C    0.243763
    15  C   -0.440762
    16  C   -0.200705
    17  O   -1.092351
    18  O   -1.073765
    33  N   -0.583429
    34  C    0.569054
    38  C    0.511564
 Electronic spatial extent (au):  <R**2>=           9212.3759
 Charge=              1.0000 electrons
 Dipole moment (field-independent basis, Debye):
    X=             -8.1310    Y=            -13.4334    Z=             -2.7867  Tot=             15.9479
 Quadrupole moment (field-independent basis, Debye-Ang):
   XX=            -86.3982   YY=           -139.3912   ZZ=           -122.8923
   XY=             26.7620   XZ=             21.0533   YZ=             16.8012
 Traceless Quadrupole moment (field-independent basis, Debye-Ang):
   XX=             29.8290   YY=            -23.1640   ZZ=             -6.6650
   XY=             26.7620   XZ=             21.0533   YZ=             16.8012
 Octapole moment (field-independent basis, Debye-Ang**2):
  XXX=           -148.5786  YYY=           -147.6505  ZZZ=            -13.8014  XYY=            -73.4622
  XXY=           -174.6367  XXZ=            -57.8807  XZZ=            -21.0850  YZZ=             -0.6102
  YYZ=             -3.7099  XYZ=            -26.0713
 Hexadecapole moment (field-independent basis, Debye-Ang**3):
 XXXX=          -7017.4775 YYYY=          -2930.9041 ZZZZ=           -751.2654 XXXY=            144.4699
 XXXZ=            396.4696 YYYX=            331.5320 YYYZ=            125.2471 ZZZX=             58.4277
 ZZZY=             38.1585 XXYY=          -1693.8242 XXZZ=          -1416.0455 YYZZ=           -549.8500
 XXYZ=            182.6651 YYXZ=             55.0580 ZZXY=             18.6595
 N-N= 2.155912125634D+03 E-N=-8.313130550071D+03  KE= 1.705630782311D+03
 Leave Link  601 at Thu Sep 24 04:20:12 2020, MaxMem=   262144000 cpu:               1.3 elap:               0.4
 (Enter /prod/apps/gaussian/g16b1/l9999.exe)
 1\1\GINC-PIRINEUS11\SP\RMP2-FC\Aug-CC-pVDZ\C13H21N2O4S2(1+)\UBAFAR01\2
 4-Sep-2020\0\\#p mp2/aug-cc-pVDZ scf=(MaxCycle=2000,NoVarAcc,NoIncFock
 ) maxdisk=120GB geom=allcheck\\SM40_38.b.15.pdb.xyz\\1,1\S,0,2.8011909
 997,-0.6692149422,-0.5032121417\N,0,1.1857557555,-0.684494605,-0.49155
 29227\C,0,0.2537781847,0.4572336005,-0.2890907855\C,0,0.3361707548,1.5
 514857178,-1.4107660611\S,0,0.5278117918,2.8561958379,-0.146562136\C,0
 ,0.6155670852,1.3748867694,0.9256084775\O,0,1.8048696642,3.5848360596,
 -0.2370611375\O,0,-0.7103079325,3.6315398596,0.05820649\C,0,-1.1343479
 814,-0.2127501164,-0.1782055376\C,0,-2.3309856841,0.7315489253,0.03365
 43395\C,0,-3.6290524816,-0.0451629869,0.0882753842\C,0,-4.1119227601,-
 0.5507705497,1.3023374589\C,0,-5.2971665338,-1.2866922204,1.3492559298
 \C,0,-6.0186136033,-1.5280475419,0.1782609996\C,0,-5.5479893072,-1.027
 7112351,-1.0374163054\C,0,-4.3623932343,-0.2923540783,-1.0795064196\O,
 0,3.31282227,0.6791385043,-0.328393988\O,0,3.3246506981,-1.619411046,-
 1.468197279\H,0,0.8068627011,-1.491696666,-0.98755361\H,0,-0.559283082
 4,1.6733618059,-2.0174982687\H,0,1.2229722972,1.4917758676,-2.03925310
 18\H,0,-0.0993018113,1.3802772709,1.747630378\H,0,1.6326158425,1.27110
 45436,1.2927309324\H,0,-1.0894531307,-0.9309755195,0.6459666867\H,0,-1
 .3038995928,-0.7846988963,-1.0972780353\H,0,-2.380111734,1.4611558357,
 -0.7797139541\H,0,-2.2051272399,1.2951817592,0.9622657474\H,0,-3.55807
 57753,-0.3610144698,2.2175499536\H,0,-5.6584455096,-1.6668863674,2.299
 4401297\H,0,-6.941918034,-2.0969408394,0.2134333048\H,0,-6.1054111198,
 -1.2050325526,-1.9519327707\H,0,-4.0038342634,0.1001904454,-2.02687839
 68\N,0,3.236670679,-1.4847082698,1.1275014368\C,0,4.72307349,-1.455783
 9352,1.3187071877\H,0,5.0608869304,-0.4255087909,1.2364168374\H,0,4.93
 21054165,-1.846250307,2.313100753\H,0,5.182169212,-2.083174488,0.55776
 72188\C,0,2.6561004304,-2.857921564,1.2392491875\H,0,3.120585922,-3.49
 58741231,0.4910003579\H,0,2.8752172111,-3.2225886043,2.2415368594\H,0,
 1.5804088112,-2.7949662648,1.0924365273\H,0,2.8023546641,-0.8822818228
 ,1.8497402735\\Version=ES64L-G16RevB.01\State=1-A\HF=-1707.5795878\MP2
 =-1710.9045334\RMSD=2.994e-09\PG=C01 [X(C13H21N2O4S2)]\\@


 IF IT'S NOT TRUE, IT'S WELL INVENTED -- DANTE
 Job cpu time:       0 days  4 hours 37 minutes 29.1 seconds.
 Elapsed time:       0 days  1 hours 14 minutes  0.1 seconds.
 File lengths (MBytes):  RWF=  92334 Int=      0 D2E=      0 Chk=     38 Scr=      1
 Normal termination of Gaussian 16 at Thu Sep 24 04:20:14 2020.
