 Entering Gaussian System, Link 0=g16
 Initial command:
 /prod/apps/gaussian/g16b1/l1.exe "/tmp/ubafar01/1461116/Gau-66739.inp" -scrdir="/tmp/ubafar01/1461116/"
 Entering Link 1 = /prod/apps/gaussian/g16b1/l1.exe PID=     66742.
  
 Copyright (c) 1988-2017, Gaussian, Inc.  All Rights Reserved.
  
 This is part of the Gaussian(R) 16 program.  It is based on
 the Gaussian(R) 09 system (copyright 2009, Gaussian, Inc.),
 the Gaussian(R) 03 system (copyright 2003, Gaussian, Inc.),
 the Gaussian(R) 98 system (copyright 1998, Gaussian, Inc.),
 the Gaussian(R) 94 system (copyright 1995, Gaussian, Inc.),
 the Gaussian 92(TM) system (copyright 1992, Gaussian, Inc.),
 the Gaussian 90(TM) system (copyright 1990, Gaussian, Inc.),
 the Gaussian 88(TM) system (copyright 1988, Gaussian, Inc.),
 the Gaussian 86(TM) system (copyright 1986, Carnegie Mellon
 University), and the Gaussian 82(TM) system (copyright 1983,
 Carnegie Mellon University). Gaussian is a federally registered
 trademark of Gaussian, Inc.
  
 This software contains proprietary and confidential information,
 including trade secrets, belonging to Gaussian, Inc.
  
 This software is provided under written license and may be
 used, copied, transmitted, or stored only in accord with that
 written license.
  
 The following legend is applicable only to US Government
 contracts under FAR:
  
                    RESTRICTED RIGHTS LEGEND
  
 Use, reproduction and disclosure by the US Government is
 subject to restrictions as set forth in subparagraphs (a)
 and (c) of the Commercial Computer Software - Restricted
 Rights clause in FAR 52.227-19.
  
 Gaussian, Inc.
 340 Quinnipiac St., Bldg. 40, Wallingford CT 06492
  
  
 ---------------------------------------------------------------
 Warning -- This program may not be used in any manner that
 competes with the business of Gaussian, Inc. or will provide
 assistance to any competitor of Gaussian, Inc.  The licensee
 of this program is prohibited from giving any competitor of
 Gaussian, Inc. access to this program.  By using this program,
 the user acknowledges that Gaussian, Inc. is engaged in the
 business of creating and licensing software in the field of
 computational chemistry and represents and warrants to the
 licensee that it is not a competitor of Gaussian, Inc. and that
 it will not use this program in any manner prohibited above.
 ---------------------------------------------------------------
  

 Cite this work as:
 Gaussian 16, Revision B.01,
 M. J. Frisch, G. W. Trucks, H. B. Schlegel, G. E. Scuseria, 
 M. A. Robb, J. R. Cheeseman, G. Scalmani, V. Barone, 
 G. A. Petersson, H. Nakatsuji, X. Li, M. Caricato, A. V. Marenich, 
 J. Bloino, B. G. Janesko, R. Gomperts, B. Mennucci, H. P. Hratchian, 
 J. V. Ortiz, A. F. Izmaylov, J. L. Sonnenberg, D. Williams-Young, 
 F. Ding, F. Lipparini, F. Egidi, J. Goings, B. Peng, A. Petrone, 
 T. Henderson, D. Ranasinghe, V. G. Zakrzewski, J. Gao, N. Rega, 
 G. Zheng, W. Liang, M. Hada, M. Ehara, K. Toyota, R. Fukuda, 
 J. Hasegawa, M. Ishida, T. Nakajima, Y. Honda, O. Kitao, H. Nakai, 
 T. Vreven, K. Throssell, J. A. Montgomery, Jr., J. E. Peralta, 
 F. Ogliaro, M. J. Bearpark, J. J. Heyd, E. N. Brothers, K. N. Kudin, 
 V. N. Staroverov, T. A. Keith, R. Kobayashi, J. Normand, 
 K. Raghavachari, A. P. Rendell, J. C. Burant, S. S. Iyengar, 
 J. Tomasi, M. Cossi, J. M. Millam, M. Klene, C. Adamo, R. Cammi, 
 J. W. Ochterski, R. L. Martin, K. Morokuma, O. Farkas, 
 J. B. Foresman, and D. J. Fox, Gaussian, Inc., Wallingford CT, 2016.
 
 ******************************************
 Gaussian 16:  ES64L-G16RevB.01 20-Dec-2017
                24-Sep-2020 
 ******************************************
 %nproc=4
 Will use up to    4 processors via shared memory.
 %Chk=SM40.a.13.pdb.xyz.mst.a.w.chk
 %mem=16GB
 ----------------------------------------------------------------------
 #p b3lyp/6-31G(d) opt freq NoSymm scf=(MaxCycle=2000,NoVarAcc,NoIncFoc
 k) scrf=(iefpcm,read,solvent=water)
 ----------------------------------------------------------------------
 1/18=20,19=15,26=3,38=1,40=2/1,3;
 2/9=110,12=2,15=1,17=6,18=5,40=1/2;
 3/5=1,6=6,7=1,11=2,25=1,30=1,70=2203,71=1,72=1,74=-5/1,2,3;
 4//1;
 5/5=100002,7=2000,38=1,53=1/2;
 6/7=2,8=2,9=2,10=2,28=1/1;
 7/30=1/1,2,3,16;
 1/18=20,19=15,26=3/3(2);
 2/9=110,15=1/2;
 99//99;
 2/9=110,15=1/2;
 3/5=1,6=6,7=1,11=2,25=1,30=1,70=2205,71=1,72=1,74=-5/1,2,3;
 4/5=5,16=3,69=1/1;
 5/5=100002,7=2000,38=1,53=1/2;
 7/30=1/1,2,3,16;
 1/18=20,19=15,26=3/3(-5);
 2/9=110,15=1/2;
 6/7=2,8=2,9=2,10=2,19=2,28=1/1;
 99/9=1/99;
 Leave Link    1 at Thu Sep 24 01:22:27 2020, MaxMem=  2147483648 cpu:               0.1 elap:               0.0
 (Enter /prod/apps/gaussian/g16b1/l101.exe)
 -----------------
 SM40.a.13.pdb.xyz
 -----------------
 Symbolic Z-matrix:
 Charge = -1 Multiplicity = 1
 O                     2.407     0.276    -1.266 
 S                     2.513    -0.205     0.153 
 N                     1.138    -0.334     0.928 
 C                     0.142     0.712     0.807 
 C                    -0.513     0.91     -0.629 
 S                    -0.341     2.71     -0.479 
 C                     0.648     2.213     0.961 
 O                     0.435     3.354    -1.565 
 O                    -1.614     3.356    -0.072 
 C                    -0.931     0.464     1.895 
 C                    -1.568    -0.94      1.953 
 C                    -2.518    -1.297     0.825 
 C                    -2.211    -2.316    -0.087 
 C                    -3.09     -2.649    -1.122 
 C                    -4.3      -1.965    -1.262 
 C                    -4.624    -0.951    -0.355 
 C                    -3.744    -0.626     0.678 
 N                     3.021    -1.85      0.165 
 C                     2.208    -2.706    -0.711 
 C                     4.458    -2.009    -0.105 
 O                     3.591     0.511     0.902 
 H                    -1.546     0.589    -0.758 
 H                     0.13      0.549    -1.431 
 H                     0.365     2.733     1.878 
 H                     1.712     2.35      0.758 
 H                    -1.716     1.225     1.797 
 H                    -0.443     0.642     2.862 
 H                    -2.118    -0.997     2.902 
 H                    -0.77     -1.685     2.009 
 H                    -1.275    -2.859     0.017 
 H                    -2.829    -3.442    -1.818 
 H                    -4.985    -2.221    -2.065 
 H                    -5.567    -0.419    -0.448 
 H                    -4.012     0.16      1.382 
 H                     1.151    -2.553    -0.49 
 H                     2.465    -3.749    -0.502 
 H                     2.385    -2.506    -1.778 
 H                     5.033    -1.4       0.592 
 H                     4.731    -1.737    -1.136 
 H                     4.71     -3.062     0.051 
 
 ITRead=  0  0  0  0  0  0  0  0  0  0  0  0  0  0  0  0  0  0  0  0
 ITRead=  0  0  0  0  0  0  0  0  0  0  0  0  0  0  0  0  0  0  0  0
 MicOpt= -1 -1 -1 -1 -1 -1 -1 -1 -1 -1 -1 -1 -1 -1 -1 -1 -1 -1 -1 -1
 MicOpt= -1 -1 -1 -1 -1 -1 -1 -1 -1 -1 -1 -1 -1 -1 -1 -1 -1 -1 -1 -1
 NAtoms=     40 NQM=       40 NQMF=       0 NMMI=      0 NMMIF=      0
                NMic=       0 NMicF=      0.
                    Isotopes and Nuclear Properties:
 (Nuclear quadrupole moments (NQMom) in fm**2, nuclear magnetic moments (NMagM)
  in nuclear magnetons)

  Atom         1           2           3           4           5           6           7           8           9          10
 IAtWgt=          16          32          14          12          12          32          12          16          16          12
 AtmWgt=  15.9949146  31.9720718  14.0030740  12.0000000  12.0000000  31.9720718  12.0000000  15.9949146  15.9949146  12.0000000
 NucSpn=           0           0           2           0           0           0           0           0           0           0
 AtZEff=  -0.0000000  -0.0000000  -0.0000000  -0.0000000  -0.0000000  -0.0000000  -0.0000000  -0.0000000  -0.0000000  -0.0000000
 NQMom=    0.0000000   0.0000000   2.0440000   0.0000000   0.0000000   0.0000000   0.0000000   0.0000000   0.0000000   0.0000000
 NMagM=    0.0000000   0.0000000   0.4037610   0.0000000   0.0000000   0.0000000   0.0000000   0.0000000   0.0000000   0.0000000
 AtZNuc=   8.0000000  16.0000000   7.0000000   6.0000000   6.0000000  16.0000000   6.0000000   8.0000000   8.0000000   6.0000000

  Atom        11          12          13          14          15          16          17          18          19          20
 IAtWgt=          12          12          12          12          12          12          12          14          12          12
 AtmWgt=  12.0000000  12.0000000  12.0000000  12.0000000  12.0000000  12.0000000  12.0000000  14.0030740  12.0000000  12.0000000
 NucSpn=           0           0           0           0           0           0           0           2           0           0
 AtZEff=  -0.0000000  -0.0000000  -0.0000000  -0.0000000  -0.0000000  -0.0000000  -0.0000000  -0.0000000  -0.0000000  -0.0000000
 NQMom=    0.0000000   0.0000000   0.0000000   0.0000000   0.0000000   0.0000000   0.0000000   2.0440000   0.0000000   0.0000000
 NMagM=    0.0000000   0.0000000   0.0000000   0.0000000   0.0000000   0.0000000   0.0000000   0.4037610   0.0000000   0.0000000
 AtZNuc=   6.0000000   6.0000000   6.0000000   6.0000000   6.0000000   6.0000000   6.0000000   7.0000000   6.0000000   6.0000000

  Atom        21          22          23          24          25          26          27          28          29          30
 IAtWgt=          16           1           1           1           1           1           1           1           1           1
 AtmWgt=  15.9949146   1.0078250   1.0078250   1.0078250   1.0078250   1.0078250   1.0078250   1.0078250   1.0078250   1.0078250
 NucSpn=           0           1           1           1           1           1           1           1           1           1
 AtZEff=  -0.0000000  -0.0000000  -0.0000000  -0.0000000  -0.0000000  -0.0000000  -0.0000000  -0.0000000  -0.0000000  -0.0000000
 NQMom=    0.0000000   0.0000000   0.0000000   0.0000000   0.0000000   0.0000000   0.0000000   0.0000000   0.0000000   0.0000000
 NMagM=    0.0000000   2.7928460   2.7928460   2.7928460   2.7928460   2.7928460   2.7928460   2.7928460   2.7928460   2.7928460
 AtZNuc=   8.0000000   1.0000000   1.0000000   1.0000000   1.0000000   1.0000000   1.0000000   1.0000000   1.0000000   1.0000000

  Atom        31          32          33          34          35          36          37          38          39          40
 IAtWgt=           1           1           1           1           1           1           1           1           1           1
 AtmWgt=   1.0078250   1.0078250   1.0078250   1.0078250   1.0078250   1.0078250   1.0078250   1.0078250   1.0078250   1.0078250
 NucSpn=           1           1           1           1           1           1           1           1           1           1
 AtZEff=  -0.0000000  -0.0000000  -0.0000000  -0.0000000  -0.0000000  -0.0000000  -0.0000000  -0.0000000  -0.0000000  -0.0000000
 NQMom=    0.0000000   0.0000000   0.0000000   0.0000000   0.0000000   0.0000000   0.0000000   0.0000000   0.0000000   0.0000000
 NMagM=    2.7928460   2.7928460   2.7928460   2.7928460   2.7928460   2.7928460   2.7928460   2.7928460   2.7928460   2.7928460
 AtZNuc=   1.0000000   1.0000000   1.0000000   1.0000000   1.0000000   1.0000000   1.0000000   1.0000000   1.0000000   1.0000000
 Leave Link  101 at Thu Sep 24 01:22:27 2020, MaxMem=  2147483648 cpu:               1.3 elap:               0.3
 (Enter /prod/apps/gaussian/g16b1/l103.exe)

 GradGradGradGradGradGradGradGradGradGradGradGradGradGradGradGradGradGrad
 Berny optimization.
 Initialization pass.
                           ----------------------------
                           !    Initial Parameters    !
                           ! (Angstroms and Degrees)  !
 --------------------------                            --------------------------
 ! Name  Definition              Value          Derivative Info.                !
 --------------------------------------------------------------------------------
 ! R1    R(1,2)                  1.5021         estimate D2E/DX2                !
 ! R2    R(2,3)                  1.5836         estimate D2E/DX2                !
 ! R3    R(2,18)                 1.7217         estimate D2E/DX2                !
 ! R4    R(2,21)                 1.4952         estimate D2E/DX2                !
 ! R5    R(3,4)                  1.4494         estimate D2E/DX2                !
 ! R6    R(4,5)                  1.5907         estimate D2E/DX2                !
 ! R7    R(4,7)                  1.5915         estimate D2E/DX2                !
 ! R8    R(4,10)                 1.5481         estimate D2E/DX2                !
 ! R9    R(5,6)                  1.8144         estimate D2E/DX2                !
 ! R10   R(5,22)                 1.0894         estimate D2E/DX2                !
 ! R11   R(5,23)                 1.0895         estimate D2E/DX2                !
 ! R12   R(6,7)                  1.8162         estimate D2E/DX2                !
 ! R13   R(6,8)                  1.482          estimate D2E/DX2                !
 ! R14   R(6,9)                  1.4844         estimate D2E/DX2                !
 ! R15   R(7,24)                 1.0915         estimate D2E/DX2                !
 ! R16   R(7,25)                 1.0918         estimate D2E/DX2                !
 ! R17   R(10,11)                1.5428         estimate D2E/DX2                !
 ! R18   R(10,26)                1.0977         estimate D2E/DX2                !
 ! R19   R(10,27)                1.0977         estimate D2E/DX2                !
 ! R20   R(11,12)                1.5173         estimate D2E/DX2                !
 ! R21   R(11,28)                1.0983         estimate D2E/DX2                !
 ! R22   R(11,29)                1.0931         estimate D2E/DX2                !
 ! R23   R(12,13)                1.4016         estimate D2E/DX2                !
 ! R24   R(12,17)                1.4053         estimate D2E/DX2                !
 ! R25   R(13,14)                1.3981         estimate D2E/DX2                !
 ! R26   R(13,30)                1.0871         estimate D2E/DX2                !
 ! R27   R(14,15)                1.397          estimate D2E/DX2                !
 ! R28   R(14,31)                1.0869         estimate D2E/DX2                !
 ! R29   R(15,16)                1.3985         estimate D2E/DX2                !
 ! R30   R(15,32)                1.0861         estimate D2E/DX2                !
 ! R31   R(16,17)                1.3954         estimate D2E/DX2                !
 ! R32   R(16,33)                1.0867         estimate D2E/DX2                !
 ! R33   R(17,34)                1.0887         estimate D2E/DX2                !
 ! R34   R(18,19)                1.4701         estimate D2E/DX2                !
 ! R35   R(18,20)                1.4708         estimate D2E/DX2                !
 ! R36   R(19,35)                1.0906         estimate D2E/DX2                !
 ! R37   R(19,36)                1.0943         estimate D2E/DX2                !
 ! R38   R(19,37)                1.0999         estimate D2E/DX2                !
 ! R39   R(20,38)                1.0896         estimate D2E/DX2                !
 ! R40   R(20,39)                1.1007         estimate D2E/DX2                !
 ! R41   R(20,40)                1.0939         estimate D2E/DX2                !
 ! A1    A(1,2,3)              115.2859         estimate D2E/DX2                !
 ! A2    A(1,2,18)             109.4735         estimate D2E/DX2                !
 ! A3    A(1,2,21)             111.7626         estimate D2E/DX2                !
 ! A4    A(3,2,18)             100.0755         estimate D2E/DX2                !
 ! A5    A(3,2,21)             114.8244         estimate D2E/DX2                !
 ! A6    A(18,2,21)            103.9637         estimate D2E/DX2                !
 ! A7    A(2,3,4)              119.8022         estimate D2E/DX2                !
 ! A8    A(3,4,5)              116.6252         estimate D2E/DX2                !
 ! A9    A(3,4,7)              117.0064         estimate D2E/DX2                !
 ! A10   A(3,4,10)             107.5784         estimate D2E/DX2                !
 ! A11   A(5,4,7)               95.7897         estimate D2E/DX2                !
 ! A12   A(5,4,10)             111.6534         estimate D2E/DX2                !
 ! A13   A(7,4,10)             107.6653         estimate D2E/DX2                !
 ! A14   A(4,5,6)               90.5626         estimate D2E/DX2                !
 ! A15   A(4,5,22)             117.4307         estimate D2E/DX2                !
 ! A16   A(4,5,23)             112.3506         estimate D2E/DX2                !
 ! A17   A(6,5,22)             113.079          estimate D2E/DX2                !
 ! A18   A(6,5,23)             109.4891         estimate D2E/DX2                !
 ! A19   A(22,5,23)            112.014          estimate D2E/DX2                !
 ! A20   A(5,6,7)               81.1236         estimate D2E/DX2                !
 ! A21   A(5,6,8)              114.8443         estimate D2E/DX2                !
 ! A22   A(5,6,9)              111.9071         estimate D2E/DX2                !
 ! A23   A(7,6,8)              114.5054         estimate D2E/DX2                !
 ! A24   A(7,6,9)              111.6341         estimate D2E/DX2                !
 ! A25   A(8,6,9)              117.4421         estimate D2E/DX2                !
 ! A26   A(4,7,6)               90.4718         estimate D2E/DX2                !
 ! A27   A(4,7,24)             116.6275         estimate D2E/DX2                !
 ! A28   A(4,7,25)             114.2173         estimate D2E/DX2                !
 ! A29   A(6,7,24)             113.2374         estimate D2E/DX2                !
 ! A30   A(6,7,25)             110.4205         estimate D2E/DX2                !
 ! A31   A(24,7,25)            110.4318         estimate D2E/DX2                !
 ! A32   A(4,10,11)            117.2821         estimate D2E/DX2                !
 ! A33   A(4,10,26)            108.7756         estimate D2E/DX2                !
 ! A34   A(4,10,27)            106.5597         estimate D2E/DX2                !
 ! A35   A(11,10,26)           109.8145         estimate D2E/DX2                !
 ! A36   A(11,10,27)           107.3376         estimate D2E/DX2                !
 ! A37   A(26,10,27)           106.5084         estimate D2E/DX2                !
 ! A38   A(10,11,12)           116.4015         estimate D2E/DX2                !
 ! A39   A(10,11,28)           106.646          estimate D2E/DX2                !
 ! A40   A(10,11,29)           108.7062         estimate D2E/DX2                !
 ! A41   A(12,11,28)           108.4571         estimate D2E/DX2                !
 ! A42   A(12,11,29)           109.5596         estimate D2E/DX2                !
 ! A43   A(28,11,29)           106.614          estimate D2E/DX2                !
 ! A44   A(11,12,13)           121.1752         estimate D2E/DX2                !
 ! A45   A(11,12,17)           120.7722         estimate D2E/DX2                !
 ! A46   A(13,12,17)           118.0455         estimate D2E/DX2                !
 ! A47   A(12,13,14)           121.1417         estimate D2E/DX2                !
 ! A48   A(12,13,30)           119.3083         estimate D2E/DX2                !
 ! A49   A(14,13,30)           119.5493         estimate D2E/DX2                !
 ! A50   A(13,14,15)           120.1404         estimate D2E/DX2                !
 ! A51   A(13,14,31)           119.7907         estimate D2E/DX2                !
 ! A52   A(15,14,31)           120.0689         estimate D2E/DX2                !
 ! A53   A(14,15,16)           119.3853         estimate D2E/DX2                !
 ! A54   A(14,15,32)           120.3297         estimate D2E/DX2                !
 ! A55   A(16,15,32)           120.2844         estimate D2E/DX2                !
 ! A56   A(15,16,17)           120.191          estimate D2E/DX2                !
 ! A57   A(15,16,33)           120.0326         estimate D2E/DX2                !
 ! A58   A(17,16,33)           119.7743         estimate D2E/DX2                !
 ! A59   A(12,17,16)           121.0914         estimate D2E/DX2                !
 ! A60   A(12,17,34)           119.4613         estimate D2E/DX2                !
 ! A61   A(16,17,34)           119.4472         estimate D2E/DX2                !
 ! A62   A(2,18,19)            112.8934         estimate D2E/DX2                !
 ! A63   A(2,18,20)            112.9729         estimate D2E/DX2                !
 ! A64   A(19,18,20)           111.5923         estimate D2E/DX2                !
 ! A65   A(18,19,35)           109.4841         estimate D2E/DX2                !
 ! A66   A(18,19,36)           108.1369         estimate D2E/DX2                !
 ! A67   A(18,19,37)           112.5312         estimate D2E/DX2                !
 ! A68   A(35,19,36)           108.8205         estimate D2E/DX2                !
 ! A69   A(35,19,37)           109.0879         estimate D2E/DX2                !
 ! A70   A(36,19,37)           108.7099         estimate D2E/DX2                !
 ! A71   A(18,20,38)           109.7389         estimate D2E/DX2                !
 ! A72   A(18,20,39)           112.8039         estimate D2E/DX2                !
 ! A73   A(18,20,40)           107.6355         estimate D2E/DX2                !
 ! A74   A(38,20,39)           109.2791         estimate D2E/DX2                !
 ! A75   A(38,20,40)           108.9785         estimate D2E/DX2                !
 ! A76   A(39,20,40)           108.3199         estimate D2E/DX2                !
 ! D1    D(1,2,3,4)            -43.3281         estimate D2E/DX2                !
 ! D2    D(18,2,3,4)          -160.6126         estimate D2E/DX2                !
 ! D3    D(21,2,3,4)            88.7634         estimate D2E/DX2                !
 ! D4    D(1,2,18,19)          -51.1179         estimate D2E/DX2                !
 ! D5    D(1,2,18,20)           76.6808         estimate D2E/DX2                !
 ! D6    D(3,2,18,19)           70.4143         estimate D2E/DX2                !
 ! D7    D(3,2,18,20)         -161.7871         estimate D2E/DX2                !
 ! D8    D(21,2,18,19)        -170.6661         estimate D2E/DX2                !
 ! D9    D(21,2,18,20)         -42.8675         estimate D2E/DX2                !
 ! D10   D(2,3,4,5)             65.8687         estimate D2E/DX2                !
 ! D11   D(2,3,4,7)            -46.5986         estimate D2E/DX2                !
 ! D12   D(2,3,4,10)          -167.8467         estimate D2E/DX2                !
 ! D13   D(3,4,5,6)           -135.6754         estimate D2E/DX2                !
 ! D14   D(3,4,5,22)           107.7878         estimate D2E/DX2                !
 ! D15   D(3,4,5,23)           -24.2812         estimate D2E/DX2                !
 ! D16   D(7,4,5,6)            -11.5235         estimate D2E/DX2                !
 ! D17   D(7,4,5,22)          -128.0603         estimate D2E/DX2                !
 ! D18   D(7,4,5,23)            99.8707         estimate D2E/DX2                !
 ! D19   D(10,4,5,6)           100.0951         estimate D2E/DX2                !
 ! D20   D(10,4,5,22)          -16.4418         estimate D2E/DX2                !
 ! D21   D(10,4,5,23)         -148.5108         estimate D2E/DX2                !
 ! D22   D(3,4,7,6)            135.3779         estimate D2E/DX2                !
 ! D23   D(3,4,7,24)          -108.167          estimate D2E/DX2                !
 ! D24   D(3,4,7,25)            22.6539         estimate D2E/DX2                !
 ! D25   D(5,4,7,6)             11.5115         estimate D2E/DX2                !
 ! D26   D(5,4,7,24)           127.9666         estimate D2E/DX2                !
 ! D27   D(5,4,7,25)          -101.2125         estimate D2E/DX2                !
 ! D28   D(10,4,7,6)          -103.4197         estimate D2E/DX2                !
 ! D29   D(10,4,7,24)           13.0354         estimate D2E/DX2                !
 ! D30   D(10,4,7,25)          143.8563         estimate D2E/DX2                !
 ! D31   D(3,4,10,11)          -52.6017         estimate D2E/DX2                !
 ! D32   D(3,4,10,26)         -177.9235         estimate D2E/DX2                !
 ! D33   D(3,4,10,27)           67.6078         estimate D2E/DX2                !
 ! D34   D(5,4,10,11)           76.5643         estimate D2E/DX2                !
 ! D35   D(5,4,10,26)          -48.7575         estimate D2E/DX2                !
 ! D36   D(5,4,10,27)         -163.2262         estimate D2E/DX2                !
 ! D37   D(7,4,10,11)         -179.5288         estimate D2E/DX2                !
 ! D38   D(7,4,10,26)           55.1494         estimate D2E/DX2                !
 ! D39   D(7,4,10,27)          -59.3193         estimate D2E/DX2                !
 ! D40   D(4,5,6,7)             10.1522         estimate D2E/DX2                !
 ! D41   D(4,5,6,8)            123.1261         estimate D2E/DX2                !
 ! D42   D(4,5,6,9)            -99.6872         estimate D2E/DX2                !
 ! D43   D(22,5,6,7)           130.481          estimate D2E/DX2                !
 ! D44   D(22,5,6,8)          -116.5451         estimate D2E/DX2                !
 ! D45   D(22,5,6,9)            20.6415         estimate D2E/DX2                !
 ! D46   D(23,5,6,7)          -103.8568         estimate D2E/DX2                !
 ! D47   D(23,5,6,8)             9.1172         estimate D2E/DX2                !
 ! D48   D(23,5,6,9)           146.3038         estimate D2E/DX2                !
 ! D49   D(5,6,7,4)            -10.1471         estimate D2E/DX2                !
 ! D50   D(5,6,7,24)          -129.5737         estimate D2E/DX2                !
 ! D51   D(5,6,7,25)           106.0069         estimate D2E/DX2                !
 ! D52   D(8,6,7,4)           -123.4851         estimate D2E/DX2                !
 ! D53   D(8,6,7,24)           117.0883         estimate D2E/DX2                !
 ! D54   D(8,6,7,25)            -7.3311         estimate D2E/DX2                !
 ! D55   D(9,6,7,4)             99.992          estimate D2E/DX2                !
 ! D56   D(9,6,7,24)           -19.4346         estimate D2E/DX2                !
 ! D57   D(9,6,7,25)          -143.8539         estimate D2E/DX2                !
 ! D58   D(4,10,11,12)         -71.3447         estimate D2E/DX2                !
 ! D59   D(4,10,11,28)         167.5007         estimate D2E/DX2                !
 ! D60   D(4,10,11,29)          52.8989         estimate D2E/DX2                !
 ! D61   D(26,10,11,12)         53.4588         estimate D2E/DX2                !
 ! D62   D(26,10,11,28)        -67.6958         estimate D2E/DX2                !
 ! D63   D(26,10,11,29)        177.7024         estimate D2E/DX2                !
 ! D64   D(27,10,11,12)        168.8564         estimate D2E/DX2                !
 ! D65   D(27,10,11,28)         47.7018         estimate D2E/DX2                !
 ! D66   D(27,10,11,29)        -66.9            estimate D2E/DX2                !
 ! D67   D(10,11,12,13)        114.3968         estimate D2E/DX2                !
 ! D68   D(10,11,12,17)        -66.5918         estimate D2E/DX2                !
 ! D69   D(28,11,12,13)       -125.4145         estimate D2E/DX2                !
 ! D70   D(28,11,12,17)         53.597          estimate D2E/DX2                !
 ! D71   D(29,11,12,13)         -9.4082         estimate D2E/DX2                !
 ! D72   D(29,11,12,17)        169.6032         estimate D2E/DX2                !
 ! D73   D(11,12,13,14)        179.6678         estimate D2E/DX2                !
 ! D74   D(11,12,13,30)         -0.0183         estimate D2E/DX2                !
 ! D75   D(17,12,13,14)          0.6302         estimate D2E/DX2                !
 ! D76   D(17,12,13,30)       -179.056          estimate D2E/DX2                !
 ! D77   D(11,12,17,16)       -179.8509         estimate D2E/DX2                !
 ! D78   D(11,12,17,34)          0.1126         estimate D2E/DX2                !
 ! D79   D(13,12,17,16)         -0.8092         estimate D2E/DX2                !
 ! D80   D(13,12,17,34)        179.1543         estimate D2E/DX2                !
 ! D81   D(12,13,14,15)         -0.0932         estimate D2E/DX2                !
 ! D82   D(12,13,14,31)        179.8955         estimate D2E/DX2                !
 ! D83   D(30,13,14,15)        179.5922         estimate D2E/DX2                !
 ! D84   D(30,13,14,31)         -0.4191         estimate D2E/DX2                !
 ! D85   D(13,14,15,16)         -0.2827         estimate D2E/DX2                !
 ! D86   D(13,14,15,32)        179.9865         estimate D2E/DX2                !
 ! D87   D(31,14,15,16)        179.7286         estimate D2E/DX2                !
 ! D88   D(31,14,15,32)         -0.0022         estimate D2E/DX2                !
 ! D89   D(14,15,16,17)          0.1057         estimate D2E/DX2                !
 ! D90   D(14,15,16,33)       -179.377          estimate D2E/DX2                !
 ! D91   D(32,15,16,17)        179.8366         estimate D2E/DX2                !
 ! D92   D(32,15,16,33)          0.3539         estimate D2E/DX2                !
 ! D93   D(15,16,17,12)          0.4516         estimate D2E/DX2                !
 ! D94   D(15,16,17,34)       -179.5119         estimate D2E/DX2                !
 ! D95   D(33,16,17,12)        179.9356         estimate D2E/DX2                !
 ! D96   D(33,16,17,34)         -0.0279         estimate D2E/DX2                !
 ! D97   D(2,18,19,35)         -50.8482         estimate D2E/DX2                !
 ! D98   D(2,18,19,36)        -169.2718         estimate D2E/DX2                !
 ! D99   D(2,18,19,37)          70.6401         estimate D2E/DX2                !
 ! D100  D(20,18,19,35)       -179.3669         estimate D2E/DX2                !
 ! D101  D(20,18,19,36)         62.2096         estimate D2E/DX2                !
 ! D102  D(20,18,19,37)        -57.8786         estimate D2E/DX2                !
 ! D103  D(2,18,20,38)          54.3026         estimate D2E/DX2                !
 ! D104  D(2,18,20,39)         -67.7966         estimate D2E/DX2                !
 ! D105  D(2,18,20,40)         172.7676         estimate D2E/DX2                !
 ! D106  D(19,18,20,38)       -177.221          estimate D2E/DX2                !
 ! D107  D(19,18,20,39)         60.6798         estimate D2E/DX2                !
 ! D108  D(19,18,20,40)        -58.756          estimate D2E/DX2                !
 --------------------------------------------------------------------------------
 Trust Radius=3.00D-01 FncErr=1.00D-07 GrdErr=1.00D-06 EigMax=2.50D+02 EigMin=1.00D-04
 Number of steps in this run=    235 maximum allowed number of steps=    240.
 GradGradGradGradGradGradGradGradGradGradGradGradGradGradGradGradGradGrad

 Leave Link  103 at Thu Sep 24 01:22:27 2020, MaxMem=  2147483648 cpu:               0.1 elap:               0.0
 (Enter /prod/apps/gaussian/g16b1/l202.exe)
                          Input orientation:                          
 ---------------------------------------------------------------------
 Center     Atomic      Atomic             Coordinates (Angstroms)
 Number     Number       Type             X           Y           Z
 ---------------------------------------------------------------------
      1          8           0        2.407000    0.276000   -1.266000
      2         16           0        2.513000   -0.205000    0.153000
      3          7           0        1.138000   -0.334000    0.928000
      4          6           0        0.142000    0.712000    0.807000
      5          6           0       -0.513000    0.910000   -0.629000
      6         16           0       -0.341000    2.710000   -0.479000
      7          6           0        0.648000    2.213000    0.961000
      8          8           0        0.435000    3.354000   -1.565000
      9          8           0       -1.614000    3.356000   -0.072000
     10          6           0       -0.931000    0.464000    1.895000
     11          6           0       -1.568000   -0.940000    1.953000
     12          6           0       -2.518000   -1.297000    0.825000
     13          6           0       -2.211000   -2.316000   -0.087000
     14          6           0       -3.090000   -2.649000   -1.122000
     15          6           0       -4.300000   -1.965000   -1.262000
     16          6           0       -4.624000   -0.951000   -0.355000
     17          6           0       -3.744000   -0.626000    0.678000
     18          7           0        3.021000   -1.850000    0.165000
     19          6           0        2.208000   -2.706000   -0.711000
     20          6           0        4.458000   -2.009000   -0.105000
     21          8           0        3.591000    0.511000    0.902000
     22          1           0       -1.546000    0.589000   -0.758000
     23          1           0        0.130000    0.549000   -1.431000
     24          1           0        0.365000    2.733000    1.878000
     25          1           0        1.712000    2.350000    0.758000
     26          1           0       -1.716000    1.225000    1.797000
     27          1           0       -0.443000    0.642000    2.862000
     28          1           0       -2.118000   -0.997000    2.902000
     29          1           0       -0.770000   -1.685000    2.009000
     30          1           0       -1.275000   -2.859000    0.017000
     31          1           0       -2.829000   -3.442000   -1.818000
     32          1           0       -4.985000   -2.221000   -2.065000
     33          1           0       -5.567000   -0.419000   -0.448000
     34          1           0       -4.012000    0.160000    1.382000
     35          1           0        1.151000   -2.553000   -0.490000
     36          1           0        2.465000   -3.749000   -0.502000
     37          1           0        2.385000   -2.506000   -1.778000
     38          1           0        5.033000   -1.400000    0.592000
     39          1           0        4.731000   -1.737000   -1.136000
     40          1           0        4.710000   -3.062000    0.051000
 ---------------------------------------------------------------------
                    Distance matrix (angstroms):
                    1          2          3          4          5
     1  O    0.000000
     2  S    1.502051   0.000000
     3  N    2.606932   1.583632   0.000000
     4  C    3.101234   2.624928   1.449404   0.000000
     5  C    3.055180   3.318347   2.587969   1.590700   0.000000
     6  S    3.754361   4.128191   3.665109   2.424683   1.814410
     7  C    3.435925   3.158768   2.593916   1.591463   2.360896
     8  O    3.667733   4.464985   4.506729   3.562639   2.783511
     9  O    5.203891   5.455591   4.710584   3.293465   2.739592
    10  C    4.601033   3.917047   2.419226   1.548088   2.596963
    11  C    5.257494   4.520485   2.956399   2.639417   3.346976
    12  C    5.576938   5.191821   3.782104   3.333467   3.317377
    13  C    5.425351   5.179778   4.021735   3.937592   3.685654
    14  C    6.228432   6.244387   5.238102   5.046106   4.421590
    15  C    7.071488   7.177520   6.085072   5.583767   4.796632
    16  C    7.195166   7.193841   5.935269   5.179823   4.520920
    17  C    6.513643   6.293085   4.897110   4.111919   3.808793
    18  N    2.635267   1.721695   2.534978   3.907000   4.553811
    19  C    3.039729   2.663554   3.075322   4.272634   4.526149
    20  C    3.282643   2.665334   3.859419   5.182995   5.788435
    21  O    2.481392   1.495239   2.594592   3.456158   4.398406
    22  H    3.997780   4.235072   3.301270   2.305146   1.089390
    23  H    2.299235   2.959098   2.713049   2.243960   1.089483
    24  H    4.482337   4.027577   3.302502   2.298089   3.221686
    25  H    2.980114   2.745114   2.749951   2.269437   2.991320
    26  H    5.223189   4.757318   3.366149   2.166895   2.726153
    27  H    5.029596   4.098051   2.681882   2.137791   3.501972
    28  H    6.282386   5.443384   3.864943   3.523820   4.322110
    29  H    4.966334   4.051324   2.575699   2.832341   3.709329
    30  H    5.003143   4.627219   3.609448   3.922248   3.899144
    31  H    6.445458   6.549807   5.739100   5.742228   5.071241
    32  H    7.843155   8.074886   7.071771   6.567877   5.644824
    33  H    8.045920   8.105146   6.845263   5.953727   5.228950
    34  H    6.944705   6.649759   5.193520   4.229781   4.104829
    35  H    3.191074   2.789551   2.633411   3.655204   3.844553
    36  H    4.097278   3.604340   3.932945   5.197146   5.530904
    37  H    2.828808   3.006617   3.687144   4.697744   4.624680
    38  H    3.627260   2.823322   4.052194   5.331852   6.130665
    39  H    3.077344   2.987987   4.374718   5.552636   5.896032
    40  H    4.263865   3.605504   4.579334   5.973377   6.596887
                    6          7          8          9         10
     6  S    0.000000
     7  C    1.816241   0.000000
     8  O    1.481995   2.779915   0.000000
     9  O    1.484417   2.736820   2.535242   0.000000
    10  C    3.320917   2.534679   4.710590   3.563600   0.000000
    11  C    4.554410   3.979463   5.901421   4.749564   1.542838
    12  C    4.742973   4.728864   6.005340   4.824130   2.600883
    13  C    5.376917   5.457474   6.429207   5.703351   3.646248
    14  C    6.057172   6.476927   6.975520   6.272248   4.842968
    15  C    6.175953   6.846906   7.127678   6.078136   5.216977
    16  C    5.635813   6.287824   6.752082   5.262170   4.550052
    17  C    4.903871   5.237335   6.191566   4.577742   3.253023
    18  N    5.701875   4.772076   6.063160   6.974370   4.895488
    19  C    5.990349   5.424550   6.371534   7.194710   5.166571
    20  C    6.740863   5.785995   6.861334   8.102685   6.257559
    21  O    4.712047   3.400226   4.912135   6.011217   4.629983
    22  H    2.455302   3.225829   3.495831   2.851580   2.726217
    23  H    2.407917   2.959541   2.824713   3.573187   3.492166
    24  H    2.460572   1.091503   3.499256   2.847292   2.613095
    25  H    2.423753   1.091821   2.834621   3.572564   3.440235
    26  H    3.045657   2.695095   4.523548   2.836323   1.097702
    27  H    3.930561   2.696687   5.265373   4.164780   1.097687
    28  H    5.322663   4.660723   6.738182   5.295970   2.134839
    29  H    5.068551   4.278251   6.294205   5.518567   2.158036
    30  H    5.668521   5.505838   6.635374   6.224875   3.832434
    31  H    6.769798   7.196624   7.543429   7.123029   5.713634
    32  H    6.956788   7.781242   7.791471   6.814589   6.271024
    33  H    6.091197   6.894848   7.176853   5.478888   5.268950
    34  H    4.841700   5.109565   6.217898   4.251933   3.138176
    35  H    5.470407   5.007311   6.046563   6.537295   4.373241
    36  H    7.042219   6.402133   7.463476   8.203912   5.918428
    37  H    6.027034   5.726103   6.179601   7.298320   5.771281
    38  H    6.849746   5.693694   6.956635   8.200185   6.382915
    39  H    6.777362   6.055642   6.675173   8.205472   6.788933
    40  H    7.688269   6.719641   7.877318   9.011039   6.903180
                   11         12         13         14         15
    11  C    0.000000
    12  C    1.517344   0.000000
    13  C    2.543310   1.401554   0.000000
    14  C    3.833118   2.438421   1.398126   0.000000
    15  C    4.341736   2.824414   2.422343   1.396981   0.000000
    16  C    3.829637   2.438719   2.785250   2.413431   1.398507
    17  C    2.541495   1.405321   2.406536   2.785722   2.421912
    18  N    5.008389   5.605527   5.258753   6.295958   7.459665
    19  C    4.947103   5.165235   4.479848   5.314224   6.573184
    20  C    6.456841   7.073643   6.676087   7.643049   8.834203
    21  O    5.461253   6.371395   6.529415   7.662763   8.548763
    22  H    3.112530   2.647200   3.054749   3.605700   3.789650
    23  H    4.068388   3.938167   3.936349   4.548745   5.096436
    24  H    4.151270   5.065708   5.999117   7.064202   7.327553
    25  H    4.796929   5.585517   6.154308   7.182173   7.670969
    26  H    2.175653   2.819303   4.041431   5.041459   5.119633
    27  H    2.143509   3.494956   4.535658   5.805992   6.219347
    28  H    1.098340   2.136335   3.268414   4.457181   4.799692
    29  H    1.093145   2.146603   2.620660   4.014331   4.820658
    30  H    2.741625   2.153545   1.087088   2.153055   3.403778
    31  H    4.697932   3.418069   2.155496   1.086916   2.157430
    32  H    5.427815   3.910494   3.408311   2.159504   1.086080
    33  H    4.693426   3.418745   3.871907   3.400398   2.158240
    34  H    2.740288   2.159892   3.395900   3.874349   3.404307
    35  H    3.995370   4.094914   3.394351   4.288907   5.536707
    36  H    5.493869   5.709949   4.908227   5.696703   7.037434
    37  H    5.656759   5.681259   4.900898   5.516014   6.726675
    38  H    6.755525   7.555296   7.333187   8.395292   9.532126
    39  H    7.060774   7.522441   7.044644   7.874007   9.034756
    40  H    6.894474   7.480527   6.962457   7.898512   9.171013
                   16         17         18         19         20
    16  C    0.000000
    17  C    1.395390   0.000000
    18  N    7.715220   6.893952   0.000000
    19  C    7.062789   6.456162   1.470062   0.000000
    20  C    9.146835   8.354555   1.470765   2.432189   0.000000
    21  O    8.438230   7.425979   2.538186   3.855327   2.848884
    22  H    3.465270   2.893013   5.259101   4.995173   6.574498
    23  H    5.099833   4.564689   4.081703   3.928296   5.199348
    24  H    6.591530   5.441210   5.567099   6.299388   6.570502
    25  H    7.230509   6.215377   4.439046   5.288394   5.223616
    26  H    4.221675   2.964987   5.878624   6.094309   7.224586
    27  H    5.510671   4.156234   5.048086   5.568055   6.312740
    28  H    4.109769   2.779873   5.884564   5.889714   7.301368
    29  H    4.580455   3.426035   4.218915   4.160448   5.648536
    30  H    3.872292   3.393990   4.415382   3.561556   5.796954
    31  H    3.401099   3.872609   6.378813   5.209464   7.621563
    32  H    2.160398   3.407074   8.319049   7.335379   9.646595
    33  H    1.086702   2.152685   8.727959   8.108647  10.156100
    34  H    2.150822   1.088685   7.415138   7.161215   8.868857
    35  H    5.994602   5.388745   2.102411   1.090642   3.373486
    36  H    7.622620   7.049625   2.088115   1.094340   2.675305
    37  H    7.319087   6.865200   2.147110   1.099917   2.709846
    38  H    9.713705   8.811481   2.105463   3.374029   1.089640
    39  H    9.420392   8.737880   2.151620   2.735894   1.100670
    40  H    9.578346   8.820280   2.081985   2.639580   1.093915
                   21         22         23         24         25
    21  O    0.000000
    22  H    5.399116   0.000000
    23  H    4.174069   1.806517   0.000000
    24  H    4.036946   3.898353   3.971720   0.000000
    25  H    2.633116   4.001742   3.246236   1.793181   0.000000
    26  H    5.429095   2.638450   3.779507   2.571223   3.754508
    27  H    4.486860   3.784682   4.332070   2.448142   3.462384
    28  H    6.234320   4.029663   5.120401   4.596386   5.519787
    29  H    5.006614   3.664634   4.199328   4.563344   4.899648
    30  H    5.984821   3.544400   3.960454   6.117466   6.050201
    31  H    8.015049   4.361038   4.983325   7.873543   7.797674
    32  H    9.477061   4.629370   5.851332   8.289262   8.585638
    33  H    9.303567   4.156995   5.861665   7.108727   7.880713
    34  H    7.626219   3.293144   5.021997   5.101419   6.160329
    35  H    4.156845   4.149433   3.398577   5.845256   5.090347
    36  H    4.624575   5.913705   4.978762   7.217390   6.273150
    37  H    4.211784   5.106093   3.812933   6.700288   5.519507
    38  H    2.413998   7.004417   5.650711   6.365981   5.011896
    39  H    3.241381   6.704766   5.146069   6.937366   5.422653
    40  H    3.839621   7.288472   6.017644   7.469871   6.227166
                   26         27         28         29         30
    26  H    0.000000
    27  H    1.759160   0.000000
    28  H    2.513944   2.343831   0.000000
    29  H    3.067240   2.499893   1.757241   0.000000
    30  H    4.476822   4.587292   3.535664   2.366720   0.000000
    31  H    6.007319   6.653905   5.363017   4.687479   2.474274
    32  H    6.121791   7.287102   5.864210   5.886510   4.301845
    33  H    4.751101   6.191704   4.842746   5.536318   4.958940
    34  H    2.564774   3.893647   2.690034   3.782554   4.297529
    35  H    5.265296   4.897424   4.961165   3.269353   2.497231
    36  H    6.892520   6.249307   6.337555   4.585896   3.879312
    37  H    6.596907   6.279896   6.667570   4.996943   4.091728
    38  H    7.341093   6.269708   7.525643   5.980295   6.500013
    39  H    7.677222   6.958011   7.985101   6.336776   6.217743
    40  H    7.919619   6.940803   7.682058   5.979991   5.988538
                   31         32         33         34         35
    31  H    0.000000
    32  H    2.490017   0.000000
    33  H    4.302566   2.490104   0.000000
    34  H    4.961239   4.300895   2.470256   0.000000
    35  H    4.288858   6.343607   7.048918   6.125465   0.000000
    36  H    5.463748   7.764036   8.695104   7.796234   1.776839
    37  H    5.297499   7.381090   8.328191   7.616742   1.784351
    38  H    8.472834  10.396827  10.695979   9.212477   4.191665
    39  H    7.779830   9.772305  10.404772   9.294029   3.728213
    40  H    7.776508   9.958803  10.623144   9.392877   3.635690
                   36         37         38         39         40
    36  H    0.000000
    37  H    1.783150   0.000000
    38  H    3.648186   3.721833   0.000000
    39  H    3.095942   2.550929   1.786269   0.000000
    40  H    2.412012   3.009984   1.777429   1.779055   0.000000
 Symmetry turned off by external request.
 Stoichiometry    C13H19N2O4S2(1-)
 Framework group  C1[X(C13H19N2O4S2)]
 Deg. of freedom   114
 Full point group                 C1      NOp   1
 Rotational constants (GHZ):           0.3369732           0.2078865           0.1527499
 Leave Link  202 at Thu Sep 24 01:22:27 2020, MaxMem=  2147483648 cpu:               0.0 elap:               0.0
 (Enter /prod/apps/gaussian/g16b1/l301.exe)
 Standard basis: 6-31G(d) (6D, 7F)
 Ernie: Thresh=  0.10000D-02 Tol=  0.10000D-05 Strict=F.
   361 basis functions,   712 primitive gaussians,   361 cartesian basis functions
    88 alpha electrons       88 beta electrons
       nuclear repulsion energy      2186.2401239821 Hartrees.
 IExCor=  402 DFT=T Ex+Corr=B3LYP ExCW=0 ScaHFX=  0.200000
 ScaDFX=  0.800000  0.720000  1.000000  0.810000 ScalE2=  1.000000  1.000000
 IRadAn=      5 IRanWt=     -1 IRanGd=            0 ICorTp=0 IEmpDi=  4
 NAtoms=   40 NActive=   40 NUniq=   40 SFac= 1.00D+00 NAtFMM=   60 NAOKFM=F Big=F
 Integral buffers will be    131072 words long.
 Raffenetti 2 integral format.
 Two-electron integral symmetry is turned off.
 Using the following non-standard input for PCM:
 MSTModel=DFT cav MSTcharged
 --- end of non-standard input.
 MST model for solvation energy: B3LYP parametrization.
 MST cavity parameters:
 ISph   IAn     Re0     Alpha   Atom Type   QCorr
 ------------------------------------------------
   1      8     1.40     1.25      O          F
   2     16     1.75     1.25      S          F
   3      7     1.40     1.15      N          T
   4      6     1.50     1.25      C          F
   5      6     1.50     1.25      CH2        F
   6     16     1.75     1.25      S          F
   7      6     1.50     1.25      CH2        F
   8      8     1.40     1.25      O          F
   9      8     1.40     1.25      O          F
  10      6     1.50     1.25      CH2        F
  11      6     1.50     1.25      CH2        F
  12      6     1.50     1.25      C          F
  13      6     1.50     1.25      CH         F
  14      6     1.50     1.25      CH         F
  15      6     1.50     1.25      CH         F
  16      6     1.50     1.25      CH         F
  17      6     1.50     1.25      CH         F
  18      7     1.40     1.25      N          F
  19      6     1.50     1.25      CH3        F
  20      6     1.50     1.25      CH3        F
  21      8     1.40     1.25      O          F
  22      1     1.20     1.25      CH2        F
  23      1     1.20     1.25      CH2        F
  24      1     1.20     1.25      CH2        F
  25      1     1.20     1.25      CH2        F
  26      1     1.20     1.25      CH2        F
  27      1     1.20     1.25      CH2        F
  28      1     1.20     1.25      CH2        F
  29      1     1.20     1.25      CH2        F
  30      1     1.20     1.25      CH         F
  31      1     1.20     1.25      CH         F
  32      1     1.20     1.25      CH         F
  33      1     1.20     1.25      CH         F
  34      1     1.20     1.25      CH         F
  35      1     1.20     1.25      CH3        F
  36      1     1.20     1.25      CH3        F
  37      1     1.20     1.25      CH3        F
  38      1     1.20     1.25      CH3        F
  39      1     1.20     1.25      CH3        F
  40      1     1.20     1.25      CH3        F
 ------------------------------------------------------------------------------
 Polarizable Continuum Model (PCM)
 =================================
 Model                : PCM.
 Atomic radii         : MST.
 Polarization charges : Total charges.
 Charge compensation  : None.
 Solution method      : On-the-fly selection.
 Cavity type          : Scaled VdW (van der Waals Surface) (Alpha=1.250).
 Cavity algorithm     : GePol (No added spheres)
                        Default sphere list used, NSphG=   40.
                        Lebedev-Laikov grids with approx.  5.0 points / Ang**2.
                        Smoothing algorithm: York/Karplus (Gamma=1.0000).
                        Polarization charges: spherical gaussians, with
                                              point-specific exponents (IZeta= 3).
                        Self-potential: point-specific (ISelfS= 7).
                        Self-field    : sphere-specific E.n sum rule (ISelfD= 2).
 1st derivatives      : Analytical E(r).r(x)/FMM algorithm (CHGder, D1EAlg=3).
                        Cavity 1st derivative terms included.
 Solvent              : Water, Eps=  78.355300 Eps(inf)=   1.777849
 ------------------------------------------------------------------------------
 GePol: Number of generator spheres                  =      40
 GePol: Total number of spheres                      =      40
 GePol: Number of exposed spheres                    =      40 (100.00%)
 GePol: Number of points                             =    2771
 GePol: Average weight of points                     =       0.13
 GePol: Minimum weight of points                     =   0.13D-08
 GePol: Maximum weight of points                     =    0.22001
 GePol: Number of points with low weight             =     203
 GePol: Fraction of low-weight points (<1% of avg)   =       7.33%
 GePol: Cavity surface area                          =    373.029 Ang**2
 GePol: Cavity volume                                =    371.420 Ang**3
 PCM non-electrostatic energy =         0.0043727264 Hartrees.
 Nuclear repulsion after PCM non-electrostatic terms =     2186.2444967085 Hartrees.
 Leave Link  301 at Thu Sep 24 01:22:27 2020, MaxMem=  2147483648 cpu:               0.3 elap:               0.1
 (Enter /prod/apps/gaussian/g16b1/l302.exe)
 NPDir=0 NMtPBC=     1 NCelOv=     1 NCel=       1 NClECP=     1 NCelD=      1
         NCelK=      1 NCelE2=     1 NClLst=     1 CellRange=     0.0.
 One-electron integrals computed using PRISM.
 NBasis=   361 RedAO= T EigKep=  4.68D-04  NBF=   361
 NBsUse=   361 1.00D-06 EigRej= -1.00D+00 NBFU=   361
 Precomputing XC quadrature grid using
 IXCGrd= 4 IRadAn=           5 IRanWt=          -1 IRanGd=           0 AccXCQ= 0.00D+00.
 Generated NRdTot=       0 NPtTot=           0 NUsed=           0 NTot=          32
 NSgBfM=   359   359   359   359   359 MxSgAt=    40 MxSgA2=    40.
 Leave Link  302 at Thu Sep 24 01:22:28 2020, MaxMem=  2147483648 cpu:               2.2 elap:               0.6
 (Enter /prod/apps/gaussian/g16b1/l303.exe)
 DipDrv:  MaxL=1.
 Leave Link  303 at Thu Sep 24 01:22:28 2020, MaxMem=  2147483648 cpu:               0.2 elap:               0.1
 (Enter /prod/apps/gaussian/g16b1/l401.exe)
 ExpMin= 1.17D-01 ExpMax= 2.19D+04 ExpMxC= 3.30D+03 IAcc=3 IRadAn=         5 AccDes= 0.00D+00
 Harris functional with IExCor=  402 and IRadAn=       5 diagonalized for initial guess.
 HarFok:  IExCor=  402 AccDes= 0.00D+00 IRadAn=         5 IDoV= 1 UseB2=F ITyADJ=14
 ICtDFT=  3500011 ScaDFX=  1.000000  1.000000  1.000000  1.000000
 FoFCou: FMM=F IPFlag=           0 FMFlag=      100000 FMFlg1=           0
         NFxFlg=           0 DoJE=T BraDBF=F KetDBF=T FulRan=T
         wScrn=  0.000000 ICntrl=       500 IOpCl=  0 I1Cent=   200000004 NGrid=           0
         NMat0=    1 NMatS0=      1 NMatT0=    0 NMatD0=    1 NMtDS0=    0 NMtDT0=    0
 Symmetry not used in FoFCou.
 Harris En= -1713.71831714206    
 JPrj=0 DoOrth=F DoCkMO=F.
 Leave Link  401 at Thu Sep 24 01:22:31 2020, MaxMem=  2147483648 cpu:              13.0 elap:               3.3
 (Enter /prod/apps/gaussian/g16b1/l502.exe)
 Two-electron integral symmetry not used.
 Closed shell SCF:
 Using DIIS extrapolation, IDIIS=  1040.
 NGot=  2147483648 LenX=  2147217629 LenY=  2147086867
 Requested convergence on RMS density matrix=1.00D-08 within2000 cycles.
 Requested convergence on MAX density matrix=1.00D-06.
 Requested convergence on             energy=1.00D-06.
 No special actions if energy rises.

 Cycle   1  Pass 1  IDiag  1:
 FoFJK:  IHMeth= 1 ICntrl=       0 DoSepK=F KAlg= 0 I1Cent=           0 FoldK=F
 IRaf= 800000000 NMat=       1 IRICut=       1 DoRegI=T DoRafI=F ISym2E= 0 IDoP0=0 IntGTp=1.
 FoFCou: FMM=F IPFlag=           0 FMFlag=      100000 FMFlg1=           0
         NFxFlg=           0 DoJE=F BraDBF=F KetDBF=F FulRan=T
         wScrn=  0.000000 ICntrl=         0 IOpCl=  0 I1Cent=           0 NGrid=           0
         NMat0=    1 NMatS0=      1 NMatT0=    0 NMatD0=    1 NMtDS0=    0 NMtDT0=    0
 Symmetry not used in FoFCou.
 Inv3:  Mode=1 IEnd=    23035323.
 Iteration    1 A*A^-1 deviation from unit magnitude is 3.33D-15 for   1130.
 Iteration    1 A*A^-1 deviation from orthogonality  is 2.03D-15 for   2173    370.
 Iteration    1 A^-1*A deviation from unit magnitude is 3.55D-15 for   1130.
 Iteration    1 A^-1*A deviation from orthogonality  is 2.58D-15 for   2514   2487.
 E= -1712.73656080889    
 DIIS: error= 3.45D-02 at cycle   1 NSaved=   1.
 NSaved= 1 IEnMin= 1 EnMin= -1712.73656080889     IErMin= 1 ErrMin= 3.45D-02
 ErrMax= 3.45D-02  0.00D+00 EMaxC= 1.00D-01 BMatC= 1.00D+00 BMatP= 1.00D+00
 IDIUse=3 WtCom= 6.55D-01 WtEn= 3.45D-01
 Coeff-Com:  0.100D+01
 Coeff-En:   0.100D+01
 Coeff:      0.100D+01
 Gap=     0.218 Goal=   None    Shift=    0.000
 GapD=    0.218 DampG=1.000 DampE=0.500 DampFc=0.5000 IDamp=-1.
 Damping current iteration by 5.00D-01
 RMSDP=6.50D-03 MaxDP=5.42D-01              OVMax= 2.25D-01

 Cycle   2  Pass 1  IDiag  1:
 E= -1713.00006909297     Delta-E=       -0.263508284083 Rises=F Damp=T
 DIIS: error= 1.21D-02 at cycle   2 NSaved=   2.
 NSaved= 2 IEnMin= 2 EnMin= -1713.00006909297     IErMin= 2 ErrMin= 1.21D-02
 ErrMax= 1.21D-02  0.00D+00 EMaxC= 1.00D-01 BMatC= 1.09D-01 BMatP= 1.00D+00
 IDIUse=3 WtCom= 8.79D-01 WtEn= 1.21D-01
 Coeff-Com:  0.197D+00 0.803D+00
 Coeff-En:   0.317D+00 0.683D+00
 Coeff:      0.211D+00 0.789D+00
 Gap=     0.270 Goal=   None    Shift=    0.000
 RMSDP=1.61D-03 MaxDP=1.18D-01 DE=-2.64D-01 OVMax= 1.64D-01

 Cycle   3  Pass 1  IDiag  1:
 E= -1713.53571601537     Delta-E=       -0.535646922397 Rises=F Damp=F
 DIIS: error= 8.48D-03 at cycle   3 NSaved=   3.
 NSaved= 3 IEnMin= 3 EnMin= -1713.53571601537     IErMin= 3 ErrMin= 8.48D-03
 ErrMax= 8.48D-03  0.00D+00 EMaxC= 1.00D-01 BMatC= 5.43D-02 BMatP= 1.09D-01
 IDIUse=3 WtCom= 9.15D-01 WtEn= 8.48D-02
 Coeff-Com:  0.670D-01 0.425D+00 0.507D+00
 Coeff-En:   0.000D+00 0.000D+00 0.100D+01
 Coeff:      0.613D-01 0.389D+00 0.549D+00
 Gap=     0.208 Goal=   None    Shift=    0.000
 RMSDP=9.16D-04 MaxDP=2.88D-02 DE=-5.36D-01 OVMax= 4.66D-02

 Cycle   4  Pass 1  IDiag  1:
 E= -1713.57785605682     Delta-E=       -0.042140041444 Rises=F Damp=F
 DIIS: error= 3.13D-03 at cycle   4 NSaved=   4.
 NSaved= 4 IEnMin= 4 EnMin= -1713.57785605682     IErMin= 4 ErrMin= 3.13D-03
 ErrMax= 3.13D-03  0.00D+00 EMaxC= 1.00D-01 BMatC= 8.69D-03 BMatP= 5.43D-02
 IDIUse=3 WtCom= 9.69D-01 WtEn= 3.13D-02
 Coeff-Com:  0.547D-02 0.795D-01 0.298D+00 0.617D+00
 Coeff-En:   0.000D+00 0.000D+00 0.127D+00 0.873D+00
 Coeff:      0.530D-02 0.770D-01 0.293D+00 0.625D+00
 Gap=     0.199 Goal=   None    Shift=    0.000
 RMSDP=3.19D-04 MaxDP=1.31D-02 DE=-4.21D-02 OVMax= 1.76D-02

 Cycle   5  Pass 1  IDiag  1:
 E= -1713.58487639382     Delta-E=       -0.007020337005 Rises=F Damp=F
 DIIS: error= 8.31D-04 at cycle   5 NSaved=   5.
 NSaved= 5 IEnMin= 5 EnMin= -1713.58487639382     IErMin= 5 ErrMin= 8.31D-04
 ErrMax= 8.31D-04  0.00D+00 EMaxC= 1.00D-01 BMatC= 7.77D-04 BMatP= 8.69D-03
 IDIUse=3 WtCom= 9.92D-01 WtEn= 8.31D-03
 Coeff-Com: -0.145D-02 0.157D-01 0.122D+00 0.341D+00 0.522D+00
 Coeff-En:   0.000D+00 0.000D+00 0.000D+00 0.000D+00 0.100D+01
 Coeff:     -0.144D-02 0.156D-01 0.121D+00 0.338D+00 0.526D+00
 Gap=     0.202 Goal=   None    Shift=    0.000
 RMSDP=9.88D-05 MaxDP=9.38D-03 DE=-7.02D-03 OVMax= 6.69D-03

 Cycle   6  Pass 1  IDiag  1:
 E= -1713.58554049410     Delta-E=       -0.000664100280 Rises=F Damp=F
 DIIS: error= 1.46D-04 at cycle   6 NSaved=   6.
 NSaved= 6 IEnMin= 6 EnMin= -1713.58554049410     IErMin= 6 ErrMin= 1.46D-04
 ErrMax= 1.46D-04  0.00D+00 EMaxC= 1.00D-01 BMatC= 3.87D-05 BMatP= 7.77D-04
 IDIUse=3 WtCom= 9.99D-01 WtEn= 1.46D-03
 Coeff-Com: -0.102D-02 0.243D-02 0.388D-01 0.120D+00 0.260D+00 0.580D+00
 Coeff-En:   0.000D+00 0.000D+00 0.000D+00 0.000D+00 0.000D+00 0.100D+01
 Coeff:     -0.102D-02 0.243D-02 0.387D-01 0.120D+00 0.259D+00 0.580D+00
 Gap=     0.201 Goal=   None    Shift=    0.000
 RMSDP=2.24D-05 MaxDP=1.40D-03 DE=-6.64D-04 OVMax= 1.74D-03

 Cycle   7  Pass 1  IDiag  1:
 E= -1713.58557099586     Delta-E=       -0.000030501760 Rises=F Damp=F
 DIIS: error= 4.60D-05 at cycle   7 NSaved=   7.
 NSaved= 7 IEnMin= 7 EnMin= -1713.58557099586     IErMin= 7 ErrMin= 4.60D-05
 ErrMax= 4.60D-05  0.00D+00 EMaxC= 1.00D-01 BMatC= 4.41D-06 BMatP= 3.87D-05
 IDIUse=1 WtCom= 1.00D+00 WtEn= 0.00D+00
 Coeff-Com: -0.458D-03-0.308D-04 0.110D-01 0.373D-01 0.101D+00 0.322D+00
 Coeff-Com:  0.529D+00
 Coeff:     -0.458D-03-0.308D-04 0.110D-01 0.373D-01 0.101D+00 0.322D+00
 Coeff:      0.529D+00
 Gap=     0.202 Goal=   None    Shift=    0.000
 RMSDP=7.25D-06 MaxDP=3.77D-04 DE=-3.05D-05 OVMax= 4.89D-04

 Cycle   8  Pass 1  IDiag  1:
 E= -1713.58557476883     Delta-E=       -0.000003772972 Rises=F Damp=F
 DIIS: error= 2.08D-05 at cycle   8 NSaved=   8.
 NSaved= 8 IEnMin= 8 EnMin= -1713.58557476883     IErMin= 8 ErrMin= 2.08D-05
 ErrMax= 2.08D-05  0.00D+00 EMaxC= 1.00D-01 BMatC= 2.67D-07 BMatP= 4.41D-06
 IDIUse=1 WtCom= 1.00D+00 WtEn= 0.00D+00
 Coeff-Com: -0.129D-03-0.239D-03 0.158D-02 0.646D-02 0.246D-01 0.102D+00
 Coeff-Com:  0.255D+00 0.611D+00
 Coeff:     -0.129D-03-0.239D-03 0.158D-02 0.646D-02 0.246D-01 0.102D+00
 Coeff:      0.255D+00 0.611D+00
 Gap=     0.201 Goal=   None    Shift=    0.000
 RMSDP=1.74D-06 MaxDP=1.09D-04 DE=-3.77D-06 OVMax= 9.39D-05

 Cycle   9  Pass 1  IDiag  1:
 E= -1713.58557494600     Delta-E=       -0.000000177173 Rises=F Damp=F
 DIIS: error= 1.12D-05 at cycle   9 NSaved=   9.
 NSaved= 9 IEnMin= 9 EnMin= -1713.58557494600     IErMin= 9 ErrMin= 1.12D-05
 ErrMax= 1.12D-05  0.00D+00 EMaxC= 1.00D-01 BMatC= 5.25D-08 BMatP= 2.67D-07
 IDIUse=1 WtCom= 1.00D+00 WtEn= 0.00D+00
 Coeff-Com: -0.241D-04-0.112D-03-0.367D-03-0.626D-03 0.245D-02 0.204D-01
 Coeff-Com:  0.859D-01 0.359D+00 0.534D+00
 Coeff:     -0.241D-04-0.112D-03-0.367D-03-0.626D-03 0.245D-02 0.204D-01
 Coeff:      0.859D-01 0.359D+00 0.534D+00
 Gap=     0.201 Goal=   None    Shift=    0.000
 RMSDP=6.67D-07 MaxDP=4.42D-05 DE=-1.77D-07 OVMax= 4.58D-05

 Cycle  10  Pass 1  IDiag  1:
 E= -1713.58557498510     Delta-E=       -0.000000039095 Rises=F Damp=F
 DIIS: error= 3.91D-06 at cycle  10 NSaved=  10.
 NSaved=10 IEnMin=10 EnMin= -1713.58557498510     IErMin=10 ErrMin= 3.91D-06
 ErrMax= 3.91D-06  0.00D+00 EMaxC= 1.00D-01 BMatC= 4.09D-09 BMatP= 5.25D-08
 IDIUse=1 WtCom= 1.00D+00 WtEn= 0.00D+00
 Coeff-Com: -0.890D-05-0.443D-04-0.308D-03-0.730D-03-0.189D-04 0.560D-02
 Coeff-Com:  0.347D-01 0.172D+00 0.308D+00 0.481D+00
 Coeff:     -0.890D-05-0.443D-04-0.308D-03-0.730D-03-0.189D-04 0.560D-02
 Coeff:      0.347D-01 0.172D+00 0.308D+00 0.481D+00
 Gap=     0.201 Goal=   None    Shift=    0.000
 RMSDP=1.95D-07 MaxDP=1.28D-05 DE=-3.91D-08 OVMax= 1.42D-05

 Cycle  11  Pass 1  IDiag  1:
 E= -1713.58557498796     Delta-E=       -0.000000002859 Rises=F Damp=F
 DIIS: error= 8.66D-07 at cycle  11 NSaved=  11.
 NSaved=11 IEnMin=11 EnMin= -1713.58557498796     IErMin=11 ErrMin= 8.66D-07
 ErrMax= 8.66D-07  0.00D+00 EMaxC= 1.00D-01 BMatC= 3.89D-10 BMatP= 4.09D-09
 IDIUse=1 WtCom= 1.00D+00 WtEn= 0.00D+00
 Coeff-Com: -0.222D-05-0.115D-05-0.122D-03-0.320D-03-0.519D-03-0.766D-03
 Coeff-Com:  0.366D-02 0.299D-01 0.709D-01 0.256D+00 0.641D+00
 Coeff:     -0.222D-05-0.115D-05-0.122D-03-0.320D-03-0.519D-03-0.766D-03
 Coeff:      0.366D-02 0.299D-01 0.709D-01 0.256D+00 0.641D+00
 Gap=     0.201 Goal=   None    Shift=    0.000
 RMSDP=5.76D-08 MaxDP=2.91D-06 DE=-2.86D-09 OVMax= 3.44D-06

 Cycle  12  Pass 1  IDiag  1:
 E= -1713.58557498827     Delta-E=       -0.000000000312 Rises=F Damp=F
 DIIS: error= 1.52D-07 at cycle  12 NSaved=  12.
 NSaved=12 IEnMin=12 EnMin= -1713.58557498827     IErMin=12 ErrMin= 1.52D-07
 ErrMax= 1.52D-07  0.00D+00 EMaxC= 1.00D-01 BMatC= 2.33D-11 BMatP= 3.89D-10
 IDIUse=1 WtCom= 1.00D+00 WtEn= 0.00D+00
 Coeff-Com: -0.101D-05 0.276D-05-0.433D-04-0.113D-03-0.255D-03-0.705D-03
 Coeff-Com: -0.240D-03 0.415D-02 0.154D-01 0.919D-01 0.300D+00 0.590D+00
 Coeff:     -0.101D-05 0.276D-05-0.433D-04-0.113D-03-0.255D-03-0.705D-03
 Coeff:     -0.240D-03 0.415D-02 0.154D-01 0.919D-01 0.300D+00 0.590D+00
 Gap=     0.201 Goal=   None    Shift=    0.000
 RMSDP=1.67D-08 MaxDP=7.59D-07 DE=-3.12D-10 OVMax= 9.64D-07

 Cycle  13  Pass 1  IDiag  1:
 E= -1713.58557498830     Delta-E=       -0.000000000032 Rises=F Damp=F
 DIIS: error= 8.54D-08 at cycle  13 NSaved=  13.
 NSaved=13 IEnMin=13 EnMin= -1713.58557498830     IErMin=13 ErrMin= 8.54D-08
 ErrMax= 8.54D-08  0.00D+00 EMaxC= 1.00D-01 BMatC= 3.14D-12 BMatP= 2.33D-11
 IDIUse=1 WtCom= 1.00D+00 WtEn= 0.00D+00
 Coeff-Com: -0.416D-06 0.186D-05-0.115D-04-0.292D-04-0.906D-04-0.328D-03
 Coeff-Com: -0.566D-03-0.112D-02 0.595D-03 0.223D-01 0.929D-01 0.322D+00
 Coeff-Com:  0.564D+00
 Coeff:     -0.416D-06 0.186D-05-0.115D-04-0.292D-04-0.906D-04-0.328D-03
 Coeff:     -0.566D-03-0.112D-02 0.595D-03 0.223D-01 0.929D-01 0.322D+00
 Coeff:      0.564D+00
 Gap=     0.201 Goal=   None    Shift=    0.000
 RMSDP=5.65D-09 MaxDP=2.84D-07 DE=-3.18D-11 OVMax= 2.75D-07

 Error on total polarization charges =  0.02058
 SCF Done:  E(RB3LYP) =  -1713.58557499     A.U. after   13 cycles
            NFock= 13  Conv=0.57D-08     -V/T= 2.0068
 KE= 1.702016983901D+03 PE=-8.424362371631D+03 EE= 2.822515316033D+03
 Leave Link  502 at Thu Sep 24 01:24:30 2020, MaxMem=  2147483648 cpu:             472.8 elap:             118.3
 (Enter /prod/apps/gaussian/g16b1/l601.exe)
 Copying SCF densities to generalized density rwf, IOpCl= 0 IROHF=0.

 **********************************************************************

            Population analysis using the SCF Density.

 **********************************************************************

 Alpha  occ. eigenvalues --  -89.09011 -89.08364 -19.14365 -19.14164 -19.11183
 Alpha  occ. eigenvalues --  -19.11013 -14.34792 -14.28414 -10.24790 -10.21082
 Alpha  occ. eigenvalues --  -10.20473 -10.20379 -10.20360 -10.19448 -10.18890
 Alpha  occ. eigenvalues --  -10.18847 -10.18707 -10.18586 -10.18567 -10.18428
 Alpha  occ. eigenvalues --  -10.18227  -8.11464  -8.11208  -6.07929  -6.07817
 Alpha  occ. eigenvalues --   -6.07747  -6.07688  -6.07632  -6.07549  -1.09186
 Alpha  occ. eigenvalues --   -1.07669  -0.98963  -0.95478  -0.91185  -0.89063
 Alpha  occ. eigenvalues --   -0.85254  -0.82030  -0.78190  -0.74092  -0.73084
 Alpha  occ. eigenvalues --   -0.70528  -0.70319  -0.68173  -0.64807  -0.60498
 Alpha  occ. eigenvalues --   -0.59906  -0.57256  -0.57142  -0.53241  -0.50813
 Alpha  occ. eigenvalues --   -0.50581  -0.48952  -0.48196  -0.47884  -0.45995
 Alpha  occ. eigenvalues --   -0.45742  -0.45477  -0.44982  -0.44132  -0.43664
 Alpha  occ. eigenvalues --   -0.43155  -0.42487  -0.41578  -0.41344  -0.40621
 Alpha  occ. eigenvalues --   -0.39415  -0.39151  -0.38997  -0.37122  -0.36787
 Alpha  occ. eigenvalues --   -0.35667  -0.35228  -0.34371  -0.33505  -0.32822
 Alpha  occ. eigenvalues --   -0.32290  -0.31854  -0.31331  -0.30562  -0.29893
 Alpha  occ. eigenvalues --   -0.29567  -0.28144  -0.27810  -0.25257  -0.25017
 Alpha  occ. eigenvalues --   -0.23956  -0.22974  -0.20512
 Alpha virt. eigenvalues --   -0.00363   0.00041   0.05603   0.06130   0.06885
 Alpha virt. eigenvalues --    0.06957   0.08558   0.09527   0.10264   0.10971
 Alpha virt. eigenvalues --    0.11998   0.12668   0.13357   0.13696   0.14150
 Alpha virt. eigenvalues --    0.15104   0.15664   0.16249   0.16626   0.16789
 Alpha virt. eigenvalues --    0.17358   0.17823   0.18331   0.18521   0.18607
 Alpha virt. eigenvalues --    0.19792   0.20154   0.20840   0.21255   0.22503
 Alpha virt. eigenvalues --    0.23976   0.24672   0.25403   0.25702   0.26495
 Alpha virt. eigenvalues --    0.27708   0.28691   0.31333   0.31772   0.33512
 Alpha virt. eigenvalues --    0.34522   0.35012   0.35824   0.36698   0.37587
 Alpha virt. eigenvalues --    0.42045   0.44004   0.45335   0.45871   0.47228
 Alpha virt. eigenvalues --    0.48424   0.50071   0.51477   0.52160   0.52350
 Alpha virt. eigenvalues --    0.52945   0.53717   0.54928   0.55646   0.56477
 Alpha virt. eigenvalues --    0.56704   0.57250   0.58546   0.59265   0.59835
 Alpha virt. eigenvalues --    0.60102   0.60569   0.61005   0.61831   0.62601
 Alpha virt. eigenvalues --    0.63641   0.64408   0.64671   0.65279   0.67159
 Alpha virt. eigenvalues --    0.69130   0.70480   0.71697   0.73003   0.73581
 Alpha virt. eigenvalues --    0.74905   0.75146   0.76305   0.77325   0.79533
 Alpha virt. eigenvalues --    0.80457   0.80832   0.81655   0.82777   0.83092
 Alpha virt. eigenvalues --    0.83674   0.84221   0.84707   0.84952   0.85408
 Alpha virt. eigenvalues --    0.86273   0.86879   0.87419   0.89129   0.89441
 Alpha virt. eigenvalues --    0.89570   0.89995   0.90890   0.91632   0.92659
 Alpha virt. eigenvalues --    0.93650   0.93760   0.94187   0.94416   0.95054
 Alpha virt. eigenvalues --    0.95125   0.95866   0.98214   0.98462   0.99219
 Alpha virt. eigenvalues --    1.00501   1.01177   1.02032   1.03104   1.04583
 Alpha virt. eigenvalues --    1.04843   1.06043   1.07812   1.08468   1.09192
 Alpha virt. eigenvalues --    1.09842   1.10761   1.12160   1.12911   1.13676
 Alpha virt. eigenvalues --    1.14784   1.16770   1.17116   1.18517   1.19485
 Alpha virt. eigenvalues --    1.19889   1.21165   1.22349   1.23879   1.25825
 Alpha virt. eigenvalues --    1.26730   1.28978   1.30401   1.32434   1.35170
 Alpha virt. eigenvalues --    1.38884   1.40979   1.42493   1.43887   1.44120
 Alpha virt. eigenvalues --    1.44804   1.47374   1.48060   1.48696   1.49120
 Alpha virt. eigenvalues --    1.51568   1.51825   1.54737   1.56847   1.57676
 Alpha virt. eigenvalues --    1.60915   1.61960   1.67193   1.72960   1.73824
 Alpha virt. eigenvalues --    1.73958   1.76355   1.76886   1.78481   1.78640
 Alpha virt. eigenvalues --    1.79892   1.80132   1.80801   1.81442   1.81867
 Alpha virt. eigenvalues --    1.82702   1.83842   1.84323   1.85318   1.87006
 Alpha virt. eigenvalues --    1.87714   1.88746   1.89104   1.91128   1.91803
 Alpha virt. eigenvalues --    1.92135   1.93799   1.95246   1.96266   1.96532
 Alpha virt. eigenvalues --    1.98040   1.98673   1.99626   2.00074   2.02354
 Alpha virt. eigenvalues --    2.03625   2.04695   2.05117   2.06179   2.09076
 Alpha virt. eigenvalues --    2.10797   2.11521   2.12165   2.12925   2.13950
 Alpha virt. eigenvalues --    2.14544   2.15768   2.15960   2.18593   2.20238
 Alpha virt. eigenvalues --    2.20953   2.22091   2.22377   2.25045   2.26072
 Alpha virt. eigenvalues --    2.27005   2.27972   2.28725   2.29854   2.31370
 Alpha virt. eigenvalues --    2.32182   2.34698   2.36908   2.37241   2.38055
 Alpha virt. eigenvalues --    2.41520   2.44456   2.46690   2.47406   2.49280
 Alpha virt. eigenvalues --    2.50509   2.58392   2.58769   2.59786   2.63457
 Alpha virt. eigenvalues --    2.65993   2.70392   2.71531   2.72596   2.73118
 Alpha virt. eigenvalues --    2.73624   2.74602   2.76032   2.77606   2.79118
 Alpha virt. eigenvalues --    2.81282   2.81502   2.83843   2.89424   2.92111
 Alpha virt. eigenvalues --    3.05781   3.40643   3.80257   3.84990   3.94113
 Alpha virt. eigenvalues --    3.95704   3.97316   4.07410   4.07869   4.09767
 Alpha virt. eigenvalues --    4.12304   4.14971   4.17312   4.22043   4.27562
 Alpha virt. eigenvalues --    4.29199   4.33939   4.34779   4.36533   4.42892
 Alpha virt. eigenvalues --    4.55407   4.70320   4.76990
          Condensed to atoms (all electrons):
               1          2          3          4          5          6
     1  O    8.440270   0.371817  -0.062028  -0.000660  -0.009754   0.005135
     2  S    0.371817  13.677550   0.305204  -0.016184  -0.015545   0.001788
     3  N   -0.062028   0.305204   7.424371   0.324212  -0.047000   0.000825
     4  C   -0.000660  -0.016184   0.324212   4.798824   0.309196  -0.086230
     5  C   -0.009754  -0.015545  -0.047000   0.309196   5.792077   0.145184
     6  S    0.005135   0.001788   0.000825  -0.086230   0.145184  13.909719
     7  C   -0.002284  -0.010893  -0.043762   0.314228  -0.193508   0.134410
     8  O   -0.000271  -0.000149  -0.000101   0.001863  -0.044751   0.419367
     9  O    0.000000  -0.000002  -0.000039   0.000725  -0.046387   0.401937
    10  C    0.000034   0.000618  -0.077175   0.366093  -0.058463   0.008035
    11  C   -0.000010   0.000148  -0.007715  -0.030818  -0.005914  -0.000105
    12  C    0.000002  -0.000085  -0.001854  -0.003188   0.000775   0.000032
    13  C   -0.000002   0.000032   0.001162   0.001311  -0.000101   0.000119
    14  C   -0.000000   0.000003   0.000027   0.000000   0.000229   0.000007
    15  C    0.000000   0.000000  -0.000000   0.000003   0.000013  -0.000002
    16  C   -0.000000  -0.000000   0.000000   0.000003  -0.000365  -0.000019
    17  C    0.000000  -0.000001  -0.000028  -0.000878  -0.002462  -0.000031
    18  N   -0.057049   0.126421  -0.058100   0.004189  -0.000161   0.000032
    19  C    0.001395  -0.013615  -0.013485  -0.000144  -0.000001  -0.000000
    20  C   -0.003751  -0.020440   0.002404  -0.000079  -0.000002  -0.000001
    21  O   -0.060256   0.391411  -0.065506  -0.004800  -0.000227  -0.000347
    22  H    0.000237   0.000593   0.001528  -0.022976   0.333837  -0.011549
    23  H    0.021986   0.001858  -0.007686  -0.023058   0.321769  -0.004010
    24  H    0.000036   0.000340   0.001745  -0.023943   0.010039  -0.010627
    25  H   -0.000255   0.009019  -0.009008  -0.025282   0.004669  -0.004216
    26  H    0.000004  -0.000005   0.004765  -0.035253  -0.003503   0.007190
    27  H    0.000004   0.000261   0.001796  -0.034257   0.006674  -0.000375
    28  H   -0.000000   0.000006   0.000229   0.005013  -0.000091   0.000020
    29  H    0.000010   0.000407   0.018005  -0.010795   0.000366  -0.000025
    30  H    0.000001   0.000069  -0.000202  -0.000070  -0.000039   0.000001
    31  H   -0.000000   0.000000   0.000000   0.000000  -0.000002   0.000000
    32  H    0.000000  -0.000000  -0.000000  -0.000000  -0.000000  -0.000000
    33  H   -0.000000   0.000000   0.000000   0.000000  -0.000003   0.000000
    34  H    0.000000   0.000000  -0.000000   0.000103  -0.000029   0.000009
    35  H   -0.001868  -0.000835   0.018107  -0.000866   0.000267   0.000010
    36  H    0.000063   0.002059   0.000018  -0.000000  -0.000001  -0.000000
    37  H    0.007439  -0.004278  -0.000145   0.000077  -0.000017  -0.000003
    38  H   -0.000204  -0.002632   0.000045  -0.000003   0.000000   0.000000
    39  H    0.005048  -0.002632  -0.000061   0.000011  -0.000000  -0.000000
    40  H   -0.000111   0.002206  -0.000067   0.000001   0.000000   0.000000
               7          8          9         10         11         12
     1  O   -0.002284  -0.000271   0.000000   0.000034  -0.000010   0.000002
     2  S   -0.010893  -0.000149  -0.000002   0.000618   0.000148  -0.000085
     3  N   -0.043762  -0.000101  -0.000039  -0.077175  -0.007715  -0.001854
     4  C    0.314228   0.001863   0.000725   0.366093  -0.030818  -0.003188
     5  C   -0.193508  -0.044751  -0.046387  -0.058463  -0.005914   0.000775
     6  S    0.134410   0.419367   0.401937   0.008035  -0.000105   0.000032
     7  C    5.795360  -0.045337  -0.045881  -0.065099   0.004837  -0.000138
     8  O   -0.045337   8.292219  -0.046263  -0.000079   0.000000  -0.000000
     9  O   -0.045881  -0.046263   8.326074  -0.002265   0.000057  -0.000024
    10  C   -0.065099  -0.000079  -0.002265   5.174803   0.340676  -0.033300
    11  C    0.004837   0.000000   0.000057   0.340676   5.158306   0.359748
    12  C   -0.000138  -0.000000  -0.000024  -0.033300   0.359748   4.663665
    13  C    0.000009  -0.000000  -0.000000  -0.001338  -0.048745   0.547684
    14  C    0.000000  -0.000000  -0.000000  -0.000208   0.007032  -0.023282
    15  C   -0.000000   0.000000   0.000000   0.000018   0.000266  -0.034604
    16  C    0.000000   0.000000  -0.000002   0.000065   0.006069  -0.019855
    17  C   -0.000025  -0.000000   0.000020  -0.002929  -0.065707   0.528037
    18  N   -0.000242  -0.000000  -0.000000  -0.000063  -0.000014   0.000001
    19  C   -0.000015   0.000000  -0.000000   0.000045  -0.000025   0.000014
    20  C    0.000009  -0.000000   0.000000   0.000001   0.000000  -0.000000
    21  O   -0.001122   0.000002  -0.000000  -0.000174   0.000003  -0.000000
    22  H    0.009721   0.000685  -0.000009  -0.007303  -0.000710   0.004808
    23  H    0.003264   0.000053   0.001170   0.003379  -0.000066  -0.000022
    24  H    0.339020   0.000749  -0.000412  -0.005462   0.000147   0.000012
    25  H    0.325025   0.000580   0.001085   0.002653  -0.000089   0.000000
    26  H   -0.003589   0.000022   0.005536   0.352698  -0.035640  -0.006650
    27  H   -0.008942   0.000001   0.000052   0.353579  -0.031531   0.004647
    28  H   -0.000098  -0.000000  -0.000000  -0.034914   0.359812  -0.032099
    29  H    0.000276   0.000000  -0.000000  -0.038339   0.355649  -0.031448
    30  H   -0.000001   0.000000  -0.000000   0.000347  -0.010205  -0.040548
    31  H    0.000000  -0.000000  -0.000000   0.000001  -0.000162   0.003644
    32  H    0.000000   0.000000   0.000000   0.000000   0.000006   0.000613
    33  H    0.000000  -0.000000  -0.000000   0.000001  -0.000166   0.003527
    34  H   -0.000002   0.000000   0.000001   0.000821  -0.008289  -0.045858
    35  H    0.000057   0.000000   0.000000  -0.000181   0.000043  -0.000033
    36  H    0.000000   0.000000  -0.000000  -0.000001  -0.000000  -0.000000
    37  H   -0.000001   0.000000  -0.000000  -0.000000   0.000000   0.000000
    38  H    0.000000  -0.000000   0.000000   0.000000   0.000000   0.000000
    39  H   -0.000000   0.000000  -0.000000   0.000000   0.000000   0.000000
    40  H   -0.000000  -0.000000   0.000000  -0.000000   0.000000   0.000000
              13         14         15         16         17         18
     1  O   -0.000002  -0.000000   0.000000  -0.000000   0.000000  -0.057049
     2  S    0.000032   0.000003   0.000000  -0.000000  -0.000001   0.126421
     3  N    0.001162   0.000027  -0.000000   0.000000  -0.000028  -0.058100
     4  C    0.001311   0.000000   0.000003   0.000003  -0.000878   0.004189
     5  C   -0.000101   0.000229   0.000013  -0.000365  -0.002462  -0.000161
     6  S    0.000119   0.000007  -0.000002  -0.000019  -0.000031   0.000032
     7  C    0.000009   0.000000  -0.000000   0.000000  -0.000025  -0.000242
     8  O   -0.000000  -0.000000   0.000000   0.000000  -0.000000  -0.000000
     9  O   -0.000000  -0.000000   0.000000  -0.000002   0.000020  -0.000000
    10  C   -0.001338  -0.000208   0.000018   0.000065  -0.002929  -0.000063
    11  C   -0.048745   0.007032   0.000266   0.006069  -0.065707  -0.000014
    12  C    0.547684  -0.023282  -0.034604  -0.019855   0.528037   0.000001
    13  C    5.005868   0.510238  -0.037469  -0.046038  -0.045226   0.000010
    14  C    0.510238   4.908168   0.545818  -0.029446  -0.046926   0.000000
    15  C   -0.037469   0.545818   4.888831   0.540961  -0.037395  -0.000000
    16  C   -0.046038  -0.029446   0.540961   4.896325   0.519518  -0.000000
    17  C   -0.045226  -0.046926  -0.037395   0.519518   5.012913   0.000000
    18  N    0.000010   0.000000  -0.000000  -0.000000   0.000000   7.242711
    19  C   -0.000748  -0.000014   0.000000  -0.000000   0.000000   0.281551
    20  C   -0.000000  -0.000000  -0.000000   0.000000  -0.000000   0.284200
    21  O    0.000000   0.000000  -0.000000   0.000000  -0.000000  -0.058005
    22  H   -0.000085  -0.000195   0.000164   0.001239   0.005355   0.000003
    23  H    0.000043  -0.000029  -0.000006   0.000002   0.000042  -0.000105
    24  H   -0.000000  -0.000000   0.000000  -0.000000   0.000001   0.000002
    25  H    0.000000   0.000000  -0.000000  -0.000000   0.000000   0.000072
    26  H    0.000078   0.000006  -0.000000  -0.000115   0.003783   0.000001
    27  H   -0.000099   0.000002   0.000000   0.000002   0.000063  -0.000005
    28  H    0.002617  -0.000219   0.000022   0.000041  -0.006342  -0.000000
    29  H   -0.005440   0.000257   0.000000  -0.000179   0.004884  -0.000012
    30  H    0.353549  -0.046385   0.004628   0.000281   0.006293  -0.000032
    31  H   -0.038367   0.360492  -0.042455   0.004523   0.000708  -0.000000
    32  H    0.004552  -0.042252   0.362938  -0.042105   0.004597  -0.000000
    33  H    0.000705   0.004561  -0.042366   0.361146  -0.039377   0.000000
    34  H    0.005995   0.000275   0.004729  -0.044442   0.359779   0.000000
    35  H    0.000923   0.000079   0.000000  -0.000000  -0.000001  -0.035144
    36  H   -0.000008   0.000000   0.000000  -0.000000   0.000000  -0.035760
    37  H    0.000025  -0.000001  -0.000000   0.000000   0.000000  -0.049316
    38  H    0.000000  -0.000000   0.000000   0.000000   0.000000  -0.034253
    39  H    0.000000  -0.000000  -0.000000  -0.000000   0.000000  -0.048582
    40  H   -0.000000  -0.000000   0.000000  -0.000000   0.000000  -0.037521
              19         20         21         22         23         24
     1  O    0.001395  -0.003751  -0.060256   0.000237   0.021986   0.000036
     2  S   -0.013615  -0.020440   0.391411   0.000593   0.001858   0.000340
     3  N   -0.013485   0.002404  -0.065506   0.001528  -0.007686   0.001745
     4  C   -0.000144  -0.000079  -0.004800  -0.022976  -0.023058  -0.023943
     5  C   -0.000001  -0.000002  -0.000227   0.333837   0.321769   0.010039
     6  S   -0.000000  -0.000001  -0.000347  -0.011549  -0.004010  -0.010627
     7  C   -0.000015   0.000009  -0.001122   0.009721   0.003264   0.339020
     8  O    0.000000  -0.000000   0.000002   0.000685   0.000053   0.000749
     9  O   -0.000000   0.000000  -0.000000  -0.000009   0.001170  -0.000412
[...]
     8  O    0.002942   0.001216  -0.001028   0.000337   0.007530  -0.002164
     9  O    0.006236  -0.001739   0.002799   0.003287   0.035578  -0.000241
    10  C    0.169108   0.099512  -0.033508  -0.079195  -0.373897  -0.021920
    11  C   -1.591747   0.003088   0.020647   0.204198  -0.759868   0.005608
    12  C   -7.587097   4.222187  -4.401902   3.498611  -8.712745   0.015702
    13  C   18.739495  -6.084363   4.202314  -4.728733   3.873671  -0.009242
    14  C   -6.084363  12.608171  -4.325384   4.466322  -4.882799  -0.004681
    15  C    4.202314  -4.325384  10.093565  -3.994192   4.184414   0.001416
    16  C   -4.728733   4.466322  -3.994192  11.625833  -5.153853  -0.000996
    17  C    3.873671  -4.882799   4.184414  -5.153853  18.917150   0.012301
    18  N   -0.009242  -0.004681   0.001416  -0.000996   0.012301   8.752041
    19  C    0.005787   0.001899   0.006123  -0.002070  -0.013310   0.322434
    20  C   -0.001346  -0.003614  -0.000104  -0.000306   0.001272   0.076144
    21  O   -0.000393   0.000620   0.000201   0.000003   0.001247   0.066924
    22  H   -0.058000  -0.037402   0.031149  -0.026217   0.075366   0.016333
    23  H    0.028924   0.021940   0.000018  -0.004098  -0.025372  -0.032814
    24  H   -0.014993   0.000568  -0.001144   0.001000   0.007462  -0.002618
    25  H    0.001235   0.000289  -0.000770  -0.001623  -0.000126  -0.007901
    26  H   -0.046859   0.007264  -0.013163   0.030246  -0.071012  -0.005562
    27  H    0.043668  -0.007383   0.006775  -0.004637   0.030216  -0.001241
    28  H    0.044739  -0.039661   0.018955   0.012720   0.133298  -0.000581
    29  H   -0.066395   0.126818  -0.035637   0.001208  -0.232083  -0.009356
    30  H   -1.236342   0.314666  -0.092651   0.062323  -0.006947   0.007637
    31  H    0.530782  -0.808961   0.344750  -0.198977   0.092797  -0.000983
    32  H   -0.054062   0.422940  -0.774514   0.378710  -0.076244   0.000077
    33  H    0.113632  -0.265322   0.363519  -0.853764   0.601337  -0.000085
    34  H   -0.146387   0.170658  -0.220016   0.494956  -1.345555   0.001061
    35  H   -0.076392  -0.024129  -0.003820   0.005355   0.031255  -0.127809
    36  H    0.005244   0.003337  -0.000950   0.000161  -0.003466  -0.177272
    37  H    0.015823  -0.005790   0.001433  -0.000979   0.002046   0.127921
    38  H    0.000778  -0.000120   0.000016  -0.000056   0.000071  -0.061025
    39  H   -0.000343   0.001020   0.000032   0.000031  -0.000322   0.244090
    40  H   -0.001023  -0.000838  -0.000006  -0.000010   0.000142  -0.250917
              19         20         21         22         23         24
     1  O    0.072903  -0.025482   0.036926  -0.007568   0.002853   0.002418
     2  S   -0.491100   0.199217  -0.586137  -0.026751   0.174351  -0.013555
     3  N    0.120695  -0.043107   0.242601   0.096414   0.054395   0.220275
     4  C    0.091001  -0.329219  -0.056590  -0.320242  -0.368374  -0.666727
     5  C   -0.005173   0.055969   0.049035   0.181619   0.193904   0.254547
     6  S    0.006192   0.004157  -0.014706   0.094676  -0.401105   0.000799
     7  C   -0.033285   0.081902   0.015051   0.044790  -0.017204   0.353710
     8  O   -0.000907  -0.000782   0.002203  -0.027813   0.067840   0.001610
     9  O   -0.000194  -0.000251   0.000455   0.008023   0.032760   0.013138
    10  C   -0.000441  -0.060694   0.078117   0.019166   0.077788  -0.062770
    11  C    0.008242  -0.012870   0.012740  -0.002882   0.040708   0.019275
    12  C   -0.005004   0.004073   0.006042  -0.139617   0.010522   0.046390
    13  C    0.005787  -0.001346  -0.000393  -0.058000   0.028924  -0.014993
    14  C    0.001899  -0.003614   0.000620  -0.037402   0.021940   0.000568
    15  C    0.006123  -0.000104   0.000201   0.031149   0.000018  -0.001144
    16  C   -0.002070  -0.000306   0.000003  -0.026217  -0.004098   0.001000
    17  C   -0.013310   0.001272   0.001247   0.075366  -0.025372   0.007462
    18  N    0.322434   0.076144   0.066924   0.016333  -0.032814  -0.002618
    19  C    4.310519  -0.140719   0.028625  -0.005874   0.011493  -0.000584
    20  C   -0.140719   4.446801  -0.025847   0.005098   0.001926   0.004733
    21  O    0.028625  -0.025847   9.433936   0.001998  -0.001353   0.013415
    22  H   -0.005874   0.005098   0.001998   1.756081  -0.422191   0.001937
    23  H    0.011493   0.001926  -0.001353  -0.422191   1.829307   0.009927
    24  H   -0.000584   0.004733   0.013415   0.001937   0.009927   1.344125
    25  H   -0.006702   0.002830   0.015805   0.014484   0.012465  -0.244055
    26  H    0.003617  -0.001593  -0.001565  -0.059935   0.035092  -0.027969
    27  H    0.002864  -0.003792  -0.002312   0.028403   0.003893   0.010883
    28  H   -0.002514  -0.000685   0.001331   0.020647  -0.003549   0.008074
    29  H    0.012103   0.003775  -0.001959  -0.026291   0.015072  -0.000236
    30  H    0.001402  -0.000494   0.000878   0.025309   0.017326   0.001061
    31  H   -0.001385  -0.000140  -0.000006   0.003832   0.000437   0.000050
    32  H   -0.000075   0.000004   0.000012  -0.008232  -0.000454  -0.000011
    33  H    0.000077  -0.000027  -0.000003   0.010586  -0.000486  -0.000413
    34  H   -0.001300   0.000140   0.000235   0.032484   0.000481   0.006084
    35  H    0.366937  -0.098677   0.008146   0.017801  -0.038217   0.001695
    36  H    0.230631   0.021462  -0.005164  -0.000948   0.001718  -0.000176
    37  H    0.195017   0.033034  -0.001317  -0.001862   0.007988  -0.000251
    38  H   -0.052092   0.421817  -0.029943  -0.000255   0.001450  -0.000072
    39  H    0.011018   0.146069   0.020861   0.000515  -0.002123  -0.000122
    40  H    0.041465   0.448472  -0.003458   0.000224   0.000023   0.000430
              25         26         27         28         29         30
     1  O    0.038459   0.006960   0.001516   0.000354   0.002052   0.005207
     2  S    0.060802   0.030622  -0.031541  -0.001921   0.027735  -0.020748
     3  N   -0.119557   0.189110  -0.072489   0.077130   0.063637   0.026293
     4  C    0.047934  -0.054054   0.011770   0.072176   0.057777  -0.192876
     5  C    0.035481   0.028964   0.159903   0.027188  -0.032238   0.083516
     6  S   -0.191120  -0.172076  -0.068915   0.003065  -0.005465  -0.018931
     7  C    0.126778   0.104597  -0.158616   0.060653  -0.004174  -0.020552
     8  O    0.053224   0.003771   0.003864  -0.000283  -0.000665   0.001293
     9  O    0.023436   0.052517   0.015443   0.000185  -0.002344   0.003434
    10  C    0.072462  -0.443564  -0.083540  -0.204848  -0.145736  -0.009609
    11  C   -0.037038  -0.405072  -0.040051   0.072503  -0.108198   0.036332
    12  C   -0.018025  -0.032222   0.066049  -0.155446   0.130776   0.472626
    13  C    0.001235  -0.046859   0.043668   0.044739  -0.066395  -1.236342
    14  C    0.000289   0.007264  -0.007383  -0.039661   0.126818   0.314666
    15  C   -0.000770  -0.013163   0.006775   0.018955  -0.035637  -0.092651
    16  C   -0.001623   0.030246  -0.004637   0.012720   0.001208   0.062323
    17  C   -0.000126  -0.071012   0.030216   0.133298  -0.232083  -0.006947
    18  N   -0.007901  -0.005562  -0.001241  -0.000581  -0.009356   0.007637
    19  C   -0.006702   0.003617   0.002864  -0.002514   0.012103   0.001402
    20  C    0.002830  -0.001593  -0.003792  -0.000685   0.003775  -0.000494
    21  O    0.015805  -0.001565  -0.002312   0.001331  -0.001959   0.000878
    22  H    0.014484  -0.059935   0.028403   0.020647  -0.026291   0.025309
    23  H    0.012465   0.035092   0.003893  -0.003549   0.015072   0.017326
    24  H   -0.244055  -0.027969   0.010883   0.008074  -0.000236   0.001061
    25  H    1.342664   0.016358  -0.002078   0.000808  -0.001516  -0.000828
    26  H    0.016358   2.268015  -0.328604  -0.018102   0.118289  -0.002946
    27  H   -0.002078  -0.328604   1.630618  -0.086030   0.004443   0.014489
    28  H    0.000808  -0.018102  -0.086030   1.350557  -0.294867   0.008137
    29  H   -0.001516   0.118289   0.004443  -0.294867   1.735392  -0.048375
    30  H   -0.000828  -0.002946   0.014489   0.008137  -0.048375   2.393709
    31  H   -0.000094   0.000535  -0.000613  -0.000110   0.003769  -0.124336
    32  H   -0.000035   0.000048   0.000208   0.000677  -0.000830  -0.013325
    33  H   -0.000098   0.003315   0.000285  -0.003397   0.000666   0.007479
    34  H   -0.000349  -0.044390   0.013104  -0.003006   0.003967  -0.017107
    35  H    0.003642  -0.001287  -0.008336   0.010884  -0.037833   0.001160
    36  H    0.000110   0.000255   0.000329  -0.000386  -0.000683  -0.008832
    37  H   -0.000365  -0.000259   0.000423  -0.000191   0.003869   0.004144
    38  H   -0.001306   0.000248   0.000500   0.000018   0.001779   0.000912
    39  H   -0.000781  -0.000455  -0.000072  -0.000052  -0.000405  -0.000029
    40  H    0.000900  -0.000108  -0.000328  -0.000004  -0.001619  -0.000331
              31         32         33         34         35         36
     1  O    0.000242  -0.000012  -0.000027  -0.000051   0.040314  -0.006130
     2  S   -0.000780  -0.000561  -0.000516   0.000836  -0.046534   0.038605
     3  N    0.001947   0.000630  -0.002242   0.023506   0.015361   0.031773
     4  C    0.005544  -0.003314   0.012178  -0.130043   0.002838   0.018737
     5  C    0.007783   0.001919  -0.004428   0.069942   0.029646  -0.005304
     6  S    0.000667  -0.000646   0.002298  -0.025816   0.016729  -0.000694
     7  C   -0.000365  -0.000435  -0.003360   0.031633   0.041086  -0.001114
     8  O    0.000125  -0.000043   0.000031   0.002470  -0.001148   0.000007
     9  O   -0.000133   0.000358  -0.000946   0.012473  -0.001010  -0.000002
    10  C   -0.004265   0.001049   0.015326   0.000551   0.009059  -0.001410
    11  C    0.024532  -0.004883   0.023745  -0.154285  -0.040596   0.002257
    12  C   -0.088039   0.041231  -0.082116   0.788952   0.053926   0.000183
    13  C    0.530782  -0.054062   0.113632  -0.146387  -0.076392   0.005244
    14  C   -0.808961   0.422940  -0.265322   0.170658  -0.024129   0.003337
    15  C    0.344750  -0.774514   0.363519  -0.220016  -0.003820  -0.000950
    16  C   -0.198977   0.378710  -0.853764   0.494956   0.005355   0.000161
    17  C    0.092797  -0.076244   0.601337  -1.345555   0.031255  -0.003466
    18  N   -0.000983   0.000077  -0.000085   0.001061  -0.127809  -0.177272
    19  C   -0.001385  -0.000075   0.000077  -0.001300   0.366937   0.230631
    20  C   -0.000140   0.000004  -0.000027   0.000140  -0.098677   0.021462
    21  O   -0.000006   0.000012  -0.000003   0.000235   0.008146  -0.005164
    22  H    0.003832  -0.008232   0.010586   0.032484   0.017801  -0.000948
    23  H    0.000437  -0.000454  -0.000486   0.000481  -0.038217   0.001718
    24  H    0.000050  -0.000011  -0.000413   0.006084   0.001695  -0.000176
    25  H   -0.000094  -0.000035  -0.000098  -0.000349   0.003642   0.000110
    26  H    0.000535   0.000048   0.003315  -0.044390  -0.001287   0.000255
    27  H   -0.000613   0.000208   0.000285   0.013104  -0.008336   0.000329
    28  H   -0.000110   0.000677  -0.003397  -0.003006   0.010884  -0.000386
    29  H    0.003769  -0.000830   0.000666   0.003967  -0.037833  -0.000683
    30  H   -0.124336  -0.013325   0.007479  -0.017107   0.001160  -0.008832
    31  H    1.789089  -0.052369  -0.019485   0.010783   0.009262  -0.000208
    32  H   -0.052369   1.678029  -0.051823  -0.017343   0.000439  -0.000046
    33  H   -0.019485  -0.051823   1.734396  -0.094026  -0.000164   0.000010
    34  H    0.010783  -0.017343  -0.094026   2.229744   0.000873  -0.000194
    35  H    0.009262   0.000439  -0.000164   0.000873   1.792369  -0.330692
    36  H   -0.000208  -0.000046   0.000010  -0.000194  -0.330692   1.553943
    37  H   -0.000538   0.000041  -0.000017   0.000027  -0.242733  -0.143079
    38  H   -0.000012   0.000001  -0.000003   0.000012  -0.022632   0.014191
    39  H    0.000036  -0.000002   0.000001  -0.000008  -0.000126  -0.014477
    40  H   -0.000026   0.000001  -0.000001   0.000021   0.031231  -0.000565
              37         38         39         40
     1  O   -0.022075   0.008708   0.028599  -0.015322
     2  S   -0.001344   0.054772  -0.099458   0.055516
     3  N   -0.025024   0.063723  -0.027734  -0.040871
     4  C   -0.008032  -0.004500   0.038575  -0.032134
     5  C   -0.006766   0.001738  -0.002715   0.002716
     6  S   -0.003242  -0.001480   0.002097   0.000313
     7  C   -0.001161  -0.000392  -0.001351   0.005732
     8  O    0.000351   0.000176  -0.000483  -0.000045
     9  O    0.000201   0.000045  -0.000098  -0.000009
    10  C    0.001094   0.000179  -0.004349  -0.002883
    11  C    0.005992   0.000947  -0.000046  -0.001964
    12  C   -0.006936  -0.000396  -0.001012   0.002058
    13  C    0.015823   0.000778  -0.000343  -0.001023
    14  C   -0.005790  -0.000120   0.001020  -0.000838
    15  C    0.001433   0.000016   0.000032  -0.000006
    16  C   -0.000979  -0.000056   0.000031  -0.000010
    17  C    0.002046   0.000071  -0.000322   0.000142
    18  N    0.127921  -0.061025   0.244090  -0.250917
    19  C    0.195017  -0.052092   0.011018   0.041465
    20  C    0.033034   0.421817   0.146069   0.448472
    21  O   -0.001317  -0.029943   0.020861  -0.003458
    22  H   -0.001862  -0.000255   0.000515   0.000224
    23  H    0.007988   0.001450  -0.002123   0.000023
    24  H   -0.000251  -0.000072  -0.000122   0.000430
    25  H   -0.000365  -0.001306  -0.000781   0.000900
    26  H   -0.000259   0.000248  -0.000455  -0.000108
    27  H    0.000423   0.000500  -0.000072  -0.000328
    28  H   -0.000191   0.000018  -0.000052  -0.000004
    29  H    0.003869   0.001779  -0.000405  -0.001619
    30  H    0.004144   0.000912  -0.000029  -0.000331
    31  H   -0.000538  -0.000012   0.000036  -0.000026
    32  H    0.000041   0.000001  -0.000002   0.000001
    33  H   -0.000017  -0.000003   0.000001  -0.000001
    34  H    0.000027   0.000012  -0.000008   0.000021
    35  H   -0.242733  -0.022632  -0.000126   0.031231
    36  H   -0.143079   0.014191  -0.014477  -0.000565
    37  H    1.089680   0.001147  -0.005825  -0.015999
    38  H    0.001147   1.247860  -0.154570  -0.338099
    39  H   -0.005825  -0.154570   1.044654  -0.186223
    40  H   -0.015999  -0.338099  -0.186223   1.480180
 Mulliken charges:
               1
     1  O   -1.408741
     2  S    3.553393
     3  N   -1.967303
     4  C    0.497156
     5  C    0.352492
     6  S    2.948492
     7  C    0.447699
     8  O   -1.290656
     9  O   -1.340462
    10  C    0.384860
    11  C    0.421796
    12  C    0.606242
    13  C    0.890664
    14  C   -0.042194
    15  C    0.752646
    16  C    0.141050
    17  C    0.564958
    18  N   -1.211127
    19  C    0.911688
    20  C    0.790853
    21  O   -1.306654
    22  H   -0.314855
    23  H   -0.337262
    24  H   -0.287911
    25  H   -0.235794
    26  H   -0.169029
    27  H   -0.149068
    28  H   -0.108466
    29  H   -0.256221
    30  H   -0.674077
    31  H   -0.525139
    32  H   -0.467115
    33  H   -0.506132
    34  H   -0.695116
    35  H   -0.387871
    36  H   -0.221157
    37  H    0.003556
    38  H   -0.154135
    39  H   -0.034418
    40  H   -0.176641
 Sum of Mulliken charges =  -1.00000
 Mulliken charges with hydrogens summed into heavy atoms:
               1
     1  O   -1.408741
     2  S    3.553393
     3  N   -1.967303
     4  C    0.497156
     5  C   -0.299625
     6  S    2.948492
     7  C   -0.076006
     8  O   -1.290656
     9  O   -1.340462
    10  C    0.066764
    11  C    0.057109
    12  C    0.606242
    13  C    0.216587
    14  C   -0.567333
    15  C    0.285531
    16  C   -0.365082
    17  C   -0.130157
    18  N   -1.211127
    19  C    0.306215
    20  C    0.425659
    21  O   -1.306654
 Electronic spatial extent (au):  <R**2>=           7339.4555
 Charge=             -1.0000 electrons
 Dipole moment (field-independent basis, Debye):
    X=             -5.8993    Y=             -7.3598    Z=              1.9806  Tot=              9.6380
 Quadrupole moment (field-independent basis, Debye-Ang):
   XX=           -179.0200   YY=           -174.4135   ZZ=           -154.8590
   XY=             -2.7119   XZ=              0.8192   YZ=             16.8495
 Traceless Quadrupole moment (field-independent basis, Debye-Ang):
   XX=             -9.5891   YY=             -4.9827   ZZ=             14.5718
   XY=             -2.7119   XZ=              0.8192   YZ=             16.8495
 Octapole moment (field-independent basis, Debye-Ang**2):
  XXX=            -27.8490  YYY=            -86.0998  ZZZ=              6.0871  XYY=             58.2283
  XXY=             -8.1149  XXZ=            -26.7100  XZZ=            -16.2118  YZZ=             -4.9593
  YYZ=             25.7614  XYZ=              0.1711
 Hexadecapole moment (field-independent basis, Debye-Ang**3):
 XXXX=          -6151.4921 YYYY=          -3588.9918 ZZZZ=          -1042.7457 XXXY=           -243.3453
 XXXZ=             24.3475 YYYX=             25.9315 YYYZ=            153.0001 ZZZX=              8.9209
 ZZZY=             33.6169 XXYY=          -1649.0815 XXZZ=          -1190.8165 YYZZ=           -751.3287
 XXYZ=             51.7832 YYXZ=             45.1078 ZZXY=             -8.7384
 N-N= 2.193233820588D+03 E-N=-8.434781218550D+03  KE= 1.704925964765D+03
 Leave Link  601 at Thu Sep 24 04:32:54 2020, MaxMem=   262144000 cpu:               0.8 elap:               0.3
 (Enter /prod/apps/gaussian/g16b1/l9999.exe)
 1\1\GINC-PIRINEUS16\SP\RMP2-FC\Aug-CC-pVDZ\C13H19N2O4S2(1-)\UBAFAR01\2
 4-Sep-2020\0\\#p mp2/aug-cc-pVDZ scf=(MaxCycle=2000,NoVarAcc,NoIncFock
 ) maxdisk=120GB geom=allcheck\\SM40.a.13.pdb.xyz\\-1,1\O,0,2.323084484
 2,0.2039336503,-1.3123367198\S,0,2.4914207291,-0.2118188409,0.12108853
 24\N,0,1.146621266,-0.3490120775,0.9448236605\C,0,0.144221911,0.690485
 5098,0.821163334\C,0,-0.5126208424,0.8735344438,-0.6112503736\S,0,-0.3
 809048091,2.6741080774,-0.4515967164\C,0,0.6431193238,2.1877636484,0.9
 65000311\O,0,0.35976411,3.3449609521,-1.5446311591\O,0,-1.6596704762,3
 .2891799669,-0.017496076\C,0,-0.9243588278,0.4437506325,1.9063960147\C
 ,0,-1.5680540326,-0.9545754471,1.9367794843\C,0,-2.5229054821,-1.27846
 01953,0.8064398698\C,0,-2.233595612,-2.3018013784,-0.105073663\C,0,-3.
 1136197575,-2.6144462094,-1.1439181879\C,0,-4.3071673097,-1.9055673224
 ,-1.2866951149\C,0,-4.6145975871,-0.8880982009,-0.3787145189\C,0,-3.73
 2602509,-0.5825685883,0.6579454806\N,0,3.0501892051,-1.8344023589,0.18
 46532607\C,0,2.2436287572,-2.7514364471,-0.6291986627\C,0,4.4798767633
 ,-1.954404372,-0.1297581215\O,0,3.5706813355,0.5685942848,0.7987296839
 \H,0,-1.5315041111,0.5174863985,-0.741474129\H,0,0.1576451006,0.536774
 7798,-1.3999586318\H,0,0.3812871912,2.7043091185,1.8899842007\H,0,1.70
 06364675,2.3252931425,0.7360674817\H,0,-1.6997219893,1.2117961798,1.81
 47478701\H,0,-0.4332622741,0.6068105021,2.8717261051\H,0,-2.1096230684
 ,-1.0363557737,2.8871644186\H,0,-0.7720003537,-1.7026531046,1.96219496
 47\H,0,-1.3086161044,-2.8599720204,0.0057653651\H,0,-2.8661797112,-3.4
 108617582,-1.8388618748\H,0,-4.9935146845,-2.1448128931,-2.0927238876\
 H,0,-5.544585205,-0.336443803,-0.4749063894\H,0,-3.9863826307,0.206181
 5739,1.3613202968\H,0,1.1900686548,-2.6344098683,-0.3750435532\H,0,2.5
 529727977,-3.7725191261,-0.3941411011\H,0,2.3749156118,-2.5842058656,-
 1.707324275\H,0,5.0509757235,-1.2836581612,0.5088861304\H,0,4.70479710
 9,-1.7304637964,-1.183061782\H,0,4.7775808365,-2.9860152522,0.07328847
 26\\Version=ES64L-G16RevB.01\State=1-A\HF=-1706.7051543\MP2=-1710.0435
 19\RMSD=4.336e-09\PG=C01 [X(C13H19N2O4S2)]\\@


 OF ALL THE WONDERS OF THE UNIVERSE, THE GREATEST IS MAN.

                                    -- ARISTOTLE
 Job cpu time:       0 days  5 hours 24 minutes 40.2 seconds.
 Elapsed time:       0 days  1 hours 30 minutes 31.4 seconds.
 File lengths (MBytes):  RWF=  89400 Int=      0 D2E=      0 Chk=     37 Scr=      1
 Normal termination of Gaussian 16 at Thu Sep 24 04:32:57 2020.
