 Entering Gaussian System, Link 0=g16
 Initial command:
 /prod/apps/gaussian/g16b1/l1.exe "/tmp/ubafar01/1461122/Gau-69265.inp" -scrdir="/tmp/ubafar01/1461122/"
 Entering Link 1 = /prod/apps/gaussian/g16b1/l1.exe PID=     69266.
  
 Copyright (c) 1988-2017, Gaussian, Inc.  All Rights Reserved.
  
 This is part of the Gaussian(R) 16 program.  It is based on
 the Gaussian(R) 09 system (copyright 2009, Gaussian, Inc.),
 the Gaussian(R) 03 system (copyright 2003, Gaussian, Inc.),
 the Gaussian(R) 98 system (copyright 1998, Gaussian, Inc.),
 the Gaussian(R) 94 system (copyright 1995, Gaussian, Inc.),
 the Gaussian 92(TM) system (copyright 1992, Gaussian, Inc.),
 the Gaussian 90(TM) system (copyright 1990, Gaussian, Inc.),
 the Gaussian 88(TM) system (copyright 1988, Gaussian, Inc.),
 the Gaussian 86(TM) system (copyright 1986, Carnegie Mellon
 University), and the Gaussian 82(TM) system (copyright 1983,
 Carnegie Mellon University). Gaussian is a federally registered
 trademark of Gaussian, Inc.
  
 This software contains proprietary and confidential information,
 including trade secrets, belonging to Gaussian, Inc.
  
 This software is provided under written license and may be
 used, copied, transmitted, or stored only in accord with that
 written license.
  
 The following legend is applicable only to US Government
 contracts under FAR:
  
                    RESTRICTED RIGHTS LEGEND
  
 Use, reproduction and disclosure by the US Government is
 subject to restrictions as set forth in subparagraphs (a)
 and (c) of the Commercial Computer Software - Restricted
 Rights clause in FAR 52.227-19.
  
 Gaussian, Inc.
 340 Quinnipiac St., Bldg. 40, Wallingford CT 06492
  
  
 ---------------------------------------------------------------
 Warning -- This program may not be used in any manner that
 competes with the business of Gaussian, Inc. or will provide
 assistance to any competitor of Gaussian, Inc.  The licensee
 of this program is prohibited from giving any competitor of
 Gaussian, Inc. access to this program.  By using this program,
 the user acknowledges that Gaussian, Inc. is engaged in the
 business of creating and licensing software in the field of
 computational chemistry and represents and warrants to the
 licensee that it is not a competitor of Gaussian, Inc. and that
 it will not use this program in any manner prohibited above.
 ---------------------------------------------------------------
  

 Cite this work as:
 Gaussian 16, Revision B.01,
 M. J. Frisch, G. W. Trucks, H. B. Schlegel, G. E. Scuseria, 
 M. A. Robb, J. R. Cheeseman, G. Scalmani, V. Barone, 
 G. A. Petersson, H. Nakatsuji, X. Li, M. Caricato, A. V. Marenich, 
 J. Bloino, B. G. Janesko, R. Gomperts, B. Mennucci, H. P. Hratchian, 
 J. V. Ortiz, A. F. Izmaylov, J. L. Sonnenberg, D. Williams-Young, 
 F. Ding, F. Lipparini, F. Egidi, J. Goings, B. Peng, A. Petrone, 
 T. Henderson, D. Ranasinghe, V. G. Zakrzewski, J. Gao, N. Rega, 
 G. Zheng, W. Liang, M. Hada, M. Ehara, K. Toyota, R. Fukuda, 
 J. Hasegawa, M. Ishida, T. Nakajima, Y. Honda, O. Kitao, H. Nakai, 
 T. Vreven, K. Throssell, J. A. Montgomery, Jr., J. E. Peralta, 
 F. Ogliaro, M. J. Bearpark, J. J. Heyd, E. N. Brothers, K. N. Kudin, 
 V. N. Staroverov, T. A. Keith, R. Kobayashi, J. Normand, 
 K. Raghavachari, A. P. Rendell, J. C. Burant, S. S. Iyengar, 
 J. Tomasi, M. Cossi, J. M. Millam, M. Klene, C. Adamo, R. Cammi, 
 J. W. Ochterski, R. L. Martin, K. Morokuma, O. Farkas, 
 J. B. Foresman, and D. J. Fox, Gaussian, Inc., Wallingford CT, 2016.
 
 ******************************************
 Gaussian 16:  ES64L-G16RevB.01 20-Dec-2017
                24-Sep-2020 
 ******************************************
 %nproc=4
 Will use up to    4 processors via shared memory.
 %Chk=SM40.a.5.pdb.xyz.mst.a.w.chk
 %mem=16GB
 ----------------------------------------------------------------------
 #p b3lyp/6-31G(d) opt freq NoSymm scf=(MaxCycle=2000,NoVarAcc,NoIncFoc
 k) scrf=(iefpcm,read,solvent=water)
 ----------------------------------------------------------------------
 1/18=20,19=15,26=3,38=1,40=2/1,3;
 2/9=110,12=2,15=1,17=6,18=5,40=1/2;
 3/5=1,6=6,7=1,11=2,25=1,30=1,70=2203,71=1,72=1,74=-5/1,2,3;
 4//1;
 5/5=100002,7=2000,38=1,53=1/2;
 6/7=2,8=2,9=2,10=2,28=1/1;
 7/30=1/1,2,3,16;
 1/18=20,19=15,26=3/3(2);
 2/9=110,15=1/2;
 99//99;
 2/9=110,15=1/2;
 3/5=1,6=6,7=1,11=2,25=1,30=1,70=2205,71=1,72=1,74=-5/1,2,3;
 4/5=5,16=3,69=1/1;
 5/5=100002,7=2000,38=1,53=1/2;
 7/30=1/1,2,3,16;
 1/18=20,19=15,26=3/3(-5);
 2/9=110,15=1/2;
 6/7=2,8=2,9=2,10=2,19=2,28=1/1;
 99/9=1/99;
 Leave Link    1 at Thu Sep 24 01:22:27 2020, MaxMem=  2147483648 cpu:               0.1 elap:               0.0
 (Enter /prod/apps/gaussian/g16b1/l101.exe)
 ----------------
 SM40.a.5.pdb.xyz
 ----------------
 Symbolic Z-matrix:
 Charge = -1 Multiplicity = 1
 O                    -3.688    -0.122    -1.056 
 S                    -2.343    -0.578    -0.6 
 N                    -1.75      0.521     0.365 
 C                    -0.304     0.606     0.603 
 C                    -0.108     1.938     1.411 
 S                     0.397     2.797    -0.114 
 C                     0.485     1.074    -0.688 
 O                    -0.711     3.561    -0.735 
 O                     1.714     3.471    -0.015 
 C                     0.275    -0.637     1.321 
 C                     1.763    -0.654     1.749 
 C                     2.785    -0.961     0.668 
 C                     3.821    -0.063     0.374 
 C                     4.781    -0.359    -0.598 
 C                     4.722    -1.568    -1.295 
 C                     3.698    -2.476    -1.009 
 C                     2.742    -2.175    -0.037 
 N                    -2.602    -2.028     0.34 
 C                    -3.516    -1.81      1.468 
 C                    -3.036    -3.168    -0.48 
 O                    -1.442    -1.054    -1.691 
 H                     0.728     1.937     2.113 
 H                    -1.012     2.335     1.873 
 H                     1.532     0.771    -0.723 
 H                    -0.013     0.883    -1.636 
 H                     0.076    -1.509     0.69 
 H                    -0.334    -0.772     2.222 
 H                     1.848    -1.428     2.524 
 H                     2.035     0.285     2.245 
 H                     3.872     0.883     0.909 
 H                     5.573     0.355    -0.809 
 H                     5.467    -1.802    -2.051 
 H                     3.645    -3.422    -1.542 
 H                     1.957    -2.895     0.18 
 H                    -3.187    -0.943     2.043 
 H                    -3.483    -2.693     2.115 
 H                    -4.558    -1.651     1.146 
 H                    -2.329    -3.325    -1.296 
 H                    -4.046    -3.031    -0.899 
 H                    -3.045    -4.061     0.154 
 
 ITRead=  0  0  0  0  0  0  0  0  0  0  0  0  0  0  0  0  0  0  0  0
 ITRead=  0  0  0  0  0  0  0  0  0  0  0  0  0  0  0  0  0  0  0  0
 MicOpt= -1 -1 -1 -1 -1 -1 -1 -1 -1 -1 -1 -1 -1 -1 -1 -1 -1 -1 -1 -1
 MicOpt= -1 -1 -1 -1 -1 -1 -1 -1 -1 -1 -1 -1 -1 -1 -1 -1 -1 -1 -1 -1
 NAtoms=     40 NQM=       40 NQMF=       0 NMMI=      0 NMMIF=      0
                NMic=       0 NMicF=      0.
                    Isotopes and Nuclear Properties:
 (Nuclear quadrupole moments (NQMom) in fm**2, nuclear magnetic moments (NMagM)
  in nuclear magnetons)

  Atom         1           2           3           4           5           6           7           8           9          10
 IAtWgt=          16          32          14          12          12          32          12          16          16          12
 AtmWgt=  15.9949146  31.9720718  14.0030740  12.0000000  12.0000000  31.9720718  12.0000000  15.9949146  15.9949146  12.0000000
 NucSpn=           0           0           2           0           0           0           0           0           0           0
 AtZEff=  -0.0000000  -0.0000000  -0.0000000  -0.0000000  -0.0000000  -0.0000000  -0.0000000  -0.0000000  -0.0000000  -0.0000000
 NQMom=    0.0000000   0.0000000   2.0440000   0.0000000   0.0000000   0.0000000   0.0000000   0.0000000   0.0000000   0.0000000
 NMagM=    0.0000000   0.0000000   0.4037610   0.0000000   0.0000000   0.0000000   0.0000000   0.0000000   0.0000000   0.0000000
 AtZNuc=   8.0000000  16.0000000   7.0000000   6.0000000   6.0000000  16.0000000   6.0000000   8.0000000   8.0000000   6.0000000

  Atom        11          12          13          14          15          16          17          18          19          20
 IAtWgt=          12          12          12          12          12          12          12          14          12          12
 AtmWgt=  12.0000000  12.0000000  12.0000000  12.0000000  12.0000000  12.0000000  12.0000000  14.0030740  12.0000000  12.0000000
 NucSpn=           0           0           0           0           0           0           0           2           0           0
 AtZEff=  -0.0000000  -0.0000000  -0.0000000  -0.0000000  -0.0000000  -0.0000000  -0.0000000  -0.0000000  -0.0000000  -0.0000000
 NQMom=    0.0000000   0.0000000   0.0000000   0.0000000   0.0000000   0.0000000   0.0000000   2.0440000   0.0000000   0.0000000
 NMagM=    0.0000000   0.0000000   0.0000000   0.0000000   0.0000000   0.0000000   0.0000000   0.4037610   0.0000000   0.0000000
 AtZNuc=   6.0000000   6.0000000   6.0000000   6.0000000   6.0000000   6.0000000   6.0000000   7.0000000   6.0000000   6.0000000

  Atom        21          22          23          24          25          26          27          28          29          30
 IAtWgt=          16           1           1           1           1           1           1           1           1           1
 AtmWgt=  15.9949146   1.0078250   1.0078250   1.0078250   1.0078250   1.0078250   1.0078250   1.0078250   1.0078250   1.0078250
 NucSpn=           0           1           1           1           1           1           1           1           1           1
 AtZEff=  -0.0000000  -0.0000000  -0.0000000  -0.0000000  -0.0000000  -0.0000000  -0.0000000  -0.0000000  -0.0000000  -0.0000000
 NQMom=    0.0000000   0.0000000   0.0000000   0.0000000   0.0000000   0.0000000   0.0000000   0.0000000   0.0000000   0.0000000
 NMagM=    0.0000000   2.7928460   2.7928460   2.7928460   2.7928460   2.7928460   2.7928460   2.7928460   2.7928460   2.7928460
 AtZNuc=   8.0000000   1.0000000   1.0000000   1.0000000   1.0000000   1.0000000   1.0000000   1.0000000   1.0000000   1.0000000

  Atom        31          32          33          34          35          36          37          38          39          40
 IAtWgt=           1           1           1           1           1           1           1           1           1           1
 AtmWgt=   1.0078250   1.0078250   1.0078250   1.0078250   1.0078250   1.0078250   1.0078250   1.0078250   1.0078250   1.0078250
 NucSpn=           1           1           1           1           1           1           1           1           1           1
 AtZEff=  -0.0000000  -0.0000000  -0.0000000  -0.0000000  -0.0000000  -0.0000000  -0.0000000  -0.0000000  -0.0000000  -0.0000000
 NQMom=    0.0000000   0.0000000   0.0000000   0.0000000   0.0000000   0.0000000   0.0000000   0.0000000   0.0000000   0.0000000
 NMagM=    2.7928460   2.7928460   2.7928460   2.7928460   2.7928460   2.7928460   2.7928460   2.7928460   2.7928460   2.7928460
 AtZNuc=   1.0000000   1.0000000   1.0000000   1.0000000   1.0000000   1.0000000   1.0000000   1.0000000   1.0000000   1.0000000
 Leave Link  101 at Thu Sep 24 01:22:27 2020, MaxMem=  2147483648 cpu:               1.5 elap:               0.4
 (Enter /prod/apps/gaussian/g16b1/l103.exe)

 GradGradGradGradGradGradGradGradGradGradGradGradGradGradGradGradGradGrad
 Berny optimization.
 Initialization pass.
                           ----------------------------
                           !    Initial Parameters    !
                           ! (Angstroms and Degrees)  !
 --------------------------                            --------------------------
 ! Name  Definition              Value          Derivative Info.                !
 --------------------------------------------------------------------------------
 ! R1    R(1,2)                  1.4916         estimate D2E/DX2                !
 ! R2    R(2,3)                  1.5782         estimate D2E/DX2                !
 ! R3    R(2,18)                 1.7473         estimate D2E/DX2                !
 ! R4    R(2,21)                 1.4929         estimate D2E/DX2                !
 ! R5    R(3,4)                  1.4679         estimate D2E/DX2                !
 ! R6    R(4,5)                  1.5702         estimate D2E/DX2                !
 ! R7    R(4,7)                  1.5837         estimate D2E/DX2                !
 ! R8    R(4,10)                 1.5478         estimate D2E/DX2                !
 ! R9    R(5,6)                  1.8217         estimate D2E/DX2                !
 ! R10   R(5,22)                 1.0917         estimate D2E/DX2                !
 ! R11   R(5,23)                 1.0901         estimate D2E/DX2                !
 ! R12   R(6,7)                  1.8182         estimate D2E/DX2                !
 ! R13   R(6,8)                  1.4822         estimate D2E/DX2                !
 ! R14   R(6,9)                  1.4828         estimate D2E/DX2                !
 ! R15   R(7,24)                 1.0905         estimate D2E/DX2                !
 ! R16   R(7,25)                 1.0877         estimate D2E/DX2                !
 ! R17   R(10,11)                1.5484         estimate D2E/DX2                !
 ! R18   R(10,26)                1.0946         estimate D2E/DX2                !
 ! R19   R(10,27)                1.0959         estimate D2E/DX2                !
 ! R20   R(11,12)                1.519          estimate D2E/DX2                !
 ! R21   R(11,28)                1.0986         estimate D2E/DX2                !
 ! R22   R(11,29)                1.0962         estimate D2E/DX2                !
 ! R23   R(12,13)                1.4022         estimate D2E/DX2                !
 ! R24   R(12,17)                1.4045         estimate D2E/DX2                !
 ! R25   R(13,14)                1.3979         estimate D2E/DX2                !
 ! R26   R(13,30)                1.088          estimate D2E/DX2                !
 ! R27   R(14,15)                1.3968         estimate D2E/DX2                !
 ! R28   R(14,31)                1.087          estimate D2E/DX2                !
 ! R29   R(15,16)                1.3982         estimate D2E/DX2                !
 ! R30   R(15,32)                1.0869         estimate D2E/DX2                !
 ! R31   R(16,17)                1.3962         estimate D2E/DX2                !
 ! R32   R(16,33)                1.0871         estimate D2E/DX2                !
 ! R33   R(17,34)                1.0871         estimate D2E/DX2                !
 ! R34   R(18,19)                1.4681         estimate D2E/DX2                !
 ! R35   R(18,20)                1.4698         estimate D2E/DX2                !
 ! R36   R(19,35)                1.0911         estimate D2E/DX2                !
 ! R37   R(19,36)                1.0952         estimate D2E/DX2                !
 ! R38   R(19,37)                1.1021         estimate D2E/DX2                !
 ! R39   R(20,38)                1.091          estimate D2E/DX2                !
 ! R40   R(20,39)                1.102          estimate D2E/DX2                !
 ! R41   R(20,40)                1.0952         estimate D2E/DX2                !
 ! A1    A(1,2,3)              108.2316         estimate D2E/DX2                !
 ! A2    A(1,2,18)             106.5285         estimate D2E/DX2                !
 ! A3    A(1,2,21)             114.7257         estimate D2E/DX2                !
 ! A4    A(3,2,18)             107.7355         estimate D2E/DX2                !
 ! A5    A(3,2,21)             116.2392         estimate D2E/DX2                !
 ! A6    A(18,2,21)            102.5924         estimate D2E/DX2                !
 ! A7    A(2,3,4)              120.6371         estimate D2E/DX2                !
 ! A8    A(3,4,5)              104.8041         estimate D2E/DX2                !
 ! A9    A(3,4,7)              112.0673         estimate D2E/DX2                !
 ! A10   A(3,4,10)             113.4028         estimate D2E/DX2                !
 ! A11   A(5,4,7)               96.1198         estimate D2E/DX2                !
 ! A12   A(5,4,10)             113.3182         estimate D2E/DX2                !
 ! A13   A(7,4,10)             115.4091         estimate D2E/DX2                !
 ! A14   A(4,5,6)               90.2197         estimate D2E/DX2                !
 ! A15   A(4,5,22)             115.1967         estimate D2E/DX2                !
 ! A16   A(4,5,23)             115.0572         estimate D2E/DX2                !
 ! A17   A(6,5,22)             109.0546         estimate D2E/DX2                !
 ! A18   A(6,5,23)             114.3909         estimate D2E/DX2                !
 ! A19   A(22,5,23)            111.2769         estimate D2E/DX2                !
 ! A20   A(5,6,7)               80.2616         estimate D2E/DX2                !
 ! A21   A(5,6,8)              112.7404         estimate D2E/DX2                !
 ! A22   A(5,6,9)              113.8708         estimate D2E/DX2                !
 ! A23   A(7,6,8)              113.1014         estimate D2E/DX2                !
 ! A24   A(7,6,9)              114.1321         estimate D2E/DX2                !
 ! A25   A(8,6,9)              117.2345         estimate D2E/DX2                !
 ! A26   A(4,7,6)               89.9184         estimate D2E/DX2                !
 ! A27   A(4,7,24)             114.9838         estimate D2E/DX2                !
 ! A28   A(4,7,25)             115.4969         estimate D2E/DX2                !
 ! A29   A(6,7,24)             108.6566         estimate D2E/DX2                !
 ! A30   A(6,7,25)             114.795          estimate D2E/DX2                !
 ! A31   A(24,7,25)            111.272          estimate D2E/DX2                !
 ! A32   A(4,10,11)            119.7692         estimate D2E/DX2                !
 ! A33   A(4,10,26)            107.7179         estimate D2E/DX2                !
 ! A34   A(4,10,27)            105.8093         estimate D2E/DX2                !
 ! A35   A(11,10,26)           108.9839         estimate D2E/DX2                !
 ! A36   A(11,10,27)           107.784          estimate D2E/DX2                !
 ! A37   A(26,10,27)           105.9496         estimate D2E/DX2                !
 ! A38   A(10,11,12)           116.8768         estimate D2E/DX2                !
 ! A39   A(10,11,28)           106.0859         estimate D2E/DX2                !
 ! A40   A(10,11,29)           110.7383         estimate D2E/DX2                !
 ! A41   A(12,11,28)           107.9139         estimate D2E/DX2                !
 ! A42   A(12,11,29)           109.1582         estimate D2E/DX2                !
 ! A43   A(28,11,29)           105.3729         estimate D2E/DX2                !
 ! A44   A(11,12,13)           121.1238         estimate D2E/DX2                !
 ! A45   A(11,12,17)           120.7515         estimate D2E/DX2                !
 ! A46   A(13,12,17)           118.0947         estimate D2E/DX2                !
 ! A47   A(12,13,14)           121.1712         estimate D2E/DX2                !
 ! A48   A(12,13,30)           119.2338         estimate D2E/DX2                !
 ! A49   A(14,13,30)           119.5938         estimate D2E/DX2                !
 ! A50   A(13,14,15)           120.0836         estimate D2E/DX2                !
 ! A51   A(13,14,31)           119.7534         estimate D2E/DX2                !
 ! A52   A(15,14,31)           120.163          estimate D2E/DX2                !
 ! A53   A(14,15,16)           119.4053         estimate D2E/DX2                !
 ! A54   A(14,15,32)           120.2976         estimate D2E/DX2                !
 ! A55   A(16,15,32)           120.2968         estimate D2E/DX2                !
 ! A56   A(15,16,17)           120.2576         estimate D2E/DX2                !
 ! A57   A(15,16,33)           120.036          estimate D2E/DX2                !
 ! A58   A(17,16,33)           119.7063         estimate D2E/DX2                !
 ! A59   A(12,17,16)           120.9862         estimate D2E/DX2                !
 ! A60   A(12,17,34)           119.6301         estimate D2E/DX2                !
 ! A61   A(16,17,34)           119.3826         estimate D2E/DX2                !
 ! A62   A(2,18,19)            112.4822         estimate D2E/DX2                !
 ! A63   A(2,18,20)            112.7846         estimate D2E/DX2                !
 ! A64   A(19,18,20)           111.0998         estimate D2E/DX2                !
 ! A65   A(18,19,35)           109.5828         estimate D2E/DX2                !
 ! A66   A(18,19,36)           108.3871         estimate D2E/DX2                !
 ! A67   A(18,19,37)           112.6776         estimate D2E/DX2                !
 ! A68   A(35,19,36)           108.6776         estimate D2E/DX2                !
 ! A69   A(35,19,37)           108.9291         estimate D2E/DX2                !
 ! A70   A(36,19,37)           108.506          estimate D2E/DX2                !
 ! A71   A(18,20,38)           109.7262         estimate D2E/DX2                !
 ! A72   A(18,20,39)           112.7256         estimate D2E/DX2                !
 ! A73   A(18,20,40)           108.1724         estimate D2E/DX2                !
 ! A74   A(38,20,39)           109.1126         estimate D2E/DX2                !
 ! A75   A(38,20,40)           108.7203         estimate D2E/DX2                !
 ! A76   A(39,20,40)           108.2964         estimate D2E/DX2                !
 ! D1    D(1,2,3,4)           -158.5619         estimate D2E/DX2                !
 ! D2    D(18,2,3,4)            86.6146         estimate D2E/DX2                !
 ! D3    D(21,2,3,4)           -27.7683         estimate D2E/DX2                !
 ! D4    D(1,2,18,19)          -57.1366         estimate D2E/DX2                !
 ! D5    D(1,2,18,20)           69.477          estimate D2E/DX2                !
 ! D6    D(3,2,18,19)           58.8102         estimate D2E/DX2                !
 ! D7    D(3,2,18,20)         -174.5762         estimate D2E/DX2                !
 ! D8    D(21,2,18,19)        -178.0238         estimate D2E/DX2                !
 ! D9    D(21,2,18,20)         -51.4102         estimate D2E/DX2                !
 ! D10   D(2,3,4,5)            171.2072         estimate D2E/DX2                !
 ! D11   D(2,3,4,7)             68.1382         estimate D2E/DX2                !
 ! D12   D(2,3,4,10)           -64.7016         estimate D2E/DX2                !
 ! D13   D(3,4,5,6)            -99.7468         estimate D2E/DX2                !
 ! D14   D(3,4,5,22)           148.993          estimate D2E/DX2                !
 ! D15   D(3,4,5,23)            17.4895         estimate D2E/DX2                !
 ! D16   D(7,4,5,6)             15.0347         estimate D2E/DX2                !
 ! D17   D(7,4,5,22)           -96.2255         estimate D2E/DX2                !
 ! D18   D(7,4,5,23)           132.2709         estimate D2E/DX2                !
 ! D19   D(10,4,5,6)           136.1081         estimate D2E/DX2                !
 ! D20   D(10,4,5,22)           24.8479         estimate D2E/DX2                !
 ! D21   D(10,4,5,23)         -106.6557         estimate D2E/DX2                !
 ! D22   D(3,4,7,6)             93.6449         estimate D2E/DX2                !
 ! D23   D(3,4,7,24)          -155.7297         estimate D2E/DX2                !
 ! D24   D(3,4,7,25)           -23.9969         estimate D2E/DX2                !
 ! D25   D(5,4,7,6)            -15.0639         estimate D2E/DX2                !
 ! D26   D(5,4,7,24)            95.5615         estimate D2E/DX2                !
 ! D27   D(5,4,7,25)          -132.7057         estimate D2E/DX2                !
 ! D28   D(10,4,7,6)          -134.5144         estimate D2E/DX2                !
 ! D29   D(10,4,7,24)          -23.8891         estimate D2E/DX2                !
 ! D30   D(10,4,7,25)          107.8437         estimate D2E/DX2                !
 ! D31   D(3,4,10,11)         -175.0051         estimate D2E/DX2                !
 ! D32   D(3,4,10,26)           59.8138         estimate D2E/DX2                !
 ! D33   D(3,4,10,27)          -53.1579         estimate D2E/DX2                !
 ! D34   D(5,4,10,11)          -55.6817         estimate D2E/DX2                !
 ! D35   D(5,4,10,26)          179.1372         estimate D2E/DX2                !
 ! D36   D(5,4,10,27)           66.1654         estimate D2E/DX2                !
 ! D37   D(7,4,10,11)           53.7863         estimate D2E/DX2                !
 ! D38   D(7,4,10,26)          -71.3948         estimate D2E/DX2                !
 ! D39   D(7,4,10,27)          175.6334         estimate D2E/DX2                !
 ! D40   D(4,5,6,7)            -13.1762         estimate D2E/DX2                !
 ! D41   D(4,5,6,8)             97.9066         estimate D2E/DX2                !
 ! D42   D(4,5,6,9)           -125.3659         estimate D2E/DX2                !
 ! D43   D(22,5,6,7)           103.6788         estimate D2E/DX2                !
 ! D44   D(22,5,6,8)          -145.2384         estimate D2E/DX2                !
 ! D45   D(22,5,6,9)            -8.5109         estimate D2E/DX2                !
 ! D46   D(23,5,6,7)          -131.001          estimate D2E/DX2                !
 ! D47   D(23,5,6,8)           -19.9182         estimate D2E/DX2                !
 ! D48   D(23,5,6,9)           116.8093         estimate D2E/DX2                !
 ! D49   D(5,6,7,4)             13.0614         estimate D2E/DX2                !
 ! D50   D(5,6,7,24)          -103.3815         estimate D2E/DX2                !
 ! D51   D(5,6,7,25)           131.3242         estimate D2E/DX2                !
 ! D52   D(8,6,7,4)            -97.6212         estimate D2E/DX2                !
 ! D53   D(8,6,7,24)           145.9358         estimate D2E/DX2                !
 ! D54   D(8,6,7,25)            20.6416         estimate D2E/DX2                !
 ! D55   D(9,6,7,4)            124.9638         estimate D2E/DX2                !
 ! D56   D(9,6,7,24)             8.5209         estimate D2E/DX2                !
 ! D57   D(9,6,7,25)          -116.7734         estimate D2E/DX2                !
 ! D58   D(4,10,11,12)         -79.5382         estimate D2E/DX2                !
 ! D59   D(4,10,11,28)         160.1279         estimate D2E/DX2                !
 ! D60   D(4,10,11,29)          46.2867         estimate D2E/DX2                !
 ! D61   D(26,10,11,12)         45.0405         estimate D2E/DX2                !
 ! D62   D(26,10,11,28)        -75.2935         estimate D2E/DX2                !
 ! D63   D(26,10,11,29)        170.8653         estimate D2E/DX2                !
 ! D64   D(27,10,11,12)        159.5929         estimate D2E/DX2                !
 ! D65   D(27,10,11,28)         39.2589         estimate D2E/DX2                !
 ! D66   D(27,10,11,29)        -74.5823         estimate D2E/DX2                !
 ! D67   D(10,11,12,13)        122.5963         estimate D2E/DX2                !
 ! D68   D(10,11,12,17)        -59.4333         estimate D2E/DX2                !
 ! D69   D(28,11,12,13)       -118.0439         estimate D2E/DX2                !
 ! D70   D(28,11,12,17)         59.9265         estimate D2E/DX2                !
 ! D71   D(29,11,12,13)         -4.0117         estimate D2E/DX2                !
 ! D72   D(29,11,12,17)        173.9587         estimate D2E/DX2                !
 ! D73   D(11,12,13,14)        178.4258         estimate D2E/DX2                !
 ! D74   D(11,12,13,30)         -1.984          estimate D2E/DX2                !
 ! D75   D(17,12,13,14)          0.403          estimate D2E/DX2                !
 ! D76   D(17,12,13,30)        179.9932         estimate D2E/DX2                !
 ! D77   D(11,12,17,16)       -178.44           estimate D2E/DX2                !
 ! D78   D(11,12,17,34)          1.1889         estimate D2E/DX2                !
 ! D79   D(13,12,17,16)         -0.4094         estimate D2E/DX2                !
 ! D80   D(13,12,17,34)        179.2195         estimate D2E/DX2                !
 ! D81   D(12,13,14,15)         -0.1409         estimate D2E/DX2                !
 ! D82   D(12,13,14,31)        179.8606         estimate D2E/DX2                !
 ! D83   D(30,13,14,15)       -179.7296         estimate D2E/DX2                !
 ! D84   D(30,13,14,31)          0.2718         estimate D2E/DX2                !
 ! D85   D(13,14,15,16)         -0.1248         estimate D2E/DX2                !
 ! D86   D(13,14,15,32)       -179.9592         estimate D2E/DX2                !
 ! D87   D(31,14,15,16)        179.8737         estimate D2E/DX2                !
 ! D88   D(31,14,15,32)          0.0394         estimate D2E/DX2                !
 ! D89   D(14,15,16,17)          0.1179         estimate D2E/DX2                !
 ! D90   D(14,15,16,33)       -179.7147         estimate D2E/DX2                !
 ! D91   D(32,15,16,17)        179.9522         estimate D2E/DX2                !
 ! D92   D(32,15,16,33)          0.1197         estimate D2E/DX2                !
 ! D93   D(15,16,17,12)          0.1546         estimate D2E/DX2                !
 ! D94   D(15,16,17,34)       -179.4752         estimate D2E/DX2                !
 ! D95   D(33,16,17,12)        179.9877         estimate D2E/DX2                !
 ! D96   D(33,16,17,34)          0.3579         estimate D2E/DX2                !
 ! D97   D(2,18,19,35)         -50.9245         estimate D2E/DX2                !
 ! D98   D(2,18,19,36)        -169.3779         estimate D2E/DX2                !
 ! D99   D(2,18,19,37)          70.5294         estimate D2E/DX2                !
 ! D100  D(20,18,19,35)       -178.4368         estimate D2E/DX2                !
 ! D101  D(20,18,19,36)         63.1098         estimate D2E/DX2                !
 ! D102  D(20,18,19,37)        -56.9829         estimate D2E/DX2                !
 ! D103  D(2,18,20,38)          54.0339         estimate D2E/DX2                !
 ! D104  D(2,18,20,39)         -67.789          estimate D2E/DX2                !
 ! D105  D(2,18,20,40)         172.4947         estimate D2E/DX2                !
 ! D106  D(19,18,20,38)       -178.6185         estimate D2E/DX2                !
 ! D107  D(19,18,20,39)         59.5586         estimate D2E/DX2                !
 ! D108  D(19,18,20,40)        -60.1577         estimate D2E/DX2                !
 --------------------------------------------------------------------------------
 Trust Radius=3.00D-01 FncErr=1.00D-07 GrdErr=1.00D-06 EigMax=2.50D+02 EigMin=1.00D-04
 Number of steps in this run=    235 maximum allowed number of steps=    240.
 GradGradGradGradGradGradGradGradGradGradGradGradGradGradGradGradGradGrad

 Leave Link  103 at Thu Sep 24 01:22:27 2020, MaxMem=  2147483648 cpu:               0.1 elap:               0.0
 (Enter /prod/apps/gaussian/g16b1/l202.exe)
                          Input orientation:                          
 ---------------------------------------------------------------------
 Center     Atomic      Atomic             Coordinates (Angstroms)
 Number     Number       Type             X           Y           Z
 ---------------------------------------------------------------------
      1          8           0       -3.688000   -0.122000   -1.056000
      2         16           0       -2.343000   -0.578000   -0.600000
      3          7           0       -1.750000    0.521000    0.365000
      4          6           0       -0.304000    0.606000    0.603000
      5          6           0       -0.108000    1.938000    1.411000
      6         16           0        0.397000    2.797000   -0.114000
      7          6           0        0.485000    1.074000   -0.688000
      8          8           0       -0.711000    3.561000   -0.735000
      9          8           0        1.714000    3.471000   -0.015000
     10          6           0        0.275000   -0.637000    1.321000
     11          6           0        1.763000   -0.654000    1.749000
     12          6           0        2.785000   -0.961000    0.668000
     13          6           0        3.821000   -0.063000    0.374000
     14          6           0        4.781000   -0.359000   -0.598000
     15          6           0        4.722000   -1.568000   -1.295000
     16          6           0        3.698000   -2.476000   -1.009000
     17          6           0        2.742000   -2.175000   -0.037000
     18          7           0       -2.602000   -2.028000    0.340000
     19          6           0       -3.516000   -1.810000    1.468000
     20          6           0       -3.036000   -3.168000   -0.480000
     21          8           0       -1.442000   -1.054000   -1.691000
     22          1           0        0.728000    1.937000    2.113000
     23          1           0       -1.012000    2.335000    1.873000
     24          1           0        1.532000    0.771000   -0.723000
     25          1           0       -0.013000    0.883000   -1.636000
     26          1           0        0.076000   -1.509000    0.690000
     27          1           0       -0.334000   -0.772000    2.222000
     28          1           0        1.848000   -1.428000    2.524000
     29          1           0        2.035000    0.285000    2.245000
     30          1           0        3.872000    0.883000    0.909000
     31          1           0        5.573000    0.355000   -0.809000
     32          1           0        5.467000   -1.802000   -2.051000
     33          1           0        3.645000   -3.422000   -1.542000
     34          1           0        1.957000   -2.895000    0.180000
     35          1           0       -3.187000   -0.943000    2.043000
     36          1           0       -3.483000   -2.693000    2.115000
     37          1           0       -4.558000   -1.651000    1.146000
     38          1           0       -2.329000   -3.325000   -1.296000
     39          1           0       -4.046000   -3.031000   -0.899000
     40          1           0       -3.045000   -4.061000    0.154000
 ---------------------------------------------------------------------
                    Distance matrix (angstroms):
                    1          2          3          4          5
     1  O    0.000000
     2  S    1.491609   0.000000
     3  N    2.487676   1.578187   0.000000
     4  C    3.838453   2.646996   1.467919   0.000000
     5  C    4.811038   3.920408   2.407939   1.570192   0.000000
     6  S    5.108341   4.374291   3.165316   2.409558   1.821684
     7  C    4.356578   3.276344   2.531767   1.583738   2.346049
     8  O    4.746584   4.451176   3.395750   3.269238   2.757364
     9  O    6.570764   5.761586   4.565763   3.558437   2.775473
    10  C    4.649809   3.247714   2.521017   1.547842   2.604883
    11  C    6.153410   4.731048   3.954396   2.678321   3.214553
    12  C    6.750987   5.296310   4.780623   3.464338   4.162415
    13  C    7.644178   6.261693   5.601534   4.185167   4.529504
    14  C    8.484686   7.127366   6.660010   5.313271   5.763212
    15  C    8.536752   7.167800   7.000450   5.795632   6.553119
    16  C    7.752195   6.345342   6.367934   5.302195   6.310739
    17  C    6.826278   5.359534   5.254340   4.173928   5.209220
    18  N    2.600202   1.747335   2.687737   3.505414   4.805854
    19  C    3.041300   2.677756   3.125528   4.111232   5.066085
    20  C    3.167806   2.683794   3.997067   4.783282   6.182257
    21  O    2.513238   1.492869   2.608184   3.051734   4.511543
    22  H    5.812323   4.807976   3.346796   2.262009   1.091651
    23  H    4.666569   4.046339   2.471701   2.259116   1.090078
    24  H    5.306292   4.104943   3.466665   2.270770   2.933504
    25  H    3.853836   2.938829   2.674362   2.274760   3.225873
    26  H    4.374926   2.895241   2.749691   2.150626   3.526401
    27  H    4.734670   3.469496   2.669336   2.126251   2.837763
    28  H    6.720813   5.295881   4.626606   3.529660   4.049032
    29  H    6.619288   5.292039   4.232768   2.875783   2.832034
    30  H    7.875586   6.560322   5.659847   4.196349   4.147943
    31  H    9.276565   7.973533   7.418366   6.049452   6.301432
    32  H    9.360900   8.037392   7.957291   6.793130   7.553388
    33  H    8.055997   6.695659   6.949095   6.034932   7.178776
    34  H    6.409622   4.946402   5.044317   4.189039   5.397914
    35  H    3.244818   2.798394   2.650273   3.575568   4.263781
    36  H    4.087457   3.625472   4.049146   4.824478   5.773422
    37  H    2.818430   3.017627   3.634888   4.846175   5.723080
    38  H    3.487648   2.833835   4.229170   4.812441   6.321381
    39  H    2.935148   3.001136   4.414297   5.430132   6.747956
    40  H    4.170524   3.632163   4.766159   5.430983   6.796618
                    6          7          8          9         10
     6  S    0.000000
     7  C    1.818227   0.000000
     8  O    1.482228   2.760035   0.000000
     9  O    1.482756   2.776505   2.531230   0.000000
    10  C    3.723770   2.647206   4.777294   4.553162   0.000000
    11  C    4.152846   3.249344   5.482441   4.486616   1.548424
    12  C    4.520689   3.357076   5.885483   4.610440   2.613711
    13  C    4.487930   3.680966   5.907815   4.132787   3.714889
    14  C    5.423472   4.529592   6.748869   4.941182   4.905495
    15  C    6.257285   5.029988   7.492512   6.006495   5.242712
    16  C    6.285074   4.798845   7.480623   6.347527   4.530756
    17  C    5.497794   4.009221   6.731427   5.738866   3.208691
    18  N    5.699188   4.495415   5.997368   6.999492   3.342809
    19  C    6.248099   5.382731   6.447393   7.578994   3.971048
    20  C    6.892073   5.516817   7.123910   8.176494   4.540075
    21  O    4.549621   3.041007   4.769331   5.765842   3.492008
    22  H    2.410122   2.940989   3.580391   2.802452   2.730925
    23  H    2.479293   3.223329   2.897471   3.505156   3.285401
    24  H    2.400788   1.090524   3.579845   2.797211   2.782166
    25  H    2.479512   1.087745   2.910445   3.508264   3.337243
    26  H    4.392163   2.956020   5.324931   5.289657   1.094599
    27  H    4.327704   3.542115   5.259360   5.215508   1.095859
    28  H    5.187974   4.293567   6.485344   5.519482   2.132421
    29  H    3.815504   3.409913   5.210863   3.919341   2.191223
    30  H    4.097017   3.749488   5.556825   3.494064   3.926647
    31  H    5.765186   5.139975   7.054968   5.023124   5.795668
    32  H    7.113907   5.911808   8.286212   6.784897   6.299561
    33  H    7.159934   5.561379   8.269720   7.319422   5.225887
    34  H    5.909222   4.321246   7.045238   6.373620   3.038021
    35  H    5.611177   5.001023   5.842420   6.909310   3.549699
    36  H    7.082580   6.147530   7.410735   8.339101   4.356620
    37  H    6.776749   6.018391   6.745555   8.180513   4.941327
    38  H    6.804931   5.257325   7.095748   8.010769   4.566711
    39  H    7.370350   6.117639   7.389424   8.731269   5.415780
    40  H    7.677978   6.287932   8.020771   8.911098   4.909996
                   11         12         13         14         15
    11  C    0.000000
    12  C    1.518978   0.000000
    13  C    2.544655   1.402190   0.000000
    14  C    3.834548   2.439093   1.397856   0.000000
    15  C    4.342466   2.823789   2.421237   1.396772   0.000000
    16  C    3.830205   2.437442   2.783952   2.413193   1.398154
    17  C    2.541983   1.404518   2.407012   2.787490   2.423100
    18  N    4.788150   5.501440   6.716942   7.627194   7.518364
    19  C    5.411390   6.408073   7.621051   8.672599   8.692375
    20  C    5.858245   6.330308   7.575539   8.307219   7.963089
    21  O    4.718647   4.841597   5.739815   6.356367   6.198057
    22  H    2.813717   3.836363   4.073177   5.389615   6.312806
    23  H    4.080456   5.170382   5.599580   6.849987   7.625509
    24  H    2.862651   2.550434   2.671795   3.442169   3.996774
    25  H    4.120045   4.066639   4.431092   5.059886   5.342650
    26  H    2.167597   2.763959   4.026884   5.011833   5.052625
    27  H    2.152919   3.489813   4.602370   5.855441   6.210156
    28  H    1.098602   2.130914   3.221561   4.414990   4.781656
    29  H    1.096230   2.145214   2.609893   4.004735   4.815099
    30  H    2.741505   2.154063   1.087999   2.154041   3.404044
    31  H    4.698675   3.418527   2.154929   1.087006   2.158316
    32  H    5.429320   3.910673   3.407941   2.159642   1.086884
    33  H    4.694084   3.417634   3.871035   3.400530   2.158299
    34  H    2.742531   2.159649   3.395932   3.874475   3.403201
    35  H    4.967138   6.128273   7.257550   8.414568   8.607273
    36  H    5.640212   6.661941   7.955903   9.005644   8.956325
    37  H    6.427492   7.390821   8.563023   9.587895   9.596029
    38  H    5.757667   5.966472   7.159053   7.735403   7.266612
    39  H    6.812233   7.307732   8.504072   9.227465   8.898034
    40  H    6.104796   6.622922   7.948230   8.690028   8.284983
                   16         17         18         19         20
    16  C    0.000000
    17  C    1.396181   0.000000
    18  N    6.458367   5.359298   0.000000
    19  C    7.656427   6.446768   1.468095   0.000000
    20  C    6.790100   5.879420   1.469815   2.422657   0.000000
    21  O    5.376505   4.636617   2.533621   3.853867   2.911418
    22  H    6.167848   5.058383   5.472993   5.698032   6.852180
    23  H    7.323643   6.170957   4.890190   4.859534   6.317926
    24  H    3.913612   3.257854   5.104344   6.078186   6.036671
    25  H    5.044555   4.415675   4.368228   5.399822   5.185120
    26  H    4.115893   2.842471   2.750190   3.687594   3.715606
    27  H    5.440588   4.066112   3.203636   3.430901   4.510258
    28  H    4.123456   2.813533   4.993231   5.480288   5.992084
    29  H    4.580088   3.429136   5.520939   5.983841   6.712963
    30  H    3.871935   3.394581   7.121121   7.883354   8.127754
    31  H    3.401498   3.874461   8.592410   9.616750   9.307774
    32  H    2.160880   3.408951   8.418831   9.647679   8.754142
    33  H    1.087113   2.153008   6.671594   7.933383   6.769647
    34  H    2.149503   1.087067   4.643465   5.726246   5.043826
    35  H    7.685572   6.402911   2.102299   1.091126   3.367336
    36  H    7.834107   6.606819   2.090218   1.095165   2.675717
    37  H    8.572408   7.413775   2.148884   1.102147   2.694745
    38  H    6.093267   5.350011   2.105525   3.368069   1.091033
    39  H    7.764642   6.895848   2.150876   2.715590   1.102012
    40  H    7.023734   6.089569   2.089003   2.648667   1.095210
                   21         22         23         24         25
    21  O    0.000000
    22  H    5.303338   0.000000
    23  H    4.936833   1.801001   0.000000
    24  H    3.621094   3.169995   3.956924   0.000000
    25  H    2.407703   3.964215   3.926753   1.798093   0.000000
    26  H    2.860159   3.784831   4.166482   3.052033   3.337643
    27  H    4.076611   2.911770   3.199208   3.812588   4.210253
    28  H    5.360056   3.570231   4.771118   3.934268   5.109759
    29  H    5.419829   2.110634   3.691218   3.049300   4.428777
    30  H    6.224995   3.527785   5.185659   2.855095   4.644378
    31  H    7.209260   5.874933   7.380769   4.063266   5.671517
    32  H    6.958691   7.333290   8.630758   4.885503   6.116523
    33  H    5.613127   7.112439   8.154319   4.766212   5.650029
    34  H    4.294546   5.347444   6.247728   3.799420   4.631635
    35  H    4.123118   4.860712   3.937615   5.732147   5.190722
    36  H    4.619268   6.258548   5.607601   6.723375   6.236880
    37  H    4.256105   6.461473   5.384314   6.815229   5.900653
    38  H    2.469865   6.975326   6.619112   5.657991   4.815259
    39  H    3.364017   7.519591   6.758927   6.752797   5.668126
    40  H    3.875007   7.351817   6.927977   6.713142   6.069618
                   26         27         28         29         30
    26  H    0.000000
    27  H    1.748798   0.000000
    28  H    2.551490   2.298405   0.000000
    29  H    3.078009   2.594213   1.745617   0.000000
    30  H    4.492131   4.706743   3.470666   2.348844   0.000000
    31  H    5.994873   6.734221   5.306939   4.674319   2.474613
    32  H    6.054900   7.278120   5.845311   5.881310   4.302889
    33  H    4.623760   6.084623   4.872125   5.538530   4.959028
    34  H    2.391497   3.731699   2.767364   3.792454   4.297901
    35  H    3.577448   2.863720   5.081123   5.368247   7.379005
    36  H    4.012351   3.690243   5.494276   6.271659   8.266694
    37  H    4.658547   4.446638   6.556329   6.958703   8.805806
    38  H    3.609166   4.782694   5.969785   6.679467   7.811638
    39  H    4.672504   5.350016   7.001841   7.606520   9.015708
    40  H    4.067019   4.737475   6.040781   7.004741   8.535693
                   31         32         33         34         35
    31  H    0.000000
    32  H    2.491275   0.000000
    33  H    4.303510   2.490615   0.000000
    34  H    4.961459   4.300245   2.468270   0.000000
    35  H    9.303564   9.611994   8.103943   5.808770   0.000000
    36  H    9.992558   9.912212   8.044469   5.777424   1.776316
    37  H   10.511100  10.523509   8.811980   6.702680   1.784801
    38  H    8.730474   7.979171   5.979850   4.553380   4.190347
    39  H   10.197954   9.660989   7.727730   6.100717   3.708502
    40  H    9.731308   9.078505   6.931150   5.136169   3.648343
                   36         37         38         39         40
    36  H    0.000000
    37  H    1.783354   0.000000
    38  H    3.655962   3.705952   0.000000
    39  H    3.084706   2.519637   1.786654   0.000000
    40  H    2.430800   3.013525   1.776753   1.780930   0.000000
 Symmetry turned off by external request.
 Stoichiometry    C13H19N2O4S2(1-)
 Framework group  C1[X(C13H19N2O4S2)]
 Deg. of freedom   114
 Full point group                 C1      NOp   1
 Rotational constants (GHZ):           0.3331284           0.2040294           0.1487612
 Leave Link  202 at Thu Sep 24 01:22:27 2020, MaxMem=  2147483648 cpu:               0.1 elap:               0.0
 (Enter /prod/apps/gaussian/g16b1/l301.exe)
 Standard basis: 6-31G(d) (6D, 7F)
 Ernie: Thresh=  0.10000D-02 Tol=  0.10000D-05 Strict=F.
   361 basis functions,   712 primitive gaussians,   361 cartesian basis functions
    88 alpha electrons       88 beta electrons
       nuclear repulsion energy      2175.0019908903 Hartrees.
 IExCor=  402 DFT=T Ex+Corr=B3LYP ExCW=0 ScaHFX=  0.200000
 ScaDFX=  0.800000  0.720000  1.000000  0.810000 ScalE2=  1.000000  1.000000
 IRadAn=      5 IRanWt=     -1 IRanGd=            0 ICorTp=0 IEmpDi=  4
 NAtoms=   40 NActive=   40 NUniq=   40 SFac= 1.00D+00 NAtFMM=   60 NAOKFM=F Big=F
 Integral buffers will be    131072 words long.
 Raffenetti 2 integral format.
 Two-electron integral symmetry is turned off.
 Using the following non-standard input for PCM:
 MSTModel=DFT cav MSTcharged
 --- end of non-standard input.
 MST model for solvation energy: B3LYP parametrization.
 MST cavity parameters:
 ISph   IAn     Re0     Alpha   Atom Type   QCorr
 ------------------------------------------------
   1      8     1.40     1.25      O          F
   2     16     1.75     1.25      S          F
   3      7     1.40     1.15      N          T
   4      6     1.50     1.25      C          F
   5      6     1.50     1.25      CH2        F
   6     16     1.75     1.25      S          F
   7      6     1.50     1.25      CH2        F
   8      8     1.40     1.25      O          F
   9      8     1.40     1.25      O          F
  10      6     1.50     1.25      CH2        F
  11      6     1.50     1.25      CH2        F
  12      6     1.50     1.25      C          F
  13      6     1.50     1.25      CH         F
  14      6     1.50     1.25      CH         F
  15      6     1.50     1.25      CH         F
  16      6     1.50     1.25      CH         F
  17      6     1.50     1.25      CH         F
  18      7     1.40     1.25      N          F
  19      6     1.50     1.25      CH3        F
  20      6     1.50     1.25      CH3        F
  21      8     1.40     1.25      O          F
  22      1     1.20     1.25      CH2        F
  23      1     1.20     1.25      CH2        F
  24      1     1.20     1.25      CH2        F
  25      1     1.20     1.25      CH2        F
  26      1     1.20     1.25      CH2        F
  27      1     1.20     1.25      CH2        F
  28      1     1.20     1.25      CH2        F
  29      1     1.20     1.25      CH2        F
  30      1     1.20     1.25      CH         F
  31      1     1.20     1.25      CH         F
  32      1     1.20     1.25      CH         F
  33      1     1.20     1.25      CH         F
  34      1     1.20     1.25      CH         F
  35      1     1.20     1.25      CH3        F
  36      1     1.20     1.25      CH3        F
  37      1     1.20     1.25      CH3        F
  38      1     1.20     1.25      CH3        F
  39      1     1.20     1.25      CH3        F
  40      1     1.20     1.25      CH3        F
 ------------------------------------------------------------------------------
 Polarizable Continuum Model (PCM)
 =================================
 Model                : PCM.
 Atomic radii         : MST.
 Polarization charges : Total charges.
 Charge compensation  : None.
 Solution method      : On-the-fly selection.
 Cavity type          : Scaled VdW (van der Waals Surface) (Alpha=1.250).
 Cavity algorithm     : GePol (No added spheres)
                        Default sphere list used, NSphG=   40.
                        Lebedev-Laikov grids with approx.  5.0 points / Ang**2.
                        Smoothing algorithm: York/Karplus (Gamma=1.0000).
                        Polarization charges: spherical gaussians, with
                                              point-specific exponents (IZeta= 3).
                        Self-potential: point-specific (ISelfS= 7).
                        Self-field    : sphere-specific E.n sum rule (ISelfD= 2).
 1st derivatives      : Analytical E(r).r(x)/FMM algorithm (CHGder, D1EAlg=3).
                        Cavity 1st derivative terms included.
 Solvent              : Water, Eps=  78.355300 Eps(inf)=   1.777849
 ------------------------------------------------------------------------------
 GePol: Number of generator spheres                  =      40
 GePol: Total number of spheres                      =      40
 GePol: Number of exposed spheres                    =      40 (100.00%)
 GePol: Number of points                             =    2795
 GePol: Average weight of points                     =       0.14
 GePol: Minimum weight of points                     =   0.61D-11
 GePol: Maximum weight of points                     =    0.22001
 GePol: Number of points with low weight             =     205
 GePol: Fraction of low-weight points (<1% of avg)   =       7.33%
 GePol: Cavity surface area                          =    377.463 Ang**2
 GePol: Cavity volume                                =    372.822 Ang**3
 PCM non-electrostatic energy =         0.0043448948 Hartrees.
 Nuclear repulsion after PCM non-electrostatic terms =     2175.0063357851 Hartrees.
 Leave Link  301 at Thu Sep 24 01:22:27 2020, MaxMem=  2147483648 cpu:               0.4 elap:               0.1
 (Enter /prod/apps/gaussian/g16b1/l302.exe)
 NPDir=0 NMtPBC=     1 NCelOv=     1 NCel=       1 NClECP=     1 NCelD=      1
         NCelK=      1 NCelE2=     1 NClLst=     1 CellRange=     0.0.
 One-electron integrals computed using PRISM.
 NBasis=   361 RedAO= T EigKep=  4.74D-04  NBF=   361
 NBsUse=   361 1.00D-06 EigRej= -1.00D+00 NBFU=   361
 Precomputing XC quadrature grid using
 IXCGrd= 4 IRadAn=           5 IRanWt=          -1 IRanGd=           0 AccXCQ= 0.00D+00.
 Generated NRdTot=       0 NPtTot=           0 NUsed=           0 NTot=          32
 NSgBfM=   359   359   359   359   359 MxSgAt=    40 MxSgA2=    40.
 Leave Link  302 at Thu Sep 24 01:22:28 2020, MaxMem=  2147483648 cpu:               2.4 elap:               0.6
 (Enter /prod/apps/gaussian/g16b1/l303.exe)
 DipDrv:  MaxL=1.
 Leave Link  303 at Thu Sep 24 01:22:28 2020, MaxMem=  2147483648 cpu:               0.2 elap:               0.1
 (Enter /prod/apps/gaussian/g16b1/l401.exe)
 ExpMin= 1.17D-01 ExpMax= 2.19D+04 ExpMxC= 3.30D+03 IAcc=3 IRadAn=         5 AccDes= 0.00D+00
 Harris functional with IExCor=  402 and IRadAn=       5 diagonalized for initial guess.
 HarFok:  IExCor=  402 AccDes= 0.00D+00 IRadAn=         5 IDoV= 1 UseB2=F ITyADJ=14
 ICtDFT=  3500011 ScaDFX=  1.000000  1.000000  1.000000  1.000000
 FoFCou: FMM=F IPFlag=           0 FMFlag=      100000 FMFlg1=           0
         NFxFlg=           0 DoJE=T BraDBF=F KetDBF=T FulRan=T
         wScrn=  0.000000 ICntrl=       500 IOpCl=  0 I1Cent=   200000004 NGrid=           0
         NMat0=    1 NMatS0=      1 NMatT0=    0 NMatD0=    1 NMtDS0=    0 NMtDT0=    0
 Symmetry not used in FoFCou.
 Harris En= -1713.71690915516    
 JPrj=0 DoOrth=F DoCkMO=F.
 Leave Link  401 at Thu Sep 24 01:22:31 2020, MaxMem=  2147483648 cpu:              12.7 elap:               3.2
 (Enter /prod/apps/gaussian/g16b1/l502.exe)
 Two-electron integral symmetry not used.
 Closed shell SCF:
 Using DIIS extrapolation, IDIIS=  1040.
 NGot=  2147483648 LenX=  2147217629 LenY=  2147086867
 Requested convergence on RMS density matrix=1.00D-08 within2000 cycles.
 Requested convergence on MAX density matrix=1.00D-06.
 Requested convergence on             energy=1.00D-06.
 No special actions if energy rises.

 Cycle   1  Pass 1  IDiag  1:
 FoFJK:  IHMeth= 1 ICntrl=       0 DoSepK=F KAlg= 0 I1Cent=           0 FoldK=F
 IRaf= 800000000 NMat=       1 IRICut=       1 DoRegI=T DoRafI=F ISym2E= 0 IDoP0=0 IntGTp=1.
 FoFCou: FMM=F IPFlag=           0 FMFlag=      100000 FMFlg1=           0
         NFxFlg=           0 DoJE=F BraDBF=F KetDBF=F FulRan=T
         wScrn=  0.000000 ICntrl=         0 IOpCl=  0 I1Cent=           0 NGrid=           0
         NMat0=    1 NMatS0=      1 NMatT0=    0 NMatD0=    1 NMtDS0=    0 NMtDT0=    0
 Symmetry not used in FoFCou.
 Inv3:  Mode=1 IEnd=    23436075.
 Iteration    1 A*A^-1 deviation from unit magnitude is 3.11D-15 for   1118.
 Iteration    1 A*A^-1 deviation from orthogonality  is 2.88D-15 for   1871    413.
 Iteration    1 A^-1*A deviation from unit magnitude is 3.11D-15 for    225.
 Iteration    1 A^-1*A deviation from orthogonality  is 1.80D-14 for   1898   1876.
 E= -1712.74415823463    
 DIIS: error= 3.97D-02 at cycle   1 NSaved=   1.
 NSaved= 1 IEnMin= 1 EnMin= -1712.74415823463     IErMin= 1 ErrMin= 3.97D-02
 ErrMax= 3.97D-02  0.00D+00 EMaxC= 1.00D-01 BMatC= 9.96D-01 BMatP= 9.96D-01
 IDIUse=3 WtCom= 6.03D-01 WtEn= 3.97D-01
 Coeff-Com:  0.100D+01
 Coeff-En:   0.100D+01
 Coeff:      0.100D+01
 Gap=     0.239 Goal=   None    Shift=    0.000
 GapD=    0.239 DampG=1.000 DampE=0.500 DampFc=0.5000 IDamp=-1.
 Damping current iteration by 5.00D-01
 RMSDP=6.45D-03 MaxDP=5.38D-01              OVMax= 2.31D-01

 Cycle   2  Pass 1  IDiag  1:
 E= -1713.00816858842     Delta-E=       -0.264010353790 Rises=F Damp=T
 DIIS: error= 1.33D-02 at cycle   2 NSaved=   2.
 NSaved= 2 IEnMin= 2 EnMin= -1713.00816858842     IErMin= 2 ErrMin= 1.33D-02
 ErrMax= 1.33D-02  0.00D+00 EMaxC= 1.00D-01 BMatC= 1.07D-01 BMatP= 9.96D-01
 IDIUse=3 WtCom= 8.67D-01 WtEn= 1.33D-01
 Coeff-Com:  0.195D+00 0.805D+00
 Coeff-En:   0.314D+00 0.686D+00
 Coeff:      0.211D+00 0.789D+00
 Gap=     0.290 Goal=   None    Shift=    0.000
 RMSDP=1.61D-03 MaxDP=1.20D-01 DE=-2.64D-01 OVMax= 1.55D-01

 Cycle   3  Pass 1  IDiag  1:
 E= -1713.53750060283     Delta-E=       -0.529332014412 Rises=F Damp=F
 DIIS: error= 9.76D-03 at cycle   3 NSaved=   3.
 NSaved= 3 IEnMin= 3 EnMin= -1713.53750060283     IErMin= 3 ErrMin= 9.76D-03
 ErrMax= 9.76D-03  0.00D+00 EMaxC= 1.00D-01 BMatC= 5.30D-02 BMatP= 1.07D-01
 IDIUse=3 WtCom= 9.02D-01 WtEn= 9.76D-02
 Coeff-Com:  0.668D-01 0.425D+00 0.509D+00
 Coeff-En:   0.000D+00 0.000D+00 0.100D+01
 Coeff:      0.603D-01 0.383D+00 0.557D+00
 Gap=     0.220 Goal=   None    Shift=    0.000
 RMSDP=9.44D-04 MaxDP=2.79D-02 DE=-5.29D-01 OVMax= 5.93D-02

 Cycle   4  Pass 1  IDiag  1:
 E= -1713.57775569268     Delta-E=       -0.040255089845 Rises=F Damp=F
 DIIS: error= 3.88D-03 at cycle   4 NSaved=   4.
 NSaved= 4 IEnMin= 4 EnMin= -1713.57775569268     IErMin= 4 ErrMin= 3.88D-03
 ErrMax= 3.88D-03  0.00D+00 EMaxC= 1.00D-01 BMatC= 9.56D-03 BMatP= 5.30D-02
 IDIUse=3 WtCom= 9.61D-01 WtEn= 3.88D-02
 Coeff-Com:  0.635D-02 0.796D-01 0.309D+00 0.605D+00
 Coeff-En:   0.000D+00 0.000D+00 0.149D+00 0.851D+00
 Coeff:      0.610D-02 0.765D-01 0.303D+00 0.615D+00
 Gap=     0.210 Goal=   None    Shift=    0.000
 RMSDP=3.35D-04 MaxDP=1.17D-02 DE=-4.03D-02 OVMax= 2.29D-02

 Cycle   5  Pass 1  IDiag  1:
 E= -1713.58551389742     Delta-E=       -0.007758204738 Rises=F Damp=F
 DIIS: error= 8.42D-04 at cycle   5 NSaved=   5.
 NSaved= 5 IEnMin= 5 EnMin= -1713.58551389742     IErMin= 5 ErrMin= 8.42D-04
 ErrMax= 8.42D-04  0.00D+00 EMaxC= 1.00D-01 BMatC= 7.70D-04 BMatP= 9.56D-03
 IDIUse=3 WtCom= 9.92D-01 WtEn= 8.42D-03
 Coeff-Com: -0.101D-02 0.150D-01 0.125D+00 0.333D+00 0.528D+00
 Coeff-En:   0.000D+00 0.000D+00 0.000D+00 0.000D+00 0.100D+01
 Coeff:     -0.100D-02 0.149D-01 0.124D+00 0.330D+00 0.532D+00
 Gap=     0.213 Goal=   None    Shift=    0.000
 RMSDP=9.71D-05 MaxDP=9.44D-03 DE=-7.76D-03 OVMax= 6.64D-03

 Cycle   6  Pass 1  IDiag  1:
 E= -1713.58617973746     Delta-E=       -0.000665840048 Rises=F Damp=F
 DIIS: error= 1.97D-04 at cycle   6 NSaved=   6.
 NSaved= 6 IEnMin= 6 EnMin= -1713.58617973746     IErMin= 6 ErrMin= 1.97D-04
 ErrMax= 1.97D-04  0.00D+00 EMaxC= 1.00D-01 BMatC= 3.48D-05 BMatP= 7.70D-04
 IDIUse=3 WtCom= 9.98D-01 WtEn= 1.97D-03
 Coeff-Com: -0.855D-03 0.209D-02 0.389D-01 0.115D+00 0.256D+00 0.589D+00
 Coeff-En:   0.000D+00 0.000D+00 0.000D+00 0.000D+00 0.000D+00 0.100D+01
 Coeff:     -0.853D-03 0.209D-02 0.389D-01 0.115D+00 0.255D+00 0.590D+00
 Gap=     0.212 Goal=   None    Shift=    0.000
 RMSDP=2.20D-05 MaxDP=1.30D-03 DE=-6.66D-04 OVMax= 1.68D-03

 Cycle   7  Pass 1  IDiag  1:
 E= -1713.58620685745     Delta-E=       -0.000027119984 Rises=F Damp=F
 DIIS: error= 7.39D-05 at cycle   7 NSaved=   7.
 NSaved= 7 IEnMin= 7 EnMin= -1713.58620685745     IErMin= 7 ErrMin= 7.39D-05
 ErrMax= 7.39D-05  0.00D+00 EMaxC= 1.00D-01 BMatC= 4.45D-06 BMatP= 3.48D-05
 IDIUse=1 WtCom= 1.00D+00 WtEn= 0.00D+00
 Coeff-Com: -0.405D-03-0.976D-04 0.114D-01 0.367D-01 0.101D+00 0.333D+00
 Coeff-Com:  0.518D+00
 Coeff:     -0.405D-03-0.976D-04 0.114D-01 0.367D-01 0.101D+00 0.333D+00
 Coeff:      0.518D+00
 Gap=     0.212 Goal=   None    Shift=    0.000
 RMSDP=7.35D-06 MaxDP=3.93D-04 DE=-2.71D-05 OVMax= 5.34D-04

 Cycle   8  Pass 1  IDiag  1:
 E= -1713.58621064844     Delta-E=       -0.000003790987 Rises=F Damp=F
 DIIS: error= 2.44D-05 at cycle   8 NSaved=   8.
 NSaved= 8 IEnMin= 8 EnMin= -1713.58621064844     IErMin= 8 ErrMin= 2.44D-05
 ErrMax= 2.44D-05  0.00D+00 EMaxC= 1.00D-01 BMatC= 2.55D-07 BMatP= 4.45D-06
 IDIUse=1 WtCom= 1.00D+00 WtEn= 0.00D+00
 Coeff-Com: -0.114D-03-0.249D-03 0.151D-02 0.587D-02 0.235D-01 0.102D+00
 Coeff-Com:  0.248D+00 0.619D+00
 Coeff:     -0.114D-03-0.249D-03 0.151D-02 0.587D-02 0.235D-01 0.102D+00
 Coeff:      0.248D+00 0.619D+00
 Gap=     0.212 Goal=   None    Shift=    0.000
 RMSDP=1.73D-06 MaxDP=1.18D-04 DE=-3.79D-06 OVMax= 1.10D-04

 Cycle   9  Pass 1  IDiag  1:
 E= -1713.58621083040     Delta-E=       -0.000000181961 Rises=F Damp=F
 DIIS: error= 7.92D-06 at cycle   9 NSaved=   9.
 NSaved= 9 IEnMin= 9 EnMin= -1713.58621083040     IErMin= 9 ErrMin= 7.92D-06
 ErrMax= 7.92D-06  0.00D+00 EMaxC= 1.00D-01 BMatC= 3.65D-08 BMatP= 2.55D-07
 IDIUse=1 WtCom= 1.00D+00 WtEn= 0.00D+00
 Coeff-Com: -0.212D-04-0.102D-03-0.385D-03-0.726D-03 0.187D-02 0.180D-01
 Coeff-Com:  0.771D-01 0.335D+00 0.569D+00
 Coeff:     -0.212D-04-0.102D-03-0.385D-03-0.726D-03 0.187D-02 0.180D-01
 Coeff:      0.771D-01 0.335D+00 0.569D+00
 Gap=     0.212 Goal=   None    Shift=    0.000
 RMSDP=5.70D-07 MaxDP=3.53D-05 DE=-1.82D-07 OVMax= 2.95D-05

 Cycle  10  Pass 1  IDiag  1:
 E= -1713.58621086069     Delta-E=       -0.000000030296 Rises=F Damp=F
 DIIS: error= 1.60D-06 at cycle  10 NSaved=  10.
 NSaved=10 IEnMin=10 EnMin= -1713.58621086069     IErMin=10 ErrMin= 1.60D-06
 ErrMax= 1.60D-06  0.00D+00 EMaxC= 1.00D-01 BMatC= 1.37D-09 BMatP= 3.65D-08
 IDIUse=1 WtCom= 1.00D+00 WtEn= 0.00D+00
 Coeff-Com: -0.715D-05-0.274D-04-0.258D-03-0.612D-03-0.227D-03 0.337D-02
 Coeff-Com:  0.244D-01 0.124D+00 0.254D+00 0.595D+00
 Coeff:     -0.715D-05-0.274D-04-0.258D-03-0.612D-03-0.227D-03 0.337D-02
 Coeff:      0.244D-01 0.124D+00 0.254D+00 0.595D+00
 Gap=     0.212 Goal=   None    Shift=    0.000
 RMSDP=1.41D-07 MaxDP=8.44D-06 DE=-3.03D-08 OVMax= 1.14D-05

 Cycle  11  Pass 1  IDiag  1:
 E= -1713.58621086146     Delta-E=       -0.000000000771 Rises=F Damp=F
 DIIS: error= 9.24D-07 at cycle  11 NSaved=  11.
 NSaved=11 IEnMin=11 EnMin= -1713.58621086146     IErMin=11 ErrMin= 9.24D-07
 ErrMax= 9.24D-07  0.00D+00 EMaxC= 1.00D-01 BMatC= 4.95D-10 BMatP= 1.37D-09
 IDIUse=1 WtCom= 1.00D+00 WtEn= 0.00D+00
 Coeff-Com: -0.269D-05-0.929D-06-0.124D-03-0.313D-03-0.472D-03-0.623D-03
 Coeff-Com:  0.450D-02 0.316D-01 0.809D-01 0.393D+00 0.491D+00
 Coeff:     -0.269D-05-0.929D-06-0.124D-03-0.313D-03-0.472D-03-0.623D-03
 Coeff:      0.450D-02 0.316D-01 0.809D-01 0.393D+00 0.491D+00
 Gap=     0.212 Goal=   None    Shift=    0.000
 RMSDP=6.15D-08 MaxDP=3.79D-06 DE=-7.71D-10 OVMax= 5.22D-06

 Cycle  12  Pass 1  IDiag  1:
 E= -1713.58621086184     Delta-E=       -0.000000000374 Rises=F Damp=F
 DIIS: error= 1.82D-07 at cycle  12 NSaved=  12.
 NSaved=12 IEnMin=12 EnMin= -1713.58621086184     IErMin=12 ErrMin= 1.82D-07
 ErrMax= 1.82D-07  0.00D+00 EMaxC= 1.00D-01 BMatC= 2.63D-11 BMatP= 4.95D-10
 IDIUse=1 WtCom= 1.00D+00 WtEn= 0.00D+00
 Coeff-Com: -0.117D-05 0.310D-05-0.407D-04-0.101D-03-0.232D-03-0.719D-03
 Coeff-Com: -0.248D-03 0.292D-02 0.142D-01 0.139D+00 0.250D+00 0.595D+00
 Coeff:     -0.117D-05 0.310D-05-0.407D-04-0.101D-03-0.232D-03-0.719D-03
 Coeff:     -0.248D-03 0.292D-02 0.142D-01 0.139D+00 0.250D+00 0.595D+00
 Gap=     0.212 Goal=   None    Shift=    0.000
 RMSDP=1.68D-08 MaxDP=7.33D-07 DE=-3.74D-10 OVMax= 9.82D-07

 Cycle  13  Pass 1  IDiag  1:
 E= -1713.58621086182     Delta-E=        0.000000000014 Rises=F Damp=F
 DIIS: error= 5.08D-08 at cycle  13 NSaved=  13.
 NSaved=13 IEnMin=12 EnMin= -1713.58621086184     IErMin=13 ErrMin= 5.08D-08
 ErrMax= 5.08D-08  0.00D+00 EMaxC= 1.00D-01 BMatC= 1.50D-12 BMatP= 2.63D-11
 IDIUse=1 WtCom= 1.00D+00 WtEn= 0.00D+00
 Coeff-Com: -0.407D-06 0.172D-05-0.875D-05-0.208D-04-0.674D-04-0.274D-03
 Coeff-Com: -0.446D-03-0.130D-02-0.351D-03 0.273D-01 0.667D-01 0.261D+00
 Coeff-Com:  0.648D+00
 Coeff:     -0.407D-06 0.172D-05-0.875D-05-0.208D-04-0.674D-04-0.274D-03
 Coeff:     -0.446D-03-0.130D-02-0.351D-03 0.273D-01 0.667D-01 0.261D+00
 Coeff:      0.648D+00
 Gap=     0.212 Goal=   None    Shift=    0.000
 RMSDP=4.38D-09 MaxDP=1.65D-07 DE= 1.36D-11 OVMax= 2.04D-07

 Error on total polarization charges =  0.02045
 SCF Done:  E(RB3LYP) =  -1713.58621086     A.U. after   13 cycles
            NFock= 13  Conv=0.44D-08     -V/T= 2.0068
 KE= 1.702004387747D+03 PE=-8.401608924447D+03 EE= 2.811011990053D+03
 Leave Link  502 at Thu Sep 24 01:24:21 2020, MaxMem=  2147483648 cpu:             439.8 elap:             110.1
 (Enter /prod/apps/gaussian/g16b1/l601.exe)
 Copying SCF densities to generalized density rwf, IOpCl= 0 IROHF=0.

 **********************************************************************

            Population analysis using the SCF Density.

 **********************************************************************

 Alpha  occ. eigenvalues --  -89.08694 -89.08393 -19.14341 -19.14244 -19.11240
 Alpha  occ. eigenvalues --  -19.10892 -14.34008 -14.28584 -10.24641 -10.21225
 Alpha  occ. eigenvalues --  -10.20655 -10.20082 -10.20049 -10.19625 -10.18936
 Alpha  occ. eigenvalues --  -10.18923 -10.18767 -10.18758 -10.18668 -10.18650
 Alpha  occ. eigenvalues --  -10.18276  -8.11484  -8.10884  -6.07946  -6.07833
 Alpha  occ. eigenvalues --   -6.07713  -6.07387  -6.07353  -6.07217  -1.09216
 Alpha  occ. eigenvalues --   -1.07622  -0.98970  -0.95852  -0.90371  -0.89163
 Alpha  occ. eigenvalues --   -0.85374  -0.81741  -0.78282  -0.74176  -0.72933
 Alpha  occ. eigenvalues --   -0.70339  -0.70158  -0.67475  -0.64737  -0.60932
 Alpha  occ. eigenvalues --   -0.59994  -0.57617  -0.56933  -0.53227  -0.50897
 Alpha  occ. eigenvalues --   -0.50495  -0.49003  -0.48160  -0.48006  -0.45835
 Alpha  occ. eigenvalues --   -0.45593  -0.45366  -0.44767  -0.43952  -0.43610
 Alpha  occ. eigenvalues --   -0.43001  -0.42317  -0.41588  -0.40988  -0.40394
 Alpha  occ. eigenvalues --   -0.39719  -0.39043  -0.38690  -0.38484  -0.36374
 Alpha  occ. eigenvalues --   -0.35746  -0.35374  -0.34559  -0.33283  -0.32797
 Alpha  occ. eigenvalues --   -0.32072  -0.31592  -0.31226  -0.30797  -0.29711
 Alpha  occ. eigenvalues --   -0.29335  -0.28101  -0.27475  -0.25079  -0.24555
 Alpha  occ. eigenvalues --   -0.23718  -0.23028  -0.21616
 Alpha virt. eigenvalues --   -0.00396  -0.00087   0.05541   0.05810   0.06633
 Alpha virt. eigenvalues --    0.07498   0.08992   0.09979   0.10181   0.11025
 Alpha virt. eigenvalues --    0.11396   0.12977   0.13740   0.14131   0.14620
 Alpha virt. eigenvalues --    0.15122   0.15598   0.16045   0.16420   0.17108
 Alpha virt. eigenvalues --    0.17226   0.17784   0.18248   0.18699   0.19040
 Alpha virt. eigenvalues --    0.19691   0.20707   0.21156   0.21607   0.21844
 Alpha virt. eigenvalues --    0.22315   0.23679   0.24249   0.24843   0.26308
 Alpha virt. eigenvalues --    0.27079   0.30503   0.30818   0.30916   0.32912
 Alpha virt. eigenvalues --    0.34236   0.34729   0.35727   0.36931   0.37654
 Alpha virt. eigenvalues --    0.41398   0.44219   0.45223   0.45934   0.47776
 Alpha virt. eigenvalues --    0.48066   0.50490   0.51596   0.52375   0.53157
 Alpha virt. eigenvalues --    0.54159   0.54388   0.54710   0.55617   0.56787
 Alpha virt. eigenvalues --    0.57446   0.57915   0.57942   0.58865   0.59640
 Alpha virt. eigenvalues --    0.60397   0.61018   0.61264   0.61835   0.62621
 Alpha virt. eigenvalues --    0.62957   0.63681   0.65138   0.65626   0.67994
 Alpha virt. eigenvalues --    0.69015   0.70475   0.71619   0.72143   0.73497
 Alpha virt. eigenvalues --    0.75067   0.76004   0.77182   0.78130   0.79242
 Alpha virt. eigenvalues --    0.79564   0.80095   0.80886   0.81486   0.82196
 Alpha virt. eigenvalues --    0.83099   0.83781   0.84172   0.84509   0.85515
 Alpha virt. eigenvalues --    0.86209   0.86756   0.87126   0.89185   0.89269
 Alpha virt. eigenvalues --    0.89590   0.89757   0.90807   0.91597   0.92127
 Alpha virt. eigenvalues --    0.92816   0.94252   0.94824   0.95088   0.95545
 Alpha virt. eigenvalues --    0.96389   0.97157   0.97591   0.99201   0.99641
 Alpha virt. eigenvalues --    1.00739   1.01450   1.02055   1.02350   1.03315
 Alpha virt. eigenvalues --    1.05343   1.05555   1.06224   1.07366   1.09275
 Alpha virt. eigenvalues --    1.11073   1.11507   1.12127   1.12670   1.13529
 Alpha virt. eigenvalues --    1.14376   1.16489   1.16671   1.17951   1.19205
 Alpha virt. eigenvalues --    1.19817   1.20653   1.21795   1.23930   1.25026
 Alpha virt. eigenvalues --    1.25775   1.28648   1.29423   1.32485   1.34795
 Alpha virt. eigenvalues --    1.37609   1.38652   1.41232   1.43667   1.44322
 Alpha virt. eigenvalues --    1.45773   1.47496   1.47602   1.48353   1.49522
 Alpha virt. eigenvalues --    1.51409   1.51598   1.54256   1.57436   1.59905
 Alpha virt. eigenvalues --    1.62252   1.66573   1.68526   1.72324   1.72819
 Alpha virt. eigenvalues --    1.73362   1.75805   1.77198   1.78235   1.79389
 Alpha virt. eigenvalues --    1.79926   1.80520   1.80589   1.81502   1.81786
 Alpha virt. eigenvalues --    1.83239   1.83677   1.84900   1.85074   1.86594
 Alpha virt. eigenvalues --    1.87483   1.88273   1.89898   1.90356   1.91478
 Alpha virt. eigenvalues --    1.92600   1.94236   1.95097   1.95505   1.96844
 Alpha virt. eigenvalues --    1.98017   1.98476   2.00516   2.01846   2.02724
 Alpha virt. eigenvalues --    2.03284   2.04307   2.05652   2.07102   2.07624
 Alpha virt. eigenvalues --    2.09951   2.11053   2.11603   2.12291   2.13672
 Alpha virt. eigenvalues --    2.14402   2.15448   2.15788   2.16406   2.18519
 Alpha virt. eigenvalues --    2.18991   2.21558   2.22635   2.22897   2.24076
 Alpha virt. eigenvalues --    2.26565   2.28641   2.29011   2.31282   2.31334
 Alpha virt. eigenvalues --    2.32508   2.34003   2.35999   2.37269   2.39411
 Alpha virt. eigenvalues --    2.41080   2.44348   2.46437   2.47002   2.51398
 Alpha virt. eigenvalues --    2.53278   2.58176   2.58884   2.59603   2.64340
 Alpha virt. eigenvalues --    2.66398   2.67589   2.71486   2.72592   2.73300
 Alpha virt. eigenvalues --    2.74393   2.74515   2.76326   2.76943   2.78902
 Alpha virt. eigenvalues --    2.81203   2.82280   2.84824   2.89141   2.94986
 Alpha virt. eigenvalues --    3.05889   3.40548   3.79151   3.90895   3.92811
 Alpha virt. eigenvalues --    3.95862   4.03495   4.05784   4.07658   4.09390
 Alpha virt. eigenvalues --    4.11251   4.12570   4.18505   4.22081   4.26621
 Alpha virt. eigenvalues --    4.27257   4.33288   4.35132   4.36641   4.44349
 Alpha virt. eigenvalues --    4.52445   4.69634   4.77795
          Condensed to atoms (all electrons):
               1          2          3          4          5          6
     1  O    8.387942   0.436478  -0.073276   0.002739  -0.000069  -0.000034
     2  S    0.436478  13.587832   0.317969   0.001892  -0.000471   0.002376
     3  N   -0.073276   0.317969   7.505742   0.231305  -0.076972   0.021422
     4  C    0.002739   0.001892   0.231305   4.837948   0.346328  -0.109995
     5  C   -0.000069  -0.000471  -0.076972   0.346328   5.742558   0.130865
     6  S   -0.000034   0.002376   0.021422  -0.109995   0.130865  13.922539
     7  C   -0.000112  -0.011664  -0.065479   0.324948  -0.191348   0.148209
     8  O   -0.000002   0.000392  -0.000849  -0.000091  -0.044078   0.412399
     9  O   -0.000000  -0.000001  -0.000043   0.002660  -0.046277   0.414756
    10  C   -0.000148  -0.011479  -0.041072   0.376003  -0.043605   0.004620
    11  C    0.000000   0.000159   0.003859  -0.028717  -0.006175  -0.000480
    12  C    0.000000  -0.000025  -0.000018  -0.002436  -0.000422   0.000128
    13  C   -0.000000   0.000001  -0.000002   0.000802  -0.000062   0.000477
    14  C   -0.000000  -0.000000  -0.000000  -0.000001   0.000001  -0.000022
    15  C    0.000000   0.000000   0.000000   0.000002  -0.000000   0.000002
    16  C   -0.000000  -0.000001   0.000000  -0.000023   0.000000  -0.000005
    17  C   -0.000000  -0.000060  -0.000005  -0.000697   0.000010   0.000034
    18  N   -0.066472   0.091261  -0.051092  -0.006152  -0.000158   0.000046
    19  C    0.000355  -0.012701  -0.012687   0.000693   0.000031  -0.000003
    20  C   -0.003051  -0.009348   0.002315   0.000006   0.000002  -0.000001
    21  O   -0.051366   0.366250  -0.059019   0.003165   0.000039  -0.000039
    22  H    0.000000   0.000016   0.003916  -0.025449   0.323652  -0.004322
    23  H   -0.000022   0.000486   0.005966  -0.022808   0.330329  -0.007022
    24  H   -0.000002   0.000227   0.003943  -0.019233   0.005670  -0.005327
    25  H   -0.000367   0.000945  -0.005944  -0.021374   0.008424  -0.008824
    26  H    0.000030   0.008315  -0.007383  -0.034154   0.005056  -0.000096
    27  H    0.000000  -0.000299   0.001099  -0.038178  -0.007820  -0.000014
    28  H   -0.000000  -0.000013  -0.000102   0.004119   0.000052   0.000029
    29  H   -0.000000   0.000003   0.000033  -0.007351   0.002113  -0.000587
    30  H    0.000000  -0.000000   0.000000   0.000014  -0.000129   0.001007
    31  H    0.000000  -0.000000   0.000000   0.000000   0.000000  -0.000002
    32  H    0.000000   0.000000  -0.000000  -0.000000   0.000000   0.000000
    33  H   -0.000000  -0.000000   0.000000   0.000000   0.000000   0.000000
    34  H    0.000000  -0.000002   0.000004   0.000118   0.000001   0.000001
    35  H   -0.001764  -0.000626   0.018844  -0.000360  -0.000077   0.000001
    36  H    0.000012   0.002600  -0.000022   0.000010  -0.000001   0.000000
    37  H    0.008106  -0.006226  -0.000235  -0.000063  -0.000001   0.000000
    38  H   -0.000520  -0.002015   0.000099   0.000019   0.000000   0.000000
    39  H    0.007131  -0.005012  -0.000043  -0.000013  -0.000000   0.000000
    40  H   -0.000088   0.001562  -0.000092   0.000000  -0.000000   0.000000
               7          8          9         10         11         12
     1  O   -0.000112  -0.000002  -0.000000  -0.000148   0.000000   0.000000
     2  S   -0.011664   0.000392  -0.000001  -0.011479   0.000159  -0.000025
     3  N   -0.065479  -0.000849  -0.000043  -0.041072   0.003859  -0.000018
     4  C    0.324948  -0.000091   0.002660   0.376003  -0.028717  -0.002436
     5  C   -0.191348  -0.044078  -0.046277  -0.043605  -0.006175  -0.000422
     6  S    0.148209   0.412399   0.414756   0.004620  -0.000480   0.000128
     7  C    5.769210  -0.043703  -0.045911  -0.043967  -0.000544  -0.003118
     8  O   -0.043703   8.303054  -0.047343  -0.000092  -0.000001   0.000000
     9  O   -0.045911  -0.047343   8.302729  -0.000211   0.000030  -0.000073
    10  C   -0.043967  -0.000092  -0.000211   5.124718   0.309786  -0.032998
    11  C   -0.000544  -0.000001   0.000030   0.309786   5.207115   0.353557
    12  C   -0.003118   0.000000  -0.000073  -0.032998   0.353557   4.669292
    13  C   -0.005772  -0.000000  -0.000342   0.000757  -0.050989   0.539853
    14  C   -0.000340  -0.000000  -0.000003  -0.000159   0.006915  -0.023842
    15  C    0.000043   0.000000   0.000000   0.000002   0.000297  -0.034548
    16  C    0.000144  -0.000000  -0.000000   0.000235   0.005932  -0.019776
    17  C    0.000274  -0.000000   0.000000  -0.004394  -0.064846   0.535703
    18  N   -0.000435  -0.000000  -0.000000   0.002992   0.000225   0.000004
    19  C   -0.000022  -0.000000  -0.000000  -0.000555  -0.000019   0.000000
    20  C    0.000016   0.000000   0.000000   0.000035   0.000001  -0.000000
    21  O   -0.002693   0.000000  -0.000000  -0.004578  -0.000033  -0.000002
    22  H    0.005972   0.001149   0.000824  -0.006133   0.000949   0.000153
    23  H    0.010148  -0.000551   0.000701   0.000956   0.000098   0.000001
    24  H    0.305671   0.001132   0.000632  -0.005899  -0.002211   0.007590
    25  H    0.336591  -0.000391   0.000627   0.001452   0.000022  -0.000004
    26  H   -0.005364   0.000001   0.000002   0.365333  -0.040148  -0.007198
    27  H    0.006192   0.000001   0.000002   0.359472  -0.029533   0.004032
    28  H   -0.000106  -0.000000  -0.000000  -0.031002   0.359179  -0.029605
    29  H    0.000083   0.000001  -0.000036  -0.036877   0.360099  -0.036257
    30  H   -0.000337   0.000001   0.001250   0.000163  -0.010394  -0.042604
    31  H   -0.000005  -0.000000  -0.000001   0.000001  -0.000164   0.003698
    32  H    0.000000   0.000000   0.000000   0.000000   0.000007   0.000615
    33  H   -0.000000  -0.000000  -0.000000   0.000001  -0.000167   0.003546
    34  H   -0.000033   0.000000   0.000000   0.000968  -0.008332  -0.045557
    35  H    0.000059   0.000000   0.000000  -0.000247   0.000006  -0.000000
    36  H    0.000000  -0.000000  -0.000000   0.000025  -0.000002  -0.000000
    37  H   -0.000000  -0.000000   0.000000   0.000030   0.000000   0.000000
    38  H   -0.000001   0.000000   0.000000  -0.000020  -0.000001   0.000000
    39  H   -0.000000  -0.000000   0.000000   0.000001   0.000000   0.000000
    40  H   -0.000000  -0.000000  -0.000000   0.000001  -0.000001   0.000000
              13         14         15         16         17         18
     1  O   -0.000000  -0.000000   0.000000  -0.000000  -0.000000  -0.066472
     2  S    0.000001  -0.000000   0.000000  -0.000001  -0.000060   0.091261
     3  N   -0.000002  -0.000000   0.000000   0.000000  -0.000005  -0.051092
     4  C    0.000802  -0.000001   0.000002  -0.000023  -0.000697  -0.006152
     5  C   -0.000062   0.000001  -0.000000   0.000000   0.000010  -0.000158
     6  S    0.000477  -0.000022   0.000002  -0.000005   0.000034   0.000046
     7  C   -0.005772  -0.000340   0.000043   0.000144   0.000274  -0.000435
     8  O   -0.000000  -0.000000   0.000000  -0.000000  -0.000000  -0.000000
     9  O   -0.000342  -0.000003   0.000000  -0.000000   0.000000  -0.000000
    10  C    0.000757  -0.000159   0.000002   0.000235  -0.004394   0.002992
    11  C   -0.050989   0.006915   0.000297   0.005932  -0.064846   0.000225
    12  C    0.539853  -0.023842  -0.034548  -0.019776   0.535703   0.000004
    13  C    5.004879   0.510394  -0.037626  -0.045956  -0.043648   0.000000
    14  C    0.510394   4.903699   0.545845  -0.029297  -0.046575  -0.000000
    15  C   -0.037626   0.545845   4.887811   0.541383  -0.037516   0.000000
    16  C   -0.045956  -0.029297   0.541383   4.894588   0.521445  -0.000000
    17  C   -0.043648  -0.046575  -0.037516   0.521445   5.002476  -0.000012
    18  N    0.000000  -0.000000   0.000000  -0.000000  -0.000012   7.295940
    19  C    0.000000   0.000000  -0.000000   0.000000   0.000000   0.283295
    20  C   -0.000000  -0.000000   0.000000   0.000000  -0.000000   0.277048
    21  O   -0.000000   0.000000   0.000000  -0.000002   0.000017  -0.050839
    22  H   -0.000016   0.000000   0.000000  -0.000000   0.000003   0.000003
    23  H   -0.000000   0.000000   0.000000  -0.000000   0.000000  -0.000004
    24  H    0.010118   0.000849  -0.000088  -0.000356  -0.000190   0.000007
    25  H    0.000044   0.000003  -0.000003  -0.000004   0.000007   0.000069
    26  H    0.000193   0.000001  -0.000002  -0.000114   0.004160   0.005805
    27  H   -0.000107   0.000002   0.000000   0.000001   0.000181   0.000022
    28  H    0.001719  -0.000248   0.000036  -0.000042  -0.005682   0.000007
    29  H   -0.004592   0.000245  -0.000004  -0.000162   0.004923  -0.000003
    30  H    0.356236  -0.045607   0.004764   0.000241   0.006341  -0.000000
    31  H   -0.038479   0.360617  -0.042396   0.004522   0.000697  -0.000000
    32  H    0.004575  -0.042243   0.362935  -0.041965   0.004586   0.000000
    33  H    0.000732   0.004529  -0.042263   0.361088  -0.039232  -0.000000
    34  H    0.005937   0.000286   0.004676  -0.043518   0.358911  -0.000006
    35  H   -0.000000   0.000000  -0.000000   0.000000   0.000000  -0.036319
    36  H   -0.000000   0.000000  -0.000000   0.000000   0.000000  -0.035864
    37  H    0.000000  -0.000000   0.000000  -0.000000  -0.000000  -0.048702
    38  H    0.000000  -0.000000   0.000000  -0.000000  -0.000000  -0.035318
    39  H    0.000000  -0.000000  -0.000000  -0.000000  -0.000000  -0.048098
    40  H    0.000000  -0.000000   0.000000   0.000000   0.000000  -0.035838
              19         20         21         22         23         24
     1  O    0.000355  -0.003051  -0.051366   0.000000  -0.000022  -0.000002
     2  S   -0.012701  -0.009348   0.366250   0.000016   0.000486   0.000227
     3  N   -0.012687   0.002315  -0.059019   0.003916   0.005966   0.003943
     4  C    0.000693   0.000006   0.003165  -0.025449  -0.022808  -0.019233
     5  C    0.000031   0.000002   0.000039   0.323652   0.330329   0.005670
     6  S   -0.000003  -0.000001  -0.000039  -0.004322  -0.007022  -0.005327
     7  C   -0.000022   0.000016  -0.002693   0.005972   0.010148   0.305671
     8  O   -0.000000   0.000000   0.000000   0.001149  -0.000551   0.001132
     9  O   -0.000000   0.000000  -0.000000   0.000824   0.000701   0.000632
[...]
     8  O   -0.000004   0.000326  -0.000232   0.000411   0.000423  -0.002365
     9  O   -0.012431   0.002913  -0.000120   0.000634   0.003651   0.000362
    10  C   -0.531757   0.384755  -0.294613  -0.269995  -1.909774  -0.228555
    11  C   -0.870431  -0.543137   0.161600   0.429237   0.215269   0.112248
    12  C   -7.280926   4.005032  -4.649154   3.586144  -9.177706  -0.059009
    13  C   18.126388  -5.513114   4.251275  -4.911259   3.146115   0.020800
    14  C   -5.513114  11.850510  -4.223110   4.494630  -4.473588   0.000850
    15  C    4.251275  -4.223110  10.334223  -4.299925   4.289793  -0.004880
    16  C   -4.911259   4.494630  -4.299925  13.001879  -5.991370  -0.022183
    17  C    3.146115  -4.473588   4.289793  -5.991370  20.301657   0.020716
    18  N    0.020800   0.000850  -0.004880  -0.022183   0.020716   8.761498
    19  C   -0.010268   0.002030  -0.003075   0.000017   0.011188   0.198029
    20  C    0.007896  -0.003007   0.000167  -0.001318  -0.008405   0.177272
    21  O   -0.007093   0.003166  -0.005151  -0.003648   0.011803   0.063509
    22  H   -0.012558   0.007053  -0.002082  -0.002020  -0.034684  -0.003393
    23  H   -0.011306  -0.002238  -0.000897   0.004006  -0.002058  -0.001639
    24  H    0.017440  -0.045624   0.058279  -0.049607   0.043056   0.030536
    25  H   -0.059988   0.006944  -0.015806   0.018947  -0.116967  -0.020400
    26  H   -0.067936  -0.043128   0.071697  -0.039285  -0.017936  -0.278508
    27  H    0.049117   0.005263   0.002918  -0.028422   0.006630   0.019541
    28  H    0.072544  -0.044974   0.007862   0.052791  -0.018878  -0.000791
    29  H   -0.070647   0.079952  -0.002514  -0.010255  -0.031269   0.009351
    30  H   -1.580858   0.508311  -0.196699   0.130665  -0.107886  -0.000304
    31  H    0.593835  -0.818270   0.368596  -0.243575   0.125172  -0.000057
    32  H   -0.080042   0.403921  -0.796756   0.413479  -0.100185   0.000092
    33  H    0.111939  -0.253352   0.375793  -0.941898   0.606670  -0.002065
    34  H   -0.172482   0.134445  -0.179720   0.482545  -1.245180   0.022727
    35  H    0.000834   0.000116  -0.000145   0.000354   0.000326  -0.088244
    36  H   -0.001289   0.000321  -0.000222   0.001859   0.004509  -0.127812
    37  H   -0.000590   0.000132  -0.000229  -0.000465   0.000005   0.068464
    38  H    0.000423  -0.001256   0.001263  -0.002148   0.004732  -0.074124
    39  H    0.000674  -0.000249   0.000457   0.000888  -0.000677   0.179069
    40  H    0.000640  -0.000189  -0.000247  -0.000645  -0.003790  -0.273923
              19         20         21         22         23         24
     1  O    0.111584  -0.025899   0.036547  -0.000983  -0.003876   0.008105
     2  S   -0.354065  -0.003056  -0.531098   0.043662  -0.019518  -0.078092
     3  N    0.094803  -0.039341   0.100863   0.167078  -0.077019   0.055890
     4  C   -0.064332  -0.013496  -0.049520  -0.147457  -0.009547  -0.061412
     5  C   -0.046350  -0.008495  -0.073261   0.149605   0.246818  -0.285323
     6  S   -0.003973  -0.000329   0.006499  -0.054529   0.040829  -0.083072
     7  C    0.003312  -0.007399  -0.104796  -0.004815   0.087715   0.237517
     8  O   -0.000656  -0.000215   0.003040   0.004143  -0.005637  -0.004725
     9  O    0.000005   0.000009  -0.001471   0.023269  -0.002859   0.007766
    10  C    0.087472  -0.070424   0.117088  -0.070823   0.066477  -0.085968
    11  C   -0.052150  -0.007377  -0.014276   0.038592  -0.042560   0.053951
    12  C    0.000591   0.006150   0.005437   0.001844   0.009843  -0.152364
    13  C   -0.010268   0.007896  -0.007093  -0.012558  -0.011306   0.017440
    14  C    0.002030  -0.003007   0.003166   0.007053  -0.002238  -0.045624
    15  C   -0.003075   0.000167  -0.005151  -0.002082  -0.000897   0.058279
    16  C    0.000017  -0.001318  -0.003648  -0.002020   0.004006  -0.049607
    17  C    0.011188  -0.008405   0.011803  -0.034684  -0.002058   0.043056
    18  N    0.198029   0.177272   0.063509  -0.003393  -0.001639   0.030536
    19  C    4.436735  -0.239017   0.031628  -0.001280  -0.000147   0.005646
    20  C   -0.239017   4.451093  -0.006720   0.002964  -0.002953  -0.002591
    21  O    0.031628  -0.006720   9.595667  -0.001260  -0.002303   0.018078
    22  H   -0.001280   0.002964  -0.001260   1.447386  -0.236010  -0.023806
    23  H   -0.000147  -0.002953  -0.002303  -0.236010   1.218345   0.000508
    24  H    0.005646  -0.002591   0.018078  -0.023806   0.000508   1.757776
    25  H   -0.008334   0.003696   0.006356   0.016903   0.010645  -0.289828
    26  H    0.007105  -0.042626   0.114208   0.012324   0.032637   0.051956
    27  H    0.008537  -0.015734   0.000288  -0.028786  -0.010600   0.025375
    28  H   -0.007110   0.007443  -0.001646   0.012557  -0.000824   0.001576
    29  H    0.006289  -0.005346   0.001635  -0.047093   0.005265   0.038093
    30  H   -0.000554   0.000414  -0.000551  -0.001766   0.001592   0.007504
    31  H    0.000070  -0.000107   0.000038   0.000361   0.000005   0.011515
    32  H   -0.000100   0.000066  -0.000143  -0.000137  -0.000040  -0.006711
    33  H   -0.000438   0.000482  -0.000931  -0.000208   0.000171   0.008517
    34  H    0.017045  -0.012902   0.014505  -0.000848  -0.002747   0.043345
    35  H    0.450029  -0.066224   0.004856   0.000463  -0.005867  -0.000300
    36  H    0.348180  -0.039961   0.000132  -0.000518   0.000276   0.000456
    37  H    0.224265   0.099959  -0.002179   0.000042   0.001628   0.000265
    38  H   -0.101936   0.421207  -0.010370   0.000366   0.000226  -0.004918
    39  H    0.089132   0.183439   0.008998  -0.000030  -0.000035   0.000273
    40  H    0.007087   0.418311  -0.006205   0.000618  -0.000587  -0.000228
              25         26         27         28         29         30
     1  O   -0.023248   0.027592   0.002070  -0.000974   0.002105  -0.000020
     2  S    0.264936  -0.320457  -0.046325   0.022734  -0.041089  -0.002314
     3  N   -0.002561   0.182479   0.025179  -0.015577  -0.012333  -0.001351
     4  C   -0.235444  -0.971203  -0.351054   0.295628   0.035399  -0.053449
     5  C    0.154559   0.274728  -0.057116   0.002267  -0.094911   0.013696
     6  S   -0.042601   0.184518  -0.025435   0.005000  -0.014340  -0.003752
     7  C    0.192998  -0.079550   0.169606   0.002971  -0.076041   0.030727
     8  O    0.017336  -0.015287   0.005284  -0.000729   0.002575   0.001235
     9  O    0.005714  -0.018502   0.002203   0.000563  -0.004555   0.003149
    10  C    0.048615  -0.392695  -0.179567  -0.206705  -0.025085   0.108192
    11  C   -0.087362  -0.172973   0.331864   0.167799  -0.349914   0.046008
    12  C    0.117850  -0.177507  -0.076508  -0.116062   0.231030   0.716473
    13  C   -0.059988  -0.067936   0.049117   0.072544  -0.070647  -1.580858
    14  C    0.006944  -0.043128   0.005263  -0.044974   0.079952   0.508311
    15  C   -0.015806   0.071697   0.002918   0.007862  -0.002514  -0.196699
    16  C    0.018947  -0.039285  -0.028422   0.052791  -0.010255   0.130665
    17  C   -0.116967  -0.017936   0.006630  -0.018878  -0.031269  -0.107886
    18  N   -0.020400  -0.278508   0.019541  -0.000791   0.009351  -0.000304
    19  C   -0.008334   0.007105   0.008537  -0.007110   0.006289  -0.000554
    20  C    0.003696  -0.042626  -0.015734   0.007443  -0.005346   0.000414
    21  O    0.006356   0.114208   0.000288  -0.001646   0.001635  -0.000551
    22  H    0.016903   0.012324  -0.028786   0.012557  -0.047093  -0.001766
    23  H    0.010645   0.032637  -0.010600  -0.000824   0.005265   0.001592
    24  H   -0.289828   0.051956   0.025375   0.001576   0.038093   0.007504
    25  H    1.432823  -0.020141   0.006282   0.000906  -0.015290   0.000561
    26  H   -0.020141   3.182774  -0.301980  -0.049354   0.071229  -0.010083
    27  H    0.006282  -0.301980   1.666368  -0.155054   0.015503   0.001985
    28  H    0.000906  -0.049354  -0.155054   1.449239  -0.365889   0.012668
    29  H   -0.015290   0.071229   0.015503  -0.365889   2.014281  -0.074866
    30  H    0.000561  -0.010083   0.001985   0.012668  -0.074866   2.311248
    31  H   -0.000158  -0.001535  -0.000620   0.000275   0.006991  -0.095527
    32  H   -0.000764  -0.002712   0.000269   0.000567  -0.000065  -0.016741
    33  H    0.000141   0.035045   0.000899  -0.002245  -0.001398   0.009785
    34  H   -0.008787  -0.096073   0.023445  -0.018520   0.031193  -0.021371
    35  H   -0.002241   0.016230  -0.007902   0.000938   0.001081  -0.000076
    36  H   -0.000505   0.018503  -0.002717  -0.000992   0.001154  -0.000071
    37  H    0.000676  -0.014141  -0.000983  -0.000089   0.000334  -0.000031
    38  H    0.004211   0.027531   0.002285   0.000713  -0.001096   0.000145
    39  H   -0.001890  -0.034874  -0.000327   0.000418   0.000054   0.000034
    40  H    0.001585   0.016202  -0.004552   0.001153  -0.001096  -0.000011
              31         32         33         34         35         36
     1  O   -0.000006  -0.000000  -0.000122   0.002981   0.039905  -0.004958
     2  S    0.000124  -0.000207  -0.000714   0.000724  -0.002076   0.010846
     3  N   -0.000011  -0.000059  -0.000432  -0.000231   0.030849   0.029191
     4  C    0.000307   0.001783  -0.006990   0.088820  -0.088303  -0.053320
     5  C    0.000846  -0.001101   0.003291  -0.055939  -0.034653  -0.004715
     6  S    0.001516   0.000026   0.000140  -0.021940  -0.010430   0.000299
     7  C   -0.000092  -0.000914  -0.002286   0.039750  -0.019427   0.002549
     8  O   -0.000144  -0.000005   0.000025   0.001354   0.000905  -0.000051
     9  O   -0.001069   0.000084  -0.000077   0.002121   0.000499  -0.000004
    10  C   -0.006577  -0.001616   0.033689  -0.128259   0.102048   0.044707
    11  C    0.016714   0.007377   0.012252  -0.086723   0.018880   0.010348
    12  C   -0.116676   0.077556  -0.040491   0.619063   0.013008  -0.003108
    13  C    0.593835  -0.080042   0.111939  -0.172482   0.000834  -0.001289
    14  C   -0.818270   0.403921  -0.253352   0.134445   0.000116   0.000321
    15  C    0.368596  -0.796756   0.375793  -0.179720  -0.000145  -0.000222
    16  C   -0.243575   0.413479  -0.941898   0.482545   0.000354   0.001859
    17  C    0.125172  -0.100185   0.606670  -1.245180   0.000326   0.004509
    18  N   -0.000057   0.000092  -0.002065   0.022727  -0.088244  -0.127812
    19  C    0.000070  -0.000100  -0.000438   0.017045   0.450029   0.348180
    20  C   -0.000107   0.000066   0.000482  -0.012902  -0.066224  -0.039961
    21  O    0.000038  -0.000143  -0.000931   0.014505   0.004856   0.000132
    22  H    0.000361  -0.000137  -0.000208  -0.000848   0.000463  -0.000518
    23  H    0.000005  -0.000040   0.000171  -0.002747  -0.005867   0.000276
    24  H    0.011515  -0.006711   0.008517   0.043345  -0.000300   0.000456
    25  H   -0.000158  -0.000764   0.000141  -0.008787  -0.002241  -0.000505
    26  H   -0.001535  -0.002712   0.035045  -0.096073   0.016230   0.018503
    27  H   -0.000620   0.000269   0.000899   0.023445  -0.007902  -0.002717
    28  H    0.000275   0.000567  -0.002245  -0.018520   0.000938  -0.000992
    29  H    0.006991  -0.000065  -0.001398   0.031193   0.001081   0.001154
    30  H   -0.095527  -0.016741   0.009785  -0.021371  -0.000076  -0.000071
    31  H    1.697350  -0.049875  -0.020541   0.010007   0.000002   0.000013
    32  H   -0.049875   1.693644  -0.059427  -0.012142   0.000013  -0.000008
    33  H   -0.020541  -0.059427   1.792953  -0.122936  -0.000104  -0.000041
    34  H    0.010007  -0.012142  -0.122936   2.364471   0.003087   0.001532
    35  H    0.000002   0.000013  -0.000104   0.003087   1.464886  -0.323866
    36  H    0.000013  -0.000008  -0.000041   0.001532  -0.323866   1.475560
    37  H    0.000003  -0.000011   0.000002  -0.000112  -0.269246  -0.183380
    38  H   -0.000031   0.000088  -0.000744  -0.005699  -0.017196   0.003185
    39  H   -0.000005   0.000016  -0.000076   0.005301   0.003080  -0.001755
    40  H   -0.000009   0.000008   0.000335  -0.011779   0.016388  -0.009952
              37         38         39         40
     1  O   -0.016592  -0.009093   0.035545  -0.017780
     2  S   -0.007671   0.123909  -0.141026   0.095062
     3  N   -0.019548  -0.002838  -0.000808  -0.003856
     4  C    0.050835   0.053102   0.028737  -0.042508
     5  C    0.006448   0.002148   0.000947  -0.001279
     6  S    0.001910  -0.000094  -0.000533   0.000138
     7  C    0.001075  -0.015436  -0.000665   0.004485
     8  O   -0.000227  -0.000004  -0.000011  -0.000027
     9  O   -0.000080   0.000018   0.000015  -0.000007
    10  C   -0.049658  -0.019140   0.002767  -0.003418
    11  C   -0.005683  -0.004019   0.004495  -0.009171
    12  C   -0.001697  -0.005511  -0.000843   0.006745
    13  C   -0.000590   0.000423   0.000674   0.000640
    14  C    0.000132  -0.001256  -0.000249  -0.000189
    15  C   -0.000229   0.001263   0.000457  -0.000247
    16  C   -0.000465  -0.002148   0.000888  -0.000645
    17  C    0.000005   0.004732  -0.000677  -0.003790
    18  N    0.068464  -0.074124   0.179069  -0.273923
    19  C    0.224265  -0.101936   0.089132   0.007087
    20  C    0.099959   0.421207   0.183439   0.418311
    21  O   -0.002179  -0.010370   0.008998  -0.006205
    22  H    0.000042   0.000366  -0.000030   0.000618
    23  H    0.001628   0.000226  -0.000035  -0.000587
    24  H    0.000265  -0.004918   0.000273  -0.000228
    25  H    0.000676   0.004211  -0.001890   0.001585
    26  H   -0.014141   0.027531  -0.034874   0.016202
    27  H   -0.000983   0.002285  -0.000327  -0.004552
    28  H   -0.000089   0.000713   0.000418   0.001153
    29  H    0.000334  -0.001096   0.000054  -0.001096
    30  H   -0.000031   0.000145   0.000034  -0.000011
    31  H    0.000003  -0.000031  -0.000005  -0.000009
    32  H   -0.000011   0.000088   0.000016   0.000008
    33  H    0.000002  -0.000744  -0.000076   0.000335
    34  H   -0.000112  -0.005699   0.005301  -0.011779
    35  H   -0.269246  -0.017196   0.003080   0.016388
    36  H   -0.183380   0.003185  -0.001755  -0.009952
    37  H    1.153823   0.006780   0.002009  -0.009534
    38  H    0.006780   1.412611  -0.258898  -0.324567
    39  H    0.002009  -0.258898   1.187078  -0.215549
    40  H   -0.009534  -0.324567  -0.215549   1.552266
 Mulliken charges:
               1
     1  O   -1.301441
     2  S    3.042065
     3  N   -1.647622
     4  C    0.212048
     5  C    0.406458
     6  S    2.873873
     7  C    0.246516
     8  O   -1.292749
     9  O   -1.301912
    10  C    0.941342
    11  C    0.293204
    12  C    0.724041
    13  C    0.751047
    14  C    0.122471
    15  C    0.788234
    16  C   -0.054353
    17  C    0.744156
    18  N   -1.108471
    19  C    0.753006
    20  C    0.842374
    21  O   -1.321720
    22  H   -0.254142
    23  H   -0.285718
    24  H   -0.308855
    25  H   -0.360368
    26  H   -0.158271
    27  H   -0.077231
    28  H   -0.112200
    29  H   -0.308420
    30  H   -0.736111
    31  H   -0.478859
    32  H   -0.469230
    33  H   -0.534613
    34  H   -0.704070
    35  H   -0.232476
    36  H   -0.194380
    37  H   -0.036506
    38  H   -0.205826
    39  H   -0.075179
    40  H   -0.180112
 Sum of Mulliken charges =  -1.00000
 Mulliken charges with hydrogens summed into heavy atoms:
               1
     1  O   -1.301441
     2  S    3.042065
     3  N   -1.647622
     4  C    0.212048
     5  C   -0.133402
     6  S    2.873873
     7  C   -0.422707
     8  O   -1.292749
     9  O   -1.301912
    10  C    0.705840
    11  C   -0.127416
    12  C    0.724041
    13  C    0.014936
    14  C   -0.356388
    15  C    0.319004
    16  C   -0.588966
    17  C    0.040086
    18  N   -1.108471
    19  C    0.289645
    20  C    0.381257
    21  O   -1.321720
 Electronic spatial extent (au):  <R**2>=           7341.5564
 Charge=             -1.0000 electrons
 Dipole moment (field-independent basis, Debye):
    X=              6.5413    Y=             -7.9638    Z=              6.2741  Tot=             12.0654
 Quadrupole moment (field-independent basis, Debye-Ang):
   XX=           -184.4491   YY=           -179.6013   ZZ=           -150.2825
   XY=              2.4174   XZ=            -13.9252   YZ=             10.4989
 Traceless Quadrupole moment (field-independent basis, Debye-Ang):
   XX=            -13.0048   YY=             -8.1570   ZZ=             21.1618
   XY=              2.4174   XZ=            -13.9252   YZ=             10.4989
 Octapole moment (field-independent basis, Debye-Ang**2):
  XXX=             53.3411  YYY=           -116.7812  ZZZ=              6.4173  XYY=            -47.0367
  XXY=            -20.6593  XXZ=             15.5609  XZZ=              8.3474  YZZ=             12.5712
  YYZ=             21.9524  XYZ=             10.5642
 Hexadecapole moment (field-independent basis, Debye-Ang**3):
 XXXX=          -6013.2968 YYYY=          -3970.9667 ZZZZ=          -1044.7013 XXXY=            162.8110
 XXXZ=           -206.8011 YYYX=            -39.6204 YYYZ=            167.0905 ZZZX=            -12.1839
 ZZZY=             -4.5473 XXYY=          -1679.0486 XXZZ=          -1149.7639 YYZZ=           -748.3001
 XXYZ=             71.7730 YYXZ=            -43.3449 ZZXY=             11.7051
 N-N= 2.187390085827D+03 E-N=-8.422865041905D+03  KE= 1.704899803210D+03
 Leave Link  601 at Thu Sep 24 04:37:07 2020, MaxMem=   262144000 cpu:               0.7 elap:               0.2
 (Enter /prod/apps/gaussian/g16b1/l9999.exe)
 1\1\GINC-PIRINEUS17\SP\RMP2-FC\Aug-CC-pVDZ\C13H19N2O4S2(1-)\UBAFAR01\2
 4-Sep-2020\0\\#p mp2/aug-cc-pVDZ scf=(MaxCycle=2000,NoVarAcc,NoIncFock
 ) maxdisk=120GB geom=allcheck\\SM40.a.5.pdb.xyz\\-1,1\O,0,-3.670119912
 8,-0.1711210688,-1.0142291799\S,0,-2.2867005779,-0.5372230303,-0.59727
 0077\N,0,-1.7664434787,0.569171164,0.4001991119\C,0,-0.3299106861,0.69
 59531923,0.669261345\C,0,-0.1773633625,2.0514024736,1.4422926608\S,0,0
 .3440580717,2.8780353264,-0.0929154332\C,0,0.4829457732,1.1428663362,-
 0.6141021753\O,0,-0.7660866105,3.5976230272,-0.7589724401\O,0,1.641506
 9119,3.5849939239,0.0156252374\C,0,0.2538028953,-0.5084820945,1.442278
 2109\C,0,1.7559884838,-0.510298621,1.7873677283\C,0,2.6946336067,-0.94
 1566964,0.6778615836\C,0,3.8320102472,-0.1851219319,0.3661579181\C,0,4
 .7234995831,-0.5991135852,-0.6264701135\C,0,4.4906450537,-1.7839466504
 ,-1.3261889891\C,0,3.3601968548,-2.5485030184,-1.0252095423\C,0,2.4734
 017732,-2.1296672371,-0.0334825068\N,0,-2.4059132297,-2.0404491879,0.2
 764447831\C,0,-3.344849312,-1.9618008939,1.3993063818\C,0,-2.719900564
 ,-3.1783410322,-0.5952293448\O,0,-1.3710867062,-0.8939131228,-1.720542
 3815\H,0,0.6424510217,2.0796461383,2.1623740328\H,0,-1.0973379297,2.44
 02319039,1.873825534\H,0,1.5358259522,0.8588691211,-0.6135044359\H,0,0
 .0052881411,0.9003600816,-1.5583353744\H,0,0.0098130165,-1.4129181143,
 0.8807319416\H,0,-0.3155341903,-0.5754360222,2.3757071757\H,0,1.885097
 9288,-1.2024668408,2.6289405105\H,0,2.0755814518,0.4672674617,2.164930
 0262\H,0,4.0156452462,0.7389994625,0.9071325609\H,0,5.596651138,0.0048
 187096,-0.852114267\H,0,5.1806901987,-2.1084704684,-2.0982926649\H,0,3
 .1696794917,-3.4720425748,-1.5626852743\H,0,1.5977585842,-2.7297672723
 ,0.1926609633\H,0,-3.111049332,-1.0907030136,2.0122618104\H,0,-3.22751
 51364,-2.8618331883,2.008515571\H,0,-4.3916125093,-1.8974074843,1.0699
 072363\H,0,-2.0037302181,-3.2160269969,-1.4146234432\H,0,-3.7387178245
 ,-3.1278638399,-1.0076105207\H,0,-2.6342998448,-4.093754068,-0.0030041
 598\\Version=ES64L-G16RevB.01\State=1-A\HF=-1706.699441\MP2=-1710.0395
 126\RMSD=2.224e-09\PG=C01 [X(C13H19N2O4S2)]\\@


 "MATHEMATICS IS THE ART OF GIVING THE SAME NAME
 TO DIFFERENT THINGS."
                    - H. POINCARE
 Job cpu time:       0 days  4 hours 40 minutes 48.7 seconds.
 Elapsed time:       0 days  1 hours 15 minutes 19.2 seconds.
 File lengths (MBytes):  RWF=  89695 Int=      0 D2E=      0 Chk=     37 Scr=      1
 Normal termination of Gaussian 16 at Thu Sep 24 04:37:09 2020.
