 Entering Gaussian System, Link 0=g16
 Initial command:
 /prod/apps/gaussian/g16b1/l1.exe "/tmp/ubafar01/1461115/Gau-66772.inp" -scrdir="/tmp/ubafar01/1461115/"
 Entering Link 1 = /prod/apps/gaussian/g16b1/l1.exe PID=     66773.
  
 Copyright (c) 1988-2017, Gaussian, Inc.  All Rights Reserved.
  
 This is part of the Gaussian(R) 16 program.  It is based on
 the Gaussian(R) 09 system (copyright 2009, Gaussian, Inc.),
 the Gaussian(R) 03 system (copyright 2003, Gaussian, Inc.),
 the Gaussian(R) 98 system (copyright 1998, Gaussian, Inc.),
 the Gaussian(R) 94 system (copyright 1995, Gaussian, Inc.),
 the Gaussian 92(TM) system (copyright 1992, Gaussian, Inc.),
 the Gaussian 90(TM) system (copyright 1990, Gaussian, Inc.),
 the Gaussian 88(TM) system (copyright 1988, Gaussian, Inc.),
 the Gaussian 86(TM) system (copyright 1986, Carnegie Mellon
 University), and the Gaussian 82(TM) system (copyright 1983,
 Carnegie Mellon University). Gaussian is a federally registered
 trademark of Gaussian, Inc.
  
 This software contains proprietary and confidential information,
 including trade secrets, belonging to Gaussian, Inc.
  
 This software is provided under written license and may be
 used, copied, transmitted, or stored only in accord with that
 written license.
  
 The following legend is applicable only to US Government
 contracts under FAR:
  
                    RESTRICTED RIGHTS LEGEND
  
 Use, reproduction and disclosure by the US Government is
 subject to restrictions as set forth in subparagraphs (a)
 and (c) of the Commercial Computer Software - Restricted
 Rights clause in FAR 52.227-19.
  
 Gaussian, Inc.
 340 Quinnipiac St., Bldg. 40, Wallingford CT 06492
  
  
 ---------------------------------------------------------------
 Warning -- This program may not be used in any manner that
 competes with the business of Gaussian, Inc. or will provide
 assistance to any competitor of Gaussian, Inc.  The licensee
 of this program is prohibited from giving any competitor of
 Gaussian, Inc. access to this program.  By using this program,
 the user acknowledges that Gaussian, Inc. is engaged in the
 business of creating and licensing software in the field of
 computational chemistry and represents and warrants to the
 licensee that it is not a competitor of Gaussian, Inc. and that
 it will not use this program in any manner prohibited above.
 ---------------------------------------------------------------
  

 Cite this work as:
 Gaussian 16, Revision B.01,
 M. J. Frisch, G. W. Trucks, H. B. Schlegel, G. E. Scuseria, 
 M. A. Robb, J. R. Cheeseman, G. Scalmani, V. Barone, 
 G. A. Petersson, H. Nakatsuji, X. Li, M. Caricato, A. V. Marenich, 
 J. Bloino, B. G. Janesko, R. Gomperts, B. Mennucci, H. P. Hratchian, 
 J. V. Ortiz, A. F. Izmaylov, J. L. Sonnenberg, D. Williams-Young, 
 F. Ding, F. Lipparini, F. Egidi, J. Goings, B. Peng, A. Petrone, 
 T. Henderson, D. Ranasinghe, V. G. Zakrzewski, J. Gao, N. Rega, 
 G. Zheng, W. Liang, M. Hada, M. Ehara, K. Toyota, R. Fukuda, 
 J. Hasegawa, M. Ishida, T. Nakajima, Y. Honda, O. Kitao, H. Nakai, 
 T. Vreven, K. Throssell, J. A. Montgomery, Jr., J. E. Peralta, 
 F. Ogliaro, M. J. Bearpark, J. J. Heyd, E. N. Brothers, K. N. Kudin, 
 V. N. Staroverov, T. A. Keith, R. Kobayashi, J. Normand, 
 K. Raghavachari, A. P. Rendell, J. C. Burant, S. S. Iyengar, 
 J. Tomasi, M. Cossi, J. M. Millam, M. Klene, C. Adamo, R. Cammi, 
 J. W. Ochterski, R. L. Martin, K. Morokuma, O. Farkas, 
 J. B. Foresman, and D. J. Fox, Gaussian, Inc., Wallingford CT, 2016.
 
 ******************************************
 Gaussian 16:  ES64L-G16RevB.01 20-Dec-2017
                24-Sep-2020 
 ******************************************
 %nproc=4
 Will use up to    4 processors via shared memory.
 %Chk=SM40_38w.a.2.pdb.xyz.mst.a.w.chk
 %mem=16GB
 ----------------------------------------------------------------------
 #p b3lyp/6-31G(d) opt freq NoSymm scf=(MaxCycle=2000,NoVarAcc,NoIncFoc
 k) scrf=(iefpcm,read,solvent=water)
 ----------------------------------------------------------------------
 1/18=20,19=15,26=3,38=1,40=2/1,3;
 2/9=110,12=2,15=1,17=6,18=5,40=1/2;
 3/5=1,6=6,7=1,11=2,25=1,30=1,70=2203,71=1,72=1,74=-5/1,2,3;
 4//1;
 5/5=100002,7=2000,38=1,53=1/2;
 6/7=2,8=2,9=2,10=2,28=1/1;
 7/30=1/1,2,3,16;
 1/18=20,19=15,26=3/3(2);
 2/9=110,15=1/2;
 99//99;
 2/9=110,15=1/2;
 3/5=1,6=6,7=1,11=2,25=1,30=1,70=2205,71=1,72=1,74=-5/1,2,3;
 4/5=5,16=3,69=1/1;
 5/5=100002,7=2000,38=1,53=1/2;
 7/30=1/1,2,3,16;
 1/18=20,19=15,26=3/3(-5);
 2/9=110,15=1/2;
 6/7=2,8=2,9=2,10=2,19=2,28=1/1;
 99/9=1/99;
 Leave Link    1 at Thu Sep 24 01:22:27 2020, MaxMem=  2147483648 cpu:               0.1 elap:               0.0
 (Enter /prod/apps/gaussian/g16b1/l101.exe)
 --------------------
 SM40_38w.a.2.pdb.xyz
 --------------------
 Symbolic Z-matrix:
 Charge = -1 Multiplicity = 1
 S                    -1.79     -1.781    -0.358 
 N                    -1.319    -0.313    -0.966 
 C                    -0.335     0.673    -0.317 
 C                    -0.926     1.148     1.046 
 S                    -1.482     2.663     0.182 
 C                    -0.42      2.025    -0.984 
 O                    -2.976     2.642    -0.047 
 O                    -1.077     3.955     0.835 
 C                     1.067     0.018    -0.304 
 C                     2.197     0.879     0.293 
 C                     3.546     0.198     0.191 
 C                     4.346     0.356    -0.952 
 C                     5.578    -0.293    -1.064 
 C                     6.035    -1.115    -0.031 
 C                     5.25     -1.281     1.114 
 C                     4.018    -0.63      1.22 
 O                    -0.879    -2.322     0.667 
 O                    -2.101    -2.642    -1.521 
 H                    -1.134    -0.423    -1.964 
 H                    -0.183     1.359     1.816 
 H                    -1.747     0.551     1.446 
 H                    -0.53      2.191    -2.054 
 H                     1.323    -0.217    -1.347 
 H                     1.018    -0.938     0.228 
 H                     1.982     1.092     1.348 
 H                     2.219     1.841    -0.229 
 H                     4.        0.999    -1.759 
 H                     6.182    -0.152    -1.956 
 H                     6.994    -1.618    -0.114 
 H                     5.598    -1.915     1.926 
 H                     3.416    -0.761     2.117 
 N                    -3.197    -1.358     0.495 
 C                    -3.673    -2.425     1.396 
 H                    -2.856    -2.757     2.037 
 H                    -4.461    -1.997     2.021 
 H                    -4.085    -3.285     0.849 
 C                    -4.271    -0.813    -0.354 
 H                    -4.706    -1.573    -1.017 
 H                    -5.052    -0.434     0.31 
 H                    -3.883     0.018    -0.943 
 
 ITRead=  0  0  0  0  0  0  0  0  0  0  0  0  0  0  0  0  0  0  0  0
 ITRead=  0  0  0  0  0  0  0  0  0  0  0  0  0  0  0  0  0  0  0  0
 MicOpt= -1 -1 -1 -1 -1 -1 -1 -1 -1 -1 -1 -1 -1 -1 -1 -1 -1 -1 -1 -1
 MicOpt= -1 -1 -1 -1 -1 -1 -1 -1 -1 -1 -1 -1 -1 -1 -1 -1 -1 -1 -1 -1
 NAtoms=     40 NQM=       40 NQMF=       0 NMMI=      0 NMMIF=      0
                NMic=       0 NMicF=      0.
                    Isotopes and Nuclear Properties:
 (Nuclear quadrupole moments (NQMom) in fm**2, nuclear magnetic moments (NMagM)
  in nuclear magnetons)

  Atom         1           2           3           4           5           6           7           8           9          10
 IAtWgt=          32          14          12          12          32          12          16          16          12          12
 AtmWgt=  31.9720718  14.0030740  12.0000000  12.0000000  31.9720718  12.0000000  15.9949146  15.9949146  12.0000000  12.0000000
 NucSpn=           0           2           0           0           0           0           0           0           0           0
 AtZEff=  -0.0000000  -0.0000000  -0.0000000  -0.0000000  -0.0000000  -0.0000000  -0.0000000  -0.0000000  -0.0000000  -0.0000000
 NQMom=    0.0000000   2.0440000   0.0000000   0.0000000   0.0000000   0.0000000   0.0000000   0.0000000   0.0000000   0.0000000
 NMagM=    0.0000000   0.4037610   0.0000000   0.0000000   0.0000000   0.0000000   0.0000000   0.0000000   0.0000000   0.0000000
 AtZNuc=  16.0000000   7.0000000   6.0000000   6.0000000  16.0000000   6.0000000   8.0000000   8.0000000   6.0000000   6.0000000

  Atom        11          12          13          14          15          16          17          18          19          20
 IAtWgt=          12          12          12          12          12          12          16          16           1           1
 AtmWgt=  12.0000000  12.0000000  12.0000000  12.0000000  12.0000000  12.0000000  15.9949146  15.9949146   1.0078250   1.0078250
 NucSpn=           0           0           0           0           0           0           0           0           1           1
 AtZEff=  -0.0000000  -0.0000000  -0.0000000  -0.0000000  -0.0000000  -0.0000000  -0.0000000  -0.0000000  -0.0000000  -0.0000000
 NQMom=    0.0000000   0.0000000   0.0000000   0.0000000   0.0000000   0.0000000   0.0000000   0.0000000   0.0000000   0.0000000
 NMagM=    0.0000000   0.0000000   0.0000000   0.0000000   0.0000000   0.0000000   0.0000000   0.0000000   2.7928460   2.7928460
 AtZNuc=   6.0000000   6.0000000   6.0000000   6.0000000   6.0000000   6.0000000   8.0000000   8.0000000   1.0000000   1.0000000

  Atom        21          22          23          24          25          26          27          28          29          30
 IAtWgt=           1           1           1           1           1           1           1           1           1           1
 AtmWgt=   1.0078250   1.0078250   1.0078250   1.0078250   1.0078250   1.0078250   1.0078250   1.0078250   1.0078250   1.0078250
 NucSpn=           1           1           1           1           1           1           1           1           1           1
 AtZEff=  -0.0000000  -0.0000000  -0.0000000  -0.0000000  -0.0000000  -0.0000000  -0.0000000  -0.0000000  -0.0000000  -0.0000000
 NQMom=    0.0000000   0.0000000   0.0000000   0.0000000   0.0000000   0.0000000   0.0000000   0.0000000   0.0000000   0.0000000
 NMagM=    2.7928460   2.7928460   2.7928460   2.7928460   2.7928460   2.7928460   2.7928460   2.7928460   2.7928460   2.7928460
 AtZNuc=   1.0000000   1.0000000   1.0000000   1.0000000   1.0000000   1.0000000   1.0000000   1.0000000   1.0000000   1.0000000

  Atom        31          32          33          34          35          36          37          38          39          40
 IAtWgt=           1          14          12           1           1           1          12           1           1           1
 AtmWgt=   1.0078250  14.0030740  12.0000000   1.0078250   1.0078250   1.0078250  12.0000000   1.0078250   1.0078250   1.0078250
 NucSpn=           1           2           0           1           1           1           0           1           1           1
 AtZEff=  -0.0000000  -0.0000000  -0.0000000  -0.0000000  -0.0000000  -0.0000000  -0.0000000  -0.0000000  -0.0000000  -0.0000000
 NQMom=    0.0000000   2.0440000   0.0000000   0.0000000   0.0000000   0.0000000   0.0000000   0.0000000   0.0000000   0.0000000
 NMagM=    2.7928460   0.4037610   0.0000000   2.7928460   2.7928460   2.7928460   0.0000000   2.7928460   2.7928460   2.7928460
 AtZNuc=   1.0000000   7.0000000   6.0000000   1.0000000   1.0000000   1.0000000   6.0000000   1.0000000   1.0000000   1.0000000
 Leave Link  101 at Thu Sep 24 01:22:27 2020, MaxMem=  2147483648 cpu:               1.7 elap:               0.4
 (Enter /prod/apps/gaussian/g16b1/l103.exe)

 GradGradGradGradGradGradGradGradGradGradGradGradGradGradGradGradGradGrad
 Berny optimization.
 Initialization pass.
                           ----------------------------
                           !    Initial Parameters    !
                           ! (Angstroms and Degrees)  !
 --------------------------                            --------------------------
 ! Name  Definition              Value          Derivative Info.                !
 --------------------------------------------------------------------------------
 ! R1    R(1,2)                  1.6573         estimate D2E/DX2                !
 ! R2    R(1,17)                 1.4742         estimate D2E/DX2                !
 ! R3    R(1,18)                 1.4801         estimate D2E/DX2                !
 ! R4    R(1,32)                 1.6989         estimate D2E/DX2                !
 ! R5    R(2,3)                  1.5368         estimate D2E/DX2                !
 ! R6    R(2,19)                 1.0209         estimate D2E/DX2                !
 ! R7    R(3,4)                  1.5597         estimate D2E/DX2                !
 ! R8    R(3,6)                  1.51           estimate D2E/DX2                !
 ! R9    R(3,9)                  1.5475         estimate D2E/DX2                !
 ! R10   R(4,5)                  1.8305         estimate D2E/DX2                !
 ! R11   R(4,20)                 1.0906         estimate D2E/DX2                !
 ! R12   R(4,21)                 1.0911         estimate D2E/DX2                !
 ! R13   R(5,6)                  1.7013         estimate D2E/DX2                !
 ! R14   R(5,7)                  1.5116         estimate D2E/DX2                !
 ! R15   R(5,8)                  1.5032         estimate D2E/DX2                !
 ! R16   R(6,22)                 1.0884         estimate D2E/DX2                !
 ! R17   R(9,10)                 1.541          estimate D2E/DX2                !
 ! R18   R(9,23)                 1.0994         estimate D2E/DX2                !
 ! R19   R(9,24)                 1.0952         estimate D2E/DX2                !
 ! R20   R(10,11)                1.5146         estimate D2E/DX2                !
 ! R21   R(10,25)                1.0976         estimate D2E/DX2                !
 ! R22   R(10,26)                1.0947         estimate D2E/DX2                !
 ! R23   R(11,12)                1.4041         estimate D2E/DX2                !
 ! R24   R(11,16)                1.4026         estimate D2E/DX2                !
 ! R25   R(12,13)                1.397          estimate D2E/DX2                !
 ! R26   R(12,27)                1.0883         estimate D2E/DX2                !
 ! R27   R(13,14)                1.397          estimate D2E/DX2                !
 ! R28   R(13,28)                1.0864         estimate D2E/DX2                !
 ! R29   R(14,15)                1.3981         estimate D2E/DX2                !
 ! R30   R(14,29)                1.0861         estimate D2E/DX2                !
 ! R31   R(15,16)                1.3974         estimate D2E/DX2                !
 ! R32   R(15,30)                1.0874         estimate D2E/DX2                !
 ! R33   R(16,31)                1.0882         estimate D2E/DX2                !
 ! R34   R(32,33)                1.4754         estimate D2E/DX2                !
 ! R35   R(32,37)                1.4735         estimate D2E/DX2                !
 ! R36   R(33,34)                1.0902         estimate D2E/DX2                !
 ! R37   R(33,35)                1.093          estimate D2E/DX2                !
 ! R38   R(33,36)                1.0993         estimate D2E/DX2                !
 ! R39   R(37,38)                1.0984         estimate D2E/DX2                !
 ! R40   R(37,39)                1.0929         estimate D2E/DX2                !
 ! R41   R(37,40)                1.09           estimate D2E/DX2                !
 ! A1    A(2,1,17)             113.8615         estimate D2E/DX2                !
 ! A2    A(2,1,18)             106.6626         estimate D2E/DX2                !
 ! A3    A(2,1,32)             101.48           estimate D2E/DX2                !
 ! A4    A(17,1,18)            117.5623         estimate D2E/DX2                !
 ! A5    A(17,1,32)            104.7182         estimate D2E/DX2                !
 ! A6    A(18,1,32)            111.4293         estimate D2E/DX2                !
 ! A7    A(1,2,3)              126.5394         estimate D2E/DX2                !
 ! A8    A(1,2,19)             108.3418         estimate D2E/DX2                !
 ! A9    A(3,2,19)             111.4646         estimate D2E/DX2                !
 ! A10   A(2,3,4)              108.7736         estimate D2E/DX2                !
 ! A11   A(2,3,6)              110.6029         estimate D2E/DX2                !
 ! A12   A(2,3,9)              108.1845         estimate D2E/DX2                !
 ! A13   A(4,3,6)               95.2791         estimate D2E/DX2                !
 ! A14   A(4,3,9)              117.7004         estimate D2E/DX2                !
 ! A15   A(6,3,9)              115.7019         estimate D2E/DX2                !
 ! A16   A(3,4,5)               87.4021         estimate D2E/DX2                !
 ! A17   A(3,4,20)             114.6928         estimate D2E/DX2                !
 ! A18   A(3,4,21)             116.0313         estimate D2E/DX2                !
 ! A19   A(5,4,20)             112.3361         estimate D2E/DX2                !
 ! A20   A(5,4,21)             113.4117         estimate D2E/DX2                !
 ! A21   A(20,4,21)            111.0788         estimate D2E/DX2                !
 ! A22   A(4,5,6)               79.8351         estimate D2E/DX2                !
 ! A23   A(4,5,7)              111.113          estimate D2E/DX2                !
 ! A24   A(4,5,8)              115.1169         estimate D2E/DX2                !
 ! A25   A(6,5,7)              120.5255         estimate D2E/DX2                !
 ! A26   A(6,5,8)              116.8624         estimate D2E/DX2                !
 ! A27   A(7,5,8)              110.1228         estimate D2E/DX2                !
 ! A28   A(3,6,5)               93.9089         estimate D2E/DX2                !
 ! A29   A(3,6,22)             125.2066         estimate D2E/DX2                !
 ! A30   A(5,6,22)             123.6075         estimate D2E/DX2                !
 ! A31   A(3,9,10)             115.5381         estimate D2E/DX2                !
 ! A32   A(3,9,23)             107.0659         estimate D2E/DX2                !
 ! A33   A(3,9,24)             109.4524         estimate D2E/DX2                !
 ! A34   A(10,9,23)            108.435          estimate D2E/DX2                !
 ! A35   A(10,9,24)            109.4116         estimate D2E/DX2                !
 ! A36   A(23,9,24)            106.5403         estimate D2E/DX2                !
 ! A37   A(9,10,11)            112.0747         estimate D2E/DX2                !
 ! A38   A(9,10,25)            109.7053         estimate D2E/DX2                !
 ! A39   A(9,10,26)            108.7234         estimate D2E/DX2                !
 ! A40   A(11,10,25)           109.0545         estimate D2E/DX2                !
 ! A41   A(11,10,26)           110.1882         estimate D2E/DX2                !
 ! A42   A(25,10,26)           106.9624         estimate D2E/DX2                !
 ! A43   A(10,11,12)           120.7776         estimate D2E/DX2                !
 ! A44   A(10,11,16)           121.0483         estimate D2E/DX2                !
 ! A45   A(12,11,16)           118.1595         estimate D2E/DX2                !
 ! A46   A(11,12,13)           121.0288         estimate D2E/DX2                !
 ! A47   A(11,12,27)           119.2737         estimate D2E/DX2                !
 ! A48   A(13,12,27)           119.6967         estimate D2E/DX2                !
 ! A49   A(12,13,14)           120.1699         estimate D2E/DX2                !
 ! A50   A(12,13,28)           119.7236         estimate D2E/DX2                !
 ! A51   A(14,13,28)           120.1058         estimate D2E/DX2                !
 ! A52   A(13,14,15)           119.4556         estimate D2E/DX2                !
 ! A53   A(13,14,29)           120.3213         estimate D2E/DX2                !
 ! A54   A(15,14,29)           120.2225         estimate D2E/DX2                !
 ! A55   A(14,15,16)           120.1188         estimate D2E/DX2                !
 ! A56   A(14,15,30)           120.0716         estimate D2E/DX2                !
 ! A57   A(16,15,30)           119.8093         estimate D2E/DX2                !
 ! A58   A(11,16,15)           121.0673         estimate D2E/DX2                !
 ! A59   A(11,16,31)           119.3174         estimate D2E/DX2                !
 ! A60   A(15,16,31)           119.6142         estimate D2E/DX2                !
 ! A61   A(1,32,33)            113.1877         estimate D2E/DX2                !
 ! A62   A(1,32,37)            113.9812         estimate D2E/DX2                !
 ! A63   A(33,32,37)           112.5929         estimate D2E/DX2                !
 ! A64   A(32,33,34)           109.725          estimate D2E/DX2                !
 ! A65   A(32,33,35)           107.3729         estimate D2E/DX2                !
 ! A66   A(32,33,36)           112.5067         estimate D2E/DX2                !
 ! A67   A(34,33,35)           108.8626         estimate D2E/DX2                !
 ! A68   A(34,33,36)           109.5828         estimate D2E/DX2                !
 ! A69   A(35,33,36)           108.702          estimate D2E/DX2                !
 ! A70   A(32,37,38)           112.3665         estimate D2E/DX2                !
 ! A71   A(32,37,39)           107.4006         estimate D2E/DX2                !
 ! A72   A(32,37,40)           109.5044         estimate D2E/DX2                !
 ! A73   A(38,37,39)           108.8847         estimate D2E/DX2                !
 ! A74   A(38,37,40)           110.0191         estimate D2E/DX2                !
 ! A75   A(39,37,40)           108.56           estimate D2E/DX2                !
 ! D1    D(17,1,2,3)           -19.0077         estimate D2E/DX2                !
 ! D2    D(17,1,2,19)          117.5021         estimate D2E/DX2                !
 ! D3    D(18,1,2,3)          -150.3479         estimate D2E/DX2                !
 ! D4    D(18,1,2,19)          -13.8381         estimate D2E/DX2                !
 ! D5    D(32,1,2,3)            92.9124         estimate D2E/DX2                !
 ! D6    D(32,1,2,19)         -130.5778         estimate D2E/DX2                !
 ! D7    D(2,1,32,33)         -167.0604         estimate D2E/DX2                !
 ! D8    D(2,1,32,37)           62.5508         estimate D2E/DX2                !
 ! D9    D(17,1,32,33)         -48.366          estimate D2E/DX2                !
 ! D10   D(17,1,32,37)        -178.7548         estimate D2E/DX2                !
 ! D11   D(18,1,32,33)          79.7343         estimate D2E/DX2                !
 ! D12   D(18,1,32,37)         -50.6545         estimate D2E/DX2                !
 ! D13   D(1,2,3,4)            -62.5949         estimate D2E/DX2                !
 ! D14   D(1,2,3,6)           -165.9863         estimate D2E/DX2                !
 ! D15   D(1,2,3,9)             66.3399         estimate D2E/DX2                !
 ! D16   D(19,2,3,4)           161.9888         estimate D2E/DX2                !
 ! D17   D(19,2,3,6)            58.5975         estimate D2E/DX2                !
 ! D18   D(19,2,3,9)           -69.0764         estimate D2E/DX2                !
 ! D19   D(2,3,4,5)            -99.2347         estimate D2E/DX2                !
 ! D20   D(2,3,4,20)           147.3212         estimate D2E/DX2                !
 ! D21   D(2,3,4,21)            15.6307         estimate D2E/DX2                !
 ! D22   D(6,3,4,5)             14.6347         estimate D2E/DX2                !
 ! D23   D(6,3,4,20)           -98.8095         estimate D2E/DX2                !
 ! D24   D(6,3,4,21)           129.5001         estimate D2E/DX2                !
 ! D25   D(9,3,4,5)            137.3473         estimate D2E/DX2                !
 ! D26   D(9,3,4,20)            23.9031         estimate D2E/DX2                !
 ! D27   D(9,3,4,21)          -107.7874         estimate D2E/DX2                !
 ! D28   D(2,3,6,5)             96.5397         estimate D2E/DX2                !
 ! D29   D(2,3,6,22)           -40.113          estimate D2E/DX2                !
 ! D30   D(4,3,6,5)            -15.7952         estimate D2E/DX2                !
 ! D31   D(4,3,6,22)          -152.4479         estimate D2E/DX2                !
 ! D32   D(9,3,6,5)           -140.0282         estimate D2E/DX2                !
 ! D33   D(9,3,6,22)            83.3191         estimate D2E/DX2                !
 ! D34   D(2,3,9,10)           178.9568         estimate D2E/DX2                !
 ! D35   D(2,3,9,23)            58.0736         estimate D2E/DX2                !
 ! D36   D(2,3,9,24)           -57.0298         estimate D2E/DX2                !
 ! D37   D(4,3,9,10)           -57.3285         estimate D2E/DX2                !
 ! D38   D(4,3,9,23)          -178.2116         estimate D2E/DX2                !
 ! D39   D(4,3,9,24)            66.6849         estimate D2E/DX2                !
 ! D40   D(6,3,9,10)            54.2653         estimate D2E/DX2                !
 ! D41   D(6,3,9,23)           -66.6179         estimate D2E/DX2                !
 ! D42   D(6,3,9,24)           178.2787         estimate D2E/DX2                !
 ! D43   D(3,4,5,6)            -13.1117         estimate D2E/DX2                !
 ! D44   D(3,4,5,7)            105.8302         estimate D2E/DX2                !
 ! D45   D(3,4,5,8)           -128.1321         estimate D2E/DX2                !
 ! D46   D(20,4,5,6)           102.5758         estimate D2E/DX2                !
 ! D47   D(20,4,5,7)          -138.4823         estimate D2E/DX2                !
 ! D48   D(20,4,5,8)           -12.4447         estimate D2E/DX2                !
 ! D49   D(21,4,5,6)          -130.4394         estimate D2E/DX2                !
 ! D50   D(21,4,5,7)           -11.4975         estimate D2E/DX2                !
 ! D51   D(21,4,5,8)           114.5402         estimate D2E/DX2                !
 ! D52   D(4,5,6,3)             13.5696         estimate D2E/DX2                !
 ! D53   D(4,5,6,22)           151.2379         estimate D2E/DX2                !
 ! D54   D(7,5,6,3)            -95.0396         estimate D2E/DX2                !
 ! D55   D(7,5,6,22)            42.6287         estimate D2E/DX2                !
 ! D56   D(8,5,6,3)            126.6848         estimate D2E/DX2                !
 ! D57   D(8,5,6,22)           -95.6468         estimate D2E/DX2                !
 ! D58   D(3,9,10,11)         -176.5595         estimate D2E/DX2                !
 ! D59   D(3,9,10,25)           62.1449         estimate D2E/DX2                !
 ! D60   D(3,9,10,26)          -54.509          estimate D2E/DX2                !
 ! D61   D(23,9,10,11)         -56.4201         estimate D2E/DX2                !
 ! D62   D(23,9,10,25)        -177.7157         estimate D2E/DX2                !
 ! D63   D(23,9,10,26)          65.6304         estimate D2E/DX2                !
 ! D64   D(24,9,10,11)          59.4058         estimate D2E/DX2                !
 ! D65   D(24,9,10,25)         -61.8898         estimate D2E/DX2                !
 ! D66   D(24,9,10,26)        -178.5437         estimate D2E/DX2                !
 ! D67   D(9,10,11,12)          88.0566         estimate D2E/DX2                !
 ! D68   D(9,10,11,16)         -90.5286         estimate D2E/DX2                !
 ! D69   D(25,10,11,12)       -150.274          estimate D2E/DX2                !
 ! D70   D(25,10,11,16)         31.1409         estimate D2E/DX2                !
 ! D71   D(26,10,11,12)        -33.1538         estimate D2E/DX2                !
 ! D72   D(26,10,11,16)        148.261          estimate D2E/DX2                !
 ! D73   D(10,11,12,13)       -178.5903         estimate D2E/DX2                !
 ! D74   D(10,11,12,27)          1.7319         estimate D2E/DX2                !
 ! D75   D(16,11,12,13)          0.0348         estimate D2E/DX2                !
 ! D76   D(16,11,12,27)       -179.6429         estimate D2E/DX2                !
 ! D77   D(10,11,16,15)        178.6332         estimate D2E/DX2                !
 ! D78   D(10,11,16,31)         -1.7507         estimate D2E/DX2                !
 ! D79   D(12,11,16,15)          0.012          estimate D2E/DX2                !
 ! D80   D(12,11,16,31)        179.6281         estimate D2E/DX2                !
 ! D81   D(11,12,13,14)         -0.018          estimate D2E/DX2                !
 ! D82   D(11,12,13,28)       -179.7146         estimate D2E/DX2                !
 ! D83   D(27,12,13,14)        179.6584         estimate D2E/DX2                !
 ! D84   D(27,12,13,28)         -0.0382         estimate D2E/DX2                !
 ! D85   D(12,13,14,15)         -0.0458         estimate D2E/DX2                !
 ! D86   D(12,13,14,29)       -179.7866         estimate D2E/DX2                !
 ! D87   D(28,13,14,15)        179.6497         estimate D2E/DX2                !
 ! D88   D(28,13,14,29)         -0.0912         estimate D2E/DX2                !
 ! D89   D(13,14,15,16)          0.092          estimate D2E/DX2                !
 ! D90   D(13,14,15,30)       -179.7295         estimate D2E/DX2                !
 ! D91   D(29,14,15,16)        179.8331         estimate D2E/DX2                !
 ! D92   D(29,14,15,30)          0.0116         estimate D2E/DX2                !
 ! D93   D(14,15,16,11)         -0.0757         estimate D2E/DX2                !
 ! D94   D(14,15,16,31)       -179.6907         estimate D2E/DX2                !
 ! D95   D(30,15,16,11)        179.7463         estimate D2E/DX2                !
 ! D96   D(30,15,16,31)          0.1313         estimate D2E/DX2                !
 ! D97   D(1,32,33,34)          51.8805         estimate D2E/DX2                !
 ! D98   D(1,32,33,35)         170.0476         estimate D2E/DX2                !
 ! D99   D(1,32,33,36)         -70.3943         estimate D2E/DX2                !
 ! D100  D(37,32,33,34)       -177.0368         estimate D2E/DX2                !
 ! D101  D(37,32,33,35)        -58.8697         estimate D2E/DX2                !
 ! D102  D(37,32,33,36)         60.6884         estimate D2E/DX2                !
 ! D103  D(1,32,37,38)          69.0564         estimate D2E/DX2                !
 ! D104  D(1,32,37,39)        -171.2252         estimate D2E/DX2                !
 ! D105  D(1,32,37,40)         -53.5231         estimate D2E/DX2                !
 ! D106  D(33,32,37,38)        -61.6261         estimate D2E/DX2                !
 ! D107  D(33,32,37,39)         58.0923         estimate D2E/DX2                !
 ! D108  D(33,32,37,40)        175.7944         estimate D2E/DX2                !
 --------------------------------------------------------------------------------
 Trust Radius=3.00D-01 FncErr=1.00D-07 GrdErr=1.00D-06 EigMax=2.50D+02 EigMin=1.00D-04
 Number of steps in this run=    234 maximum allowed number of steps=    240.
 GradGradGradGradGradGradGradGradGradGradGradGradGradGradGradGradGradGrad

 Leave Link  103 at Thu Sep 24 01:22:27 2020, MaxMem=  2147483648 cpu:               0.1 elap:               0.0
 (Enter /prod/apps/gaussian/g16b1/l202.exe)
                          Input orientation:                          
 ---------------------------------------------------------------------
 Center     Atomic      Atomic             Coordinates (Angstroms)
 Number     Number       Type             X           Y           Z
 ---------------------------------------------------------------------
      1         16           0       -1.790000   -1.781000   -0.358000
      2          7           0       -1.319000   -0.313000   -0.966000
      3          6           0       -0.335000    0.673000   -0.317000
      4          6           0       -0.926000    1.148000    1.046000
      5         16           0       -1.482000    2.663000    0.182000
      6          6           0       -0.420000    2.025000   -0.984000
      7          8           0       -2.976000    2.642000   -0.047000
      8          8           0       -1.077000    3.955000    0.835000
      9          6           0        1.067000    0.018000   -0.304000
     10          6           0        2.197000    0.879000    0.293000
     11          6           0        3.546000    0.198000    0.191000
     12          6           0        4.346000    0.356000   -0.952000
     13          6           0        5.578000   -0.293000   -1.064000
     14          6           0        6.035000   -1.115000   -0.031000
     15          6           0        5.250000   -1.281000    1.114000
     16          6           0        4.018000   -0.630000    1.220000
     17          8           0       -0.879000   -2.322000    0.667000
     18          8           0       -2.101000   -2.642000   -1.521000
     19          1           0       -1.134000   -0.423000   -1.964000
     20          1           0       -0.183000    1.359000    1.816000
     21          1           0       -1.747000    0.551000    1.446000
     22          1           0       -0.530000    2.191000   -2.054000
     23          1           0        1.323000   -0.217000   -1.347000
     24          1           0        1.018000   -0.938000    0.228000
     25          1           0        1.982000    1.092000    1.348000
     26          1           0        2.219000    1.841000   -0.229000
     27          1           0        4.000000    0.999000   -1.759000
     28          1           0        6.182000   -0.152000   -1.956000
     29          1           0        6.994000   -1.618000   -0.114000
     30          1           0        5.598000   -1.915000    1.926000
     31          1           0        3.416000   -0.761000    2.117000
     32          7           0       -3.197000   -1.358000    0.495000
     33          6           0       -3.673000   -2.425000    1.396000
     34          1           0       -2.856000   -2.757000    2.037000
     35          1           0       -4.461000   -1.997000    2.021000
     36          1           0       -4.085000   -3.285000    0.849000
     37          6           0       -4.271000   -0.813000   -0.354000
     38          1           0       -4.706000   -1.573000   -1.017000
     39          1           0       -5.052000   -0.434000    0.310000
     40          1           0       -3.883000    0.018000   -0.943000
 ---------------------------------------------------------------------
                    Distance matrix (angstroms):
                    1          2          3          4          5
     1  S    0.000000
     2  N    1.657266   0.000000
     3  C    2.853213   1.536767   0.000000
     4  C    3.361064   2.517363   1.559703   0.000000
     5  S    4.487271   3.193908   2.350470   1.830535   0.000000
     6  C    4.093215   2.504949   1.509973   2.268494   1.701307
     7  O    4.589798   3.510304   3.305260   2.762098   1.511595
     8  O    5.901975   4.638749   3.556570   2.818966   1.503229
     9  C    3.376650   2.498160   1.547513   2.659220   3.705350
    10  C    4.836897   3.920230   2.612577   3.223740   4.090234
    11  C    5.717581   5.026728   3.942823   4.651055   5.599740
    12  C    6.524577   5.704383   4.734498   5.693264   6.369756
    13  C    7.549835   6.897725   6.037776   6.987889   7.754615
    14  C    7.860096   7.456457   6.622359   7.398420   8.415696
    15  C    7.209604   6.958102   6.087537   6.636840   7.857709
    16  C    6.127622   5.776041   4.796748   5.256871   6.493943
    17  O    1.474187   2.626094   3.199096   3.490953   5.044706
    18  O    1.480071   2.518688   3.944312   4.725909   5.605925
    19  H    2.203120   1.020945   2.133595   3.401677   3.774893
    20  H    4.143468   3.438838   2.245749   1.090628   2.461254
    21  H    2.948642   2.597580   2.262034   1.091077   2.475574
    22  H    4.498978   2.841880   2.315063   3.294642   2.475638
    23  H    3.621462   2.671056   2.145219   3.556357   4.301194
    24  H    2.989801   2.697745   2.173236   2.966421   4.383984
    25  H    5.039102   4.269101   2.883795   2.924176   3.978303
    26  H    5.404406   4.207176   2.809784   3.463654   3.813398
    27  H    6.573835   5.535518   4.580160   5.670600   6.048859
    28  H    8.292167   7.567762   6.770394   7.824683   8.439915
    29  H    8.788900   8.457831   7.681415   8.468929   9.500376
    30  H    7.734155   7.666483   6.850495   7.260781   8.609647
    31  H    5.853927   5.667964   4.695819   4.862539   6.281593
    32  N    1.698878   2.598736   3.602131   3.426526   4.382652
    33  C    2.652723   3.947265   4.865616   4.520491   5.671157
    34  H    2.797312   4.165755   4.864325   4.467215   5.891121
    35  H    3.583370   4.650827   5.442336   4.830929   5.828547
    36  H    2.997647   4.447220   5.575645   5.446979   6.526806
    37  C    2.663156   3.055953   4.207334   4.122444   4.488696
    38  H    2.996765   3.614135   4.963885   5.093939   5.456691
    39  H    3.591835   3.946911   4.885557   4.479765   4.727863
    40  H    2.821219   2.585379   3.661858   3.738565   3.745190
                    6          7          8          9         10
     6  C    0.000000
     7  O    2.791379   0.000000
     8  O    2.732272   2.471456   0.000000
     9  C    2.588748   4.826725   4.625368   0.000000
    10  C    3.129334   5.475737   4.524889   1.540983   0.000000
    11  C    4.521914   6.968950   5.991821   2.534337   1.514584
    12  C    5.049885   7.723762   6.749452   3.359463   2.538061
    13  C    6.430826   9.100518   8.120390   4.585133   3.827035
    14  C    7.241190   9.762860   8.776981   5.102866   4.337194
    15  C    6.890583   9.187215   8.217327   4.603869   3.828897
    16  C    5.621609   7.824788   6.865091   3.383915   2.540168
    17  O    4.672568   5.435853   6.282369   3.194582   4.455115
    18  O    4.989491   5.555084   7.079528   4.311950   5.844728
    19  H    2.731831   4.057349   5.196589   2.791860   4.229044
    20  H    2.887858   3.594121   2.915615   2.802710   2.866065
    21  H    3.136639   2.848117   3.522703   3.356365   4.122151
    22  H    1.088373   3.195992   3.428881   3.214784   3.829658
    23  H    2.862932   5.324029   5.284573   1.099368   2.157474
    24  H    3.509438   5.370667   5.357138   1.095153   2.166969
    25  H    3.475387   5.378688   4.221068   2.172511   1.097551
    26  H    2.751037   5.259539   4.057673   2.157790   1.094720
    27  H    4.603227   7.368512   6.422048   3.417876   2.734212
    28  H    7.019296   9.763180   8.794897   5.377846   4.690542
    29  H    8.306368  10.842186   9.853932   6.151579   5.423271
    30  H    7.759383   9.908201   8.955602   5.407342   4.694670
    31  H    5.665059   7.557842   6.638616   3.462063   2.739076
    32  N    4.619941   4.042599   5.730442   4.551206   5.842962
    33  C    6.004074   5.314372   6.910741   5.596950   6.825681
    34  H    6.158576   5.788494   7.047027   5.345169   6.464893
    35  H    6.444858   5.291708   6.948695   6.326503   7.455624
    36  H    6.707325   6.096066   7.840017   6.227545   7.557219
    37  C    4.825075   3.702472   5.860817   5.402528   6.716881
    38  H    5.596114   4.658329   6.867192   6.030521   7.441761
    39  H    5.401531   3.728136   5.944709   6.166317   7.366971
    40  H    4.002761   2.917335   5.151203   4.991074   6.263818
                   11         12         13         14         15
    11  C    0.000000
    12  C    1.404070   0.000000
    13  C    2.438264   1.396986   0.000000
    14  C    2.822831   2.421736   1.397005   0.000000
    15  C    2.437824   2.786636   2.414003   1.398144   0.000000
    16  C    1.402572   2.407772   2.786364   2.422502   1.397448
    17  O    5.114450   6.090441   6.986133   7.053187   6.232827
    18  O    6.548676   7.132712   8.043239   8.411083   7.926711
    19  H    5.189611   5.626845   6.773319   7.457206   7.139027
    20  H    4.230128   5.401821   6.649257   6.942306   6.081110
    21  H    5.451191   6.550807   7.788970   8.094233   7.240474
    22  H    5.062198   5.325130   6.667685   7.623739   7.449792
    23  H    2.734849   3.102077   4.265078   4.974053   4.754992
    24  H    2.771759   3.760641   4.783188   5.026798   4.337334
    25  H    2.141023   3.379377   4.546118   4.816565   4.045455
    26  H    2.153318   2.692969   4.066210   4.831045   4.553844
    27  H    2.156436   1.088308   2.154617   3.405320   3.874923
    28  H    3.417690   2.153364   1.086444   2.157453   3.401201
    29  H    3.908911   3.407466   2.159440   1.086084   2.159419
    30  H    3.418435   3.873994   3.401674   2.158893   1.087384
    31  H    2.155471   3.395784   3.874536   3.405640   2.154058
    32  N    6.926875   7.869463   8.975819   9.250165   8.470000
    33  C    7.774710   8.806329   9.807040   9.899378   9.000455
    34  H    7.288714   8.396052   9.317717   9.274841   8.290823
    35  H    8.501704   9.588461  10.639660  10.731013   9.779511
    36  H    8.414060   9.358539  10.294911  10.387382   9.551359
    37  C    7.900926   8.716470   9.888241  10.315482   9.644869
    38  H    8.525914   9.255483  10.363458  10.795881  10.185694
    39  H    8.622018   9.515206  10.719359  11.113128  10.367981
    40  H    7.517207   8.235944   9.466883  10.024079   9.451473
                   16         17         18         19         20
    16  C    0.000000
    17  O    5.210497   0.000000
    18  O    7.000242   2.526466   0.000000
    19  H    6.060017   3.254748   2.460752   0.000000
    20  H    4.686122   3.918466   5.551783   4.285828   0.000000
    21  H    5.889063   3.100709   4.373060   3.598964   1.798850
    22  H    6.273868   5.281365   5.109796   2.684383   3.973605
    23  H    3.744741   3.651852   4.199366   2.541648   3.841404
    24  H    3.174733   2.388888   3.961159   3.114674   3.039795
    25  H    2.669637   4.506049   6.232560   4.793123   2.231040
    26  H    3.382579   5.266022   6.358377   4.402105   3.191231
    27  H    3.395351   6.381156   7.108848   5.331235   5.514319
    28  H    3.872771   7.838798   8.660105   7.321022   7.551446
    29  H    3.407679   7.942903   9.259981   8.421099   8.006045
    30  H    2.155472   6.610768   8.466696   7.916943   6.644632
    31  H    1.088198   4.794397   6.870989   6.121381   4.187816
    32  N    7.287787   2.516347   2.629473   3.343183   4.267473
    33  C    7.899651   2.889375   3.320717   4.663060   5.164800
    34  H    7.241788   2.444311   3.639040   4.941745   4.912762
    35  H    8.625760   3.843132   4.304810   5.424632   5.441144
    36  H    8.534944   3.352451   3.156993   4.981206   6.142266
    37  C    8.439105   3.850349   3.068555   3.547530   5.112556
    38  H    9.055473   4.247680   2.860560   3.870206   6.089338
    39  H    9.117643   4.594118   4.115365   4.530113   5.402781
    40  H    8.217315   4.134213   3.253492   2.965455   4.806284
                   21         22         23         24         25
    21  H    0.000000
    22  H    4.052245   0.000000
    23  H    4.220850   3.119603   0.000000
    24  H    3.368363   4.170668   1.758832   0.000000
    25  H    3.769314   4.369388   3.067701   2.510895   0.000000
    26  H    4.494317   3.318151   2.507609   3.061714   1.761845
    27  H    6.595509   4.693484   2.968961   4.073385   3.705998
    28  H    8.656608   7.109866   4.897447   5.661674   5.486707
    29  H    9.140199   8.653477   5.970204   6.024279   5.882320
    30  H    7.762769   8.381648   5.645472   4.981379   4.738311
    31  H    5.369186   6.456196   4.083611   3.057786   2.466034
    32  N    2.578989   5.119149   5.012509   4.244280   5.792422
    33  C    3.545215   6.564176   6.112228   5.057754   6.659626
    34  H    3.538647   6.828562   5.947024   4.646409   6.220592
    35  H    3.766792   7.042566   6.925784   5.861380   7.176845
    36  H    4.531837   7.145069   6.594051   5.651076   7.497708
    37  C    3.386897   5.090098   5.712626   5.322393   6.754690
    38  H    4.396979   5.716821   6.188415   5.892150   7.577915
    39  H    3.630943   5.738258   6.590399   6.091440   7.272089
    40  H    3.248678   4.147151   5.226938   5.128838   6.387518
                   26         27         28         29         30
    26  H    0.000000
    27  H    2.494359   0.000000
    28  H    4.760247   2.474820   0.000000
    29  H    5.897333   4.303342   2.490274   0.000000
    30  H    5.492650   4.962280   4.303388   2.489704   0.000000
    31  H    3.702287   4.296747   4.960944   4.302777   2.475747
    32  N    6.331732   7.901441   9.768699  10.212490   8.928048
    33  C    7.453526   8.975117  10.654739  10.803529   9.300131
    34  H    7.213320   8.690333  10.218391  10.146261   8.496552
    35  H    8.025905   9.739247  11.510604  11.658426  10.059783
    36  H    8.196242   9.514281  11.094819  11.245021   9.838563
    37  C    7.012806   8.582937  10.595685  11.296276  10.188718
    38  H    7.760926   9.108248  11.020413  11.734881  10.721503
    39  H    7.637643   9.395369  11.463727  12.111472  10.873239
    40  H    6.408395   7.985606  10.117277  11.030542  10.092423
                   31         32         33         34         35
    31  H    0.000000
    32  N    6.835134   0.000000
    33  C    7.317285   1.475421   0.000000
    34  H    6.582431   2.109798   1.090227   0.000000
    35  H    7.973960   2.081993   1.093048   1.775917   0.000000
    36  H    8.015198   2.151090   1.099342   1.789013   1.781545
    37  C    8.074560   1.473534   2.453293   3.390906   2.660560
    38  H    8.743465   2.146963   2.759631   3.761818   3.077214
    39  H    8.664826   2.080631   2.654264   3.633356   2.391604
    40  H    7.952725   2.105188   3.388697   4.199494   3.630373
                   36         37         38         39         40
    36  H    0.000000
    37  C    2.755465   0.000000
    38  H    2.607401   1.098360   0.000000
    39  H    3.058400   1.092931   1.782685   0.000000
    40  H    3.763227   1.089966   1.792787   1.772251   0.000000
 Symmetry turned off by external request.
 Stoichiometry    C13H19N2O4S2(1-)
 Framework group  C1[X(C13H19N2O4S2)]
 Deg. of freedom   114
 Full point group                 C1      NOp   1
 Rotational constants (GHZ):           0.3632050           0.1547852           0.1204340
 Leave Link  202 at Thu Sep 24 01:22:27 2020, MaxMem=  2147483648 cpu:               0.1 elap:               0.0
 (Enter /prod/apps/gaussian/g16b1/l301.exe)
 Standard basis: 6-31G(d) (6D, 7F)
 Ernie: Thresh=  0.10000D-02 Tol=  0.10000D-05 Strict=F.
   361 basis functions,   712 primitive gaussians,   361 cartesian basis functions
    88 alpha electrons       88 beta electrons
       nuclear repulsion energy      2115.4481617408 Hartrees.
 IExCor=  402 DFT=T Ex+Corr=B3LYP ExCW=0 ScaHFX=  0.200000
 ScaDFX=  0.800000  0.720000  1.000000  0.810000 ScalE2=  1.000000  1.000000
 IRadAn=      5 IRanWt=     -1 IRanGd=            0 ICorTp=0 IEmpDi=  4
 NAtoms=   40 NActive=   40 NUniq=   40 SFac= 1.00D+00 NAtFMM=   60 NAOKFM=F Big=F
 Integral buffers will be    131072 words long.
 Raffenetti 2 integral format.
 Two-electron integral symmetry is turned off.
 Using the following non-standard input for PCM:
 MSTModel=DFT cav MSTcharged
 --- end of non-standard input.
 MST model for solvation energy: B3LYP parametrization.
 MST cavity parameters:
 ISph   IAn     Re0     Alpha   Atom Type   QCorr
 ------------------------------------------------
   1     16     1.75     1.25      S          F
   2      7     1.50     1.25      NH         F
   3      6     1.50     1.15      C          T
   4      6     1.50     1.25      CH2        F
   5     16     1.75     1.25      S          F
   6      6     1.50     1.25      CH         F
   7      8     1.40     1.25      O          F
   8      8     1.40     1.25      O          F
   9      6     1.50     1.25      CH2        F
  10      6     1.50     1.25      CH2        F
  11      6     1.50     1.25      C          F
  12      6     1.50     1.25      CH         F
  13      6     1.50     1.25      CH         F
  14      6     1.50     1.25      CH         F
  15      6     1.50     1.25      CH         F
  16      6     1.50     1.25      CH         F
  17      8     1.40     1.25      O          F
  18      8     1.40     1.25      O          F
  19      1     0.90     1.25      NH         F
  20      1     1.20     1.25      CH2        F
  21      1     1.20     1.25      CH2        F
  22      1     1.20     1.25      CH         F
  23      1     1.20     1.25      CH2        F
  24      1     1.20     1.25      CH2        F
  25      1     1.20     1.25      CH2        F
  26      1     1.20     1.25      CH2        F
  27      1     1.20     1.25      CH         F
  28      1     1.20     1.25      CH         F
  29      1     1.20     1.25      CH         F
  30      1     1.20     1.25      CH         F
  31      1     1.20     1.25      CH         F
  32      7     1.40     1.25      N          F
  33      6     1.50     1.25      CH3        F
  34      1     1.20     1.25      CH3        F
  35      1     1.20     1.25      CH3        F
  36      1     1.20     1.25      CH3        F
  37      6     1.50     1.25      CH3        F
  38      1     1.20     1.25      CH3        F
  39      1     1.20     1.25      CH3        F
  40      1     1.20     1.25      CH3        F
 ------------------------------------------------------------------------------
 Polarizable Continuum Model (PCM)
 =================================
 Model                : PCM.
 Atomic radii         : MST.
 Polarization charges : Total charges.
 Charge compensation  : None.
 Solution method      : On-the-fly selection.
 Cavity type          : Scaled VdW (van der Waals Surface) (Alpha=1.250).
 Cavity algorithm     : GePol (No added spheres)
                        Default sphere list used, NSphG=   40.
                        Lebedev-Laikov grids with approx.  5.0 points / Ang**2.
                        Smoothing algorithm: York/Karplus (Gamma=1.0000).
                        Polarization charges: spherical gaussians, with
                                              point-specific exponents (IZeta= 3).
                        Self-potential: point-specific (ISelfS= 7).
                        Self-field    : sphere-specific E.n sum rule (ISelfD= 2).
 1st derivatives      : Analytical E(r).r(x)/FMM algorithm (CHGder, D1EAlg=3).
                        Cavity 1st derivative terms included.
 Solvent              : Water, Eps=  78.355300 Eps(inf)=   1.777849
 ------------------------------------------------------------------------------
 GePol: Number of generator spheres                  =      40
 GePol: Total number of spheres                      =      40
 GePol: Number of exposed spheres                    =      40 (100.00%)
 GePol: Number of points                             =    2828
 GePol: Average weight of points                     =       0.13
 GePol: Minimum weight of points                     =   0.69D-10
 GePol: Maximum weight of points                     =    0.22001
 GePol: Number of points with low weight             =     193
 GePol: Fraction of low-weight points (<1% of avg)   =       6.82%
 GePol: Cavity surface area                          =    379.596 Ang**2
 GePol: Cavity volume                                =    372.630 Ang**3
 PCM non-electrostatic energy =         0.0034324275 Hartrees.
 Nuclear repulsion after PCM non-electrostatic terms =     2115.4515941683 Hartrees.
 Leave Link  301 at Thu Sep 24 01:22:28 2020, MaxMem=  2147483648 cpu:               0.4 elap:               0.1
 (Enter /prod/apps/gaussian/g16b1/l302.exe)
 NPDir=0 NMtPBC=     1 NCelOv=     1 NCel=       1 NClECP=     1 NCelD=      1
         NCelK=      1 NCelE2=     1 NClLst=     1 CellRange=     0.0.
 One-electron integrals computed using PRISM.
 NBasis=   361 RedAO= T EigKep=  4.71D-04  NBF=   361
 NBsUse=   361 1.00D-06 EigRej= -1.00D+00 NBFU=   361
 Precomputing XC quadrature grid using
 IXCGrd= 4 IRadAn=           5 IRanWt=          -1 IRanGd=           0 AccXCQ= 0.00D+00.
 Generated NRdTot=       0 NPtTot=           0 NUsed=           0 NTot=          32
 NSgBfM=   358   358   358   358   358 MxSgAt=    40 MxSgA2=    40.
 Leave Link  302 at Thu Sep 24 01:22:28 2020, MaxMem=  2147483648 cpu:               2.4 elap:               0.6
 (Enter /prod/apps/gaussian/g16b1/l303.exe)
 DipDrv:  MaxL=1.
 Leave Link  303 at Thu Sep 24 01:22:28 2020, MaxMem=  2147483648 cpu:               0.2 elap:               0.1
 (Enter /prod/apps/gaussian/g16b1/l401.exe)
 ExpMin= 1.17D-01 ExpMax= 2.19D+04 ExpMxC= 3.30D+03 IAcc=3 IRadAn=         5 AccDes= 0.00D+00
 Harris functional with IExCor=  402 and IRadAn=       5 diagonalized for initial guess.
 HarFok:  IExCor=  402 AccDes= 0.00D+00 IRadAn=         5 IDoV= 1 UseB2=F ITyADJ=14
 ICtDFT=  3500011 ScaDFX=  1.000000  1.000000  1.000000  1.000000
 FoFCou: FMM=F IPFlag=           0 FMFlag=      100000 FMFlg1=           0
         NFxFlg=           0 DoJE=T BraDBF=F KetDBF=T FulRan=T
         wScrn=  0.000000 ICntrl=       500 IOpCl=  0 I1Cent=   200000004 NGrid=           0
         NMat0=    1 NMatS0=      1 NMatT0=    0 NMatD0=    1 NMtDS0=    0 NMtDT0=    0
 Symmetry not used in FoFCou.
 Harris En= -1713.69370068921    
 JPrj=0 DoOrth=F DoCkMO=F.
 Leave Link  401 at Thu Sep 24 01:22:32 2020, MaxMem=  2147483648 cpu:              14.0 elap:               3.5
 (Enter /prod/apps/gaussian/g16b1/l502.exe)
 Two-electron integral symmetry not used.
 Closed shell SCF:
 Using DIIS extrapolation, IDIIS=  1040.
 NGot=  2147483648 LenX=  2147217629 LenY=  2147086867
 Requested convergence on RMS density matrix=1.00D-08 within2000 cycles.
 Requested convergence on MAX density matrix=1.00D-06.
 Requested convergence on             energy=1.00D-06.
 No special actions if energy rises.

 Cycle   1  Pass 1  IDiag  1:
 FoFJK:  IHMeth= 1 ICntrl=       0 DoSepK=F KAlg= 0 I1Cent=           0 FoldK=F
 IRaf= 760000000 NMat=       1 IRICut=       1 DoRegI=T DoRafI=F ISym2E= 0 IDoP0=0 IntGTp=1.
 FoFCou: FMM=F IPFlag=           0 FMFlag=      100000 FMFlg1=           0
         NFxFlg=           0 DoJE=F BraDBF=F KetDBF=F FulRan=T
         wScrn=  0.000000 ICntrl=         0 IOpCl=  0 I1Cent=           0 NGrid=           0
         NMat0=    1 NMatS0=      1 NMatT0=    0 NMatD0=    1 NMtDS0=    0 NMtDT0=    0
 Symmetry not used in FoFCou.
 Inv3:  Mode=1 IEnd=    23992752.
 Iteration    1 A*A^-1 deviation from unit magnitude is 3.11D-15 for    229.
 Iteration    1 A*A^-1 deviation from orthogonality  is 3.28D-15 for   1603   1003.
 Iteration    1 A^-1*A deviation from unit magnitude is 3.11D-15 for    229.
 Iteration    1 A^-1*A deviation from orthogonality  is 8.28D-15 for   2096   2077.
 E= -1712.67770338953    
 DIIS: error= 3.18D-02 at cycle   1 NSaved=   1.
 NSaved= 1 IEnMin= 1 EnMin= -1712.67770338953     IErMin= 1 ErrMin= 3.18D-02
 ErrMax= 3.18D-02  0.00D+00 EMaxC= 1.00D-01 BMatC= 1.02D+00 BMatP= 1.02D+00
 IDIUse=3 WtCom= 6.82D-01 WtEn= 3.18D-01
 Coeff-Com:  0.100D+01
 Coeff-En:   0.100D+01
 Coeff:      0.100D+01
 Gap=     0.151 Goal=   None    Shift=    0.000
 GapD=    0.151 DampG=1.000 DampE=0.500 DampFc=0.5000 IDamp=-1.
 Damping current iteration by 5.00D-01
 RMSDP=6.82D-03 MaxDP=5.95D-01              OVMax= 2.24D-01

 Cycle   2  Pass 1  IDiag  1:
 E= -1712.94670495642     Delta-E=       -0.269001566885 Rises=F Damp=T
 DIIS: error= 1.23D-02 at cycle   2 NSaved=   2.
 NSaved= 2 IEnMin= 2 EnMin= -1712.94670495642     IErMin= 2 ErrMin= 1.23D-02
 ErrMax= 1.23D-02  0.00D+00 EMaxC= 1.00D-01 BMatC= 1.11D-01 BMatP= 1.02D+00
 IDIUse=3 WtCom= 8.77D-01 WtEn= 1.23D-01
 Coeff-Com:  0.196D+00 0.804D+00
 Coeff-En:   0.317D+00 0.683D+00
 Coeff:      0.211D+00 0.789D+00
 Gap=     0.254 Goal=   None    Shift=    0.000
 RMSDP=1.70D-03 MaxDP=1.44D-01 DE=-2.69D-01 OVMax= 1.60D-01

 Cycle   3  Pass 1  IDiag  1:
 E= -1713.49044691547     Delta-E=       -0.543741959054 Rises=F Damp=F
 DIIS: error= 7.92D-03 at cycle   3 NSaved=   3.
 NSaved= 3 IEnMin= 3 EnMin= -1713.49044691547     IErMin= 3 ErrMin= 7.92D-03
 ErrMax= 7.92D-03  0.00D+00 EMaxC= 1.00D-01 BMatC= 6.23D-02 BMatP= 1.11D-01
 IDIUse=3 WtCom= 9.21D-01 WtEn= 7.92D-02
 Coeff-Com:  0.706D-01 0.439D+00 0.490D+00
 Coeff-En:   0.000D+00 0.000D+00 0.100D+01
 Coeff:      0.650D-01 0.404D+00 0.531D+00
 Gap=     0.176 Goal=   None    Shift=    0.000
 RMSDP=1.00D-03 MaxDP=3.63D-02 DE=-5.44D-01 OVMax= 4.38D-02

 Cycle   4  Pass 1  IDiag  1:
 E= -1713.53798549063     Delta-E=       -0.047538575158 Rises=F Damp=F
 DIIS: error= 3.50D-03 at cycle   4 NSaved=   4.
 NSaved= 4 IEnMin= 4 EnMin= -1713.53798549063     IErMin= 4 ErrMin= 3.50D-03
 ErrMax= 3.50D-03  0.00D+00 EMaxC= 1.00D-01 BMatC= 9.76D-03 BMatP= 6.23D-02
 IDIUse=3 WtCom= 9.65D-01 WtEn= 3.50D-02
 Coeff-Com:  0.548D-02 0.865D-01 0.295D+00 0.613D+00
 Coeff-En:   0.000D+00 0.000D+00 0.128D+00 0.872D+00
 Coeff:      0.529D-02 0.834D-01 0.289D+00 0.622D+00
 Gap=     0.166 Goal=   None    Shift=    0.000
 RMSDP=3.45D-04 MaxDP=1.44D-02 DE=-4.75D-02 OVMax= 1.92D-02

 Cycle   5  Pass 1  IDiag  1:
 E= -1713.54570981550     Delta-E=       -0.007724324870 Rises=F Damp=F
 DIIS: error= 9.25D-04 at cycle   5 NSaved=   5.
 NSaved= 5 IEnMin= 5 EnMin= -1713.54570981550     IErMin= 5 ErrMin= 9.25D-04
 ErrMax= 9.25D-04  0.00D+00 EMaxC= 1.00D-01 BMatC= 8.40D-04 BMatP= 9.76D-03
 IDIUse=3 WtCom= 9.91D-01 WtEn= 9.25D-03
 Coeff-Com: -0.220D-02 0.148D-01 0.113D+00 0.333D+00 0.541D+00
 Coeff-En:   0.000D+00 0.000D+00 0.000D+00 0.526D-02 0.995D+00
 Coeff:     -0.218D-02 0.147D-01 0.112D+00 0.330D+00 0.546D+00
 Gap=     0.169 Goal=   None    Shift=    0.000
 RMSDP=9.72D-05 MaxDP=6.74D-03 DE=-7.72D-03 OVMax= 5.15D-03

 Cycle   6  Pass 1  IDiag  1:
 E= -1713.54645560530     Delta-E=       -0.000745789803 Rises=F Damp=F
 DIIS: error= 1.37D-04 at cycle   6 NSaved=   6.
 NSaved= 6 IEnMin= 6 EnMin= -1713.54645560530     IErMin= 6 ErrMin= 1.37D-04
 ErrMax= 1.37D-04  0.00D+00 EMaxC= 1.00D-01 BMatC= 2.77D-05 BMatP= 8.40D-04
 IDIUse=3 WtCom= 9.99D-01 WtEn= 1.37D-03
 Coeff-Com: -0.127D-02 0.205D-02 0.327D-01 0.107D+00 0.240D+00 0.619D+00
 Coeff-En:   0.000D+00 0.000D+00 0.000D+00 0.000D+00 0.000D+00 0.100D+01
 Coeff:     -0.126D-02 0.205D-02 0.326D-01 0.107D+00 0.240D+00 0.620D+00
 Gap=     0.169 Goal=   None    Shift=    0.000
 RMSDP=1.75D-05 MaxDP=7.95D-04 DE=-7.46D-04 OVMax= 9.07D-04

 Cycle   7  Pass 1  IDiag  1:
 E= -1713.54647714015     Delta-E=       -0.000021534850 Rises=F Damp=F
 DIIS: error= 5.11D-05 at cycle   7 NSaved=   7.
 NSaved= 7 IEnMin= 7 EnMin= -1713.54647714015     IErMin= 7 ErrMin= 5.11D-05
 ErrMax= 5.11D-05  0.00D+00 EMaxC= 1.00D-01 BMatC= 3.52D-06 BMatP= 2.77D-05
 IDIUse=1 WtCom= 1.00D+00 WtEn= 0.00D+00
 Coeff-Com: -0.525D-03-0.121D-03 0.842D-02 0.310D-01 0.881D-01 0.335D+00
 Coeff-Com:  0.539D+00
 Coeff:     -0.525D-03-0.121D-03 0.842D-02 0.310D-01 0.881D-01 0.335D+00
 Coeff:      0.539D+00
 Gap=     0.169 Goal=   None    Shift=    0.000
 RMSDP=6.66D-06 MaxDP=2.91D-04 DE=-2.15D-05 OVMax= 4.37D-04

 Cycle   8  Pass 1  IDiag  1:
 E= -1713.54648003324     Delta-E=       -0.000002893086 Rises=F Damp=F
 DIIS: error= 1.85D-05 at cycle   8 NSaved=   8.
 NSaved= 8 IEnMin= 8 EnMin= -1713.54648003324     IErMin= 8 ErrMin= 1.85D-05
 ErrMax= 1.85D-05  0.00D+00 EMaxC= 1.00D-01 BMatC= 3.49D-07 BMatP= 3.52D-06
 IDIUse=1 WtCom= 1.00D+00 WtEn= 0.00D+00
 Coeff-Com: -0.166D-03-0.213D-03 0.123D-02 0.567D-02 0.233D-01 0.116D+00
 Coeff-Com:  0.290D+00 0.565D+00
 Coeff:     -0.166D-03-0.213D-03 0.123D-02 0.567D-02 0.233D-01 0.116D+00
 Coeff:      0.290D+00 0.565D+00
 Gap=     0.169 Goal=   None    Shift=    0.000
 RMSDP=2.14D-06 MaxDP=1.08D-04 DE=-2.89D-06 OVMax= 1.43D-04

 Cycle   9  Pass 1  IDiag  1:
 E= -1713.54648026954     Delta-E=       -0.000000236303 Rises=F Damp=F
 DIIS: error= 6.85D-06 at cycle   9 NSaved=   9.
 NSaved= 9 IEnMin= 9 EnMin= -1713.54648026954     IErMin= 9 ErrMin= 6.85D-06
 ErrMax= 6.85D-06  0.00D+00 EMaxC= 1.00D-01 BMatC= 5.76D-08 BMatP= 3.49D-07
 IDIUse=1 WtCom= 1.00D+00 WtEn= 0.00D+00
 Coeff-Com: -0.261D-04-0.100D-03-0.543D-03-0.126D-02 0.980D-03 0.190D-01
 Coeff-Com:  0.931D-01 0.336D+00 0.553D+00
 Coeff:     -0.261D-04-0.100D-03-0.543D-03-0.126D-02 0.980D-03 0.190D-01
 Coeff:      0.931D-01 0.336D+00 0.553D+00
 Gap=     0.169 Goal=   None    Shift=    0.000
 RMSDP=7.34D-07 MaxDP=3.38D-05 DE=-2.36D-07 OVMax= 3.30D-05

 Cycle  10  Pass 1  IDiag  1:
 E= -1713.54648031645     Delta-E=       -0.000000046909 Rises=F Damp=F
 DIIS: error= 1.15D-06 at cycle  10 NSaved=  10.
 NSaved=10 IEnMin=10 EnMin= -1713.54648031645     IErMin=10 ErrMin= 1.15D-06
 ErrMax= 1.15D-06  0.00D+00 EMaxC= 1.00D-01 BMatC= 1.41D-09 BMatP= 5.76D-08
 IDIUse=1 WtCom= 1.00D+00 WtEn= 0.00D+00
 Coeff-Com: -0.814D-05-0.238D-04-0.284D-03-0.756D-03-0.476D-03 0.318D-02
 Coeff-Com:  0.282D-01 0.121D+00 0.233D+00 0.616D+00
 Coeff:     -0.814D-05-0.238D-04-0.284D-03-0.756D-03-0.476D-03 0.318D-02
 Coeff:      0.282D-01 0.121D+00 0.233D+00 0.616D+00
 Gap=     0.169 Goal=   None    Shift=    0.000
 RMSDP=1.49D-07 MaxDP=5.60D-06 DE=-4.69D-08 OVMax= 8.17D-06

 Cycle  11  Pass 1  IDiag  1:
 E= -1713.54648031729     Delta-E=       -0.000000000846 Rises=F Damp=F
 DIIS: error= 7.01D-07 at cycle  11 NSaved=  11.
 NSaved=11 IEnMin=11 EnMin= -1713.54648031729     IErMin=11 ErrMin= 7.01D-07
 ErrMax= 7.01D-07  0.00D+00 EMaxC= 1.00D-01 BMatC= 4.60D-10 BMatP= 1.41D-09
 IDIUse=1 WtCom= 1.00D+00 WtEn= 0.00D+00
 Coeff-Com: -0.243D-05 0.245D-05-0.110D-03-0.311D-03-0.491D-03-0.985D-03
 Coeff-Com:  0.384D-02 0.259D-01 0.630D-01 0.385D+00 0.524D+00
 Coeff:     -0.243D-05 0.245D-05-0.110D-03-0.311D-03-0.491D-03-0.985D-03
 Coeff:      0.384D-02 0.259D-01 0.630D-01 0.385D+00 0.524D+00
 Gap=     0.169 Goal=   None    Shift=    0.000
 RMSDP=6.43D-08 MaxDP=2.67D-06 DE=-8.46D-10 OVMax= 3.68D-06

 Cycle  12  Pass 1  IDiag  1:
 E= -1713.54648031768     Delta-E=       -0.000000000384 Rises=F Damp=F
 DIIS: error= 1.67D-07 at cycle  12 NSaved=  12.
 NSaved=12 IEnMin=12 EnMin= -1713.54648031768     IErMin=12 ErrMin= 1.67D-07
 ErrMax= 1.67D-07  0.00D+00 EMaxC= 1.00D-01 BMatC= 2.54D-11 BMatP= 4.60D-10
 IDIUse=1 WtCom= 1.00D+00 WtEn= 0.00D+00
 Coeff-Com: -0.954D-06 0.331D-05-0.405D-04-0.114D-03-0.244D-03-0.838D-03
 Coeff-Com: -0.314D-03 0.383D-02 0.139D-01 0.150D+00 0.269D+00 0.565D+00
 Coeff:     -0.954D-06 0.331D-05-0.405D-04-0.114D-03-0.244D-03-0.838D-03
 Coeff:     -0.314D-03 0.383D-02 0.139D-01 0.150D+00 0.269D+00 0.565D+00
 Gap=     0.169 Goal=   None    Shift=    0.000
 RMSDP=1.72D-08 MaxDP=1.36D-06 DE=-3.84D-10 OVMax= 8.18D-07

 Cycle  13  Pass 1  IDiag  1:
 E= -1713.54648031770     Delta-E=       -0.000000000020 Rises=F Damp=F
 DIIS: error= 9.33D-08 at cycle  13 NSaved=  13.
 NSaved=13 IEnMin=13 EnMin= -1713.54648031770     IErMin=13 ErrMin= 9.33D-08
 ErrMax= 9.33D-08  0.00D+00 EMaxC= 1.00D-01 BMatC= 3.03D-12 BMatP= 2.54D-11
 IDIUse=1 WtCom= 1.00D+00 WtEn= 0.00D+00
 Coeff-Com: -0.362D-06 0.186D-05-0.797D-05-0.208D-04-0.691D-04-0.327D-03
 Coeff-Com: -0.663D-03-0.114D-02-0.611D-03 0.315D-01 0.780D-01 0.304D+00
 Coeff-Com:  0.589D+00
 Coeff:     -0.362D-06 0.186D-05-0.797D-05-0.208D-04-0.691D-04-0.327D-03
 Coeff:     -0.663D-03-0.114D-02-0.611D-03 0.315D-01 0.780D-01 0.304D+00
 Coeff:      0.589D+00
 Gap=     0.169 Goal=   None    Shift=    0.000
 RMSDP=5.53D-09 MaxDP=2.99D-07 DE=-2.00D-11 OVMax= 2.78D-07

 Error on total polarization charges =  0.02157
 SCF Done:  E(RB3LYP) =  -1713.54648032     A.U. after   13 cycles
            NFock= 13  Conv=0.55D-08     -V/T= 2.0068
 KE= 1.701923855779D+03 PE=-8.281102688825D+03 EE= 2.750180758559D+03
 Leave Link  502 at Thu Sep 24 01:24:28 2020, MaxMem=  2147483648 cpu:             465.5 elap:             116.5
 (Enter /prod/apps/gaussian/g16b1/l601.exe)
 Copying SCF densities to generalized density rwf, IOpCl= 0 IROHF=0.

 **********************************************************************

            Population analysis using the SCF Density.

 **********************************************************************

 Alpha  occ. eigenvalues --  -89.12550 -89.04836 -19.14530 -19.14426 -19.10237
 Alpha  occ. eigenvalues --  -19.10072 -14.36838 -14.35273 -10.24152 -10.21379
 Alpha  occ. eigenvalues --  -10.21079 -10.19695 -10.19290 -10.18754 -10.18735
 Alpha  occ. eigenvalues --  -10.18580 -10.18457 -10.18450 -10.17788 -10.17523
 Alpha  occ. eigenvalues --  -10.13762  -8.14776  -8.07746  -6.11248  -6.11223
 Alpha  occ. eigenvalues --   -6.11154  -6.04182  -6.04176  -6.03967  -1.11536
 Alpha  occ. eigenvalues --   -1.04634  -0.99842  -0.93770  -0.93284  -0.91162
 Alpha  occ. eigenvalues --   -0.85162  -0.82486  -0.77878  -0.73947  -0.72593
 Alpha  occ. eigenvalues --   -0.71580  -0.69871  -0.66539  -0.65243  -0.60363
 Alpha  occ. eigenvalues --   -0.59988  -0.57517  -0.56900  -0.52557  -0.52208
 Alpha  occ. eigenvalues --   -0.50775  -0.50503  -0.48816  -0.46966  -0.46806
 Alpha  occ. eigenvalues --   -0.46217  -0.45352  -0.44665  -0.44300  -0.43759
 Alpha  occ. eigenvalues --   -0.41915  -0.41575  -0.41170  -0.40910  -0.40242
 Alpha  occ. eigenvalues --   -0.40032  -0.39581  -0.38724  -0.37814  -0.36017
 Alpha  occ. eigenvalues --   -0.35767  -0.35373  -0.34256  -0.33612  -0.33196
 Alpha  occ. eigenvalues --   -0.32968  -0.32308  -0.30883  -0.30565  -0.29560
 Alpha  occ. eigenvalues --   -0.27933  -0.26471  -0.26385  -0.25597  -0.24904
 Alpha  occ. eigenvalues --   -0.24841  -0.23719  -0.16872
 Alpha virt. eigenvalues --    0.00025   0.00152   0.06576   0.06902   0.07987
 Alpha virt. eigenvalues --    0.08846   0.08983   0.09937   0.10466   0.10689
 Alpha virt. eigenvalues --    0.11540   0.12824   0.13137   0.13582   0.14301
 Alpha virt. eigenvalues --    0.14744   0.15231   0.15509   0.15999   0.16827
 Alpha virt. eigenvalues --    0.17439   0.17989   0.18051   0.18736   0.19189
 Alpha virt. eigenvalues --    0.19669   0.20090   0.20299   0.20945   0.22012
 Alpha virt. eigenvalues --    0.22070   0.23010   0.24309   0.25513   0.26840
 Alpha virt. eigenvalues --    0.28658   0.29236   0.31046   0.33072   0.33488
 Alpha virt. eigenvalues --    0.34473   0.34958   0.35576   0.36835   0.39582
 Alpha virt. eigenvalues --    0.40788   0.43199   0.43563   0.44619   0.46141
 Alpha virt. eigenvalues --    0.46843   0.49927   0.51374   0.52158   0.52649
 Alpha virt. eigenvalues --    0.53233   0.54130   0.55100   0.55864   0.56839
 Alpha virt. eigenvalues --    0.57205   0.57622   0.58789   0.59780   0.59988
 Alpha virt. eigenvalues --    0.60217   0.61239   0.61457   0.62550   0.63178
 Alpha virt. eigenvalues --    0.63639   0.64420   0.65806   0.66696   0.67299
 Alpha virt. eigenvalues --    0.68286   0.69744   0.70640   0.71704   0.72832
 Alpha virt. eigenvalues --    0.74325   0.75156   0.78041   0.78454   0.78792
 Alpha virt. eigenvalues --    0.80656   0.81241   0.81644   0.82175   0.83206
 Alpha virt. eigenvalues --    0.83733   0.84220   0.84369   0.84527   0.85070
 Alpha virt. eigenvalues --    0.86336   0.87032   0.87638   0.88059   0.88280
 Alpha virt. eigenvalues --    0.88996   0.90729   0.91063   0.91774   0.92031
 Alpha virt. eigenvalues --    0.92292   0.93624   0.94130   0.94674   0.95173
 Alpha virt. eigenvalues --    0.96252   0.96628   0.97307   0.97778   0.99259
 Alpha virt. eigenvalues --    0.99836   1.00590   1.01016   1.02392   1.03317
 Alpha virt. eigenvalues --    1.03383   1.05297   1.07364   1.08197   1.09336
 Alpha virt. eigenvalues --    1.10057   1.10730   1.11470   1.12330   1.13076
 Alpha virt. eigenvalues --    1.14212   1.16020   1.17338   1.17643   1.18747
 Alpha virt. eigenvalues --    1.20466   1.21123   1.22241   1.23574   1.24693
 Alpha virt. eigenvalues --    1.25992   1.26320   1.29763   1.34092   1.36423
 Alpha virt. eigenvalues --    1.37796   1.40798   1.41259   1.42969   1.44236
 Alpha virt. eigenvalues --    1.45575   1.46194   1.48259   1.48675   1.49506
 Alpha virt. eigenvalues --    1.51699   1.51995   1.53232   1.56393   1.59095
 Alpha virt. eigenvalues --    1.61601   1.65371   1.65579   1.69527   1.71723
 Alpha virt. eigenvalues --    1.73572   1.74527   1.75440   1.78356   1.79581
 Alpha virt. eigenvalues --    1.80294   1.80519   1.81140   1.81791   1.82643
 Alpha virt. eigenvalues --    1.83555   1.83871   1.84023   1.85037   1.86192
 Alpha virt. eigenvalues --    1.87480   1.87845   1.89192   1.90239   1.91769
 Alpha virt. eigenvalues --    1.93151   1.93369   1.96034   1.96888   1.97934
 Alpha virt. eigenvalues --    1.98085   1.98422   1.99831   2.00981   2.02089
 Alpha virt. eigenvalues --    2.03911   2.05562   2.05807   2.06585   2.08470
 Alpha virt. eigenvalues --    2.09477   2.09920   2.10986   2.13152   2.14141
 Alpha virt. eigenvalues --    2.14620   2.15199   2.15903   2.16914   2.19709
 Alpha virt. eigenvalues --    2.21068   2.21407   2.24206   2.24705   2.25132
 Alpha virt. eigenvalues --    2.26474   2.27205   2.29082   2.30220   2.31116
 Alpha virt. eigenvalues --    2.32078   2.34253   2.35936   2.37619   2.39833
 Alpha virt. eigenvalues --    2.41987   2.42603   2.43150   2.47653   2.49951
 Alpha virt. eigenvalues --    2.56673   2.56735   2.58077   2.58192   2.61952
 Alpha virt. eigenvalues --    2.66234   2.69420   2.71278   2.72638   2.72859
 Alpha virt. eigenvalues --    2.73494   2.74612   2.76187   2.77053   2.78078
 Alpha virt. eigenvalues --    2.79678   2.82791   2.83079   2.91554   2.94342
 Alpha virt. eigenvalues --    3.05233   3.40840   3.82538   3.83937   3.89319
 Alpha virt. eigenvalues --    3.95075   4.00701   4.02714   4.06342   4.09160
 Alpha virt. eigenvalues --    4.11662   4.11868   4.15467   4.21924   4.26106
 Alpha virt. eigenvalues --    4.27578   4.33290   4.33999   4.37855   4.42555
 Alpha virt. eigenvalues --    4.52833   4.70697   4.75119
          Condensed to atoms (all electrons):
               1          2          3          4          5          6
     1  S   13.597672   0.158234   0.003465  -0.004954   0.000835   0.002027
     2  N    0.158234   7.497738   0.136163  -0.042411   0.003164  -0.077440
     3  C    0.003465   0.136163   4.806561   0.309887  -0.084419   0.476193
     4  C   -0.004954  -0.042411   0.309887   5.768472   0.084680  -0.156155
     5  S    0.000835   0.003164  -0.084419   0.084680  14.059080   0.265297
     6  C    0.002027  -0.077440   0.476193  -0.156155   0.265297   5.840786
     7  O   -0.000334   0.001455  -0.000765  -0.046310   0.374211  -0.067122
     8  O    0.000001  -0.000098   0.002806  -0.047947   0.397988  -0.064333
     9  C   -0.001510  -0.077826   0.363244  -0.038618  -0.004071  -0.060850
    10  C   -0.000049   0.004415  -0.032763  -0.005050  -0.000317  -0.009042
    11  C   -0.000028  -0.000064   0.004272   0.000132   0.000094   0.000881
    12  C   -0.000001  -0.000004   0.000097  -0.000002  -0.000000  -0.000026
    13  C    0.000000  -0.000000   0.000001  -0.000000  -0.000000  -0.000001
    14  C    0.000000   0.000000  -0.000000   0.000000   0.000000   0.000000
    15  C   -0.000000  -0.000000   0.000002  -0.000000  -0.000000  -0.000000
    16  C   -0.000005  -0.000003  -0.000003  -0.000003  -0.000002  -0.000013
    17  O    0.413472  -0.053190   0.004902  -0.000192   0.000062   0.000039
    18  O    0.433387  -0.056012   0.001224  -0.000066  -0.000007  -0.000092
    19  H   -0.014114   0.295462  -0.018202   0.004096   0.000108  -0.003653
    20  H   -0.000167   0.002020  -0.023888   0.333524  -0.006276  -0.000457
    21  H    0.002569  -0.001841  -0.022460   0.329152  -0.011511   0.004601
    22  H    0.000058  -0.003049  -0.036712   0.013216  -0.022333   0.340775
    23  H    0.000659  -0.000947  -0.032505   0.005184  -0.000021  -0.005139
    24  H    0.002102  -0.001274  -0.028429  -0.005189   0.000153   0.005043
    25  H   -0.000000   0.000034  -0.003815   0.001620   0.000323   0.000235
    26  H    0.000001   0.000229  -0.003088  -0.000615   0.002747   0.020648
    27  H    0.000000   0.000001  -0.000058   0.000001   0.000002   0.000047
    28  H    0.000000   0.000000  -0.000000  -0.000000  -0.000000  -0.000000
    29  H    0.000000  -0.000000   0.000000   0.000000   0.000000   0.000000
    30  H    0.000000   0.000000  -0.000000  -0.000000  -0.000000  -0.000000
    31  H    0.000000   0.000000  -0.000039  -0.000001   0.000001   0.000001
    32  N    0.138333  -0.047860  -0.002680  -0.006160  -0.000067  -0.000165
    33  C   -0.021875   0.002389   0.000026   0.000021   0.000013   0.000003
    34  H   -0.003688   0.000084   0.000010   0.000050   0.000003   0.000000
    35  H    0.002306  -0.000086  -0.000000   0.000042  -0.000006  -0.000000
    36  H   -0.004225  -0.000067  -0.000003  -0.000010   0.000000   0.000000
    37  C   -0.011615  -0.009458   0.000344   0.000152  -0.000619   0.000043
    38  H   -0.008234  -0.000351  -0.000017  -0.000022   0.000024  -0.000001
    39  H    0.002907   0.000110  -0.000001   0.000068  -0.000001   0.000002
    40  H   -0.003047   0.012846  -0.000289  -0.000169   0.002520  -0.000312
               7          8          9         10         11         12
     1  S   -0.000334   0.000001  -0.001510  -0.000049  -0.000028  -0.000001
     2  N    0.001455  -0.000098  -0.077826   0.004415  -0.000064  -0.000004
     3  C   -0.000765   0.002806   0.363244  -0.032763   0.004272   0.000097
     4  C   -0.046310  -0.047947  -0.038618  -0.005050   0.000132  -0.000002
     5  S    0.374211   0.397988  -0.004071  -0.000317   0.000094  -0.000000
     6  C   -0.067122  -0.064333  -0.060850  -0.009042   0.000881  -0.000026
     7  O    8.445689  -0.069109  -0.000160   0.000001   0.000000  -0.000000
     8  O   -0.069109   8.416635  -0.000008  -0.000012  -0.000001   0.000000
     9  C   -0.000160  -0.000008   5.160244   0.349844  -0.039612  -0.004073
    10  C    0.000001  -0.000012   0.349844   5.191673   0.342691  -0.059326
    11  C    0.000000  -0.000001  -0.039612   0.342691   4.668752   0.543697
    12  C   -0.000000   0.000000  -0.004073  -0.059326   0.543697   4.996515
    13  C   -0.000000   0.000000  -0.000077   0.006737  -0.021046   0.515047
    14  C    0.000000  -0.000000   0.000024   0.000281  -0.034404  -0.037731
    15  C   -0.000000   0.000000  -0.000072   0.006382  -0.021410  -0.046390
    16  C   -0.000000   0.000000  -0.003001  -0.055563   0.539554  -0.042906
    17  O    0.000000  -0.000000  -0.008493   0.000110   0.000001  -0.000000
    18  O    0.000000  -0.000000  -0.000296  -0.000001   0.000000   0.000000
    19  H   -0.000010   0.000002  -0.000349  -0.000103  -0.000000  -0.000000
    20  H    0.000943   0.001659  -0.002695   0.000793  -0.000131  -0.000001
    21  H    0.002022   0.000289  -0.000686   0.000196   0.000004   0.000000
    22  H   -0.000221   0.000824   0.000043   0.000001  -0.000003  -0.000000
    23  H    0.000002   0.000001   0.359580  -0.039855  -0.002081   0.004235
    24  H    0.000002  -0.000000   0.352173  -0.036921  -0.000250  -0.000086
    25  H    0.000001  -0.000025  -0.038291   0.355369  -0.028010   0.004300
    26  H    0.000005  -0.000145  -0.040350   0.346089  -0.026076  -0.005328
    27  H    0.000000  -0.000000   0.000332  -0.009223  -0.044132   0.358960
    28  H   -0.000000   0.000000  -0.000001  -0.000164   0.003658  -0.038909
    29  H    0.000000  -0.000000   0.000000   0.000006   0.000610   0.004571
    30  H   -0.000000   0.000000  -0.000001  -0.000160   0.003606   0.000714
    31  H    0.000000  -0.000000   0.000292  -0.009034  -0.044404   0.006120
    32  N   -0.000086  -0.000000  -0.000258   0.000000   0.000000  -0.000000
    33  C   -0.000002  -0.000000   0.000008  -0.000000   0.000000   0.000000
    34  H    0.000000   0.000000   0.000002  -0.000000  -0.000000  -0.000000
    35  H    0.000000   0.000000  -0.000000   0.000000  -0.000000  -0.000000
    36  H   -0.000000   0.000000  -0.000000  -0.000000  -0.000000  -0.000000
    37  C   -0.000966  -0.000000  -0.000001   0.000000  -0.000000  -0.000000
    38  H    0.000038   0.000000  -0.000000  -0.000000  -0.000000   0.000000
    39  H    0.000032  -0.000000   0.000000  -0.000000   0.000000  -0.000000
    40  H    0.007143   0.000006   0.000018  -0.000000   0.000000   0.000000
              13         14         15         16         17         18
     1  S    0.000000   0.000000  -0.000000  -0.000005   0.413472   0.433387
     2  N   -0.000000   0.000000  -0.000000  -0.000003  -0.053190  -0.056012
     3  C    0.000001  -0.000000   0.000002  -0.000003   0.004902   0.001224
     4  C   -0.000000   0.000000  -0.000000  -0.000003  -0.000192  -0.000066
     5  S   -0.000000   0.000000  -0.000000  -0.000002   0.000062  -0.000007
     6  C   -0.000001   0.000000  -0.000000  -0.000013   0.000039  -0.000092
     7  O   -0.000000   0.000000  -0.000000  -0.000000   0.000000   0.000000
     8  O    0.000000  -0.000000   0.000000   0.000000  -0.000000  -0.000000
     9  C   -0.000077   0.000024  -0.000072  -0.003001  -0.008493  -0.000296
    10  C    0.006737   0.000281   0.006382  -0.055563   0.000110  -0.000001
    11  C   -0.021046  -0.034404  -0.021410   0.539554   0.000001   0.000000
    12  C    0.515047  -0.037731  -0.046390  -0.042906  -0.000000   0.000000
    13  C    4.905425   0.543773  -0.029571  -0.046319  -0.000000  -0.000000
    14  C    0.543773   4.889623   0.544087  -0.038206   0.000000   0.000000
    15  C   -0.029571   0.544087   4.905181   0.515621  -0.000000   0.000000
    16  C   -0.046319  -0.038206   0.515621   4.997385  -0.000004   0.000000
    17  O   -0.000000   0.000000  -0.000000  -0.000004   8.318037  -0.046272
    18  O   -0.000000   0.000000   0.000000   0.000000  -0.046272   8.308721
    19  H   -0.000000  -0.000000   0.000000   0.000000   0.000197   0.003693
    20  H   -0.000000   0.000000  -0.000000   0.000009  -0.000109   0.000000
    21  H   -0.000000   0.000000   0.000000  -0.000000  -0.000588   0.000036
    22  H    0.000000   0.000000  -0.000000  -0.000000   0.000001  -0.000002
    23  H   -0.000179  -0.000003  -0.000009  -0.000149   0.000069  -0.000011
    24  H   -0.000011  -0.000003  -0.000120   0.003554   0.014165  -0.000142
    25  H   -0.000227   0.000012   0.000118  -0.005735   0.000012   0.000000
    26  H    0.000080   0.000016  -0.000212   0.003943  -0.000002   0.000000
    27  H   -0.045983   0.004764   0.000266   0.006117  -0.000000   0.000000
    28  H    0.360338  -0.042715   0.004515   0.000740  -0.000000  -0.000000
    29  H   -0.042321   0.362772  -0.042294   0.004556   0.000000   0.000000
    30  H    0.004520  -0.042547   0.360332  -0.038754  -0.000000  -0.000000
    31  H    0.000265   0.004770  -0.045961   0.358955  -0.000000   0.000000
    32  N   -0.000000   0.000000   0.000000   0.000000  -0.057097  -0.057789
    33  C    0.000000  -0.000000   0.000000   0.000000  -0.004517  -0.002839
    34  H    0.000000  -0.000000  -0.000000   0.000000   0.011686  -0.000284
    35  H   -0.000000   0.000000  -0.000000  -0.000000   0.000197  -0.000106
    36  H    0.000000  -0.000000   0.000000   0.000000  -0.000571   0.003887
    37  C   -0.000000  -0.000000  -0.000000  -0.000000   0.001667   0.000116
    38  H    0.000000   0.000000   0.000000   0.000000  -0.000037   0.006772
    39  H    0.000000  -0.000000  -0.000000  -0.000000  -0.000052   0.000003
    40  H    0.000000  -0.000000   0.000000   0.000000   0.000030  -0.001297
              19         20         21         22         23         24
     1  S   -0.014114  -0.000167   0.002569   0.000058   0.000659   0.002102
     2  N    0.295462   0.002020  -0.001841  -0.003049  -0.000947  -0.001274
     3  C   -0.018202  -0.023888  -0.022460  -0.036712  -0.032505  -0.028429
     4  C    0.004096   0.333524   0.329152   0.013216   0.005184  -0.005189
     5  S    0.000108  -0.006276  -0.011511  -0.022333  -0.000021   0.000153
     6  C   -0.003653  -0.000457   0.004601   0.340775  -0.005139   0.005043
     7  O   -0.000010   0.000943   0.002022  -0.000221   0.000002   0.000002
     8  O    0.000002   0.001659   0.000289   0.000824   0.000001  -0.000000
     9  C   -0.000349  -0.002695  -0.000686   0.000043   0.359580   0.352173
    10  C   -0.000103   0.000793   0.000196   0.000001  -0.039855  -0.036921
[...]
     8  O    0.001162   0.000056  -0.000596  -0.003934  -0.000573  -0.000099
     9  C    0.105989  -0.117003   0.219099  -0.752609   0.063276  -0.008120
    10  C   -0.532809   0.242872  -0.673930  -0.130032   0.049894  -0.002545
    11  C    3.096900  -3.942447   3.331036  -6.491745  -0.020546   0.003350
    12  C   -4.724249   3.556873  -4.101533   1.882830  -0.001690  -0.000095
    13  C   11.808486  -3.483208   3.880310  -4.046673   0.000193   0.000001
    14  C   -3.483208   9.308095  -3.476842   3.510330  -0.000969  -0.000008
    15  C    3.880310  -3.476842  11.509458  -4.628227   0.002557   0.000346
    16  C   -4.046673   3.510330  -4.628227  16.699276  -0.001286   0.002541
    17  O    0.000193  -0.000969   0.002557  -0.001286   9.409233   0.031013
    18  O    0.000001  -0.000008   0.000346   0.002541   0.031013   9.447144
    19  H    0.004695  -0.001208   0.000843  -0.001443   0.006191   0.020575
    20  H    0.005241  -0.000844  -0.002169  -0.025753  -0.013445  -0.004064
    21  H   -0.003860  -0.000309   0.010164   0.003914   0.069897   0.015629
    22  H   -0.003386  -0.000505   0.000864   0.005684  -0.003029   0.001025
    23  H    0.001819   0.009347  -0.023279   0.025142   0.002378  -0.019570
    24  H   -0.067931   0.037472  -0.031128   0.129854  -0.000847   0.005886
    25  H   -0.089913   0.004948   0.140598   0.266901   0.003635   0.001475
    26  H    0.140594   0.003839  -0.078806  -0.231263   0.003558  -0.002289
    27  H    0.357628  -0.149059   0.118958  -0.071749  -0.000476   0.000412
    28  H   -0.810491   0.335306  -0.248358   0.126985  -0.000018   0.000010
    29  H    0.398467  -0.650468   0.394351  -0.142688  -0.000045   0.000005
    30  H   -0.236244   0.333460  -0.774098   0.662127   0.000086   0.000020
    31  H    0.114518  -0.143271   0.358382  -1.234025   0.000491   0.000121
    32  N    0.000053   0.000090   0.000116   0.010017   0.085469   0.188563
    33  C   -0.000175   0.000107  -0.001297  -0.001429   0.025597  -0.000991
    34  H    0.000197  -0.000151  -0.000057  -0.000482  -0.036433  -0.010122
    35  H   -0.000038   0.000024  -0.000062  -0.000055  -0.000584  -0.016727
    36  H    0.000001   0.000002  -0.000062  -0.000096   0.015228   0.031479
    37  C    0.000280  -0.000024  -0.000400  -0.001233   0.027701   0.037325
    38  H    0.000014   0.000002  -0.000055  -0.000062  -0.000048  -0.022406
    39  H    0.000038  -0.000012  -0.000009  -0.000259  -0.001005  -0.012771
    40  H   -0.000253   0.000062  -0.000034   0.000910  -0.001762   0.037292
              19         20         21         22         23         24
     1  S   -0.122547   0.084026  -0.114801  -0.002436   0.043744   0.030674
     2  N    0.372341   0.222040  -0.024859   0.069654  -0.253371   0.060853
     3  C    0.065828  -0.764515  -0.357022  -0.330991   0.259166  -0.917527
     4  C   -0.104755   0.455318  -0.180966   0.172399   0.108660  -0.070243
     5  S    0.010941  -0.285487   0.206907  -0.056434   0.008682   0.068924
     6  C   -0.103876   0.086350  -0.098331   0.045390  -0.022592   0.031548
     7  O    0.003794   0.032919  -0.025024  -0.010352  -0.000256  -0.007119
     8  O    0.000765   0.063638  -0.034212   0.005786  -0.001089  -0.005658
     9  C    0.009195   0.279234   0.340771   0.129371  -0.371047   0.519349
    10  C    0.029625  -0.016224   0.051647   0.046489   0.018913  -0.007204
    11  C    0.004924  -0.005170  -0.037832  -0.024941  -0.121616  -0.291586
    12  C    0.005776   0.022268  -0.012179  -0.016643  -0.020887   0.094839
    13  C    0.004695   0.005241  -0.003860  -0.003386   0.001819  -0.067931
    14  C   -0.001208  -0.000844  -0.000309  -0.000505   0.009347   0.037472
    15  C    0.000843  -0.002169   0.010164   0.000864  -0.023279  -0.031128
    16  C   -0.001443  -0.025753   0.003914   0.005684   0.025142   0.129854
    17  O    0.006191  -0.013445   0.069897  -0.003029   0.002378  -0.000847
    18  O    0.020575  -0.004064   0.015629   0.001025  -0.019570   0.005886
    19  H    0.785200  -0.005654   0.015789  -0.003309   0.001793  -0.009760
    20  H   -0.005654   1.745909  -0.372367   0.009979  -0.008461   0.026178
    21  H    0.015789  -0.372367   1.820851   0.014243   0.015838   0.010057
    22  H   -0.003309   0.009979   0.014243   1.398633  -0.000464   0.011425
    23  H    0.001793  -0.008461   0.015838  -0.000464   1.734252  -0.225625
    24  H   -0.009760   0.026178   0.010057   0.011425  -0.225625   1.884355
    25  H   -0.002172  -0.147076   0.046222   0.011587   0.080603  -0.121446
    26  H    0.001740  -0.001477   0.001482  -0.006310  -0.073098   0.082667
    27  H   -0.000071   0.000821  -0.000136   0.001894  -0.024502   0.002377
    28  H    0.000076   0.000005  -0.000031  -0.000048  -0.000765   0.000074
    29  H    0.000009  -0.000072  -0.000045   0.000005  -0.000797  -0.000580
    30  H    0.000017   0.000790   0.000069   0.000007   0.000674  -0.001991
    31  H    0.000179  -0.002060  -0.000156  -0.000789   0.005238  -0.019184
    32  N    0.070032  -0.050026   0.069716   0.000760  -0.004037  -0.006364
    33  C    0.011432  -0.016577  -0.042465   0.000284   0.000151  -0.011791
    34  H    0.003160  -0.002443   0.001378  -0.000152  -0.001108  -0.003815
    35  H    0.000183   0.002182  -0.021107  -0.000003   0.000672   0.001244
    36  H   -0.003390   0.000614   0.000506   0.000213   0.000141  -0.001542
    37  C    0.007612   0.012263   0.039458  -0.004544  -0.002548  -0.003430
    38  H    0.001900  -0.003122  -0.002234  -0.000393   0.000309   0.000074
    39  H    0.002258   0.001809   0.000157  -0.001308   0.000606   0.000392
    40  H   -0.008571   0.012390  -0.004636   0.000212  -0.000014   0.002162
              25         26         27         28         29         30
     1  S   -0.053311   0.018830  -0.005042   0.000095  -0.000144  -0.000143
     2  N   -0.071245   0.051480  -0.007172   0.000124  -0.000170  -0.000208
     3  C    0.082041  -0.055595   0.058771   0.000893   0.001346   0.002891
     4  C    0.016373  -0.072732   0.005912  -0.000283  -0.000475   0.001011
     5  S    0.106058   0.005410  -0.002714  -0.000239  -0.000019   0.000020
     6  C    0.140746  -0.087095   0.025708  -0.000837   0.000295  -0.000785
     7  O   -0.005685   0.001885   0.000193   0.000003   0.000001  -0.000000
     8  O   -0.011959   0.003728   0.000739  -0.000005   0.000005  -0.000013
     9  C   -0.262552   0.242227   0.059639   0.008140  -0.009664   0.002736
    10  C   -0.443939   0.010153  -0.263212   0.010181   0.002690   0.011180
    11  C    0.187740  -0.301281   0.835014  -0.163117   0.097853  -0.180008
    12  C   -0.344961   0.241510  -1.208426   0.676885  -0.143285   0.125361
    13  C   -0.089913   0.140594   0.357628  -0.810491   0.398467  -0.236244
    14  C    0.004948   0.003839  -0.149059   0.335306  -0.650468   0.333460
    15  C    0.140598  -0.078806   0.118958  -0.248358   0.394351  -0.774098
    16  C    0.266901  -0.231263  -0.071749   0.126985  -0.142688   0.662127
    17  O    0.003635   0.003558  -0.000476  -0.000018  -0.000045   0.000086
    18  O    0.001475  -0.002289   0.000412   0.000010   0.000005   0.000020
    19  H   -0.002172   0.001740  -0.000071   0.000076   0.000009   0.000017
    20  H   -0.147076  -0.001477   0.000821   0.000005  -0.000072   0.000790
    21  H    0.046222   0.001482  -0.000136  -0.000031  -0.000045   0.000069
    22  H    0.011587  -0.006310   0.001894  -0.000048   0.000005   0.000007
    23  H    0.080603  -0.073098  -0.024502  -0.000765  -0.000797   0.000674
    24  H   -0.121446   0.082667   0.002377   0.000074  -0.000580  -0.001991
    25  H    2.039144  -0.242664   0.014647  -0.000851   0.001256  -0.001215
    26  H   -0.242664   1.588077  -0.051964   0.000891   0.000816  -0.001223
    27  H    0.014647  -0.051964   2.089138  -0.083748  -0.016180   0.010460
    28  H   -0.000851   0.000891  -0.083748   1.682161  -0.050235  -0.019847
    29  H    0.001256   0.000816  -0.016180  -0.050235   1.641585  -0.050654
    30  H   -0.001215  -0.001223   0.010460  -0.019847  -0.050654   1.671581
    31  H   -0.037109   0.011087  -0.022625   0.010252  -0.016114  -0.081487
    32  N    0.012734   0.004158   0.000168   0.000005   0.000004  -0.000007
    33  C    0.002061   0.001082   0.000072  -0.000019   0.000005  -0.000069
    34  H    0.000460  -0.000020   0.000030   0.000002   0.000000   0.000013
    35  H   -0.000368   0.000096  -0.000001  -0.000001   0.000001  -0.000006
    36  H   -0.000347   0.000014  -0.000008   0.000000   0.000000  -0.000004
    37  C   -0.002687   0.002203  -0.000111   0.000009  -0.000001  -0.000015
    38  H    0.000316   0.000121   0.000005  -0.000000   0.000000  -0.000003
    39  H   -0.000470   0.000155  -0.000035   0.000001  -0.000001   0.000002
    40  H   -0.000734  -0.000154   0.000039  -0.000008   0.000001  -0.000002
              31         32         33         34         35         36
     1  S   -0.005132  -0.868575  -0.196665   0.114830   0.098865  -0.157909
     2  N   -0.005358  -0.635621  -0.099380   0.012586  -0.015120   0.022841
     3  C    0.077049   0.941370   0.247274   0.061668  -0.033092   0.025198
     4  C   -0.011968  -0.751562  -0.131207  -0.001274   0.009554  -0.002678
     5  S   -0.004167   0.153603   0.014585  -0.004172   0.002105  -0.000568
     6  C    0.005633  -0.049714   0.012923   0.000669   0.001096   0.001722
     7  O    0.000321  -0.039897  -0.005060   0.000147   0.000218   0.000765
     8  O    0.000753  -0.012639  -0.000772   0.000023  -0.000131   0.000094
     9  C    0.072450   0.107301  -0.084803  -0.036427   0.001929  -0.005357
    10  C   -0.195226   0.060280   0.005479   0.004200  -0.001092  -0.000613
    11  C    0.795430  -0.021583  -0.000135   0.000375  -0.000072   0.000230
    12  C   -0.073393   0.003514   0.001404   0.000245   0.000008   0.000027
    13  C    0.114518   0.000053  -0.000175   0.000197  -0.000038   0.000001
    14  C   -0.143271   0.000090   0.000107  -0.000151   0.000024   0.000002
    15  C    0.358382   0.000116  -0.001297  -0.000057  -0.000062  -0.000062
    16  C   -1.234025   0.010017  -0.001429  -0.000482  -0.000055  -0.000096
    17  O    0.000491   0.085469   0.025597  -0.036433  -0.000584   0.015228
    18  O    0.000121   0.188563  -0.000991  -0.010122  -0.016727   0.031479
    19  H    0.000179   0.070032   0.011432   0.003160   0.000183  -0.003390
    20  H   -0.002060  -0.050026  -0.016577  -0.002443   0.002182   0.000614
    21  H   -0.000156   0.069716  -0.042465   0.001378  -0.021107   0.000506
    22  H   -0.000789   0.000760   0.000284  -0.000152  -0.000003   0.000213
    23  H    0.005238  -0.004037   0.000151  -0.001108   0.000672   0.000141
    24  H   -0.019184  -0.006364  -0.011791  -0.003815   0.001244  -0.001542
    25  H   -0.037109   0.012734   0.002061   0.000460  -0.000368  -0.000347
    26  H    0.011087   0.004158   0.001082  -0.000020   0.000096   0.000014
    27  H   -0.022625   0.000168   0.000072   0.000030  -0.000001  -0.000008
    28  H    0.010252   0.000005  -0.000019   0.000002  -0.000001   0.000000
    29  H   -0.016114   0.000004   0.000005   0.000000   0.000001   0.000000
    30  H   -0.081487  -0.000007  -0.000069   0.000013  -0.000006  -0.000004
    31  H    2.070667   0.002030   0.000398  -0.000096  -0.000041   0.000067
    32  N    0.002030   9.038068   0.083401  -0.101032  -0.371834   0.221608
    33  C    0.000398   0.083401   4.505746   0.446882   0.435053   0.178658
    34  H   -0.000096  -0.101032   0.446882   1.331149  -0.285261  -0.231044
    35  H   -0.000041  -0.371834   0.435053  -0.285261   1.474678  -0.191116
    36  H    0.000067   0.221608   0.178658  -0.231044  -0.191116   1.123848
    37  C    0.000472   0.218956  -0.189979  -0.079218   0.056143   0.039781
    38  H    0.000025   0.081710   0.097333   0.003396   0.006645  -0.008588
    39  H   -0.000033  -0.168154  -0.017720   0.006275   0.009183  -0.006494
    40  H    0.000024  -0.069334  -0.083619  -0.014023   0.005998   0.003904
              37         38         39         40
     1  S   -0.160691   0.030221   0.044823   0.003440
     2  N    0.107304  -0.054877   0.064858  -0.039280
     3  C   -0.319639   0.030700  -0.064000  -0.112039
     4  C    0.012825  -0.036948   0.033360   0.092709
     5  S    0.007552   0.006237  -0.010632   0.014696
     6  C   -0.032840  -0.003685  -0.013113   0.020063
     7  O   -0.017234  -0.001573   0.006767  -0.010612
     8  O   -0.004735  -0.000403   0.001075  -0.003047
     9  C    0.108533   0.005410   0.011893   0.031271
    10  C   -0.001556   0.000792  -0.001022  -0.003413
    11  C   -0.002372  -0.000286   0.000124  -0.001720
    12  C    0.001399   0.000153   0.000037  -0.000162
    13  C    0.000280   0.000014   0.000038  -0.000253
    14  C   -0.000024   0.000002  -0.000012   0.000062
    15  C   -0.000400  -0.000055  -0.000009  -0.000034
    16  C   -0.001233  -0.000062  -0.000259   0.000910
    17  O    0.027701  -0.000048  -0.001005  -0.001762
    18  O    0.037325  -0.022406  -0.012771   0.037292
    19  H    0.007612   0.001900   0.002258  -0.008571
    20  H    0.012263  -0.003122   0.001809   0.012390
    21  H    0.039458  -0.002234   0.000157  -0.004636
    22  H   -0.004544  -0.000393  -0.001308   0.000212
    23  H   -0.002548   0.000309   0.000606  -0.000014
    24  H   -0.003430   0.000074   0.000392   0.002162
    25  H   -0.002687   0.000316  -0.000470  -0.000734
    26  H    0.002203   0.000121   0.000155  -0.000154
    27  H   -0.000111   0.000005  -0.000035   0.000039
    28  H    0.000009  -0.000000   0.000001  -0.000008
    29  H   -0.000001   0.000000  -0.000001   0.000001
    30  H   -0.000015  -0.000003   0.000002  -0.000002
    31  H    0.000472   0.000025  -0.000033   0.000024
    32  N    0.218956   0.081710  -0.168154  -0.069334
    33  C   -0.189979   0.097333  -0.017720  -0.083619
    34  H   -0.079218   0.003396   0.006275  -0.014023
    35  H    0.056143   0.006645   0.009183   0.005998
    36  H    0.039781  -0.008588  -0.006494   0.003904
    37  C    4.388015   0.180213   0.347920   0.439503
    38  H    0.180213   1.123680  -0.177827  -0.226027
    39  H    0.347920  -0.177827   1.440699  -0.312979
    40  H    0.439503  -0.226027  -0.312979   1.356187
 Mulliken charges:
               1
     1  S    3.438574
     2  N   -1.373083
     3  C    0.382320
     4  C    0.397459
     5  S    2.896790
     6  C    0.114859
     7  O   -1.373082
     8  O   -1.341392
     9  C   -0.226709
    10  C    1.002833
    11  C    1.150777
    12  C    0.457147
    13  C   -0.015901
    14  C    0.659773
    15  C   -0.036827
    16  C    0.641313
    17  O   -1.290892
    18  O   -1.240381
    19  H   -0.070116
    20  H   -0.336969
    21  H   -0.402125
    22  H   -0.459865
    23  H   -0.143004
    24  H   -0.195632
    25  H   -0.318838
    26  H   -0.211832
    27  H   -0.675392
    28  H   -0.473197
    29  H   -0.457057
    30  H   -0.474482
    31  H   -0.673351
    32  N   -1.203345
    33  C    0.814226
    34  H   -0.180354
    35  H   -0.169165
    36  H   -0.057126
    37  C    0.787790
    38  H   -0.030719
    39  H   -0.184589
    40  H   -0.128439
 Sum of Mulliken charges =  -1.00000
 Mulliken charges with hydrogens summed into heavy atoms:
               1
     1  S    3.438574
     2  N   -1.443198
     3  C    0.382320
     4  C   -0.341636
     5  S    2.896790
     6  C   -0.345006
     7  O   -1.373082
     8  O   -1.341392
     9  C   -0.565345
    10  C    0.472164
    11  C    1.150777
    12  C   -0.218245
    13  C   -0.489097
    14  C    0.202716
    15  C   -0.511309
    16  C   -0.032038
    17  O   -1.290892
    18  O   -1.240381
    32  N   -1.203345
    33  C    0.407581
    37  C    0.444043
 Electronic spatial extent (au):  <R**2>=           8829.4633
 Charge=             -1.0000 electrons
 Dipole moment (field-independent basis, Debye):
    X=              4.3474    Y=             -8.1747    Z=              0.7536  Tot=              9.2894
 Quadrupole moment (field-independent basis, Debye-Ang):
   XX=           -169.2944   YY=           -210.0953   ZZ=           -143.0351
   XY=             18.0786   XZ=             -6.5424   YZ=            -12.9523
 Traceless Quadrupole moment (field-independent basis, Debye-Ang):
   XX=              4.8472   YY=            -35.9537   ZZ=             31.1064
   XY=             18.0786   XZ=             -6.5424   YZ=            -12.9523
 Octapole moment (field-independent basis, Debye-Ang**2):
  XXX=            -79.3099  YYY=           -141.3838  ZZZ=              2.4989  XYY=             64.0966
  XXY=            -85.0304  XXZ=              3.5401  XZZ=             -7.0902  YZZ=              1.7419
  YYZ=             -2.4617  XYZ=             13.3542
 Hexadecapole moment (field-independent basis, Debye-Ang**3):
 XXXX=          -8630.9638 YYYY=          -3841.3463 ZZZZ=           -798.7896 XXXY=             95.4408
 XXXZ=           -180.9151 YYYX=            220.4087 YYYZ=           -169.4767 ZZZX=            -17.5061
 ZZZY=            -23.6823 XXYY=          -2124.0508 XXZZ=          -1504.3816 YYZZ=           -695.9269
 XXYZ=           -111.6771 YYXZ=             -2.3616 ZZXY=            -17.4418
 N-N= 2.122564759451D+03 E-N=-8.292053887936D+03  KE= 1.704864640595D+03
 Leave Link  601 at Thu Sep 24 05:04:46 2020, MaxMem=   262144000 cpu:               1.3 elap:               0.5
 (Enter /prod/apps/gaussian/g16b1/l9999.exe)
 1\1\GINC-PIRINEUS16\SP\RMP2-FC\Aug-CC-pVDZ\C13H19N2O4S2(1-)\UBAFAR01\2
 4-Sep-2020\0\\#p mp2/aug-cc-pVDZ scf=(MaxCycle=2000,NoVarAcc,NoIncFock
 ) maxdisk=120GB geom=allcheck\\SM40_38w.a.2.pdb.xyz\\-1,1\S,0,-1.77181
 88716,-1.7651588508,-0.4110783587\N,0,-1.3351342229,-0.291823124,-1.03
 2057217\C,0,-0.3484250898,0.6876677029,-0.3795475205\C,0,-0.9359272785
 ,1.1355277886,0.9924311615\S,0,-1.4929776914,2.665273164,0.1643456876\
 C,0,-0.4383202122,2.0521138887,-1.0214460278\O,0,-2.9870562855,2.65104
 97799,-0.059665816\O,0,-1.0847526469,3.9411215016,0.8433273673\C,0,1.0
 498773744,0.0312201026,-0.3771744661\C,0,2.1624607318,0.8620503286,0.2
 839471775\C,0,3.5094148429,0.1800887243,0.2021842133\C,0,4.3478314153,
 0.3746072532,-0.9048124774\C,0,5.5793248844,-0.2761347497,-0.997984450
 4\C,0,5.9967120638,-1.1362570099,0.0202179987\C,0,5.1730755012,-1.3382
 481071,1.1298598635\C,0,3.9425669817,-0.6847135564,1.2166824142\O,0,-0
 .8163747894,-2.3116150264,0.5683014925\O,0,-2.1313227775,-2.6186607771
 ,-1.5637167594\H,0,-1.144251263,-0.4079776219,-2.0291146242\H,0,-0.189
 2532897,1.3279718434,1.7621662441\H,0,-1.7544855244,0.5247250064,1.373
 0147208\H,0,-0.5579638504,2.2380242913,-2.0854172681\H,0,1.3244638386,
 -0.1531527376,-1.4231611778\H,0,0.9824895773,-0.9461615309,0.106986396
 7\H,0,1.9114111667,1.0360644423,1.3362602058\H,0,2.2054116856,1.840923
 6672,-0.201397052\H,0,4.0325530392,1.0466919438,-1.698269983\H,0,6.214
 4080303,-0.10763358,-1.862147155\H,0,6.9552510469,-1.6404615809,-0.048
 5305016\H,0,5.4896541087,-2.0006688833,1.929526586\H,0,3.3089191967,-0
 .842343625,2.0848907858\N,0,-3.1323794163,-1.3448813747,0.5061405032\C
 ,0,-3.5485764264,-2.3987181324,1.4465636969\H,0,-2.6887199953,-2.72405
 39042,2.0285327836\H,0,-4.2910279335,-1.9612140583,2.1166601593\H,0,-3
 .9980896836,-3.2620371437,0.9389874295\C,0,-4.2498044724,-0.8138703867
 ,-0.2882000814\H,0,-4.720811351,-1.5835968891,-0.912075719\H,0,-4.9906
 441266,-0.4239772725,0.4124397297\H,0,-3.8917082873,0.0032384939,-0.91
 16699619\\Version=ES64L-G16RevB.01\State=1-A\HF=-1706.6653672\MP2=-171
 0.0013471\RMSD=5.298e-09\PG=C01 [X(C13H19N2O4S2)]\\@


 GROWING OLD ISN'T SO BAD -- WHEN YOU CONSIDER THE ALTERNATIVE.

                     -- MAURICE CHEVALIER
 Job cpu time:       0 days  6 hours 28 minutes 54.7 seconds.
 Elapsed time:       0 days  1 hours 50 minutes  6.5 seconds.
 File lengths (MBytes):  RWF=  85906 Int=      0 D2E=      0 Chk=     35 Scr=      1
 Normal termination of Gaussian 16 at Thu Sep 24 05:04:49 2020.
