 Entering Gaussian System, Link 0=g16
 Initial command:
 /prod/apps/gaussian/g16b1/l1.exe "/tmp/ubafar01/1461106/Gau-213553.inp" -scrdir="/tmp/ubafar01/1461106/"
 Entering Link 1 = /prod/apps/gaussian/g16b1/l1.exe PID=    213554.
  
 Copyright (c) 1988-2017, Gaussian, Inc.  All Rights Reserved.
  
 This is part of the Gaussian(R) 16 program.  It is based on
 the Gaussian(R) 09 system (copyright 2009, Gaussian, Inc.),
 the Gaussian(R) 03 system (copyright 2003, Gaussian, Inc.),
 the Gaussian(R) 98 system (copyright 1998, Gaussian, Inc.),
 the Gaussian(R) 94 system (copyright 1995, Gaussian, Inc.),
 the Gaussian 92(TM) system (copyright 1992, Gaussian, Inc.),
 the Gaussian 90(TM) system (copyright 1990, Gaussian, Inc.),
 the Gaussian 88(TM) system (copyright 1988, Gaussian, Inc.),
 the Gaussian 86(TM) system (copyright 1986, Carnegie Mellon
 University), and the Gaussian 82(TM) system (copyright 1983,
 Carnegie Mellon University). Gaussian is a federally registered
 trademark of Gaussian, Inc.
  
 This software contains proprietary and confidential information,
 including trade secrets, belonging to Gaussian, Inc.
  
 This software is provided under written license and may be
 used, copied, transmitted, or stored only in accord with that
 written license.
  
 The following legend is applicable only to US Government
 contracts under FAR:
  
                    RESTRICTED RIGHTS LEGEND
  
 Use, reproduction and disclosure by the US Government is
 subject to restrictions as set forth in subparagraphs (a)
 and (c) of the Commercial Computer Software - Restricted
 Rights clause in FAR 52.227-19.
  
 Gaussian, Inc.
 340 Quinnipiac St., Bldg. 40, Wallingford CT 06492
  
  
 ---------------------------------------------------------------
 Warning -- This program may not be used in any manner that
 competes with the business of Gaussian, Inc. or will provide
 assistance to any competitor of Gaussian, Inc.  The licensee
 of this program is prohibited from giving any competitor of
 Gaussian, Inc. access to this program.  By using this program,
 the user acknowledges that Gaussian, Inc. is engaged in the
 business of creating and licensing software in the field of
 computational chemistry and represents and warrants to the
 licensee that it is not a competitor of Gaussian, Inc. and that
 it will not use this program in any manner prohibited above.
 ---------------------------------------------------------------
  

 Cite this work as:
 Gaussian 16, Revision B.01,
 M. J. Frisch, G. W. Trucks, H. B. Schlegel, G. E. Scuseria, 
 M. A. Robb, J. R. Cheeseman, G. Scalmani, V. Barone, 
 G. A. Petersson, H. Nakatsuji, X. Li, M. Caricato, A. V. Marenich, 
 J. Bloino, B. G. Janesko, R. Gomperts, B. Mennucci, H. P. Hratchian, 
 J. V. Ortiz, A. F. Izmaylov, J. L. Sonnenberg, D. Williams-Young, 
 F. Ding, F. Lipparini, F. Egidi, J. Goings, B. Peng, A. Petrone, 
 T. Henderson, D. Ranasinghe, V. G. Zakrzewski, J. Gao, N. Rega, 
 G. Zheng, W. Liang, M. Hada, M. Ehara, K. Toyota, R. Fukuda, 
 J. Hasegawa, M. Ishida, T. Nakajima, Y. Honda, O. Kitao, H. Nakai, 
 T. Vreven, K. Throssell, J. A. Montgomery, Jr., J. E. Peralta, 
 F. Ogliaro, M. J. Bearpark, J. J. Heyd, E. N. Brothers, K. N. Kudin, 
 V. N. Staroverov, T. A. Keith, R. Kobayashi, J. Normand, 
 K. Raghavachari, A. P. Rendell, J. C. Burant, S. S. Iyengar, 
 J. Tomasi, M. Cossi, J. M. Millam, M. Klene, C. Adamo, R. Cammi, 
 J. W. Ochterski, R. L. Martin, K. Morokuma, O. Farkas, 
 J. B. Foresman, and D. J. Fox, Gaussian, Inc., Wallingford CT, 2016.
 
 ******************************************
 Gaussian 16:  ES64L-G16RevB.01 20-Dec-2017
                24-Sep-2020 
 ******************************************
 %nproc=4
 Will use up to    4 processors via shared memory.
 %Chk=SM40.b.3.pdb.xyz.mst.b.w.chk
 %mem=16GB
 ----------------------------------------------------------------------
 #p b3lyp/6-31G(d) opt freq NoSymm scf=(MaxCycle=2000,NoVarAcc,NoIncFoc
 k) scrf=(iefpcm,read,solvent=water)
 ----------------------------------------------------------------------
 1/18=20,19=15,26=3,38=1,40=2/1,3;
 2/9=110,12=2,15=1,17=6,18=5,40=1/2;
 3/5=1,6=6,7=1,11=2,25=1,30=1,70=2203,71=1,72=1,74=-5/1,2,3;
 4//1;
 5/5=100002,7=2000,38=1,53=1/2;
 6/7=2,8=2,9=2,10=2,28=1/1;
 7/30=1/1,2,3,16;
 1/18=20,19=15,26=3/3(2);
 2/9=110,15=1/2;
 99//99;
 2/9=110,15=1/2;
 3/5=1,6=6,7=1,11=2,25=1,30=1,70=2205,71=1,72=1,74=-5/1,2,3;
 4/5=5,16=3,69=1/1;
 5/5=100002,7=2000,38=1,53=1/2;
 7/30=1/1,2,3,16;
 1/18=20,19=15,26=3/3(-5);
 2/9=110,15=1/2;
 6/7=2,8=2,9=2,10=2,19=2,28=1/1;
 99/9=1/99;
 Leave Link    1 at Thu Sep 24 01:19:46 2020, MaxMem=  2147483648 cpu:               0.1 elap:               0.0
 (Enter /prod/apps/gaussian/g16b1/l101.exe)
 ----------------
 SM40.b.3.pdb.xyz
 ----------------
 Symbolic Z-matrix:
 Charge =  1 Multiplicity = 1
 O                    -2.223     0.467    -1.435 
 S                    -2.046    -0.741    -0.644 
 N                    -0.861    -0.556     0.445 
 C                    -0.035     0.652     0.678 
 C                    -0.863     1.956     0.947 
 S                     0.226     2.88     -0.196 
 C                     0.747     1.173    -0.584 
 O                    -0.492     3.563    -1.287 
 O                     1.278     3.619     0.532 
 C                     0.878     0.365     1.895 
 C                     1.777    -0.895     1.892 
 C                     2.797    -1.01      0.775 
 C                     3.942    -0.198     0.763 
 C                     4.881    -0.301    -0.265 
 C                     4.695    -1.225    -1.298 
 C                     3.565    -2.046    -1.292 
 C                     2.626    -1.938    -0.262 
 N                    -3.595    -0.779     0.423 
 C                    -4.809    -0.768    -0.46 
 C                    -3.576    -1.93      1.38 
 O                    -2.034    -2.081    -1.205 
 H                    -0.449    -1.453     0.703 
 H                    -0.85      2.326     1.972 
 H                    -1.877     1.953     0.548 
 H                     1.826     1.032    -0.584 
 H                     0.312     0.866    -1.535 
 H                     0.233     0.313     2.779 
 H                     1.506     1.255     2.019 
 H                     1.165    -1.804     1.919 
 H                     2.3      -0.876     2.855 
 H                     4.102     0.517     1.567 
 H                     5.762     0.335    -0.256 
 H                     5.427    -1.307    -2.096 
 H                     3.414    -2.773    -2.085 
 H                     1.752    -2.585    -0.262 
 H                    -4.77      0.114    -1.096 
 H                    -5.684    -0.727     0.188 
 H                    -4.817    -1.681    -1.055 
 H                    -2.695    -1.847     2.014 
 H                    -3.569    -2.86      0.813 
 H                    -4.477    -1.862     1.991 
 H                    -3.579     0.103     0.966 
 
 ITRead=  0  0  0  0  0  0  0  0  0  0  0  0  0  0  0  0  0  0  0  0
 ITRead=  0  0  0  0  0  0  0  0  0  0  0  0  0  0  0  0  0  0  0  0
 ITRead=  0  0
 MicOpt= -1 -1 -1 -1 -1 -1 -1 -1 -1 -1 -1 -1 -1 -1 -1 -1 -1 -1 -1 -1
 MicOpt= -1 -1 -1 -1 -1 -1 -1 -1 -1 -1 -1 -1 -1 -1 -1 -1 -1 -1 -1 -1
 MicOpt= -1 -1
 NAtoms=     42 NQM=       42 NQMF=       0 NMMI=      0 NMMIF=      0
                NMic=       0 NMicF=      0.
                    Isotopes and Nuclear Properties:
 (Nuclear quadrupole moments (NQMom) in fm**2, nuclear magnetic moments (NMagM)
  in nuclear magnetons)

  Atom         1           2           3           4           5           6           7           8           9          10
 IAtWgt=          16          32          14          12          12          32          12          16          16          12
 AtmWgt=  15.9949146  31.9720718  14.0030740  12.0000000  12.0000000  31.9720718  12.0000000  15.9949146  15.9949146  12.0000000
 NucSpn=           0           0           2           0           0           0           0           0           0           0
 AtZEff=  -0.0000000  -0.0000000  -0.0000000  -0.0000000  -0.0000000  -0.0000000  -0.0000000  -0.0000000  -0.0000000  -0.0000000
 NQMom=    0.0000000   0.0000000   2.0440000   0.0000000   0.0000000   0.0000000   0.0000000   0.0000000   0.0000000   0.0000000
 NMagM=    0.0000000   0.0000000   0.4037610   0.0000000   0.0000000   0.0000000   0.0000000   0.0000000   0.0000000   0.0000000
 AtZNuc=   8.0000000  16.0000000   7.0000000   6.0000000   6.0000000  16.0000000   6.0000000   8.0000000   8.0000000   6.0000000

  Atom        11          12          13          14          15          16          17          18          19          20
 IAtWgt=          12          12          12          12          12          12          12          14          12          12
 AtmWgt=  12.0000000  12.0000000  12.0000000  12.0000000  12.0000000  12.0000000  12.0000000  14.0030740  12.0000000  12.0000000
 NucSpn=           0           0           0           0           0           0           0           2           0           0
 AtZEff=  -0.0000000  -0.0000000  -0.0000000  -0.0000000  -0.0000000  -0.0000000  -0.0000000  -0.0000000  -0.0000000  -0.0000000
 NQMom=    0.0000000   0.0000000   0.0000000   0.0000000   0.0000000   0.0000000   0.0000000   2.0440000   0.0000000   0.0000000
 NMagM=    0.0000000   0.0000000   0.0000000   0.0000000   0.0000000   0.0000000   0.0000000   0.4037610   0.0000000   0.0000000
 AtZNuc=   6.0000000   6.0000000   6.0000000   6.0000000   6.0000000   6.0000000   6.0000000   7.0000000   6.0000000   6.0000000

  Atom        21          22          23          24          25          26          27          28          29          30
 IAtWgt=          16           1           1           1           1           1           1           1           1           1
 AtmWgt=  15.9949146   1.0078250   1.0078250   1.0078250   1.0078250   1.0078250   1.0078250   1.0078250   1.0078250   1.0078250
 NucSpn=           0           1           1           1           1           1           1           1           1           1
 AtZEff=  -0.0000000  -0.0000000  -0.0000000  -0.0000000  -0.0000000  -0.0000000  -0.0000000  -0.0000000  -0.0000000  -0.0000000
 NQMom=    0.0000000   0.0000000   0.0000000   0.0000000   0.0000000   0.0000000   0.0000000   0.0000000   0.0000000   0.0000000
 NMagM=    0.0000000   2.7928460   2.7928460   2.7928460   2.7928460   2.7928460   2.7928460   2.7928460   2.7928460   2.7928460
 AtZNuc=   8.0000000   1.0000000   1.0000000   1.0000000   1.0000000   1.0000000   1.0000000   1.0000000   1.0000000   1.0000000

  Atom        31          32          33          34          35          36          37          38          39          40
 IAtWgt=           1           1           1           1           1           1           1           1           1           1
 AtmWgt=   1.0078250   1.0078250   1.0078250   1.0078250   1.0078250   1.0078250   1.0078250   1.0078250   1.0078250   1.0078250
 NucSpn=           1           1           1           1           1           1           1           1           1           1
 AtZEff=  -0.0000000  -0.0000000  -0.0000000  -0.0000000  -0.0000000  -0.0000000  -0.0000000  -0.0000000  -0.0000000  -0.0000000
 NQMom=    0.0000000   0.0000000   0.0000000   0.0000000   0.0000000   0.0000000   0.0000000   0.0000000   0.0000000   0.0000000
 NMagM=    2.7928460   2.7928460   2.7928460   2.7928460   2.7928460   2.7928460   2.7928460   2.7928460   2.7928460   2.7928460
 AtZNuc=   1.0000000   1.0000000   1.0000000   1.0000000   1.0000000   1.0000000   1.0000000   1.0000000   1.0000000   1.0000000

  Atom        41          42
 IAtWgt=           1           1
 AtmWgt=   1.0078250   1.0078250
 NucSpn=           1           1
 AtZEff=  -0.0000000  -0.0000000
 NQMom=    0.0000000   0.0000000
 NMagM=    2.7928460   2.7928460
 AtZNuc=   1.0000000   1.0000000
 Leave Link  101 at Thu Sep 24 01:19:46 2020, MaxMem=  2147483648 cpu:               1.3 elap:               0.3
 (Enter /prod/apps/gaussian/g16b1/l103.exe)

 GradGradGradGradGradGradGradGradGradGradGradGradGradGradGradGradGradGrad
 Berny optimization.
 Initialization pass.
                           ----------------------------
                           !    Initial Parameters    !
                           ! (Angstroms and Degrees)  !
 --------------------------                            --------------------------
 ! Name  Definition              Value          Derivative Info.                !
 --------------------------------------------------------------------------------
 ! R1    R(1,2)                  1.4547         estimate D2E/DX2                !
 ! R2    R(2,3)                  1.62           estimate D2E/DX2                !
 ! R3    R(2,18)                 1.8813         estimate D2E/DX2                !
 ! R4    R(2,21)                 1.4527         estimate D2E/DX2                !
 ! R5    R(3,4)                  1.4818         estimate D2E/DX2                !
 ! R6    R(3,22)                 1.0203         estimate D2E/DX2                !
 ! R7    R(4,5)                  1.5679         estimate D2E/DX2                !
 ! R8    R(4,7)                  1.5734         estimate D2E/DX2                !
 ! R9    R(4,10)                 1.5482         estimate D2E/DX2                !
 ! R10   R(5,6)                  1.8292         estimate D2E/DX2                !
 ! R11   R(5,23)                 1.0898         estimate D2E/DX2                !
 ! R12   R(5,24)                 1.0897         estimate D2E/DX2                !
 ! R13   R(6,7)                  1.8264         estimate D2E/DX2                !
 ! R14   R(6,8)                  1.4739         estimate D2E/DX2                !
 ! R15   R(6,9)                  1.4774         estimate D2E/DX2                !
 ! R16   R(7,25)                 1.0882         estimate D2E/DX2                !
 ! R17   R(7,26)                 1.0899         estimate D2E/DX2                !
 ! R18   R(10,11)                1.5478         estimate D2E/DX2                !
 ! R19   R(10,27)                1.0955         estimate D2E/DX2                !
 ! R20   R(10,28)                1.0963         estimate D2E/DX2                !
 ! R21   R(11,12)                1.517          estimate D2E/DX2                !
 ! R22   R(11,29)                1.0962         estimate D2E/DX2                !
 ! R23   R(11,30)                1.096          estimate D2E/DX2                !
 ! R24   R(12,13)                1.4037         estimate D2E/DX2                !
 ! R25   R(12,17)                1.4021         estimate D2E/DX2                !
 ! R26   R(13,14)                1.3961         estimate D2E/DX2                !
 ! R27   R(13,31)                1.0878         estimate D2E/DX2                !
 ! R28   R(14,15)                1.3984         estimate D2E/DX2                !
 ! R29   R(14,32)                1.0866         estimate D2E/DX2                !
 ! R30   R(15,16)                1.3968         estimate D2E/DX2                !
 ! R31   R(15,33)                1.086          estimate D2E/DX2                !
 ! R32   R(16,17)                1.398          estimate D2E/DX2                !
 ! R33   R(16,34)                1.0864         estimate D2E/DX2                !
 ! R34   R(17,35)                1.0874         estimate D2E/DX2                !
 ! R35   R(18,19)                1.5012         estimate D2E/DX2                !
 ! R36   R(18,20)                1.497          estimate D2E/DX2                !
 ! R37   R(18,42)                1.0359         estimate D2E/DX2                !
 ! R38   R(19,36)                1.0881         estimate D2E/DX2                !
 ! R39   R(19,37)                1.0896         estimate D2E/DX2                !
 ! R40   R(19,38)                1.0898         estimate D2E/DX2                !
 ! R41   R(20,39)                1.0886         estimate D2E/DX2                !
 ! R42   R(20,40)                1.0892         estimate D2E/DX2                !
 ! R43   R(20,41)                1.0908         estimate D2E/DX2                !
 ! A1    A(1,2,3)              111.081          estimate D2E/DX2                !
 ! A2    A(1,2,18)             103.0016         estimate D2E/DX2                !
 ! A3    A(1,2,21)             123.8469         estimate D2E/DX2                !
 ! A4    A(3,2,18)             102.9045         estimate D2E/DX2                !
 ! A5    A(3,2,21)             111.0317         estimate D2E/DX2                !
 ! A6    A(18,2,21)            101.9575         estimate D2E/DX2                !
 ! A7    A(2,3,4)              127.3396         estimate D2E/DX2                !
 ! A8    A(2,3,22)             111.4063         estimate D2E/DX2                !
 ! A9    A(4,3,22)             116.8634         estimate D2E/DX2                !
 ! A10   A(3,4,5)              114.2425         estimate D2E/DX2                !
 ! A11   A(3,4,7)              114.8891         estimate D2E/DX2                !
 ! A12   A(3,4,10)             107.5292         estimate D2E/DX2                !
 ! A13   A(5,4,7)               97.1625         estimate D2E/DX2                !
 ! A14   A(5,4,10)             109.3129         estimate D2E/DX2                !
 ! A15   A(7,4,10)             113.5016         estimate D2E/DX2                !
 ! A16   A(4,5,6)               89.9148         estimate D2E/DX2                !
 ! A17   A(4,5,23)             115.9396         estimate D2E/DX2                !
 ! A18   A(4,5,24)             115.2331         estimate D2E/DX2                !
 ! A19   A(6,5,23)             114.1477         estimate D2E/DX2                !
 ! A20   A(6,5,24)             109.061          estimate D2E/DX2                !
 ! A21   A(23,5,24)            110.8805         estimate D2E/DX2                !
 ! A22   A(5,6,7)               80.2392         estimate D2E/DX2                !
 ! A23   A(5,6,8)              113.991          estimate D2E/DX2                !
 ! A24   A(5,6,9)              111.6335         estimate D2E/DX2                !
 ! A25   A(7,6,8)              114.5078         estimate D2E/DX2                !
 ! A26   A(7,6,9)              111.6569         estimate D2E/DX2                !
 ! A27   A(8,6,9)              118.6742         estimate D2E/DX2                !
 ! A28   A(4,7,6)               89.8459         estimate D2E/DX2                !
 ! A29   A(4,7,25)             116.7382         estimate D2E/DX2                !
 ! A30   A(4,7,26)             114.0934         estimate D2E/DX2                !
 ! A31   A(6,7,25)             113.8256         estimate D2E/DX2                !
 ! A32   A(6,7,26)             109.5587         estimate D2E/DX2                !
 ! A33   A(25,7,26)            111.0546         estimate D2E/DX2                !
 ! A34   A(4,10,11)            119.4644         estimate D2E/DX2                !
 ! A35   A(4,10,27)            107.2108         estimate D2E/DX2                !
 ! A36   A(4,10,28)            106.035          estimate D2E/DX2                !
 ! A37   A(11,10,27)           107.751          estimate D2E/DX2                !
 ! A38   A(11,10,28)           109.1696         estimate D2E/DX2                !
 ! A39   A(27,10,28)           106.5306         estimate D2E/DX2                !
 ! A40   A(10,11,12)           116.9787         estimate D2E/DX2                !
 ! A41   A(10,11,29)           110.5319         estimate D2E/DX2                !
 ! A42   A(10,11,30)           105.1494         estimate D2E/DX2                !
 ! A43   A(12,11,29)           109.3095         estimate D2E/DX2                !
 ! A44   A(12,11,30)           109.1124         estimate D2E/DX2                !
 ! A45   A(29,11,30)           105.0197         estimate D2E/DX2                !
 ! A46   A(11,12,13)           120.7226         estimate D2E/DX2                !
 ! A47   A(11,12,17)           120.8483         estimate D2E/DX2                !
 ! A48   A(13,12,17)           118.426          estimate D2E/DX2                !
 ! A49   A(12,13,14)           120.8123         estimate D2E/DX2                !
 ! A50   A(12,13,31)           119.5959         estimate D2E/DX2                !
 ! A51   A(14,13,31)           119.5912         estimate D2E/DX2                !
 ! A52   A(13,14,15)           120.2137         estimate D2E/DX2                !
 ! A53   A(13,14,32)           119.7379         estimate D2E/DX2                !
 ! A54   A(15,14,32)           120.0469         estimate D2E/DX2                !
 ! A55   A(14,15,16)           119.5261         estimate D2E/DX2                !
 ! A56   A(14,15,33)           120.2026         estimate D2E/DX2                !
 ! A57   A(16,15,33)           120.2704         estimate D2E/DX2                !
 ! A58   A(15,16,17)           120.0768         estimate D2E/DX2                !
 ! A59   A(15,16,34)           120.1763         estimate D2E/DX2                !
 ! A60   A(17,16,34)           119.7465         estimate D2E/DX2                !
 ! A61   A(12,17,16)           120.9412         estimate D2E/DX2                !
 ! A62   A(12,17,35)           119.4612         estimate D2E/DX2                !
 ! A63   A(16,17,35)           119.5972         estimate D2E/DX2                !
 ! A64   A(2,18,19)            109.3959         estimate D2E/DX2                !
 ! A65   A(2,18,20)            111.5708         estimate D2E/DX2                !
 ! A66   A(2,18,42)            105.5088         estimate D2E/DX2                !
 ! A67   A(19,18,20)           113.0739         estimate D2E/DX2                !
 ! A68   A(19,18,42)           108.3356         estimate D2E/DX2                !
 ! A69   A(20,18,42)           108.6241         estimate D2E/DX2                !
 ! A70   A(18,19,36)           108.7089         estimate D2E/DX2                !
 ! A71   A(18,19,37)           107.4506         estimate D2E/DX2                !
 ! A72   A(18,19,38)           108.7196         estimate D2E/DX2                !
 ! A73   A(36,19,37)           110.2368         estimate D2E/DX2                !
 ! A74   A(36,19,38)           111.1142         estimate D2E/DX2                !
 ! A75   A(37,19,38)           110.5075         estimate D2E/DX2                !
 ! A76   A(18,20,39)           108.9032         estimate D2E/DX2                !
 ! A77   A(18,20,40)           108.8914         estimate D2E/DX2                !
 ! A78   A(18,20,41)           107.4385         estimate D2E/DX2                !
 ! A79   A(39,20,40)           111.2889         estimate D2E/DX2                !
 ! A80   A(39,20,41)           109.7259         estimate D2E/DX2                !
 ! A81   A(40,20,41)           110.4952         estimate D2E/DX2                !
 ! D1    D(1,2,3,4)              0.7328         estimate D2E/DX2                !
 ! D2    D(1,2,3,22)          -154.7069         estimate D2E/DX2                !
 ! D3    D(18,2,3,4)          -108.8813         estimate D2E/DX2                !
 ! D4    D(18,2,3,22)           95.679          estimate D2E/DX2                !
 ! D5    D(21,2,3,4)           142.7084         estimate D2E/DX2                !
 ! D6    D(21,2,3,22)          -12.7313         estimate D2E/DX2                !
 ! D7    D(1,2,18,19)           57.1145         estimate D2E/DX2                !
 ! D8    D(1,2,18,20)         -177.0132         estimate D2E/DX2                !
 ! D9    D(1,2,18,42)          -59.2326         estimate D2E/DX2                !
 ! D10   D(3,2,18,19)          172.6848         estimate D2E/DX2                !
 ! D11   D(3,2,18,20)          -61.443          estimate D2E/DX2                !
 ! D12   D(3,2,18,42)           56.3376         estimate D2E/DX2                !
 ! D13   D(21,2,18,19)         -72.1727         estimate D2E/DX2                !
 ! D14   D(21,2,18,20)          53.6995         estimate D2E/DX2                !
 ! D15   D(21,2,18,42)         171.4801         estimate D2E/DX2                !
 ! D16   D(2,3,4,5)             54.1059         estimate D2E/DX2                !
 ! D17   D(2,3,4,7)            -56.9737         estimate D2E/DX2                !
 ! D18   D(2,3,4,10)           175.6134         estimate D2E/DX2                !
 ! D19   D(22,3,4,5)          -151.6023         estimate D2E/DX2                !
 ! D20   D(22,3,4,7)            97.3181         estimate D2E/DX2                !
 ! D21   D(22,3,4,10)          -30.0949         estimate D2E/DX2                !
 ! D22   D(3,4,5,6)           -135.1101         estimate D2E/DX2                !
 ! D23   D(3,4,5,23)           107.8765         estimate D2E/DX2                !
 ! D24   D(3,4,5,24)           -23.99           estimate D2E/DX2                !
 ! D25   D(7,4,5,6)            -13.6581         estimate D2E/DX2                !
 ! D26   D(7,4,5,23)          -130.6715         estimate D2E/DX2                !
 ! D27   D(7,4,5,24)            97.4619         estimate D2E/DX2                !
 ! D28   D(10,4,5,6)           104.3707         estimate D2E/DX2                !
 ! D29   D(10,4,5,23)          -12.6427         estimate D2E/DX2                !
 ! D30   D(10,4,5,24)         -144.5093         estimate D2E/DX2                !
 ! D31   D(3,4,7,6)            134.6437         estimate D2E/DX2                !
 ! D32   D(3,4,7,25)          -108.5506         estimate D2E/DX2                !
 ! D33   D(3,4,7,26)            23.2042         estimate D2E/DX2                !
 ! D34   D(5,4,7,6)             13.6797         estimate D2E/DX2                !
 ! D35   D(5,4,7,25)           130.4853         estimate D2E/DX2                !
 ! D36   D(5,4,7,26)           -97.7598         estimate D2E/DX2                !
 ! D37   D(10,4,7,6)          -101.0365         estimate D2E/DX2                !
 ! D38   D(10,4,7,25)           15.7692         estimate D2E/DX2                !
 ! D39   D(10,4,7,26)          147.524          estimate D2E/DX2                !
 ! D40   D(3,4,10,11)           53.9732         estimate D2E/DX2                !
 ! D41   D(3,4,10,27)          -68.8183         estimate D2E/DX2                !
 ! D42   D(3,4,10,28)          177.6691         estimate D2E/DX2                !
 ! D43   D(5,4,10,11)          178.5119         estimate D2E/DX2                !
 ! D44   D(5,4,10,27)           55.7203         estimate D2E/DX2                !
 ! D45   D(5,4,10,28)          -57.7922         estimate D2E/DX2                !
 ! D46   D(7,4,10,11)          -74.243          estimate D2E/DX2                !
 ! D47   D(7,4,10,27)          162.9654         estimate D2E/DX2                !
 ! D48   D(7,4,10,28)           49.4528         estimate D2E/DX2                !
 ! D49   D(4,5,6,7)             11.8174         estimate D2E/DX2                !
 ! D50   D(4,5,6,8)            124.4085         estimate D2E/DX2                !
 ! D51   D(4,5,6,9)            -97.7319         estimate D2E/DX2                !
 ! D52   D(23,5,6,7)           130.4183         estimate D2E/DX2                !
 ! D53   D(23,5,6,8)          -116.9906         estimate D2E/DX2                !
 ! D54   D(23,5,6,9)            20.869          estimate D2E/DX2                !
 ! D55   D(24,5,6,7)          -104.9595         estimate D2E/DX2                !
 ! D56   D(24,5,6,8)             7.6316         estimate D2E/DX2                !
 ! D57   D(24,5,6,9)           145.4912         estimate D2E/DX2                !
 ! D58   D(5,6,7,4)            -11.7756         estimate D2E/DX2                !
 ! D59   D(5,6,7,25)          -131.1584         estimate D2E/DX2                !
 ! D60   D(5,6,7,26)           103.836          estimate D2E/DX2                !
 ! D61   D(8,6,7,4)           -123.7993         estimate D2E/DX2                !
 ! D62   D(8,6,7,25)           116.8178         estimate D2E/DX2                !
 ! D63   D(8,6,7,26)            -8.1878         estimate D2E/DX2                !
 ! D64   D(9,6,7,4)             97.7476         estimate D2E/DX2                !
 ! D65   D(9,6,7,25)           -21.6353         estimate D2E/DX2                !
 ! D66   D(9,6,7,26)          -146.6409         estimate D2E/DX2                !
 ! D67   D(4,10,11,12)          59.7077         estimate D2E/DX2                !
 ! D68   D(4,10,11,29)         -66.2275         estimate D2E/DX2                !
 ! D69   D(4,10,11,30)        -179.0634         estimate D2E/DX2                !
 ! D70   D(27,10,11,12)       -177.7661         estimate D2E/DX2                !
 ! D71   D(27,10,11,29)         56.2986         estimate D2E/DX2                !
 ! D72   D(27,10,11,30)        -56.5372         estimate D2E/DX2                !
 ! D73   D(28,10,11,12)        -62.4523         estimate D2E/DX2                !
 ! D74   D(28,10,11,29)        171.6125         estimate D2E/DX2                !
 ! D75   D(28,10,11,30)         58.7766         estimate D2E/DX2                !
 ! D76   D(10,11,12,13)         72.6168         estimate D2E/DX2                !
 ! D77   D(10,11,12,17)       -108.0269         estimate D2E/DX2                !
 ! D78   D(29,11,12,13)       -160.8435         estimate D2E/DX2                !
 ! D79   D(29,11,12,17)         18.5128         estimate D2E/DX2                !
 ! D80   D(30,11,12,13)        -46.5108         estimate D2E/DX2                !
 ! D81   D(30,11,12,17)        132.8455         estimate D2E/DX2                !
 ! D82   D(11,12,13,14)       -179.9126         estimate D2E/DX2                !
 ! D83   D(11,12,13,31)          0.3774         estimate D2E/DX2                !
 ! D84   D(17,12,13,14)          0.7158         estimate D2E/DX2                !
 ! D85   D(17,12,13,31)       -178.9942         estimate D2E/DX2                !
 ! D86   D(11,12,17,16)       -179.9734         estimate D2E/DX2                !
 ! D87   D(11,12,17,35)         -0.2055         estimate D2E/DX2                !
 ! D88   D(13,12,17,16)         -0.6026         estimate D2E/DX2                !
 ! D89   D(13,12,17,35)        179.1653         estimate D2E/DX2                !
 ! D90   D(12,13,14,15)         -0.3449         estimate D2E/DX2                !
 ! D91   D(12,13,14,32)       -179.8928         estimate D2E/DX2                !
 ! D92   D(31,13,14,15)        179.3651         estimate D2E/DX2                !
 ! D93   D(31,13,14,32)         -0.1828         estimate D2E/DX2                !
 ! D94   D(13,14,15,16)         -0.1547         estimate D2E/DX2                !
 ! D95   D(13,14,15,33)       -179.8198         estimate D2E/DX2                !
 ! D96   D(32,14,15,16)        179.3917         estimate D2E/DX2                !
 ! D97   D(32,14,15,33)         -0.2734         estimate D2E/DX2                !
 ! D98   D(14,15,16,17)          0.2674         estimate D2E/DX2                !
 ! D99   D(14,15,16,34)       -179.5103         estimate D2E/DX2                !
 ! D100  D(33,15,16,17)        179.9323         estimate D2E/DX2                !
 ! D101  D(33,15,16,34)          0.1545         estimate D2E/DX2                !
 ! D102  D(15,16,17,12)          0.1173         estimate D2E/DX2                !
 ! D103  D(15,16,17,35)       -179.6503         estimate D2E/DX2                !
 ! D104  D(34,16,17,12)        179.896          estimate D2E/DX2                !
 ! D105  D(34,16,17,35)          0.1284         estimate D2E/DX2                !
 ! D106  D(2,18,19,36)         -57.2038         estimate D2E/DX2                !
 ! D107  D(2,18,19,37)        -176.4965         estimate D2E/DX2                !
 ! D108  D(2,18,19,38)          63.8823         estimate D2E/DX2                !
 ! D109  D(20,18,19,36)        177.7912         estimate D2E/DX2                !
 ! D110  D(20,18,19,37)         58.4984         estimate D2E/DX2                !
 ! D111  D(20,18,19,38)        -61.1228         estimate D2E/DX2                !
 ! D112  D(42,18,19,36)         57.3355         estimate D2E/DX2                !
 ! D113  D(42,18,19,37)        -61.9573         estimate D2E/DX2                !
 ! D114  D(42,18,19,38)        178.4215         estimate D2E/DX2                !
 ! D115  D(2,18,20,39)          58.7298         estimate D2E/DX2                !
 ! D116  D(2,18,20,40)         -62.7907         estimate D2E/DX2                !
 ! D117  D(2,18,20,41)         177.5143         estimate D2E/DX2                !
 ! D118  D(19,18,20,39)       -177.4513         estimate D2E/DX2                !
 ! D119  D(19,18,20,40)         61.0282         estimate D2E/DX2                !
 ! D120  D(19,18,20,41)        -58.6668         estimate D2E/DX2                !
 ! D121  D(42,18,20,39)        -57.1601         estimate D2E/DX2                !
 ! D122  D(42,18,20,40)       -178.6805         estimate D2E/DX2                !
 ! D123  D(42,18,20,41)         61.6244         estimate D2E/DX2                !
 --------------------------------------------------------------------------------
 Trust Radius=3.00D-01 FncErr=1.00D-07 GrdErr=1.00D-06 EigMax=2.50D+02 EigMin=1.00D-04
 Number of steps in this run=    252 maximum allowed number of steps=    252.
 GradGradGradGradGradGradGradGradGradGradGradGradGradGradGradGradGradGrad

 Leave Link  103 at Thu Sep 24 01:19:46 2020, MaxMem=  2147483648 cpu:               0.1 elap:               0.0
 (Enter /prod/apps/gaussian/g16b1/l202.exe)
                          Input orientation:                          
 ---------------------------------------------------------------------
 Center     Atomic      Atomic             Coordinates (Angstroms)
 Number     Number       Type             X           Y           Z
 ---------------------------------------------------------------------
      1          8           0       -2.223000    0.467000   -1.435000
      2         16           0       -2.046000   -0.741000   -0.644000
      3          7           0       -0.861000   -0.556000    0.445000
      4          6           0       -0.035000    0.652000    0.678000
      5          6           0       -0.863000    1.956000    0.947000
      6         16           0        0.226000    2.880000   -0.196000
      7          6           0        0.747000    1.173000   -0.584000
      8          8           0       -0.492000    3.563000   -1.287000
      9          8           0        1.278000    3.619000    0.532000
     10          6           0        0.878000    0.365000    1.895000
     11          6           0        1.777000   -0.895000    1.892000
     12          6           0        2.797000   -1.010000    0.775000
     13          6           0        3.942000   -0.198000    0.763000
     14          6           0        4.881000   -0.301000   -0.265000
     15          6           0        4.695000   -1.225000   -1.298000
     16          6           0        3.565000   -2.046000   -1.292000
     17          6           0        2.626000   -1.938000   -0.262000
     18          7           0       -3.595000   -0.779000    0.423000
     19          6           0       -4.809000   -0.768000   -0.460000
     20          6           0       -3.576000   -1.930000    1.380000
     21          8           0       -2.034000   -2.081000   -1.205000
     22          1           0       -0.449000   -1.453000    0.703000
     23          1           0       -0.850000    2.326000    1.972000
     24          1           0       -1.877000    1.953000    0.548000
     25          1           0        1.826000    1.032000   -0.584000
     26          1           0        0.312000    0.866000   -1.535000
     27          1           0        0.233000    0.313000    2.779000
     28          1           0        1.506000    1.255000    2.019000
     29          1           0        1.165000   -1.804000    1.919000
     30          1           0        2.300000   -0.876000    2.855000
     31          1           0        4.102000    0.517000    1.567000
     32          1           0        5.762000    0.335000   -0.256000
     33          1           0        5.427000   -1.307000   -2.096000
     34          1           0        3.414000   -2.773000   -2.085000
     35          1           0        1.752000   -2.585000   -0.262000
     36          1           0       -4.770000    0.114000   -1.096000
     37          1           0       -5.684000   -0.727000    0.188000
     38          1           0       -4.817000   -1.681000   -1.055000
     39          1           0       -2.695000   -1.847000    2.014000
     40          1           0       -3.569000   -2.860000    0.813000
     41          1           0       -4.477000   -1.862000    1.991000
     42          1           0       -3.579000    0.103000    0.966000
 ---------------------------------------------------------------------
                    Distance matrix (angstroms):
                    1          2          3          4          5
     1  O    0.000000
     2  S    1.454742   0.000000
     3  N    2.536922   1.619991   0.000000
     4  C    3.047349   2.780693   1.481833   0.000000
     5  C    3.121001   3.347324   2.561670   1.567916   0.000000
     6  S    3.654489   4.298177   3.660402   2.407484   1.829247
     7  C    3.169154   3.386421   2.575645   1.573407   2.355663
     8  O    3.550138   4.620907   4.483542   3.541750   2.776841
     9  O    5.105017   5.607277   4.691856   3.247826   2.742567
    10  C    4.551429   4.027348   2.444353   1.548234   2.541863
    11  C    5.378101   4.590244   3.027833   2.674014   3.998853
    12  C    5.680319   5.053768   3.700808   3.285099   4.714058
    13  C    6.578803   6.175001   4.826810   4.067709   5.268927
    14  C    7.240548   6.951300   5.791346   5.095539   6.289398
    15  C    7.123227   6.789923   5.861292   5.458993   6.786026
    16  C    6.311621   5.797090   4.982644   4.911222   6.374661
    17  C    5.538299   4.838008   3.816928   3.830486   5.366380
    18  N    2.624322   1.881312   2.743168   3.845307   3.901106
    19  C    3.027085   2.769252   4.055943   5.109063   4.997073
    20  C    3.937060   2.801999   3.183289   4.438266   4.759081
    21  O    2.565331   1.452744   2.534572   3.874400   4.722257
    22  H    3.377058   2.207207   1.020253   2.145471   3.442704
    23  H    4.116875   4.204802   3.261560   2.267363   1.089814
    24  H    2.502039   2.950773   2.708864   2.258864   1.089682
    25  H    4.175862   4.259051   3.286420   2.280431   3.229312
    26  H    2.568156   2.989397   2.705257   2.250239   2.954496
    27  H    4.879902   4.245196   2.720212   2.144982   2.693861
    28  H    5.143588   4.867473   3.370443   2.129923   2.693092
    29  H    5.280653   4.243755   2.799081   3.002002   4.381229
    30  H    6.376933   5.581124   3.987784   3.539257   4.654595
    31  H    7.001438   6.653494   5.200152   4.233594   5.206376
    32  H    8.072651   7.891336   6.719331   5.880311   6.925711
    33  H    7.880768   7.633766   6.823461   6.431656   7.711752
    34  H    6.534208   6.001425   5.439817   5.591100   7.060396
    35  H    5.146966   4.239229   3.382966   3.815120   5.377786
    36  H    2.593596   2.890589   4.254863   5.084953   4.778228
    37  H    4.004783   3.731952   4.832869   5.835490   5.569256
    38  H    3.389268   2.954820   4.377849   5.595865   5.733227
    39  H    4.180069   2.951169   2.737151   3.886579   4.354024
    40  H    4.234873   2.988735   3.574508   4.984127   5.525780
    41  H    4.716167   3.756278   4.143816   5.270249   5.359856
    42  H    2.781373   2.377925   2.844863   3.597816   3.287952
                    6          7          8          9         10
     6  S    0.000000
     7  C    1.826427   0.000000
     8  O    1.473870   2.782343   0.000000
     9  O    1.477433   2.740499   2.538660   0.000000
    10  C    3.335058   2.610645   4.714788   3.550533   0.000000
    11  C    4.584318   3.386458   5.926902   4.740759   1.547840
    12  C    4.762875   3.288597   5.998474   4.877915   2.612965
    13  C    4.919596   3.728549   6.165061   4.660445   3.314587
    14  C    5.638488   4.400499   6.696574   5.383606   4.597082
    15  C    6.167446   4.674067   7.059039   6.203960   5.224255
    16  C    6.051084   4.336398   6.922439   6.375702   4.815585
    17  C    5.383073   3.648650   6.405744   5.773023   3.607210
    18  N    5.326489   4.865934   5.604076   6.565091   4.845952
    19  C    6.223249   5.886594   6.170736   7.568448   6.258729
    20  C    6.330488   5.672234   6.840833   7.421039   5.036900
    21  O    5.544114   4.325288   5.851429   6.817368   4.906390
    22  H    4.476462   3.159535   5.396499   5.360686   2.546943
    23  H    2.482925   3.226911   3.504199   2.876427   2.614849
    24  H    2.415673   2.962296   2.806697   3.567890   3.453430
    25  H    2.475005   1.088174   3.503326   2.870249   2.736610
    26  H    2.420023   1.089897   2.825195   3.575563   3.512301
    27  H    3.929397   3.509069   5.255519   4.131667   1.095530
    28  H    3.030718   2.712640   4.499834   2.802079   1.096294
    29  H    5.224443   3.911811   6.467517   5.598702   2.188037
    30  H    5.264752   4.293825   6.682526   5.161961   2.117490
    31  H    4.869837   4.038956   6.207114   4.320718   3.244205
    32  H    6.093268   5.095101   7.113049   5.613542   5.336774
    33  H    6.942000   5.508080   7.707525   6.956009   6.278301
    34  H    6.759295   4.993677   7.485889   7.229720   5.667340
    35  H    5.674439   3.903367   6.624505   6.272538   3.757529
    36  H    5.781070   5.641003   5.498488   7.177305   6.396013
    37  H    6.934407   6.750092   6.894678   8.214347   6.867762
    38  H    6.853645   6.270985   6.801396   8.231500   6.732135
    39  H    5.980039   5.264729   6.709539   6.917963   4.203978
    40  H    6.954689   6.069971   7.425150   8.096284   5.598853
    41  H    7.027641   6.567498   7.487064   8.080227   5.800411
    42  H    4.851804   4.718228   5.155306   6.011744   4.560322
                   11         12         13         14         15
    11  C    0.000000
    12  C    1.517008   0.000000
    13  C    2.539227   1.403750   0.000000
    14  C    3.826265   2.434612   1.396107   0.000000
    15  C    4.335865   2.818858   2.422697   1.398378   0.000000
    16  C    3.828786   2.436311   2.789311   2.414873   1.396774
    17  C    2.539363   1.402068   2.410411   2.786540   2.421245
    18  N    5.570440   6.405851   7.567003   8.517300   8.478494
    19  C    6.994529   7.709411   8.854413   9.703206   9.551812
    20  C    5.476128   6.467423   7.739563   8.768153   8.722279
    21  O    5.051903   5.329728   6.567442   7.202029   6.783865
    22  H    2.584601   3.276881   4.567221   5.538324   5.524194
    23  H    4.157207   5.085500   5.549371   6.689519   7.351838
    24  H    4.823811   5.538698   6.207559   7.170220   7.529846
    25  H    3.137882   2.638084   2.793701   3.348384   3.719544
    26  H    4.122096   3.876945   4.426037   4.883702   4.862010
    27  H    2.151736   3.512896   4.252300   5.589887   6.236731
    28  H    2.170730   2.888675   3.102070   4.362157   5.227103
    29  H    1.096154   2.145366   3.409883   4.564813   4.810949
    30  H    1.096020   2.142747   2.744506   4.089815   4.806791
    31  H    2.739524   2.159171   1.087769   2.152252   3.405061
    32  H    4.691165   3.415144   2.152870   1.086618   2.158206
    33  H    5.421844   3.904837   3.407196   2.159332   1.085980
    34  H    4.692886   3.415912   3.875631   3.402245   2.157924
    35  H    2.737963   2.155926   3.397719   3.873926   3.403549
    36  H    7.267010   7.875500   8.913595   9.695596   9.561378
    37  H    7.654957   8.505999   9.657657  10.583284  10.496659
    38  H    7.265221   7.859525   9.067772   9.827497   9.526024
    39  H    4.573836   5.691902   6.952264   8.061001   8.122089
    40  H    5.796998   6.629472   7.968931   8.894553   8.684656
    41  H    6.329092   7.423991   8.669281   9.751842   9.764675
    42  H    5.526320   6.475232   7.529758   8.558632   8.680343
                   16         17         18         19         20
    16  C    0.000000
    17  C    1.397957   0.000000
    18  N    7.470751   6.365010   0.000000
    19  C    8.511720   7.529099   1.501202   0.000000
    20  C    7.625413   6.415686   1.497001   2.501226   0.000000
    21  O    5.599785   4.756606   2.604287   3.159053   3.013767
    22  H    4.521490   3.259152   3.229550   4.564142   3.234809
    23  H    7.018569   5.937594   4.424415   5.582216   5.088720
    24  H    6.999497   6.006079   3.229702   4.125110   4.319319
    25  H    3.605478   3.092666   5.803534   6.875944   6.466247
    26  H    4.372734   3.851953   4.669522   5.481808   5.606370
    27  H    5.765427   4.476732   4.625666   6.089454   4.636457
    28  H    5.108699   4.080761   5.718791   7.079350   6.031523
    29  H    4.016103   2.628543   5.093745   6.513188   4.773204
    30  H    4.490739   3.309050   6.377700   7.844665   6.149302
    31  H    3.877012   3.398653   7.888736   9.228536   8.060674
    32  H    3.401362   3.873120   9.447512  10.630346   9.747049
    33  H    2.158606   3.406951   9.381931  10.379919   9.670818
    34  H    1.086360   2.154414   7.706632   8.618491   7.847100
    35  H    2.153692   1.087421   5.685180   6.810831   5.613624
    36  H    8.612563   7.720562   2.117885   1.088091   3.425514
    37  H    9.459078   8.409823   2.102820   1.089592   2.704022
    38  H    8.393290   7.489536   2.119286   1.089797   2.744323
    39  H    7.082149   5.788048   2.117051   3.428398   1.088580
    40  H    7.482485   6.354820   2.117389   2.744921   1.089237
    41  H    8.688251   7.452140   2.099866   2.704526   1.090755
    42  H    7.794453   6.646480   1.035871   2.074853   2.074727
                   21         22         23         24         25
    21  O    0.000000
    22  H    2.558725   0.000000
    23  H    5.560291   4.006495   0.000000
    24  H    4.401229   3.696491   1.794891   0.000000
    25  H    4.997600   3.606552   3.920274   3.980185   0.000000
    26  H    3.781194   3.311424   3.972517   3.211258   1.795593
    27  H    5.171342   2.809565   2.424110   3.481244   3.790037
    28  H    5.835638   3.589867   2.588433   3.754429   2.632060
    29  H    4.479923   2.051061   4.595643   5.024784   3.839899
    30  H    6.059635   3.538507   4.577662   5.547325   3.961295
    31  H    7.216930   5.033786   5.287609   6.232888   3.173673
    32  H    8.216768   6.533999   7.255798   7.849755   4.010672
    33  H    7.553772   6.510230   8.315530   8.424177   4.552391
    34  H    5.561831   4.943492   7.787217   7.567195   4.387798
    35  H    3.934090   2.656511   5.989915   5.866787   3.632059
    36  H    3.509359   4.935882   5.447198   3.801856   6.679228
    37  H    4.134763   5.310134   5.989242   4.669609   7.751785
    38  H    2.815597   4.714019   6.399677   4.941575   7.191082
    39  H    3.294486   2.630299   4.562863   4.154309   5.956315
    40  H    2.652431   3.424347   5.969157   5.108626   6.797448
    41  H    4.028725   4.248648   5.540292   4.836990   7.398221
    42  H    3.445304   3.505311   3.660766   2.548338   5.699085
                   26         27         28         29         30
    26  H    0.000000
    27  H    4.350017   0.000000
    28  H    3.769333   1.756557   0.000000
    29  H    4.448216   2.467775   3.079572   0.000000
    30  H    5.124335   2.385788   2.422910   1.739398   0.000000
    31  H    4.910021   4.059522   2.736451   3.759909   2.616600
    32  H    5.623193   6.307262   4.912796   5.517097   4.809396
    33  H    5.585685   7.305317   6.234686   5.876383   5.871651
    34  H    4.813234   6.580323   6.058718   4.693504   5.407699
    35  H    3.950130   4.466928   4.473151   2.389831   3.596759
    36  H    5.156059   6.331290   7.098823   6.927711   8.159375
    37  H    6.438819   6.542612   7.679647   7.145984   8.418987
    38  H    5.746673   6.646660   7.619049   6.681626   8.160136
    39  H    5.384962   3.718065   5.222148   3.861408   5.157533
    40  H    5.870123   5.328066   6.644041   4.974850   6.523127
    41  H    6.542873   5.247444   6.746315   5.642757   6.902639
    42  H    4.687969   4.226395   5.319129   5.200999   6.252152
                   31         32         33         34         35
    31  H    0.000000
    32  H    2.472257   0.000000
    33  H    4.301182   2.488773   0.000000
    34  H    4.963320   4.303256   2.490270   0.000000
    35  H    4.300017   4.960498   4.301449   2.474049   0.000000
    36  H    9.271805  10.567756  10.343986   8.734457   7.107506
    37  H    9.960671  11.503734  11.358141   9.598242   7.677810
    38  H    9.552730  10.798977  10.303548   8.366763   6.678160
    39  H    7.210237   9.024127   9.118694   7.414793   5.049815
    40  H    8.415277   9.920602   9.581342   7.560970   5.435466
    41  H    8.912837  10.710413  10.728505   8.928134   6.663271
    42  H    7.715592   9.423449   9.616235   8.153651   6.095317
                   36         37         38         39         40
    36  H    0.000000
    37  H    1.786430   0.000000
    38  H    1.796083   1.790769   0.000000
    39  H    4.221759   3.677336   3.734863   0.000000
    40  H    3.732473   3.068149   2.537118   1.797900   0.000000
    41  H    3.676954   2.448649   3.070257   1.782212   1.791131
    42  H    2.381270   2.392741   2.966436   2.383749   2.966964
                   41         42
    41  H    0.000000
    42  H    2.391287   0.000000
 Symmetry turned off by external request.
 Stoichiometry    C13H21N2O4S2(1+)
 Framework group  C1[X(C13H21N2O4S2)]
 Deg. of freedom   120
 Full point group                 C1      NOp   1
 Rotational constants (GHZ):           0.3531042           0.1902799           0.1491077
 Leave Link  202 at Thu Sep 24 01:19:46 2020, MaxMem=  2147483648 cpu:               0.0 elap:               0.0
 (Enter /prod/apps/gaussian/g16b1/l301.exe)
 Standard basis: 6-31G(d) (6D, 7F)
 Ernie: Thresh=  0.10000D-02 Tol=  0.10000D-05 Strict=F.
   365 basis functions,   720 primitive gaussians,   365 cartesian basis functions
    88 alpha electrons       88 beta electrons
       nuclear repulsion energy      2223.1190114787 Hartrees.
 IExCor=  402 DFT=T Ex+Corr=B3LYP ExCW=0 ScaHFX=  0.200000
 ScaDFX=  0.800000  0.720000  1.000000  0.810000 ScalE2=  1.000000  1.000000
 IRadAn=      5 IRanWt=     -1 IRanGd=            0 ICorTp=0 IEmpDi=  4
 NAtoms=   42 NActive=   42 NUniq=   42 SFac= 1.00D+00 NAtFMM=   60 NAOKFM=F Big=F
 Integral buffers will be    131072 words long.
 Raffenetti 2 integral format.
 Two-electron integral symmetry is turned off.
 Using the following non-standard input for PCM:
 MSTModel=DFT cav MSTcharged
 --- end of non-standard input.
 MST model for solvation energy: B3LYP parametrization.
 MST cavity parameters:
 ISph   IAn     Re0     Alpha   Atom Type   QCorr
 ------------------------------------------------
   1      8     1.40     1.25      O          F
   2     16     1.75     1.25      S          F
   3      7     1.50     1.25      NH         F
   4      6     1.50     1.25      C          F
   5      6     1.50     1.25      CH2        F
   6     16     1.75     1.25      S          F
   7      6     1.50     1.25      CH2        F
   8      8     1.40     1.25      O          F
   9      8     1.40     1.25      O          F
  10      6     1.50     1.25      CH2        F
  11      6     1.50     1.25      CH2        F
  12      6     1.50     1.25      C          F
  13      6     1.50     1.25      CH         F
  14      6     1.50     1.25      CH         F
  15      6     1.50     1.25      CH         F
  16      6     1.50     1.25      CH         F
  17      6     1.50     1.25      CH         F
  18      7     1.50     1.15      NH         T
  19      6     1.50     1.25      CH3        F
  20      6     1.50     1.25      CH3        F
  21      8     1.40     1.25      O          F
  22      1     0.90     1.25      NH         F
  23      1     1.20     1.25      CH2        F
  24      1     1.20     1.25      CH2        F
  25      1     1.20     1.25      CH2        F
  26      1     1.20     1.25      CH2        F
  27      1     1.20     1.25      CH2        F
  28      1     1.20     1.25      CH2        F
  29      1     1.20     1.25      CH2        F
  30      1     1.20     1.25      CH2        F
  31      1     1.20     1.25      CH         F
  32      1     1.20     1.25      CH         F
  33      1     1.20     1.25      CH         F
  34      1     1.20     1.25      CH         F
  35      1     1.20     1.25      CH         F
  36      1     1.20     1.25      CH3        F
  37      1     1.20     1.25      CH3        F
  38      1     1.20     1.25      CH3        F
  39      1     1.20     1.25      CH3        F
  40      1     1.20     1.25      CH3        F
  41      1     1.20     1.25      CH3        F
  42      1     0.90     1.15      NH         T
 ------------------------------------------------------------------------------
 Polarizable Continuum Model (PCM)
 =================================
 Model                : PCM.
 Atomic radii         : MST.
 Polarization charges : Total charges.
 Charge compensation  : None.
 Solution method      : On-the-fly selection.
 Cavity type          : Scaled VdW (van der Waals Surface) (Alpha=1.250).
 Cavity algorithm     : GePol (No added spheres)
                        Default sphere list used, NSphG=   42.
                        Lebedev-Laikov grids with approx.  5.0 points / Ang**2.
                        Smoothing algorithm: York/Karplus (Gamma=1.0000).
                        Polarization charges: spherical gaussians, with
                                              point-specific exponents (IZeta= 3).
                        Self-potential: point-specific (ISelfS= 7).
                        Self-field    : sphere-specific E.n sum rule (ISelfD= 2).
 1st derivatives      : Analytical E(r).r(x)/FMM algorithm (CHGder, D1EAlg=3).
                        Cavity 1st derivative terms included.
 Solvent              : Water, Eps=  78.355300 Eps(inf)=   1.777849
 ------------------------------------------------------------------------------
 GePol: Number of generator spheres                  =      42
 GePol: Total number of spheres                      =      42
 GePol: Number of exposed spheres                    =      42 (100.00%)
 GePol: Number of points                             =    2819
 GePol: Average weight of points                     =       0.14
 GePol: Minimum weight of points                     =   0.28D-09
 GePol: Maximum weight of points                     =    0.22001
 GePol: Number of points with low weight             =     203
 GePol: Fraction of low-weight points (<1% of avg)   =       7.20%
 GePol: Cavity surface area                          =    382.710 Ang**2
 GePol: Cavity volume                                =    379.632 Ang**3
 PCM non-electrostatic energy =         0.0033192336 Hartrees.
 Nuclear repulsion after PCM non-electrostatic terms =     2223.1223307123 Hartrees.
 Leave Link  301 at Thu Sep 24 01:19:46 2020, MaxMem=  2147483648 cpu:               0.3 elap:               0.1
 (Enter /prod/apps/gaussian/g16b1/l302.exe)
 NPDir=0 NMtPBC=     1 NCelOv=     1 NCel=       1 NClECP=     1 NCelD=      1
         NCelK=      1 NCelE2=     1 NClLst=     1 CellRange=     0.0.
 One-electron integrals computed using PRISM.
 NBasis=   365 RedAO= T EigKep=  4.74D-04  NBF=   365
 NBsUse=   365 1.00D-06 EigRej= -1.00D+00 NBFU=   365
 Precomputing XC quadrature grid using
 IXCGrd= 4 IRadAn=           5 IRanWt=          -1 IRanGd=           0 AccXCQ= 0.00D+00.
 Generated NRdTot=       0 NPtTot=           0 NUsed=           0 NTot=          32
 NSgBfM=   362   362   362   362   362 MxSgAt=    42 MxSgA2=    42.
 Leave Link  302 at Thu Sep 24 01:19:47 2020, MaxMem=  2147483648 cpu:               2.4 elap:               0.6
 (Enter /prod/apps/gaussian/g16b1/l303.exe)
 DipDrv:  MaxL=1.
 Leave Link  303 at Thu Sep 24 01:19:47 2020, MaxMem=  2147483648 cpu:               0.2 elap:               0.1
 (Enter /prod/apps/gaussian/g16b1/l401.exe)
 ExpMin= 1.17D-01 ExpMax= 2.19D+04 ExpMxC= 3.30D+03 IAcc=3 IRadAn=         5 AccDes= 0.00D+00
 Harris functional with IExCor=  402 and IRadAn=       5 diagonalized for initial guess.
 HarFok:  IExCor=  402 AccDes= 0.00D+00 IRadAn=         5 IDoV= 1 UseB2=F ITyADJ=14
 ICtDFT=  3500011 ScaDFX=  1.000000  1.000000  1.000000  1.000000
 FoFCou: FMM=F IPFlag=           0 FMFlag=      100000 FMFlg1=           0
         NFxFlg=           0 DoJE=T BraDBF=F KetDBF=T FulRan=T
         wScrn=  0.000000 ICntrl=       500 IOpCl=  0 I1Cent=   200000004 NGrid=           0
         NMat0=    1 NMatS0=      1 NMatT0=    0 NMatD0=    1 NMtDS0=    0 NMtDT0=    0
 Symmetry not used in FoFCou.
 Harris En= -1714.52010939373    
 JPrj=0 DoOrth=F DoCkMO=F.
 Leave Link  401 at Thu Sep 24 01:19:50 2020, MaxMem=  2147483648 cpu:              13.4 elap:               3.4
 (Enter /prod/apps/gaussian/g16b1/l502.exe)
 Two-electron integral symmetry not used.
 Closed shell SCF:
 Using DIIS extrapolation, IDIIS=  1040.
 NGot=  2147483648 LenX=  2147211715 LenY=  2147078049
 Requested convergence on RMS density matrix=1.00D-08 within2000 cycles.
 Requested convergence on MAX density matrix=1.00D-06.
 Requested convergence on             energy=1.00D-06.
 No special actions if energy rises.

 Cycle   1  Pass 1  IDiag  1:
 FoFJK:  IHMeth= 1 ICntrl=       0 DoSepK=F KAlg= 0 I1Cent=           0 FoldK=F
 IRaf= 800000000 NMat=       1 IRICut=       1 DoRegI=T DoRafI=F ISym2E= 0 IDoP0=0 IntGTp=1.
 FoFCou: FMM=F IPFlag=           0 FMFlag=      100000 FMFlg1=           0
         NFxFlg=           0 DoJE=F BraDBF=F KetDBF=F FulRan=T
         wScrn=  0.000000 ICntrl=         0 IOpCl=  0 I1Cent=           0 NGrid=           0
         NMat0=    1 NMatS0=      1 NMatT0=    0 NMatD0=    1 NMtDS0=    0 NMtDT0=    0
 Symmetry not used in FoFCou.
 Inv3:  Mode=1 IEnd=    23840283.
 Iteration    1 A*A^-1 deviation from unit magnitude is 2.89D-15 for   1481.
 Iteration    1 A*A^-1 deviation from orthogonality  is 2.95D-15 for   2409    632.
 Iteration    1 A^-1*A deviation from unit magnitude is 3.33D-15 for    954.
 Iteration    1 A^-1*A deviation from orthogonality  is 1.78D-15 for   1386     21.
 E= -1713.69458743599    
 DIIS: error= 2.89D-02 at cycle   1 NSaved=   1.
 NSaved= 1 IEnMin= 1 EnMin= -1713.69458743599     IErMin= 1 ErrMin= 2.89D-02
 ErrMax= 2.89D-02  0.00D+00 EMaxC= 1.00D-01 BMatC= 9.55D-01 BMatP= 9.55D-01
 IDIUse=3 WtCom= 7.11D-01 WtEn= 2.89D-01
 Coeff-Com:  0.100D+01
 Coeff-En:   0.100D+01
 Coeff:      0.100D+01
 Gap=     0.393 Goal=   None    Shift=    0.000
 GapD=    0.393 DampG=1.000 DampE=0.500 DampFc=0.5000 IDamp=-1.
 Damping current iteration by 5.00D-01
 RMSDP=6.51D-03 MaxDP=6.51D-01              OVMax= 2.72D-01

 Cycle   2  Pass 1  IDiag  1:
 E= -1713.86779182865     Delta-E=       -0.173204392658 Rises=F Damp=T
 DIIS: error= 1.78D-02 at cycle   2 NSaved=   2.
 NSaved= 2 IEnMin= 2 EnMin= -1713.86779182865     IErMin= 2 ErrMin= 1.78D-02
 ErrMax= 1.78D-02  0.00D+00 EMaxC= 1.00D-01 BMatC= 1.59D-01 BMatP= 9.55D-01
 IDIUse=3 WtCom= 8.22D-01 WtEn= 1.78D-01
 Coeff-Com:  0.247D+00 0.753D+00
 Coeff-En:   0.392D+00 0.608D+00
 Coeff:      0.273D+00 0.727D+00
 Gap=     0.177 Goal=   None    Shift=    0.000
 RMSDP=1.78D-03 MaxDP=1.48D-01 DE=-1.73D-01 OVMax= 2.09D-01

 Cycle   3  Pass 1  IDiag  1:
 E= -1714.43659219740     Delta-E=       -0.568800368755 Rises=F Damp=F
 DIIS: error= 8.75D-03 at cycle   3 NSaved=   3.
 NSaved= 3 IEnMin= 3 EnMin= -1714.43659219740     IErMin= 3 ErrMin= 8.75D-03
 ErrMax= 8.75D-03  0.00D+00 EMaxC= 1.00D-01 BMatC= 7.38D-02 BMatP= 1.59D-01
 IDIUse=3 WtCom= 9.12D-01 WtEn= 8.75D-02
 Coeff-Com:  0.955D-01 0.415D+00 0.490D+00
 Coeff-En:   0.000D+00 0.000D+00 0.100D+01
 Coeff:      0.871D-01 0.378D+00 0.534D+00
 Gap=     0.205 Goal=   None    Shift=    0.000
 RMSDP=9.52D-04 MaxDP=3.55D-02 DE=-5.69D-01 OVMax= 5.90D-02

 Cycle   4  Pass 1  IDiag  1:
 E= -1714.49626999353     Delta-E=       -0.059677796123 Rises=F Damp=F
 DIIS: error= 3.36D-03 at cycle   4 NSaved=   4.
 NSaved= 4 IEnMin= 4 EnMin= -1714.49626999353     IErMin= 4 ErrMin= 3.36D-03
 ErrMax= 3.36D-03  0.00D+00 EMaxC= 1.00D-01 BMatC= 8.67D-03 BMatP= 7.38D-02
 IDIUse=3 WtCom= 9.66D-01 WtEn= 3.36D-02
 Coeff-Com:  0.575D-02 0.716D-01 0.270D+00 0.652D+00
 Coeff-En:   0.000D+00 0.000D+00 0.771D-01 0.923D+00
 Coeff:      0.556D-02 0.692D-01 0.264D+00 0.661D+00
 Gap=     0.207 Goal=   None    Shift=    0.000
 RMSDP=2.94D-04 MaxDP=1.74D-02 DE=-5.97D-02 OVMax= 1.74D-02

 Cycle   5  Pass 1  IDiag  1:
 E= -1714.50325869140     Delta-E=       -0.006988697870 Rises=F Damp=F
 DIIS: error= 9.13D-04 at cycle   5 NSaved=   5.
 NSaved= 5 IEnMin= 5 EnMin= -1714.50325869140     IErMin= 5 ErrMin= 9.13D-04
 ErrMax= 9.13D-04  0.00D+00 EMaxC= 1.00D-01 BMatC= 8.36D-04 BMatP= 8.67D-03
 IDIUse=3 WtCom= 9.91D-01 WtEn= 9.13D-03
 Coeff-Com: -0.261D-02 0.166D-01 0.111D+00 0.359D+00 0.516D+00
 Coeff-En:   0.000D+00 0.000D+00 0.000D+00 0.000D+00 0.100D+01
 Coeff:     -0.259D-02 0.164D-01 0.110D+00 0.356D+00 0.520D+00
 Gap=     0.205 Goal=   None    Shift=    0.000
 RMSDP=8.77D-05 MaxDP=5.17D-03 DE=-6.99D-03 OVMax= 5.54D-03

 Cycle   6  Pass 1  IDiag  1:
 E= -1714.50394214450     Delta-E=       -0.000683453104 Rises=F Damp=F
 DIIS: error= 2.67D-04 at cycle   6 NSaved=   6.
 NSaved= 6 IEnMin= 6 EnMin= -1714.50394214450     IErMin= 6 ErrMin= 2.67D-04
 ErrMax= 2.67D-04  0.00D+00 EMaxC= 1.00D-01 BMatC= 6.64D-05 BMatP= 8.36D-04
 IDIUse=3 WtCom= 9.97D-01 WtEn= 2.67D-03
 Coeff-Com: -0.202D-02 0.347D-02 0.364D-01 0.135D+00 0.283D+00 0.545D+00
 Coeff-En:   0.000D+00 0.000D+00 0.000D+00 0.000D+00 0.000D+00 0.100D+01
 Coeff:     -0.201D-02 0.346D-02 0.363D-01 0.134D+00 0.282D+00 0.546D+00
 Gap=     0.206 Goal=   None    Shift=    0.000
 RMSDP=2.49D-05 MaxDP=1.11D-03 DE=-6.83D-04 OVMax= 1.65D-03

 Cycle   7  Pass 1  IDiag  1:
 E= -1714.50398913060     Delta-E=       -0.000046986103 Rises=F Damp=F
 DIIS: error= 1.18D-04 at cycle   7 NSaved=   7.
 NSaved= 7 IEnMin= 7 EnMin= -1714.50398913060     IErMin= 7 ErrMin= 1.18D-04
 ErrMax= 1.18D-04  0.00D+00 EMaxC= 1.00D-01 BMatC= 8.44D-06 BMatP= 6.64D-05
 IDIUse=3 WtCom= 9.99D-01 WtEn= 1.18D-03
 Coeff-Com: -0.101D-02 0.323D-03 0.103D-01 0.439D-01 0.118D+00 0.327D+00
 Coeff-Com:  0.501D+00
 Coeff-En:   0.000D+00 0.000D+00 0.000D+00 0.000D+00 0.000D+00 0.571D-01
 Coeff-En:   0.943D+00
 Coeff:     -0.100D-02 0.322D-03 0.103D-01 0.439D-01 0.118D+00 0.327D+00
 Coeff:      0.501D+00
 Gap=     0.206 Goal=   None    Shift=    0.000
 RMSDP=8.44D-06 MaxDP=6.29D-04 DE=-4.70D-05 OVMax= 5.14D-04

 Cycle   8  Pass 1  IDiag  1:
 E= -1714.50399578877     Delta-E=       -0.000006658161 Rises=F Damp=F
 DIIS: error= 2.27D-05 at cycle   8 NSaved=   8.
 NSaved= 8 IEnMin= 8 EnMin= -1714.50399578877     IErMin= 8 ErrMin= 2.27D-05
 ErrMax= 2.27D-05  0.00D+00 EMaxC= 1.00D-01 BMatC= 4.37D-07 BMatP= 8.44D-06
 IDIUse=1 WtCom= 1.00D+00 WtEn= 0.00D+00
 Coeff-Com: -0.304D-03-0.995D-04 0.139D-02 0.783D-02 0.300D-01 0.105D+00
 Coeff-Com:  0.242D+00 0.614D+00
 Coeff:     -0.304D-03-0.995D-04 0.139D-02 0.783D-02 0.300D-01 0.105D+00
 Coeff:      0.242D+00 0.614D+00
 Gap=     0.206 Goal=   None    Shift=    0.000
 RMSDP=2.14D-06 MaxDP=1.44D-04 DE=-6.66D-06 OVMax= 1.40D-04

 Cycle   9  Pass 1  IDiag  1:
 E= -1714.50399608631     Delta-E=       -0.000000297546 Rises=F Damp=F
 DIIS: error= 7.89D-06 at cycle   9 NSaved=   9.
 NSaved= 9 IEnMin= 9 EnMin= -1714.50399608631     IErMin= 9 ErrMin= 7.89D-06
 ErrMax= 7.89D-06  0.00D+00 EMaxC= 1.00D-01 BMatC= 7.17D-08 BMatP= 4.37D-07
 IDIUse=1 WtCom= 1.00D+00 WtEn= 0.00D+00
 Coeff-Com: -0.602D-04-0.717D-04-0.459D-03-0.844D-03 0.286D-02 0.190D-01
 Coeff-Com:  0.743D-01 0.341D+00 0.564D+00
 Coeff:     -0.602D-04-0.717D-04-0.459D-03-0.844D-03 0.286D-02 0.190D-01
 Coeff:      0.743D-01 0.341D+00 0.564D+00
 Gap=     0.206 Goal=   None    Shift=    0.000
 RMSDP=7.87D-07 MaxDP=3.57D-05 DE=-2.98D-07 OVMax= 4.74D-05

 Cycle  10  Pass 1  IDiag  1:
 E= -1714.50399614142     Delta-E=       -0.000000055109 Rises=F Damp=F
 DIIS: error= 3.11D-06 at cycle  10 NSaved=  10.
 NSaved=10 IEnMin=10 EnMin= -1714.50399614142     IErMin=10 ErrMin= 3.11D-06
 ErrMax= 3.11D-06  0.00D+00 EMaxC= 1.00D-01 BMatC= 8.13D-09 BMatP= 7.17D-08
 IDIUse=1 WtCom= 1.00D+00 WtEn= 0.00D+00
 Coeff-Com: -0.209D-04-0.313D-04-0.380D-03-0.101D-02-0.167D-03 0.456D-02
 Coeff-Com:  0.296D-01 0.169D+00 0.339D+00 0.460D+00
 Coeff:     -0.209D-04-0.313D-04-0.380D-03-0.101D-02-0.167D-03 0.456D-02
 Coeff:      0.296D-01 0.169D+00 0.339D+00 0.460D+00
 Gap=     0.206 Goal=   None    Shift=    0.000
 RMSDP=2.46D-07 MaxDP=1.83D-05 DE=-5.51D-08 OVMax= 1.52D-05

 Cycle  11  Pass 1  IDiag  1:
 E= -1714.50399614737     Delta-E=       -0.000000005944 Rises=F Damp=F
 DIIS: error= 1.02D-06 at cycle  11 NSaved=  11.
 NSaved=11 IEnMin=11 EnMin= -1714.50399614737     IErMin=11 ErrMin= 1.02D-06
 ErrMax= 1.02D-06  0.00D+00 EMaxC= 1.00D-01 BMatC= 5.07D-10 BMatP= 8.13D-09
 IDIUse=1 WtCom= 1.00D+00 WtEn= 0.00D+00
 Coeff-Com: -0.453D-05 0.204D-05-0.126D-03-0.366D-03-0.480D-03-0.615D-03
 Coeff-Com:  0.376D-02 0.334D-01 0.796D-01 0.217D+00 0.668D+00
 Coeff:     -0.453D-05 0.204D-05-0.126D-03-0.366D-03-0.480D-03-0.615D-03
 Coeff:      0.376D-02 0.334D-01 0.796D-01 0.217D+00 0.668D+00
 Gap=     0.206 Goal=   None    Shift=    0.000
 RMSDP=6.83D-08 MaxDP=4.81D-06 DE=-5.94D-09 OVMax= 3.38D-06

 Cycle  12  Pass 1  IDiag  1:
 E= -1714.50399614772     Delta-E=       -0.000000000355 Rises=F Damp=F
 DIIS: error= 3.13D-07 at cycle  12 NSaved=  12.
 NSaved=12 IEnMin=12 EnMin= -1714.50399614772     IErMin=12 ErrMin= 3.13D-07
 ErrMax= 3.13D-07  0.00D+00 EMaxC= 1.00D-01 BMatC= 6.81D-11 BMatP= 5.07D-10
 IDIUse=1 WtCom= 1.00D+00 WtEn= 0.00D+00
 Coeff-Com: -0.121D-05 0.399D-05-0.487D-04-0.145D-03-0.301D-03-0.815D-03
 Coeff-Com: -0.411D-03 0.488D-02 0.158D-01 0.818D-01 0.363D+00 0.536D+00
 Coeff:     -0.121D-05 0.399D-05-0.487D-04-0.145D-03-0.301D-03-0.815D-03
 Coeff:     -0.411D-03 0.488D-02 0.158D-01 0.818D-01 0.363D+00 0.536D+00
 Gap=     0.206 Goal=   None    Shift=    0.000
 RMSDP=2.26D-08 MaxDP=1.76D-06 DE=-3.55D-10 OVMax= 1.12D-06

 Cycle  13  Pass 1  IDiag  1:
 E= -1714.50399614779     Delta-E=       -0.000000000068 Rises=F Damp=F
 DIIS: error= 7.75D-08 at cycle  13 NSaved=  13.
 NSaved=13 IEnMin=13 EnMin= -1714.50399614779     IErMin=13 ErrMin= 7.75D-08
 ErrMax= 7.75D-08  0.00D+00 EMaxC= 1.00D-01 BMatC= 6.23D-12 BMatP= 6.81D-11
 IDIUse=1 WtCom= 1.00D+00 WtEn= 0.00D+00
 Coeff-Com: -0.416D-06 0.225D-05-0.122D-04-0.342D-04-0.103D-03-0.351D-03
 Coeff-Com: -0.629D-03-0.107D-02-0.934D-03 0.180D-01 0.115D+00 0.279D+00
 Coeff-Com:  0.592D+00
 Coeff:     -0.416D-06 0.225D-05-0.122D-04-0.342D-04-0.103D-03-0.351D-03
 Coeff:     -0.629D-03-0.107D-02-0.934D-03 0.180D-01 0.115D+00 0.279D+00
 Coeff:      0.592D+00
 Gap=     0.206 Goal=   None    Shift=    0.000
 RMSDP=8.14D-09 MaxDP=5.17D-07 DE=-6.82D-11 OVMax= 5.10D-07

 Error on total polarization charges =  0.01918
 SCF Done:  E(RB3LYP) =  -1714.50399615     A.U. after   13 cycles
            NFock= 13  Conv=0.81D-08     -V/T= 2.0070
 KE= 1.702665126828D+03 PE=-8.447333899808D+03 EE= 2.807042446120D+03
 Leave Link  502 at Thu Sep 24 01:21:52 2020, MaxMem=  2147483648 cpu:             484.7 elap:             121.2
 (Enter /prod/apps/gaussian/g16b1/l601.exe)
 Copying SCF densities to generalized density rwf, IOpCl= 0 IROHF=0.

 **********************************************************************

            Population analysis using the SCF Density.

 **********************************************************************

 Alpha  occ. eigenvalues --  -89.18466 -89.10356 -19.20849 -19.20676 -19.16145
 Alpha  occ. eigenvalues --  -19.15920 -14.47834 -14.41932 -10.29801 -10.25122
 Alpha  occ. eigenvalues --  -10.25114 -10.23831 -10.23437 -10.21348 -10.20233
 Alpha  occ. eigenvalues --  -10.20208 -10.19343 -10.19301 -10.19191 -10.19175
 Alpha  occ. eigenvalues --  -10.19166  -8.20778  -8.13437  -6.17253  -6.17195
 Alpha  occ. eigenvalues --   -6.17160  -6.09882  -6.09785  -6.09696  -1.18068
 Alpha  occ. eigenvalues --   -1.11231  -1.06938  -1.00990  -1.00847  -0.98319
 Alpha  occ. eigenvalues --   -0.87724  -0.85865  -0.79991  -0.76195  -0.75392
 Alpha  occ. eigenvalues --   -0.74611  -0.73213  -0.72428  -0.69453  -0.66282
 Alpha  occ. eigenvalues --   -0.63276  -0.61458  -0.60577  -0.58591  -0.58343
 Alpha  occ. eigenvalues --   -0.55756  -0.55404  -0.54056  -0.51502  -0.50931
 Alpha  occ. eigenvalues --   -0.50462  -0.50035  -0.49398  -0.47163  -0.47024
 Alpha  occ. eigenvalues --   -0.46350  -0.45629  -0.45546  -0.44225  -0.44111
 Alpha  occ. eigenvalues --   -0.43403  -0.43136  -0.42550  -0.42132  -0.41948
 Alpha  occ. eigenvalues --   -0.41435  -0.40361  -0.38828  -0.38233  -0.37828
 Alpha  occ. eigenvalues --   -0.37123  -0.36716  -0.36159  -0.35453  -0.33981
 Alpha  occ. eigenvalues --   -0.33853  -0.33571  -0.33097  -0.32349  -0.31456
 Alpha  occ. eigenvalues --   -0.29460  -0.25500  -0.24737
 Alpha virt. eigenvalues --   -0.04144  -0.00977  -0.00558   0.01271   0.02266
 Alpha virt. eigenvalues --    0.03984   0.04799   0.04960   0.05588   0.05663
 Alpha virt. eigenvalues --    0.06688   0.08870   0.09957   0.10299   0.11037
 Alpha virt. eigenvalues --    0.11895   0.12531   0.12662   0.13472   0.13757
 Alpha virt. eigenvalues --    0.14347   0.14912   0.15398   0.15769   0.16039
 Alpha virt. eigenvalues --    0.16195   0.16842   0.17608   0.17978   0.18396
 Alpha virt. eigenvalues --    0.18798   0.19641   0.20049   0.20343   0.21474
 Alpha virt. eigenvalues --    0.22688   0.23316   0.24566   0.27778   0.28092
 Alpha virt. eigenvalues --    0.30445   0.31883   0.32129   0.33747   0.33863
 Alpha virt. eigenvalues --    0.34720   0.35433   0.36377   0.40887   0.42527
 Alpha virt. eigenvalues --    0.43846   0.44299   0.46030   0.46610   0.47415
 Alpha virt. eigenvalues --    0.47935   0.49708   0.50488   0.51320   0.52262
 Alpha virt. eigenvalues --    0.52981   0.53506   0.53959   0.54891   0.55859
 Alpha virt. eigenvalues --    0.56214   0.57241   0.58472   0.58984   0.59422
 Alpha virt. eigenvalues --    0.59956   0.60572   0.61078   0.61270   0.62669
 Alpha virt. eigenvalues --    0.63163   0.63950   0.65173   0.66050   0.68593
 Alpha virt. eigenvalues --    0.70634   0.71578   0.72424   0.72576   0.73843
 Alpha virt. eigenvalues --    0.73916   0.75184   0.75928   0.76326   0.77944
 Alpha virt. eigenvalues --    0.78167   0.79133   0.80099   0.80960   0.81167
 Alpha virt. eigenvalues --    0.81880   0.82784   0.83895   0.83968   0.84614
 Alpha virt. eigenvalues --    0.85911   0.86118   0.86406   0.86930   0.87554
 Alpha virt. eigenvalues --    0.88590   0.89188   0.89798   0.90051   0.90436
 Alpha virt. eigenvalues --    0.91832   0.92462   0.93290   0.93885   0.93987
 Alpha virt. eigenvalues --    0.94461   0.94915   0.95544   0.97720   0.97869
 Alpha virt. eigenvalues --    0.98529   0.99324   1.00371   1.01430   1.02193
 Alpha virt. eigenvalues --    1.03799   1.03839   1.05317   1.06260   1.07188
 Alpha virt. eigenvalues --    1.07897   1.09603   1.11225   1.12115   1.12249
 Alpha virt. eigenvalues --    1.14010   1.14371   1.15499   1.16516   1.16689
 Alpha virt. eigenvalues --    1.17685   1.18232   1.19555   1.21954   1.23297
 Alpha virt. eigenvalues --    1.25308   1.27992   1.28766   1.30261   1.32304
 Alpha virt. eigenvalues --    1.36910   1.39891   1.40004   1.42638   1.43045
 Alpha virt. eigenvalues --    1.45298   1.46364   1.47810   1.48083   1.49489
 Alpha virt. eigenvalues --    1.50140   1.51173   1.55074   1.58670   1.60169
 Alpha virt. eigenvalues --    1.62774   1.68152   1.68235   1.70477   1.71856
 Alpha virt. eigenvalues --    1.72764   1.73818   1.74247   1.75982   1.76900
 Alpha virt. eigenvalues --    1.77667   1.78226   1.78521   1.79194   1.79631
 Alpha virt. eigenvalues --    1.80375   1.80486   1.81459   1.82655   1.84503
 Alpha virt. eigenvalues --    1.85784   1.86771   1.88095   1.88877   1.89647
 Alpha virt. eigenvalues --    1.90336   1.91376   1.91990   1.92313   1.95437
 Alpha virt. eigenvalues --    1.96362   1.97539   1.98618   2.00376   2.00884
 Alpha virt. eigenvalues --    2.01657   2.03319   2.04203   2.04639   2.05161
 Alpha virt. eigenvalues --    2.06711   2.07589   2.09321   2.09512   2.13275
 Alpha virt. eigenvalues --    2.14151   2.14822   2.15710   2.16602   2.17689
 Alpha virt. eigenvalues --    2.18527   2.19451   2.20106   2.23243   2.23537
 Alpha virt. eigenvalues --    2.24582   2.26634   2.27302   2.28990   2.30306
 Alpha virt. eigenvalues --    2.30930   2.32427   2.34387   2.35257   2.37657
 Alpha virt. eigenvalues --    2.39239   2.40507   2.41549   2.45393   2.46453
 Alpha virt. eigenvalues --    2.54420   2.57320   2.58044   2.58596   2.64853
 Alpha virt. eigenvalues --    2.65142   2.68120   2.69705   2.70992   2.71841
 Alpha virt. eigenvalues --    2.72600   2.73774   2.75057   2.76082   2.78136
 Alpha virt. eigenvalues --    2.78902   2.80663   2.83241   2.88390   3.04953
 Alpha virt. eigenvalues --    3.40115   3.78082   3.79111   3.88019   3.93012
 Alpha virt. eigenvalues --    3.97737   4.00864   4.05090   4.09318   4.10047
 Alpha virt. eigenvalues --    4.12143   4.15365   4.20626   4.21819   4.22472
 Alpha virt. eigenvalues --    4.31709   4.33604   4.35072   4.41198   4.53115
 Alpha virt. eigenvalues --    4.69857   4.72515
          Condensed to atoms (all electrons):
               1          2          3          4          5          6
     1  O    8.235669   0.399586  -0.050392   0.004733  -0.005416   0.001607
     2  S    0.399586  13.523528   0.200011  -0.010247  -0.002010   0.000059
     3  N   -0.050392   0.200011   7.309906   0.211654  -0.036726   0.001826
     4  C    0.004733  -0.010247   0.211654   4.861212   0.343808  -0.094155
     5  C   -0.005416  -0.002010  -0.036726   0.343808   5.689344   0.142636
     6  S    0.001607   0.000059   0.001826  -0.094155   0.142636  13.852191
     7  C   -0.004530  -0.001965  -0.051994   0.349160  -0.183184   0.149694
     8  O    0.000008  -0.000156  -0.000101   0.002445  -0.044757   0.431396
     9  O   -0.000000   0.000009  -0.000041   0.000619  -0.045200   0.413212
    10  C    0.000115   0.002050  -0.045334   0.354828  -0.045404   0.004900
    11  C   -0.000001  -0.000288  -0.003639  -0.036336   0.003682  -0.000170
    12  C    0.000000   0.000035  -0.002037  -0.001964  -0.000002   0.000082
    13  C   -0.000000   0.000002  -0.000004  -0.000780  -0.000018  -0.000043
    14  C    0.000000  -0.000000  -0.000000   0.000003  -0.000000  -0.000024
    15  C   -0.000000   0.000000   0.000000   0.000007  -0.000000  -0.000001
    16  C    0.000000   0.000001   0.000013  -0.000030   0.000000   0.000008
    17  C   -0.000000   0.000126   0.000333   0.001168   0.000003   0.000128
    18  N   -0.042323   0.090811  -0.045502   0.000094   0.000017   0.000020
    19  C   -0.001100  -0.011488   0.001602   0.000002  -0.000019   0.000000
    20  C    0.001144  -0.011806  -0.002525   0.000290  -0.000023   0.000002
    21  O   -0.034091   0.439511  -0.052251   0.000920  -0.000051   0.000001
    22  H    0.000762  -0.009227   0.289161  -0.021077   0.002777  -0.000172
    23  H    0.000155   0.000109   0.001616  -0.027548   0.347695  -0.011237
    24  H    0.005940   0.005652  -0.006296  -0.020922   0.329311  -0.003524
    25  H    0.000121  -0.000010   0.001884  -0.025628   0.008597  -0.011895
    26  H    0.007202   0.003122  -0.005579  -0.020242   0.003725  -0.004285
    27  H    0.000001  -0.000163  -0.002434  -0.034419  -0.006797  -0.000315
    28  H    0.000001   0.000004   0.004138  -0.034358  -0.005129   0.007983
    29  H    0.000001  -0.000061   0.001234  -0.007881  -0.000049  -0.000009
    30  H    0.000000   0.000012   0.000161   0.004815  -0.000103   0.000019
    31  H   -0.000000   0.000000  -0.000000   0.000091  -0.000001   0.000017
    32  H   -0.000000   0.000000   0.000000   0.000000  -0.000000  -0.000000
    33  H   -0.000000  -0.000000   0.000000  -0.000000   0.000000  -0.000000
    34  H    0.000000  -0.000001  -0.000000   0.000001  -0.000000   0.000000
    35  H   -0.000002   0.000423   0.000460  -0.000133   0.000002   0.000001
    36  H    0.007857  -0.002568   0.000047   0.000004  -0.000011   0.000001
    37  H    0.000043   0.001717  -0.000066  -0.000000   0.000001  -0.000000
    38  H   -0.000597  -0.001352   0.000000  -0.000001   0.000000  -0.000000
    39  H   -0.000006  -0.003566   0.007917  -0.000053  -0.000037   0.000002
    40  H    0.000007  -0.002729  -0.000163  -0.000006   0.000000  -0.000000
    41  H   -0.000040   0.001901  -0.000048  -0.000000   0.000002   0.000000
    42  H   -0.000134  -0.004614   0.001022  -0.000084   0.000776  -0.000006
               7          8          9         10         11         12
     1  O   -0.004530   0.000008  -0.000000   0.000115  -0.000001   0.000000
     2  S   -0.001965  -0.000156   0.000009   0.002050  -0.000288   0.000035
     3  N   -0.051994  -0.000101  -0.000041  -0.045334  -0.003639  -0.002037
     4  C    0.349160   0.002445   0.000619   0.354828  -0.036336  -0.001964
     5  C   -0.183184  -0.044757  -0.045200  -0.045404   0.003682  -0.000002
     6  S    0.149694   0.431396   0.413212   0.004900  -0.000170   0.000082
     7  C    5.693817  -0.043929  -0.045310  -0.049520  -0.004039   0.000403
     8  O   -0.043929   8.251150  -0.044785  -0.000045   0.000000  -0.000000
     9  O   -0.045310  -0.044785   8.283689  -0.002378   0.000052  -0.000016
    10  C   -0.049520  -0.000045  -0.002378   5.132296   0.341560  -0.039638
    11  C   -0.004039   0.000000   0.000052   0.341560   5.176531   0.345700
    12  C    0.000403  -0.000000  -0.000016  -0.039638   0.345700   4.682717
    13  C   -0.003509  -0.000000   0.000008  -0.002919  -0.062160   0.535695
    14  C   -0.000651   0.000000  -0.000001   0.000039   0.005956  -0.022319
    15  C    0.000025   0.000000   0.000000   0.000014   0.000322  -0.034791
    16  C    0.000424  -0.000000  -0.000000  -0.000141   0.006680  -0.023230
    17  C    0.001031  -0.000000  -0.000000  -0.001724  -0.050778   0.545192
    18  N   -0.000091   0.000000  -0.000000  -0.000094   0.000003  -0.000000
    19  C    0.000003  -0.000000   0.000000   0.000001  -0.000000   0.000000
    20  C   -0.000004   0.000000   0.000000   0.000007  -0.000004   0.000000
    21  O    0.000070  -0.000000  -0.000000  -0.000053  -0.000007   0.000004
    22  H    0.000962   0.000001   0.000001  -0.008056   0.008407  -0.000496
    23  H    0.008871   0.000704  -0.000274  -0.004177   0.000205   0.000009
    24  H    0.003650   0.000485   0.001061   0.003034  -0.000084   0.000002
    25  H    0.339985   0.000628   0.000034  -0.004617  -0.000842   0.004787
    26  H    0.329471   0.000140   0.001105   0.003045   0.000018  -0.000061
    27  H    0.005161   0.000001   0.000049   0.363053  -0.030172   0.004238
    28  H   -0.005731   0.000019   0.005977   0.365125  -0.030032  -0.004942
    29  H   -0.000043   0.000000  -0.000000  -0.035020   0.364675  -0.036544
    30  H   -0.000038  -0.000000  -0.000001  -0.032911   0.363390  -0.028787
    31  H   -0.000021   0.000000   0.000008   0.000509  -0.008049  -0.045744
    32  H   -0.000005  -0.000000  -0.000000   0.000001  -0.000169   0.003626
    33  H   -0.000000   0.000000   0.000000   0.000000   0.000006   0.000611
    34  H   -0.000002  -0.000000  -0.000000   0.000001  -0.000165   0.003714
    35  H   -0.000020   0.000000   0.000000   0.000171  -0.009946  -0.043001
    36  H    0.000000  -0.000000   0.000000   0.000000  -0.000000   0.000000
    37  H   -0.000000   0.000000   0.000000  -0.000000   0.000000  -0.000000
    38  H   -0.000000  -0.000000  -0.000000   0.000000   0.000000  -0.000000
    39  H    0.000010   0.000000   0.000000   0.000051  -0.000015   0.000001
    40  H   -0.000000   0.000000  -0.000000   0.000001   0.000000   0.000000
    41  H    0.000000   0.000000   0.000000  -0.000001   0.000000  -0.000000
[...]
      1          8           0       -2.196279    0.450547   -1.427426
      2         16           0       -2.111218   -0.755049   -0.619754
      3          7           0       -0.940798   -0.626889    0.493451
      4          6           0       -0.043415    0.535404    0.687457
      5          6           0       -0.787393    1.892415    0.918627
      6         16           0        0.373198    2.710848   -0.235224
      7          6           0        0.761188    0.963833   -0.589545
      8          8           0       -0.285130    3.426662   -1.342355
      9          8           0        1.474652    3.381709    0.484722
     10          6           0        0.858466    0.236595    1.903134
     11          6           0        1.689916   -1.064289    1.912878
     12          6           0        2.669900   -1.250177    0.773427
     13          6           0        3.829795   -0.465745    0.685179
     14          6           0        4.728295   -0.635465   -0.368474
     15          6           0        4.485535   -1.599799   -1.350589
     16          6           0        3.340986   -2.393498   -1.267356
     17          6           0        2.443118   -2.218538   -0.212130
     18          7           0       -3.669839   -0.681585    0.415859
     19          6           0       -4.859161   -0.605021   -0.494794
     20          6           0       -3.736948   -1.824326    1.377178
     21          8           0       -2.173994   -2.099563   -1.164712
     22          1           0       -0.573248   -1.541672    0.758228
     23          1           0       -0.757187    2.280009    1.935392
     24          1           0       -1.793534    1.943452    0.505113
     25          1           0        1.821804    0.728193   -0.596518
     26          1           0        0.276743    0.674426   -1.520074
     27          1           0        0.220286    0.239691    2.791328
     28          1           0        1.529025    1.095638    1.998035
     29          1           0        1.032429   -1.938226    1.967996
     30          1           0        2.234544   -1.055175    2.863009
     31          1           0        4.031694    0.281372    1.447391
     32          1           0        5.620684   -0.019922   -0.419553
     33          1           0        5.185424   -1.733793   -2.168788
     34          1           0        3.146176   -3.150162   -2.019950
     35          1           0        1.555644   -2.842966   -0.150320
     36          1           0       -4.733824    0.252436   -1.150421
     37          1           0       -5.740499   -0.479768    0.130874
     38          1           0       -4.922704   -1.529681   -1.065044
     39          1           0       -2.870916   -1.779641    2.033112
     40          1           0       -3.756648   -2.754225    0.813727
     41          1           0       -4.649825   -1.708475    1.958773
     42          1           0       -3.608978    0.201854    0.950381
 ---------------------------------------------------------------------
 Rotational constants (GHZ):           0.3568029           0.1933649           0.1517655
 Leave Link  202 at Thu Sep 24 03:07:33 2020, MaxMem=   262144000 cpu:               0.0 elap:               0.0
 (Enter /prod/apps/gaussian/g16b1/l301.exe)
 Standard basis: Aug-CC-pVDZ (5D, 7F)
 Ernie: Thresh=  0.10000D-02 Tol=  0.10000D-05 Strict=F.
 Ernie:  58 primitive shells out of 728 were deleted.
 There are   722 symmetry adapted cartesian basis functions of A   symmetry.
 There are   680 symmetry adapted basis functions of A   symmetry.
   680 basis functions,  1210 primitive gaussians,   722 cartesian basis functions
    88 alpha electrons       88 beta electrons
       nuclear repulsion energy      2233.4208137514 Hartrees.
 IExCor=    0 DFT=F Ex=HF Corr=None ExCW=0 ScaHFX=  1.000000
 ScaDFX=  1.000000  1.000000  1.000000  1.000000 ScalE2=  1.000000  1.000000
 IRadAn=      5 IRanWt=     -1 IRanGd=            0 ICorTp=0 IEmpDi=  4
 NAtoms=   42 NActive=   42 NUniq=   42 SFac= 1.00D+00 NAtFMM=   60 NAOKFM=F Big=F
 Integral buffers will be    131072 words long.
 Raffenetti 1 integral format.
 Two-electron integral symmetry is turned on.
 Leave Link  301 at Thu Sep 24 03:07:33 2020, MaxMem=   262144000 cpu:               0.2 elap:               0.1
 (Enter /prod/apps/gaussian/g16b1/l302.exe)
 NPDir=0 NMtPBC=     1 NCelOv=     1 NCel=       1 NClECP=     1 NCelD=      1
         NCelK=      1 NCelE2=     1 NClLst=     1 CellRange=     0.0.
 One-electron integrals computed using PRISM.
 One-electron integral symmetry used in STVInt
 NBasis=   680 RedAO= T EigKep=  1.78D-06  NBF=   680
 NBsUse=   680 1.00D-06 EigRej= -1.00D+00 NBFU=   680
 Leave Link  302 at Thu Sep 24 03:07:34 2020, MaxMem=   262144000 cpu:               2.5 elap:               0.6
 (Enter /prod/apps/gaussian/g16b1/l303.exe)
 DipDrv:  MaxL=1.
 Leave Link  303 at Thu Sep 24 03:07:34 2020, MaxMem=   262144000 cpu:               0.5 elap:               0.2
 (Enter /prod/apps/gaussian/g16b1/l401.exe)
 ExpMin= 2.97D-02 ExpMax= 1.11D+05 ExpMxC= 1.07D+03 IAcc=3 IRadAn=         5 AccDes= 0.00D+00
 Harris functional with IExCor=  205 and IRadAn=       5 diagonalized for initial guess.
 HarFok:  IExCor=  205 AccDes= 0.00D+00 IRadAn=         5 IDoV= 1 UseB2=F ITyADJ=14
 ICtDFT=  3500011 ScaDFX=  1.000000  1.000000  1.000000  1.000000
 FoFCou: FMM=F IPFlag=           0 FMFlag=      100000 FMFlg1=           0
         NFxFlg=           0 DoJE=T BraDBF=F KetDBF=T FulRan=T
         wScrn=  0.000000 ICntrl=       500 IOpCl=  0 I1Cent=   200000004 NGrid=           0
         NMat0=    1 NMatS0=      1 NMatT0=    0 NMatD0=    1 NMtDS0=    0 NMtDT0=    0
 Petite list used in FoFCou.
 Harris En= -1708.17379761781    
 JPrj=0 DoOrth=F DoCkMO=F.
 Leave Link  401 at Thu Sep 24 03:07:40 2020, MaxMem=   262144000 cpu:              22.6 elap:               5.7
 (Enter /prod/apps/gaussian/g16b1/l502.exe)
 Integral symmetry usage will be decided dynamically.
 Closed shell SCF:
 Using DIIS extrapolation, IDIIS=  1040.
 NGot=   262144000 LenX=   261090322 LenY=   260568316
 Requested convergence on RMS density matrix=1.00D-08 within2000 cycles.
 Requested convergence on MAX density matrix=1.00D-06.
 Requested convergence on             energy=1.00D-06.
 No special actions if energy rises.

 Cycle   1  Pass 1  IDiag  1:
 FoFJK:  IHMeth= 1 ICntrl=       0 DoSepK=F KAlg= 0 I1Cent=           0 FoldK=F
 IRaf= 930000000 NMat=       1 IRICut=       1 DoRegI=T DoRafI=F ISym2E= 0 IDoP0=0 IntGTp=1.
 FoFCou: FMM=F IPFlag=           0 FMFlag=      100000 FMFlg1=           0
         NFxFlg=           0 DoJE=F BraDBF=F KetDBF=F FulRan=T
         wScrn=  0.000000 ICntrl=         0 IOpCl=  0 I1Cent=           0 NGrid=           0
         NMat0=    1 NMatS0=      1 NMatT0=    0 NMatD0=    1 NMtDS0=    0 NMtDT0=    0
 Symmetry not used in FoFCou.
 E= -1706.57900264270    
 DIIS: error= 1.92D-02 at cycle   1 NSaved=   1.
 NSaved= 1 IEnMin= 1 EnMin= -1706.57900264270     IErMin= 1 ErrMin= 1.92D-02
 ErrMax= 1.92D-02  0.00D+00 EMaxC= 1.00D-01 BMatC= 1.45D+00 BMatP= 1.45D+00
 IDIUse=3 WtCom= 8.08D-01 WtEn= 1.92D-01
 Coeff-Com:  0.100D+01
 Coeff-En:   0.100D+01
 Coeff:      0.100D+01
 Gap=     0.769 Goal=   None    Shift=    0.000
 GapD=    0.769 DampG=2.000 DampE=0.500 DampFc=1.0000 IDamp=-1.
 RMSDP=4.03D-02 MaxDP=3.98D+00              OVMax= 1.52D-01

 Cycle   2  Pass 1  IDiag  1:
 E= -1707.26861481181     Delta-E=       -0.689612169112 Rises=F Damp=F
 DIIS: error= 9.32D-03 at cycle   2 NSaved=   2.
 NSaved= 2 IEnMin= 2 EnMin= -1707.26861481181     IErMin= 2 ErrMin= 9.32D-03
 ErrMax= 9.32D-03  0.00D+00 EMaxC= 1.00D-01 BMatC= 3.95D-01 BMatP= 1.45D+00
 IDIUse=3 WtCom= 9.07D-01 WtEn= 9.32D-02
 Coeff-Com:  0.311D+00 0.689D+00
 Coeff-En:   0.631D-02 0.994D+00
 Coeff:      0.283D+00 0.717D+00
 Gap=     0.435 Goal=   None    Shift=    0.000
 RMSDP=6.86D-03 MaxDP=1.02D+00 DE=-6.90D-01 OVMax= 7.02D-02

 Cycle   3  Pass 1  IDiag  1:
 E= -1707.55326548757     Delta-E=       -0.284650675754 Rises=F Damp=F
 DIIS: error= 2.98D-03 at cycle   3 NSaved=   3.
 NSaved= 3 IEnMin= 3 EnMin= -1707.55326548757     IErMin= 3 ErrMin= 2.98D-03
 ErrMax= 2.98D-03  0.00D+00 EMaxC= 1.00D-01 BMatC= 3.73D-02 BMatP= 3.95D-01
 IDIUse=3 WtCom= 9.70D-01 WtEn= 2.98D-02
 Coeff-Com: -0.139D-02 0.216D+00 0.785D+00
 Coeff-En:   0.000D+00 0.000D+00 0.100D+01
 Coeff:     -0.135D-02 0.210D+00 0.791D+00
 Gap=     0.341 Goal=   None    Shift=    0.000
 RMSDP=1.52D-03 MaxDP=3.06D-01 DE=-2.85D-01 OVMax= 2.26D-02

 Cycle   4  Pass 1  IDiag  1:
 E= -1707.58030175447     Delta-E=       -0.027036266904 Rises=F Damp=F
 DIIS: error= 5.53D-04 at cycle   4 NSaved=   4.
 NSaved= 4 IEnMin= 4 EnMin= -1707.58030175447     IErMin= 4 ErrMin= 5.53D-04
 ErrMax= 5.53D-04  0.00D+00 EMaxC= 1.00D-01 BMatC= 1.51D-03 BMatP= 3.73D-02
 IDIUse=3 WtCom= 9.94D-01 WtEn= 5.53D-03
 Coeff-Com: -0.161D-01 0.204D-01 0.207D+00 0.789D+00
 Coeff-En:   0.000D+00 0.000D+00 0.000D+00 0.100D+01
 Coeff:     -0.161D-01 0.203D-01 0.206D+00 0.790D+00
 Gap=     0.334 Goal=   None    Shift=    0.000
 RMSDP=4.27D-04 MaxDP=3.36D-02 DE=-2.70D-02 OVMax= 7.73D-03

 Cycle   5  Pass 1  IDiag  1:
 E= -1707.58191294830     Delta-E=       -0.001611193831 Rises=F Damp=F
 DIIS: error= 1.76D-04 at cycle   5 NSaved=   5.
 NSaved= 5 IEnMin= 5 EnMin= -1707.58191294830     IErMin= 5 ErrMin= 1.76D-04
 ErrMax= 1.76D-04  0.00D+00 EMaxC= 1.00D-01 BMatC= 9.37D-05 BMatP= 1.51D-03
 IDIUse=3 WtCom= 9.98D-01 WtEn= 1.76D-03
 Coeff-Com: -0.322D-03-0.115D-01-0.503D-01 0.508D-01 0.101D+01
 Coeff-En:   0.000D+00 0.000D+00 0.000D+00 0.000D+00 0.100D+01
 Coeff:     -0.321D-03-0.115D-01-0.502D-01 0.507D-01 0.101D+01
 Gap=     0.335 Goal=   None    Shift=    0.000
 RMSDP=1.32D-04 MaxDP=1.22D-02 DE=-1.61D-03 OVMax= 2.73D-03

 Cycle   6  Pass 1  IDiag  1:
 E= -1707.58206061262     Delta-E=       -0.000147664317 Rises=F Damp=F
 DIIS: error= 5.59D-05 at cycle   6 NSaved=   6.
 NSaved= 6 IEnMin= 6 EnMin= -1707.58206061262     IErMin= 6 ErrMin= 5.59D-05
 ErrMax= 5.59D-05  0.00D+00 EMaxC= 1.00D-01 BMatC= 1.25D-05 BMatP= 9.37D-05
 IDIUse=1 WtCom= 1.00D+00 WtEn= 0.00D+00
 Coeff-Com:  0.157D-02-0.505D-02-0.359D-01-0.692D-01 0.219D+00 0.890D+00
 Coeff:      0.157D-02-0.505D-02-0.359D-01-0.692D-01 0.219D+00 0.890D+00
 Gap=     0.335 Goal=   None    Shift=    0.000
 RMSDP=3.92D-05 MaxDP=4.00D-03 DE=-1.48D-04 OVMax= 9.45D-04

 Cycle   7  Pass 1  IDiag  1:
 E= -1707.58208122556     Delta-E=       -0.000020612939 Rises=F Damp=F
 DIIS: error= 1.65D-05 at cycle   7 NSaved=   7.
 NSaved= 7 IEnMin= 7 EnMin= -1707.58208122556     IErMin= 7 ErrMin= 1.65D-05
 ErrMax= 1.65D-05  0.00D+00 EMaxC= 1.00D-01 BMatC= 1.13D-06 BMatP= 1.25D-05
 IDIUse=1 WtCom= 1.00D+00 WtEn= 0.00D+00
 Coeff-Com:  0.295D-03 0.334D-03-0.740D-03-0.142D-01-0.662D-01 0.111D+00
 Coeff-Com:  0.969D+00
 Coeff:      0.295D-03 0.334D-03-0.740D-03-0.142D-01-0.662D-01 0.111D+00
 Coeff:      0.969D+00
 Gap=     0.335 Goal=   None    Shift=    0.000
 RMSDP=1.71D-05 MaxDP=2.10D-03 DE=-2.06D-05 OVMax= 4.81D-04

 Cycle   8  Pass 1  IDiag  1:
 E= -1707.58208374688     Delta-E=       -0.000002521322 Rises=F Damp=F
 DIIS: error= 8.03D-06 at cycle   8 NSaved=   8.
 NSaved= 8 IEnMin= 8 EnMin= -1707.58208374688     IErMin= 8 ErrMin= 8.03D-06
 ErrMax= 8.03D-06  0.00D+00 EMaxC= 1.00D-01 BMatC= 1.88D-07 BMatP= 1.13D-06
 IDIUse=1 WtCom= 1.00D+00 WtEn= 0.00D+00
 Coeff-Com: -0.165D-03 0.746D-03 0.482D-02 0.775D-02-0.368D-01-0.112D+00
 Coeff-Com:  0.102D+00 0.103D+01
 Coeff:     -0.165D-03 0.746D-03 0.482D-02 0.775D-02-0.368D-01-0.112D+00
 Coeff:      0.102D+00 0.103D+01
 Gap=     0.335 Goal=   None    Shift=    0.000
 RMSDP=7.50D-06 MaxDP=6.91D-04 DE=-2.52D-06 OVMax= 2.09D-04

 Cycle   9  Pass 1  IDiag  1:
 E= -1707.58208417902     Delta-E=       -0.000000432145 Rises=F Damp=F
 DIIS: error= 2.64D-06 at cycle   9 NSaved=   9.
 NSaved= 9 IEnMin= 9 EnMin= -1707.58208417902     IErMin= 9 ErrMin= 2.64D-06
 ErrMax= 2.64D-06  0.00D+00 EMaxC= 1.00D-01 BMatC= 2.63D-08 BMatP= 1.88D-07
 IDIUse=1 WtCom= 1.00D+00 WtEn= 0.00D+00
 Coeff-Com: -0.790D-04 0.125D-03 0.118D-02 0.374D-02 0.181D-02-0.400D-01
 Coeff-Com: -0.124D+00 0.228D+00 0.930D+00
 Coeff:     -0.790D-04 0.125D-03 0.118D-02 0.374D-02 0.181D-02-0.400D-01
 Coeff:     -0.124D+00 0.228D+00 0.930D+00
 Gap=     0.335 Goal=   None    Shift=    0.000
 RMSDP=2.81D-06 MaxDP=3.81D-04 DE=-4.32D-07 OVMax= 7.92D-05

 Cycle  10  Pass 1  IDiag  1:
 E= -1707.58208423482     Delta-E=       -0.000000055796 Rises=F Damp=F
 DIIS: error= 7.43D-07 at cycle  10 NSaved=  10.
 NSaved=10 IEnMin=10 EnMin= -1707.58208423482     IErMin=10 ErrMin= 7.43D-07
 ErrMax= 7.43D-07  0.00D+00 EMaxC= 1.00D-01 BMatC= 2.10D-09 BMatP= 2.63D-08
 IDIUse=1 WtCom= 1.00D+00 WtEn= 0.00D+00
 Coeff-Com:  0.771D-05-0.492D-04-0.327D-03-0.474D-03 0.328D-02 0.793D-02
 Coeff-Com: -0.164D-01-0.791D-01 0.542D-01 0.103D+01
 Coeff:      0.771D-05-0.492D-04-0.327D-03-0.474D-03 0.328D-02 0.793D-02
 Coeff:     -0.164D-01-0.791D-01 0.542D-01 0.103D+01
 Gap=     0.335 Goal=   None    Shift=    0.000
 RMSDP=9.97D-07 MaxDP=1.36D-04 DE=-5.58D-08 OVMax= 2.68D-05

 Cycle  11  Pass 1  IDiag  1:
 E= -1707.58208424051     Delta-E=       -0.000000005691 Rises=F Damp=F
 DIIS: error= 4.15D-07 at cycle  11 NSaved=  11.
 NSaved=11 IEnMin=11 EnMin= -1707.58208424051     IErMin=11 ErrMin= 4.15D-07
 ErrMax= 4.15D-07  0.00D+00 EMaxC= 1.00D-01 BMatC= 3.64D-10 BMatP= 2.10D-09
 IDIUse=1 WtCom= 1.00D+00 WtEn= 0.00D+00
 Coeff-Com:  0.106D-04-0.203D-04-0.186D-03-0.575D-03 0.204D-03 0.604D-02
 Coeff-Com:  0.139D-01-0.389D-01-0.115D+00 0.143D+00 0.992D+00
 Coeff:      0.106D-04-0.203D-04-0.186D-03-0.575D-03 0.204D-03 0.604D-02
 Coeff:      0.139D-01-0.389D-01-0.115D+00 0.143D+00 0.992D+00
 Gap=     0.335 Goal=   None    Shift=    0.000
 RMSDP=3.53D-07 MaxDP=3.17D-05 DE=-5.69D-09 OVMax= 1.61D-05

 Cycle  12  Pass 1  IDiag  1:
 E= -1707.58208424171     Delta-E=       -0.000000001196 Rises=F Damp=F
 DIIS: error= 1.99D-07 at cycle  12 NSaved=  12.
 NSaved=12 IEnMin=12 EnMin= -1707.58208424171     IErMin=12 ErrMin= 1.99D-07
 ErrMax= 1.99D-07  0.00D+00 EMaxC= 1.00D-01 BMatC= 6.68D-11 BMatP= 3.64D-10
 IDIUse=1 WtCom= 1.00D+00 WtEn= 0.00D+00
 Coeff-Com: -0.383D-06 0.607D-05 0.380D-04 0.347D-04-0.442D-03-0.104D-02
 Coeff-Com:  0.307D-02 0.113D-01-0.166D-01-0.155D+00 0.789D-01 0.108D+01
 Coeff:     -0.383D-06 0.607D-05 0.380D-04 0.347D-04-0.442D-03-0.104D-02
 Coeff:      0.307D-02 0.113D-01-0.166D-01-0.155D+00 0.789D-01 0.108D+01
 Gap=     0.335 Goal=   None    Shift=    0.000
 RMSDP=1.77D-07 MaxDP=1.57D-05 DE=-1.20D-09 OVMax= 1.03D-05

 Cycle  13  Pass 1  IDiag  1:
 E= -1707.58208424202     Delta-E=       -0.000000000317 Rises=F Damp=F
 DIIS: error= 1.24D-07 at cycle  13 NSaved=  13.
 NSaved=13 IEnMin=13 EnMin= -1707.58208424202     IErMin=13 ErrMin= 1.24D-07
 ErrMax= 1.24D-07  0.00D+00 EMaxC= 1.00D-01 BMatC= 1.44D-11 BMatP= 6.68D-11
 IDIUse=1 WtCom= 1.00D+00 WtEn= 0.00D+00
 Coeff-Com: -0.230D-05 0.535D-05 0.467D-04 0.131D-03-0.114D-03-0.151D-02
 Coeff-Com: -0.247D-02 0.107D-01 0.205D-01-0.598D-01-0.181D+00 0.185D+00
 Coeff-Com:  0.103D+01
 Coeff:     -0.230D-05 0.535D-05 0.467D-04 0.131D-03-0.114D-03-0.151D-02
 Coeff:     -0.247D-02 0.107D-01 0.205D-01-0.598D-01-0.181D+00 0.185D+00
 Coeff:      0.103D+01
 Gap=     0.335 Goal=   None    Shift=    0.000
 RMSDP=8.58D-08 MaxDP=5.79D-06 DE=-3.17D-10 OVMax= 5.73D-06

 Cycle  14  Pass 1  IDiag  1:
 E= -1707.58208424213     Delta-E=       -0.000000000103 Rises=F Damp=F
 DIIS: error= 4.46D-08 at cycle  14 NSaved=  14.
 NSaved=14 IEnMin=14 EnMin= -1707.58208424213     IErMin=14 ErrMin= 4.46D-08
 ErrMax= 4.46D-08  0.00D+00 EMaxC= 1.00D-01 BMatC= 2.49D-12 BMatP= 1.44D-11
 IDIUse=1 WtCom= 1.00D+00 WtEn= 0.00D+00
 Coeff-Com:  0.229D-07-0.118D-05-0.587D-05-0.290D-05 0.755D-04 0.165D-03
 Coeff-Com: -0.572D-03-0.187D-02 0.333D-02 0.278D-01-0.153D-01-0.202D+00
 Coeff-Com:  0.104D-01 0.118D+01
 Coeff:      0.229D-07-0.118D-05-0.587D-05-0.290D-05 0.755D-04 0.165D-03
 Coeff:     -0.572D-03-0.187D-02 0.333D-02 0.278D-01-0.153D-01-0.202D+00
 Coeff:      0.104D-01 0.118D+01
 Gap=     0.335 Goal=   None    Shift=    0.000
 RMSDP=4.12D-08 MaxDP=2.36D-06 DE=-1.03D-10 OVMax= 3.01D-06

 Cycle  15  Pass 1  IDiag  1:
 E= -1707.58208424210     Delta-E=        0.000000000030 Rises=F Damp=F
 DIIS: error= 1.75D-08 at cycle  15 NSaved=  15.
 NSaved=15 IEnMin=14 EnMin= -1707.58208424213     IErMin=15 ErrMin= 1.75D-08
 ErrMax= 1.75D-08  0.00D+00 EMaxC= 1.00D-01 BMatC= 4.82D-13 BMatP= 2.49D-12
 IDIUse=1 WtCom= 1.00D+00 WtEn= 0.00D+00
 Coeff-Com:  0.461D-06-0.123D-05-0.997D-05-0.266D-04 0.295D-04 0.317D-03
 Coeff-Com:  0.472D-03-0.241D-02-0.387D-02 0.143D-01 0.358D-01-0.539D-01
 Coeff-Com: -0.208D+00 0.113D+00 0.111D+01
 Coeff:      0.461D-06-0.123D-05-0.997D-05-0.266D-04 0.295D-04 0.317D-03
 Coeff:      0.472D-03-0.241D-02-0.387D-02 0.143D-01 0.358D-01-0.539D-01
 Coeff:     -0.208D+00 0.113D+00 0.111D+01
 Gap=     0.335 Goal=   None    Shift=    0.000
 RMSDP=1.79D-08 MaxDP=1.42D-06 DE= 3.00D-11 OVMax= 1.22D-06

 Cycle  16  Pass 1  IDiag  1:
 E= -1707.58208424204     Delta-E=        0.000000000057 Rises=F Damp=F
 DIIS: error= 5.71D-09 at cycle  16 NSaved=  16.
 NSaved=16 IEnMin=14 EnMin= -1707.58208424213     IErMin=16 ErrMin= 5.71D-09
 ErrMax= 5.71D-09  0.00D+00 EMaxC= 1.00D-01 BMatC= 7.20D-14 BMatP= 4.82D-13
 IDIUse=1 WtCom= 1.00D+00 WtEn= 0.00D+00
 Coeff-Com:  0.545D-07 0.467D-07-0.366D-06-0.297D-05-0.976D-05 0.137D-04
 Coeff-Com:  0.184D-03-0.370D-04-0.114D-02-0.299D-02 0.852D-02 0.285D-01
 Coeff-Com: -0.369D-01-0.195D+00 0.170D+00 0.103D+01
 Coeff:      0.545D-07 0.467D-07-0.366D-06-0.297D-05-0.976D-05 0.137D-04
 Coeff:      0.184D-03-0.370D-04-0.114D-02-0.299D-02 0.852D-02 0.285D-01
 Coeff:     -0.369D-01-0.195D+00 0.170D+00 0.103D+01
 Gap=     0.335 Goal=   None    Shift=    0.000
 RMSDP=7.07D-09 MaxDP=5.18D-07 DE= 5.73D-11 OVMax= 4.23D-07

 SCF Done:  E(RHF) =  -1707.58208424     A.U. after   16 cycles
            NFock= 16  Conv=0.71D-08     -V/T= 2.0011
 KE= 1.705636296783D+03 PE=-8.467953272783D+03 EE= 2.821314078007D+03
 Leave Link  502 at Thu Sep 24 03:39:12 2020, MaxMem=   262144000 cpu:            7568.2 elap:            1892.3
 (Enter /prod/apps/gaussian/g16b1/l801.exe)
 ExpMin= 2.97D-02 ExpMax= 1.11D+05 ExpMxC= 1.07D+03 IAcc=3 IRadAn=         5 AccDes= 0.00D+00
 HarFok:  IExCor=  205 AccDes= 0.00D+00 IRadAn=         5 IDoV=-2 UseB2=F ITyADJ=14
 ICtDFT= 12500011 ScaDFX=  1.000000  1.000000  1.000000  1.000000
 GSVD:  LWork=       -1073 too small for GESVD, short by        4640 words or        4640 for optimal perf.
 Largest valence mixing into a core orbital is  3.56D-04
 Largest core mixing into a valence orbital is  9.51D-05
 Range of M.O.s used for correlation:    30   680
 NBasis=   680 NAE=    88 NBE=    88 NFC=    29 NFV=     0
 NROrb=    651 NOA=    59 NOB=    59 NVA=   592 NVB=   592

 **** Warning!!: The largest alpha MO coefficient is  0.10162826D+03

 Leave Link  801 at Thu Sep 24 03:39:12 2020, MaxMem=   262144000 cpu:               1.2 elap:               0.3
 (Enter /prod/apps/gaussian/g16b1/l906.exe)
 FulOut=F Deriv=F AODrv=F NAtomX=    42
   MMem=           2  MDisk=          59 MDiskD=          37
  W3Min=    25218016 MinDsk=    25158651 NBas6D=         722
 NBas2D=      261954    NTT=      261003    LW2=     2000000
    MDV=   258887696 MDiskM=        4941 NBas2p=      235410
 Disk-based method using OVN memory for 30 occupieds at a time.
 Estimated scratch disk usage= 12800615616 words.
 IMap=   1   2   3   4   5   6   7   8   9  10  11  12  13  14  15  16  17  18  19  20
 IMap=  21  22  23  24  25  26  27  28  29  30  31  32  33  34  35  36  37  38  39  40
 IMap=  41  42  43  44  45  46  47  48  49  50  51  52  53  54  55  56  57  58  59
 Actual    scratch disk usage= 12575444672 words.
 JobTyp=1 Pass  1:  I=   1 to  30 NPSUse=  4 ParTrn=T ParDer=T DoDerP=F.
Erroneous write. Write -1 instead of 327231512.
fd = 4
orig len = 2060308320 left = 327231512
g_write
