 Entering Gaussian System, Link 0=g16
 Initial command:
 /prod/apps/gaussian/g16b1/l1.exe "/tmp/ubafar01/1460516/Gau-29626.inp" -scrdir="/tmp/ubafar01/1460516/"
 Entering Link 1 = /prod/apps/gaussian/g16b1/l1.exe PID=     29628.
  
 Copyright (c) 1988-2017, Gaussian, Inc.  All Rights Reserved.
  
 This is part of the Gaussian(R) 16 program.  It is based on
 the Gaussian(R) 09 system (copyright 2009, Gaussian, Inc.),
 the Gaussian(R) 03 system (copyright 2003, Gaussian, Inc.),
 the Gaussian(R) 98 system (copyright 1998, Gaussian, Inc.),
 the Gaussian(R) 94 system (copyright 1995, Gaussian, Inc.),
 the Gaussian 92(TM) system (copyright 1992, Gaussian, Inc.),
 the Gaussian 90(TM) system (copyright 1990, Gaussian, Inc.),
 the Gaussian 88(TM) system (copyright 1988, Gaussian, Inc.),
 the Gaussian 86(TM) system (copyright 1986, Carnegie Mellon
 University), and the Gaussian 82(TM) system (copyright 1983,
 Carnegie Mellon University). Gaussian is a federally registered
 trademark of Gaussian, Inc.
  
 This software contains proprietary and confidential information,
 including trade secrets, belonging to Gaussian, Inc.
  
 This software is provided under written license and may be
 used, copied, transmitted, or stored only in accord with that
 written license.
  
 The following legend is applicable only to US Government
 contracts under FAR:
  
                    RESTRICTED RIGHTS LEGEND
  
 Use, reproduction and disclosure by the US Government is
 subject to restrictions as set forth in subparagraphs (a)
 and (c) of the Commercial Computer Software - Restricted
 Rights clause in FAR 52.227-19.
  
 Gaussian, Inc.
 340 Quinnipiac St., Bldg. 40, Wallingford CT 06492
  
  
 ---------------------------------------------------------------
 Warning -- This program may not be used in any manner that
 competes with the business of Gaussian, Inc. or will provide
 assistance to any competitor of Gaussian, Inc.  The licensee
 of this program is prohibited from giving any competitor of
 Gaussian, Inc. access to this program.  By using this program,
 the user acknowledges that Gaussian, Inc. is engaged in the
 business of creating and licensing software in the field of
 computational chemistry and represents and warrants to the
 licensee that it is not a competitor of Gaussian, Inc. and that
 it will not use this program in any manner prohibited above.
 ---------------------------------------------------------------
  

 Cite this work as:
 Gaussian 16, Revision B.01,
 M. J. Frisch, G. W. Trucks, H. B. Schlegel, G. E. Scuseria, 
 M. A. Robb, J. R. Cheeseman, G. Scalmani, V. Barone, 
 G. A. Petersson, H. Nakatsuji, X. Li, M. Caricato, A. V. Marenich, 
 J. Bloino, B. G. Janesko, R. Gomperts, B. Mennucci, H. P. Hratchian, 
 J. V. Ortiz, A. F. Izmaylov, J. L. Sonnenberg, D. Williams-Young, 
 F. Ding, F. Lipparini, F. Egidi, J. Goings, B. Peng, A. Petrone, 
 T. Henderson, D. Ranasinghe, V. G. Zakrzewski, J. Gao, N. Rega, 
 G. Zheng, W. Liang, M. Hada, M. Ehara, K. Toyota, R. Fukuda, 
 J. Hasegawa, M. Ishida, T. Nakajima, Y. Honda, O. Kitao, H. Nakai, 
 T. Vreven, K. Throssell, J. A. Montgomery, Jr., J. E. Peralta, 
 F. Ogliaro, M. J. Bearpark, J. J. Heyd, E. N. Brothers, K. N. Kudin, 
 V. N. Staroverov, T. A. Keith, R. Kobayashi, J. Normand, 
 K. Raghavachari, A. P. Rendell, J. C. Burant, S. S. Iyengar, 
 J. Tomasi, M. Cossi, J. M. Millam, M. Klene, C. Adamo, R. Cammi, 
 J. W. Ochterski, R. L. Martin, K. Morokuma, O. Farkas, 
 J. B. Foresman, and D. J. Fox, Gaussian, Inc., Wallingford CT, 2016.
 
 ******************************************
 Gaussian 16:  ES64L-G16RevB.01 20-Dec-2017
                22-Sep-2020 
 ******************************************
 %nproc=4
 Will use up to    4 processors via shared memory.
 %Chk=SM41_m0.n.10.pdb.xyz.mst.n.w.chk
 %mem=16GB
 ----------------------------------------------------------------------
 #p b3lyp/6-31G(d) opt freq NoSymm scf=(MaxCycle=2000,NoVarAcc,NoIncFoc
 k) scrf=(iefpcm,read,solvent=water)
 ----------------------------------------------------------------------
 1/18=20,19=15,26=3,38=1,40=2/1,3;
 2/9=110,12=2,15=1,17=6,18=5,40=1/2;
 3/5=1,6=6,7=1,11=2,25=1,30=1,70=2203,71=1,72=1,74=-5/1,2,3;
 4//1;
 5/5=100002,7=2000,38=1,53=1/2;
 6/7=2,8=2,9=2,10=2,28=1/1;
 7/30=1/1,2,3,16;
 1/18=20,19=15,26=3/3(2);
 2/9=110,15=1/2;
 99//99;
 2/9=110,15=1/2;
 3/5=1,6=6,7=1,11=2,25=1,30=1,70=2205,71=1,72=1,74=-5/1,2,3;
 4/5=5,16=3,69=1/1;
 5/5=100002,7=2000,38=1,53=1/2;
 7/30=1/1,2,3,16;
 1/18=20,19=15,26=3/3(-5);
 2/9=110,15=1/2;
 6/7=2,8=2,9=2,10=2,19=2,28=1/1;
 99/9=1/99;
 Leave Link    1 at Tue Sep 22 18:09:10 2020, MaxMem=  2147483648 cpu:               0.1 elap:               0.0
 (Enter /prod/apps/gaussian/g16b1/l101.exe)
 --------------------
 SM41_m0.n.10.pdb.xyz
 --------------------
 Symbolic Z-matrix:
 Charge =  0 Multiplicity = 1
 O                    -3.397    -0.543     1.489 
 S                    -3.611     0.121     0.197 
 N                    -2.188     0.866    -0.349 
 C                    -0.926     0.298    -0.214 
 N                    -0.759    -1.011    -0.149 
 O                     0.631    -1.188    -0.071 
 C                     1.245     0.019    -0.099 
 C                     2.702     0.035    -0.027 
 C                     3.393     1.257    -0.076 
 C                     4.783     1.278    -0.007 
 C                     5.499     0.083     0.109 
 C                     4.817    -1.135     0.157 
 C                     3.426    -1.163     0.09 
 C                     0.305     1.006    -0.189 
 C                    -3.888    -1.13     -1.047 
 O                    -4.622     1.18      0.099 
 H                    -2.237     1.881    -0.255 
 H                     2.84      2.185    -0.168 
 H                     5.308     2.227    -0.046 
 H                     6.582     0.103     0.163 
 H                     5.368    -2.064     0.248 
 H                     2.894    -2.106     0.127 
 H                     0.451     2.073    -0.228 
 H                    -3.009    -1.772    -1.076 
 H                    -4.051    -0.637    -2.005 
 H                    -4.771    -1.693    -0.743 
 
 ITRead=  0  0  0  0  0  0  0  0  0  0  0  0  0  0  0  0  0  0  0  0
 ITRead=  0  0  0  0  0  0
 MicOpt= -1 -1 -1 -1 -1 -1 -1 -1 -1 -1 -1 -1 -1 -1 -1 -1 -1 -1 -1 -1
 MicOpt= -1 -1 -1 -1 -1 -1
 NAtoms=     26 NQM=       26 NQMF=       0 NMMI=      0 NMMIF=      0
                NMic=       0 NMicF=      0.
                    Isotopes and Nuclear Properties:
 (Nuclear quadrupole moments (NQMom) in fm**2, nuclear magnetic moments (NMagM)
  in nuclear magnetons)

  Atom         1           2           3           4           5           6           7           8           9          10
 IAtWgt=          16          32          14          12          14          16          12          12          12          12
 AtmWgt=  15.9949146  31.9720718  14.0030740  12.0000000  14.0030740  15.9949146  12.0000000  12.0000000  12.0000000  12.0000000
 NucSpn=           0           0           2           0           2           0           0           0           0           0
 AtZEff=  -0.0000000  -0.0000000  -0.0000000  -0.0000000  -0.0000000  -0.0000000  -0.0000000  -0.0000000  -0.0000000  -0.0000000
 NQMom=    0.0000000   0.0000000   2.0440000   0.0000000   2.0440000   0.0000000   0.0000000   0.0000000   0.0000000   0.0000000
 NMagM=    0.0000000   0.0000000   0.4037610   0.0000000   0.4037610   0.0000000   0.0000000   0.0000000   0.0000000   0.0000000
 AtZNuc=   8.0000000  16.0000000   7.0000000   6.0000000   7.0000000   8.0000000   6.0000000   6.0000000   6.0000000   6.0000000

  Atom        11          12          13          14          15          16          17          18          19          20
 IAtWgt=          12          12          12          12          12          16           1           1           1           1
 AtmWgt=  12.0000000  12.0000000  12.0000000  12.0000000  12.0000000  15.9949146   1.0078250   1.0078250   1.0078250   1.0078250
 NucSpn=           0           0           0           0           0           0           1           1           1           1
 AtZEff=  -0.0000000  -0.0000000  -0.0000000  -0.0000000  -0.0000000  -0.0000000  -0.0000000  -0.0000000  -0.0000000  -0.0000000
 NQMom=    0.0000000   0.0000000   0.0000000   0.0000000   0.0000000   0.0000000   0.0000000   0.0000000   0.0000000   0.0000000
 NMagM=    0.0000000   0.0000000   0.0000000   0.0000000   0.0000000   0.0000000   2.7928460   2.7928460   2.7928460   2.7928460
 AtZNuc=   6.0000000   6.0000000   6.0000000   6.0000000   6.0000000   8.0000000   1.0000000   1.0000000   1.0000000   1.0000000

  Atom        21          22          23          24          25          26
 IAtWgt=           1           1           1           1           1           1
 AtmWgt=   1.0078250   1.0078250   1.0078250   1.0078250   1.0078250   1.0078250
 NucSpn=           1           1           1           1           1           1
 AtZEff=  -0.0000000  -0.0000000  -0.0000000  -0.0000000  -0.0000000  -0.0000000
 NQMom=    0.0000000   0.0000000   0.0000000   0.0000000   0.0000000   0.0000000
 NMagM=    2.7928460   2.7928460   2.7928460   2.7928460   2.7928460   2.7928460
 AtZNuc=   1.0000000   1.0000000   1.0000000   1.0000000   1.0000000   1.0000000
 Leave Link  101 at Tue Sep 22 18:09:10 2020, MaxMem=  2147483648 cpu:               1.4 elap:               0.4
 (Enter /prod/apps/gaussian/g16b1/l103.exe)

 GradGradGradGradGradGradGradGradGradGradGradGradGradGradGradGradGradGrad
 Berny optimization.
 Initialization pass.
                           ----------------------------
                           !    Initial Parameters    !
                           ! (Angstroms and Degrees)  !
 --------------------------                            --------------------------
 ! Name  Definition              Value          Derivative Info.                !
 --------------------------------------------------------------------------------
 ! R1    R(1,2)                  1.4683         estimate D2E/DX2                !
 ! R2    R(2,3)                  1.6965         estimate D2E/DX2                !
 ! R3    R(2,15)                 1.7859         estimate D2E/DX2                !
 ! R4    R(2,16)                 1.4674         estimate D2E/DX2                !
 ! R5    R(3,4)                  1.3905         estimate D2E/DX2                !
 ! R6    R(3,17)                 1.0205         estimate D2E/DX2                !
 ! R7    R(4,5)                  1.3212         estimate D2E/DX2                !
 ! R8    R(4,14)                 1.4203         estimate D2E/DX2                !
 ! R9    R(5,6)                  1.4034         estimate D2E/DX2                !
 ! R10   R(6,7)                  1.3545         estimate D2E/DX2                !
 ! R11   R(7,8)                  1.4589         estimate D2E/DX2                !
 ! R12   R(7,14)                 1.366          estimate D2E/DX2                !
 ! R13   R(8,9)                  1.4047         estimate D2E/DX2                !
 ! R14   R(8,13)                 1.4047         estimate D2E/DX2                !
 ! R15   R(9,10)                 1.3919         estimate D2E/DX2                !
 ! R16   R(9,18)                 1.0842         estimate D2E/DX2                !
 ! R17   R(10,11)                1.3979         estimate D2E/DX2                !
 ! R18   R(10,19)                1.0852         estimate D2E/DX2                !
 ! R19   R(11,12)                1.3968         estimate D2E/DX2                !
 ! R20   R(11,20)                1.0845         estimate D2E/DX2                !
 ! R21   R(12,13)                1.3929         estimate D2E/DX2                !
 ! R22   R(12,21)                1.0839         estimate D2E/DX2                !
 ! R23   R(13,22)                1.0833         estimate D2E/DX2                !
 ! R24   R(14,23)                1.0776         estimate D2E/DX2                !
 ! R25   R(15,24)                1.0889         estimate D2E/DX2                !
 ! R26   R(15,25)                1.0897         estimate D2E/DX2                !
 ! R27   R(15,26)                1.0904         estimate D2E/DX2                !
 ! A1    A(1,2,3)              111.0715         estimate D2E/DX2                !
 ! A2    A(1,2,15)             108.5882         estimate D2E/DX2                !
 ! A3    A(1,2,16)             119.0482         estimate D2E/DX2                !
 ! A4    A(3,2,15)             102.3296         estimate D2E/DX2                !
 ! A5    A(3,2,16)             103.8566         estimate D2E/DX2                !
 ! A6    A(15,2,16)            110.6196         estimate D2E/DX2                !
 ! A7    A(2,3,4)              123.4113         estimate D2E/DX2                !
 ! A8    A(2,3,17)             111.5214         estimate D2E/DX2                !
 ! A9    A(4,3,17)             116.162          estimate D2E/DX2                !
 ! A10   A(3,4,5)              121.6148         estimate D2E/DX2                !
 ! A11   A(3,4,14)             125.7823         estimate D2E/DX2                !
 ! A12   A(5,4,14)             112.5482         estimate D2E/DX2                !
 ! A13   A(4,5,6)              104.6483         estimate D2E/DX2                !
 ! A14   A(5,6,7)              109.5995         estimate D2E/DX2                !
 ! A15   A(6,7,8)              117.4828         estimate D2E/DX2                !
 ! A16   A(6,7,14)             109.4693         estimate D2E/DX2                !
 ! A17   A(8,7,14)             133.0474         estimate D2E/DX2                !
 ! A18   A(7,8,9)              119.9413         estimate D2E/DX2                !
 ! A19   A(7,8,13)             120.6322         estimate D2E/DX2                !
 ! A20   A(9,8,13)             119.4265         estimate D2E/DX2                !
 ! A21   A(8,9,10)             120.176          estimate D2E/DX2                !
 ! A22   A(8,9,18)             119.7799         estimate D2E/DX2                !
 ! A23   A(10,9,18)            120.0442         estimate D2E/DX2                !
 ! A24   A(9,10,11)            120.1803         estimate D2E/DX2                !
 ! A25   A(9,10,19)            119.6385         estimate D2E/DX2                !
 ! A26   A(11,10,19)           120.181          estimate D2E/DX2                !
 ! A27   A(10,11,12)           119.8813         estimate D2E/DX2                !
 ! A28   A(10,11,20)           119.9894         estimate D2E/DX2                !
 ! A29   A(12,11,20)           120.1292         estimate D2E/DX2                !
 ! A30   A(11,12,13)           120.2307         estimate D2E/DX2                !
 ! A31   A(11,12,21)           120.1357         estimate D2E/DX2                !
 ! A32   A(13,12,21)           119.6335         estimate D2E/DX2                !
 ! A33   A(8,13,12)            120.1051         estimate D2E/DX2                !
 ! A34   A(8,13,22)            119.48           estimate D2E/DX2                !
 ! A35   A(12,13,22)           120.4149         estimate D2E/DX2                !
 ! A36   A(4,14,7)             103.7337         estimate D2E/DX2                !
 ! A37   A(4,14,23)            127.6146         estimate D2E/DX2                !
 ! A38   A(7,14,23)            128.6512         estimate D2E/DX2                !
 ! A39   A(2,15,24)            107.8399         estimate D2E/DX2                !
 ! A40   A(2,15,25)            108.5835         estimate D2E/DX2                !
 ! A41   A(2,15,26)            107.0422         estimate D2E/DX2                !
 ! A42   A(24,15,25)           111.3518         estimate D2E/DX2                !
 ! A43   A(24,15,26)           110.8975         estimate D2E/DX2                !
 ! A44   A(25,15,26)           110.9504         estimate D2E/DX2                !
 ! D1    D(1,2,3,4)             39.5728         estimate D2E/DX2                !
 ! D2    D(1,2,3,17)          -106.3129         estimate D2E/DX2                !
 ! D3    D(15,2,3,4)           -76.1418         estimate D2E/DX2                !
 ! D4    D(15,2,3,17)          137.9726         estimate D2E/DX2                !
 ! D5    D(16,2,3,4)           168.695          estimate D2E/DX2                !
 ! D6    D(16,2,3,17)           22.8094         estimate D2E/DX2                !
 ! D7    D(1,2,15,24)          -59.4578         estimate D2E/DX2                !
 ! D8    D(1,2,15,25)          179.7631         estimate D2E/DX2                !
 ! D9    D(1,2,15,26)           59.9207         estimate D2E/DX2                !
 ! D10   D(3,2,15,24)           58.0445         estimate D2E/DX2                !
 ! D11   D(3,2,15,25)          -62.7346         estimate D2E/DX2                !
 ! D12   D(3,2,15,26)          177.4231         estimate D2E/DX2                !
 ! D13   D(16,2,15,24)         168.1755         estimate D2E/DX2                !
 ! D14   D(16,2,15,25)          47.3965         estimate D2E/DX2                !
 ! D15   D(16,2,15,26)         -72.4459         estimate D2E/DX2                !
 ! D16   D(2,3,4,5)             26.9699         estimate D2E/DX2                !
 ! D17   D(2,3,4,14)          -155.9251         estimate D2E/DX2                !
 ! D18   D(17,3,4,5)           171.4281         estimate D2E/DX2                !
 ! D19   D(17,3,4,14)          -11.467          estimate D2E/DX2                !
 ! D20   D(3,4,5,6)            177.7502         estimate D2E/DX2                !
 ! D21   D(14,4,5,6)             0.2929         estimate D2E/DX2                !
 ! D22   D(3,4,14,7)          -177.4999         estimate D2E/DX2                !
 ! D23   D(3,4,14,23)            2.7456         estimate D2E/DX2                !
 ! D24   D(5,4,14,7)            -0.1692         estimate D2E/DX2                !
 ! D25   D(5,4,14,23)         -179.9237         estimate D2E/DX2                !
 ! D26   D(4,5,6,7)             -0.3108         estimate D2E/DX2                !
 ! D27   D(5,6,7,8)            179.9985         estimate D2E/DX2                !
 ! D28   D(5,6,7,14)             0.2173         estimate D2E/DX2                !
 ! D29   D(6,7,8,9)            178.8675         estimate D2E/DX2                !
 ! D30   D(6,7,8,13)            -1.069          estimate D2E/DX2                !
 ! D31   D(14,7,8,9)            -1.4148         estimate D2E/DX2                !
 ! D32   D(14,7,8,13)          178.6488         estimate D2E/DX2                !
 ! D33   D(6,7,14,4)            -0.0374         estimate D2E/DX2                !
 ! D34   D(6,7,14,23)          179.7136         estimate D2E/DX2                !
 ! D35   D(8,7,14,4)          -179.7718         estimate D2E/DX2                !
 ! D36   D(8,7,14,23)           -0.0208         estimate D2E/DX2                !
 ! D37   D(7,8,9,10)           179.9666         estimate D2E/DX2                !
 ! D38   D(7,8,9,18)            -0.0437         estimate D2E/DX2                !
 ! D39   D(13,8,9,10)           -0.0962         estimate D2E/DX2                !
 ! D40   D(13,8,9,18)          179.8936         estimate D2E/DX2                !
 ! D41   D(7,8,13,12)          179.9582         estimate D2E/DX2                !
 ! D42   D(7,8,13,22)           -0.0103         estimate D2E/DX2                !
 ! D43   D(9,8,13,12)            0.0214         estimate D2E/DX2                !
 ! D44   D(9,8,13,22)         -179.9471         estimate D2E/DX2                !
 ! D45   D(8,9,10,11)            0.1157         estimate D2E/DX2                !
 ! D46   D(8,9,10,19)          179.9784         estimate D2E/DX2                !
 ! D47   D(18,9,10,11)        -179.874          estimate D2E/DX2                !
 ! D48   D(18,9,10,19)          -0.0113         estimate D2E/DX2                !
 ! D49   D(9,10,11,12)          -0.06           estimate D2E/DX2                !
 ! D50   D(9,10,11,20)        -179.9707         estimate D2E/DX2                !
 ! D51   D(19,10,11,12)       -179.9219         estimate D2E/DX2                !
 ! D52   D(19,10,11,20)          0.1674         estimate D2E/DX2                !
 ! D53   D(10,11,12,13)         -0.015          estimate D2E/DX2                !
 ! D54   D(10,11,12,21)       -179.933          estimate D2E/DX2                !
 ! D55   D(20,11,12,13)        179.8956         estimate D2E/DX2                !
 ! D56   D(20,11,12,21)         -0.0224         estimate D2E/DX2                !
 ! D57   D(11,12,13,8)           0.0338         estimate D2E/DX2                !
 ! D58   D(11,12,13,22)       -179.9979         estimate D2E/DX2                !
 ! D59   D(21,12,13,8)         179.9522         estimate D2E/DX2                !
 ! D60   D(21,12,13,22)         -0.0795         estimate D2E/DX2                !
 --------------------------------------------------------------------------------
 Trust Radius=3.00D-01 FncErr=1.00D-07 GrdErr=1.00D-06 EigMax=2.50D+02 EigMin=1.00D-04
 Number of steps in this run=    141 maximum allowed number of steps=    156.
 GradGradGradGradGradGradGradGradGradGradGradGradGradGradGradGradGradGrad

 Leave Link  103 at Tue Sep 22 18:09:10 2020, MaxMem=  2147483648 cpu:               0.1 elap:               0.0
 (Enter /prod/apps/gaussian/g16b1/l202.exe)
                          Input orientation:                          
 ---------------------------------------------------------------------
 Center     Atomic      Atomic             Coordinates (Angstroms)
 Number     Number       Type             X           Y           Z
 ---------------------------------------------------------------------
      1          8           0       -3.397000   -0.543000    1.489000
      2         16           0       -3.611000    0.121000    0.197000
      3          7           0       -2.188000    0.866000   -0.349000
      4          6           0       -0.926000    0.298000   -0.214000
      5          7           0       -0.759000   -1.011000   -0.149000
      6          8           0        0.631000   -1.188000   -0.071000
      7          6           0        1.245000    0.019000   -0.099000
      8          6           0        2.702000    0.035000   -0.027000
      9          6           0        3.393000    1.257000   -0.076000
     10          6           0        4.783000    1.278000   -0.007000
     11          6           0        5.499000    0.083000    0.109000
     12          6           0        4.817000   -1.135000    0.157000
     13          6           0        3.426000   -1.163000    0.090000
     14          6           0        0.305000    1.006000   -0.189000
     15          6           0       -3.888000   -1.130000   -1.047000
     16          8           0       -4.622000    1.180000    0.099000
     17          1           0       -2.237000    1.881000   -0.255000
     18          1           0        2.840000    2.185000   -0.168000
     19          1           0        5.308000    2.227000   -0.046000
     20          1           0        6.582000    0.103000    0.163000
     21          1           0        5.368000   -2.064000    0.248000
     22          1           0        2.894000   -2.106000    0.127000
     23          1           0        0.451000    2.073000   -0.228000
     24          1           0       -3.009000   -1.772000   -1.076000
     25          1           0       -4.051000   -0.637000   -2.005000
     26          1           0       -4.771000   -1.693000   -0.743000
 ---------------------------------------------------------------------
                    Distance matrix (angstroms):
                    1          2          3          4          5
     1  O    0.000000
     2  S    1.468317   0.000000
     3  N    2.612510   1.696488   0.000000
     4  C    3.116622   2.722035   1.390501   0.000000
     5  N    3.140241   3.087887   2.367524   1.321210   0.000000
     6  O    4.367426   4.447456   3.498994   2.157057   1.403393
     7  C    4.938193   4.866082   3.544771   2.191873   2.253756
     8  C    6.311113   6.317558   4.970548   3.642324   3.617668
     9  C    7.196758   7.100777   5.601337   4.426340   4.731623
    10  C    8.512723   8.475819   6.991534   5.796200   5.997787
    11  C    9.024139   9.110504   7.740337   6.436706   6.358142
    12  C    8.342331   8.521169   7.302743   5.930698   5.585767
    13  C    6.992491   7.153983   5.985529   4.600744   4.194574
    14  C    4.349700   4.033271   2.502049   1.420299   2.280786
    15  C    2.648952   1.785852   2.713157   3.392126   3.257485
    16  O    2.530109   1.467381   2.494726   3.812651   4.448006
    17  H    3.203578   2.278109   1.020520   2.055794   3.249521
    18  H    7.006269   6.782973   5.201279   4.212558   4.813271
    19  H    9.263161   9.167489   7.624575   6.527788   6.877772
    20  H   10.087420  10.193073   8.818005   7.519988   7.431596
    21  H    8.982135   9.241172   8.126158   6.738466   6.229490
    22  H    6.623798   6.876006   5.906444   4.526356   3.823560
    23  H    4.959703   4.526674   2.904447   2.246542   3.313819
    24  H    2.870577   2.359318   2.856854   3.060528   2.549696
    25  H    3.555923   2.370014   2.910690   3.721227   3.797615
    26  H    2.862202   2.349425   3.657268   4.362104   4.112676
                    6          7          8          9         10
     6  O    0.000000
     7  C    1.354485   0.000000
     8  C    2.405557   1.458866   0.000000
     9  C    3.688725   2.479330   1.404694   0.000000
    10  C    4.829530   3.756460   2.424048   1.391870   0.000000
    11  C    5.034408   4.259563   2.800716   2.418209   1.397905
    12  C    4.192540   3.762504   2.424042   2.793516   2.418806
    13  C    2.799745   2.487892   1.404660   2.425911   2.794519
    14  C    2.221224   1.365968   2.591273   3.100244   4.489943
    15  C    4.623559   5.344773   6.769470   7.723572   9.059045
    16  O    5.764576   5.984047   7.414032   8.017280   9.406108
    17  H    4.204526   3.951671   5.277634   5.667302   7.050214
    18  H    4.033140   2.690788   2.159033   1.084185   2.150307
    19  H    5.791129   4.624505   3.405358   2.146864   1.085241
    20  H    6.093918   5.344087   3.885244   3.399788   2.155441
    21  H    4.827868   4.632324   3.404259   3.877453   3.402384
    22  H    2.450122   2.699241   2.155101   3.405874   3.877852
    23  H    3.269735   2.205900   3.043164   3.056849   4.409885
    24  H    3.821084   4.717915   6.081215   7.152653   8.435670
    25  H    5.095594   5.666638   7.068739   7.919685   9.257364
    26  H    5.467011   6.287920   7.703530   8.706221  10.032320
                   11         12         13         14         15
    11  C    0.000000
    12  C    1.396765   0.000000
    13  C    2.418720   1.392894   0.000000
    14  C    5.283784   5.006170   3.810911   0.000000
    15  C    9.535380   8.787870   7.401922   4.783295   0.000000
    16  O   10.180282   9.718915   8.382126   4.938476   2.681077
    17  H    7.950534   7.682767   6.438519   2.689190   3.524087
    18  H    3.400796   3.877700   3.408675   2.795837   7.551679
    19  H    2.158064   3.403724   3.879758   5.151825   9.840623
    20  H    1.084530   2.155900   3.401238   6.351381  10.611564
    21  H    2.155479   1.083939   2.146655   5.937157   9.392706
    22  H    3.402656   2.154454   1.083348   4.060458   6.951717
    23  H    5.436541   5.431523   4.407204   1.077648   5.454988
    24  H    8.788135   7.948103   6.568079   4.414368   1.088874
    25  H    9.807645   9.141317   7.782752   4.997203   1.089671
    26  H   10.457198   9.646300   8.256246   5.775577   1.090447
                   16         17         18         19         20
    16  O    0.000000
    17  H    2.510964   0.000000
    18  H    7.534106   5.086837   0.000000
    19  H    9.986097   7.555820   2.471370   0.000000
    20  H   11.255827   9.006152   4.294980   2.485585   0.000000
    21  H   10.504563   8.582078   4.961637   4.301478   2.485339
    22  H    8.202977   6.509167   4.301467   4.963085   4.299107
    23  H    5.161367   2.694984   2.392376   4.862848   6.451584
    24  H    3.563243   3.822883   7.119910   9.285763   9.850788
    25  H    2.838018   3.562783   7.669689   9.981536  10.876972
    26  H    2.997548   4.408262   8.561357  10.836902  11.529834
                   21         22         23         24         25
    21  H    0.000000
    22  H    2.477313   0.000000
    23  H    6.443464   4.853691   0.000000
    24  H    8.486010   6.033587   5.241634   0.000000
    25  H    9.789275   7.411910   5.547056   1.799175   0.000000
    26  H   10.194069   7.725263   6.458890   1.794930   1.796157
                   26
    26  H    0.000000
 Symmetry turned off by external request.
 Stoichiometry    C10H10N2O3S
 Framework group  C1[X(C10H10N2O3S)]
 Deg. of freedom    72
 Full point group                 C1      NOp   1
 Rotational constants (GHZ):           1.8980189           0.1838087           0.1744808
 Leave Link  202 at Tue Sep 22 18:09:10 2020, MaxMem=  2147483648 cpu:               0.0 elap:               0.0
 (Enter /prod/apps/gaussian/g16b1/l301.exe)
 Standard basis: 6-31G(d) (6D, 7F)
 Ernie: Thresh=  0.10000D-02 Tol=  0.10000D-05 Strict=F.
   264 basis functions,   512 primitive gaussians,   264 cartesian basis functions
    62 alpha electrons       62 beta electrons
       nuclear repulsion energy      1171.2121429567 Hartrees.
 IExCor=  402 DFT=T Ex+Corr=B3LYP ExCW=0 ScaHFX=  0.200000
 ScaDFX=  0.800000  0.720000  1.000000  0.810000 ScalE2=  1.000000  1.000000
 IRadAn=      5 IRanWt=     -1 IRanGd=            0 ICorTp=0 IEmpDi=  4
 NAtoms=   26 NActive=   26 NUniq=   26 SFac= 1.00D+00 NAtFMM=   60 NAOKFM=F Big=F
 Integral buffers will be    131072 words long.
 Raffenetti 2 integral format.
 Two-electron integral symmetry is turned off.
 Using the following non-standard input for PCM:
 MSTModel=DFT cav
 --- end of non-standard input.
 MST model for solvation energy: B3LYP parametrization.
 MST cavity parameters:
 ISph   IAn     Re0     Alpha   Atom Type   QCorr
 ------------------------------------------------
   1      8     1.40     1.25      O          F
   2     16     1.75     1.25      S          F
   3      7     1.50     1.25      NH         F
   4      6     1.50     1.25      C          F
   5      7     1.40     1.25      N          F
   6      8     1.40     1.25      O          F
   7      6     1.50     1.25      C          F
   8      6     1.50     1.25      C          F
   9      6     1.50     1.25      CH         F
  10      6     1.50     1.25      CH         F
  11      6     1.50     1.25      CH         F
  12      6     1.50     1.25      CH         F
  13      6     1.50     1.25      CH         F
  14      6     1.50     1.25      CH         F
  15      6     1.50     1.25      CH3        F
  16      8     1.40     1.25      O          F
  17      1     0.90     1.25      NH         F
  18      1     1.20     1.25      CH         F
  19      1     1.20     1.25      CH         F
  20      1     1.20     1.25      CH         F
  21      1     1.20     1.25      CH         F
  22      1     1.20     1.25      CH         F
  23      1     1.20     1.25      CH         F
  24      1     1.20     1.25      CH3        F
  25      1     1.20     1.25      CH3        F
  26      1     1.20     1.25      CH3        F
 ------------------------------------------------------------------------------
 Polarizable Continuum Model (PCM)
 =================================
 Model                : PCM.
 Atomic radii         : MST.
 Polarization charges : Total charges.
 Charge compensation  : None.
 Solution method      : On-the-fly selection.
 Cavity type          : Scaled VdW (van der Waals Surface) (Alpha=1.250).
 Cavity algorithm     : GePol (No added spheres)
                        Default sphere list used, NSphG=   26.
                        Lebedev-Laikov grids with approx.  5.0 points / Ang**2.
                        Smoothing algorithm: York/Karplus (Gamma=1.0000).
                        Polarization charges: spherical gaussians, with
                                              point-specific exponents (IZeta= 3).
                        Self-potential: point-specific (ISelfS= 7).
                        Self-field    : sphere-specific E.n sum rule (ISelfD= 2).
 1st derivatives      : Analytical E(r).r(x)/FMM algorithm (CHGder, D1EAlg=3).
                        Cavity 1st derivative terms included.
 Solvent              : Water, Eps=  78.355300 Eps(inf)=   1.777849
 ------------------------------------------------------------------------------
 GePol: Number of generator spheres                  =      26
 GePol: Total number of spheres                      =      26
 GePol: Number of exposed spheres                    =      26 (100.00%)
 GePol: Number of points                             =    2093
 GePol: Average weight of points                     =       0.13
 GePol: Minimum weight of points                     =   0.43D-08
 GePol: Maximum weight of points                     =    0.22001
 GePol: Number of points with low weight             =     126
 GePol: Fraction of low-weight points (<1% of avg)   =       6.02%
 GePol: Cavity surface area                          =    273.029 Ang**2
 GePol: Cavity volume                                =    254.766 Ang**3
 PCM non-electrostatic energy =         0.0028126354 Hartrees.
 Nuclear repulsion after PCM non-electrostatic terms =     1171.2149555921 Hartrees.
 Leave Link  301 at Tue Sep 22 18:09:10 2020, MaxMem=  2147483648 cpu:               0.3 elap:               0.1
 (Enter /prod/apps/gaussian/g16b1/l302.exe)
 NPDir=0 NMtPBC=     1 NCelOv=     1 NCel=       1 NClECP=     1 NCelD=      1
         NCelK=      1 NCelE2=     1 NClLst=     1 CellRange=     0.0.
 One-electron integrals computed using PRISM.
 NBasis=   264 RedAO= T EigKep=  4.59D-04  NBF=   264
 NBsUse=   264 1.00D-06 EigRej= -1.00D+00 NBFU=   264
 Precomputing XC quadrature grid using
 IXCGrd= 4 IRadAn=           5 IRanWt=          -1 IRanGd=           0 AccXCQ= 0.00D+00.
 Generated NRdTot=       0 NPtTot=           0 NUsed=           0 NTot=          32
 NSgBfM=   262   261   262   262   262 MxSgAt=    26 MxSgA2=    26.
 Leave Link  302 at Tue Sep 22 18:09:11 2020, MaxMem=  2147483648 cpu:               1.1 elap:               0.3
 (Enter /prod/apps/gaussian/g16b1/l303.exe)
 DipDrv:  MaxL=1.
 Leave Link  303 at Tue Sep 22 18:09:11 2020, MaxMem=  2147483648 cpu:               0.1 elap:               0.1
 (Enter /prod/apps/gaussian/g16b1/l401.exe)
 ExpMin= 1.17D-01 ExpMax= 2.19D+04 ExpMxC= 3.30D+03 IAcc=3 IRadAn=         5 AccDes= 0.00D+00
 Harris functional with IExCor=  402 and IRadAn=       5 diagonalized for initial guess.
 HarFok:  IExCor=  402 AccDes= 0.00D+00 IRadAn=         5 IDoV= 1 UseB2=F ITyADJ=14
 ICtDFT=  3500011 ScaDFX=  1.000000  1.000000  1.000000  1.000000
 FoFCou: FMM=F IPFlag=           0 FMFlag=      100000 FMFlg1=           0
         NFxFlg=           0 DoJE=T BraDBF=F KetDBF=T FulRan=T
         wScrn=  0.000000 ICntrl=       500 IOpCl=  0 I1Cent=   200000004 NGrid=           0
         NMat0=    1 NMatS0=      1 NMatT0=    0 NMatD0=    1 NMtDS0=    0 NMtDT0=    0
 Symmetry not used in FoFCou.
 Harris En= -1120.37251035630    
 JPrj=0 DoOrth=F DoCkMO=F.
 Leave Link  401 at Tue Sep 22 18:09:12 2020, MaxMem=  2147483648 cpu:               5.9 elap:               1.5
 (Enter /prod/apps/gaussian/g16b1/l502.exe)
 Keep R1 ints in memory in canonical form, NReq=621123487.
 FoFCou: FMM=F IPFlag=           0 FMFlag=           0 FMFlg1=           0
         NFxFlg=           0 DoJE=F BraDBF=F KetDBF=F FulRan=T
         wScrn=  0.000000 ICntrl=       600 IOpCl=  0 I1Cent=           0 NGrid=           0
         NMat0=    1 NMatS0=  34980 NMatT0=    0 NMatD0=    1 NMtDS0=    0 NMtDT0=    0
 Symmetry not used in FoFCou.
 Two-electron integral symmetry not used.
 Closed shell SCF:
 Using DIIS extrapolation, IDIIS=  1040.
 NGot=  2147483648 LenX=  1535522690 LenY=  1535452553
 Requested convergence on RMS density matrix=1.00D-08 within2000 cycles.
 Requested convergence on MAX density matrix=1.00D-06.
 Requested convergence on             energy=1.00D-06.
 No special actions if energy rises.

 Cycle   1  Pass 1  IDiag  1:
 Inv3:  Mode=1 IEnd=    13141947.
 Iteration    1 A*A^-1 deviation from unit magnitude is 3.11D-15 for    383.
 Iteration    1 A*A^-1 deviation from orthogonality  is 2.09D-15 for   1472    606.
 Iteration    1 A^-1*A deviation from unit magnitude is 3.33D-15 for     45.
 Iteration    1 A^-1*A deviation from orthogonality  is 4.65D-15 for   1580   1504.
 E= -1119.87647987905    
 DIIS: error= 3.78D-02 at cycle   1 NSaved=   1.
 NSaved= 1 IEnMin= 1 EnMin= -1119.87647987905     IErMin= 1 ErrMin= 3.78D-02
 ErrMax= 3.78D-02  0.00D+00 EMaxC= 1.00D-01 BMatC= 5.61D-01 BMatP= 5.61D-01
 IDIUse=3 WtCom= 6.22D-01 WtEn= 3.78D-01
 Coeff-Com:  0.100D+01
 Coeff-En:   0.100D+01
 Coeff:      0.100D+01
 Gap=     0.265 Goal=   None    Shift=    0.000
 GapD=    0.265 DampG=1.000 DampE=0.500 DampFc=0.5000 IDamp=-1.
 Damping current iteration by 5.00D-01
 RMSDP=6.70D-03 MaxDP=5.55D-01              OVMax= 2.13D-01

 Cycle   2  Pass 1  IDiag  1:
 E= -1120.02189901837     Delta-E=       -0.145419139320 Rises=F Damp=T
 DIIS: error= 1.48D-02 at cycle   2 NSaved=   2.
 NSaved= 2 IEnMin= 2 EnMin= -1120.02189901837     IErMin= 2 ErrMin= 1.48D-02
 ErrMax= 1.48D-02  0.00D+00 EMaxC= 1.00D-01 BMatC= 7.06D-02 BMatP= 5.61D-01
 IDIUse=3 WtCom= 8.52D-01 WtEn= 1.48D-01
 Coeff-Com:  0.198D+00 0.802D+00
 Coeff-En:   0.320D+00 0.680D+00
 Coeff:      0.216D+00 0.784D+00
 Gap=     0.196 Goal=   None    Shift=    0.000
 RMSDP=1.87D-03 MaxDP=1.17D-01 DE=-1.45D-01 OVMax= 1.74D-01

 Cycle   3  Pass 1  IDiag  1:
 E= -1120.32559725724     Delta-E=       -0.303698238868 Rises=F Damp=F
 DIIS: error= 1.01D-02 at cycle   3 NSaved=   3.
 NSaved= 3 IEnMin= 3 EnMin= -1120.32559725724     IErMin= 3 ErrMin= 1.01D-02
 ErrMax= 1.01D-02  0.00D+00 EMaxC= 1.00D-01 BMatC= 3.87D-02 BMatP= 7.06D-02
 IDIUse=3 WtCom= 8.99D-01 WtEn= 1.01D-01
 Coeff-Com:  0.553D-01 0.425D+00 0.520D+00
 Coeff-En:   0.000D+00 0.000D+00 0.100D+01
 Coeff:      0.497D-01 0.382D+00 0.568D+00
 Gap=     0.184 Goal=   None    Shift=    0.000
 RMSDP=9.42D-04 MaxDP=3.35D-02 DE=-3.04D-01 OVMax= 4.17D-02

 Cycle   4  Pass 1  IDiag  1:
 E= -1120.35410693580     Delta-E=       -0.028509678552 Rises=F Damp=F
 DIIS: error= 3.33D-03 at cycle   4 NSaved=   4.
 NSaved= 4 IEnMin= 4 EnMin= -1120.35410693580     IErMin= 4 ErrMin= 3.33D-03
 ErrMax= 3.33D-03  0.00D+00 EMaxC= 1.00D-01 BMatC= 5.64D-03 BMatP= 3.87D-02
 IDIUse=3 WtCom= 9.67D-01 WtEn= 3.33D-02
 Coeff-Com:  0.244D-02 0.870D-01 0.297D+00 0.614D+00
 Coeff-En:   0.000D+00 0.000D+00 0.105D+00 0.895D+00
 Coeff:      0.236D-02 0.841D-01 0.290D+00 0.623D+00
 Gap=     0.183 Goal=   None    Shift=    0.000
 RMSDP=3.10D-04 MaxDP=1.56D-02 DE=-2.85D-02 OVMax= 1.45D-02

 Cycle   5  Pass 1  IDiag  1:
 E= -1120.35832583578     Delta-E=       -0.004218899985 Rises=F Damp=F
 DIIS: error= 7.93D-04 at cycle   5 NSaved=   5.
 NSaved= 5 IEnMin= 5 EnMin= -1120.35832583578     IErMin= 5 ErrMin= 7.93D-04
 ErrMax= 7.93D-04  0.00D+00 EMaxC= 1.00D-01 BMatC= 5.79D-04 BMatP= 5.64D-03
 IDIUse=3 WtCom= 9.92D-01 WtEn= 7.93D-03
 Coeff-Com: -0.292D-02 0.188D-01 0.123D+00 0.353D+00 0.508D+00
 Coeff-En:   0.000D+00 0.000D+00 0.000D+00 0.168D-01 0.983D+00
 Coeff:     -0.289D-02 0.186D-01 0.122D+00 0.350D+00 0.512D+00
 Gap=     0.183 Goal=   None    Shift=    0.000
 RMSDP=1.11D-04 MaxDP=4.61D-03 DE=-4.22D-03 OVMax= 7.17D-03

 Cycle   6  Pass 1  IDiag  1:
 E= -1120.35878123908     Delta-E=       -0.000455403299 Rises=F Damp=F
 DIIS: error= 4.18D-04 at cycle   6 NSaved=   6.
 NSaved= 6 IEnMin= 6 EnMin= -1120.35878123908     IErMin= 6 ErrMin= 4.18D-04
 ErrMax= 4.18D-04  0.00D+00 EMaxC= 1.00D-01 BMatC= 6.28D-05 BMatP= 5.79D-04
 IDIUse=3 WtCom= 9.96D-01 WtEn= 4.18D-03
 Coeff-Com: -0.187D-02 0.404D-02 0.442D-01 0.145D+00 0.306D+00 0.502D+00
 Coeff-En:   0.000D+00 0.000D+00 0.000D+00 0.000D+00 0.547D-01 0.945D+00
 Coeff:     -0.186D-02 0.402D-02 0.441D-01 0.145D+00 0.305D+00 0.504D+00
 Gap=     0.183 Goal=   None    Shift=    0.000
 RMSDP=3.20D-05 MaxDP=1.48D-03 DE=-4.55D-04 OVMax= 2.13D-03

 Cycle   7  Pass 1  IDiag  1:
 E= -1120.35883499235     Delta-E=       -0.000053753270 Rises=F Damp=F
 DIIS: error= 1.20D-04 at cycle   7 NSaved=   7.
 NSaved= 7 IEnMin= 7 EnMin= -1120.35883499235     IErMin= 7 ErrMin= 1.20D-04
 ErrMax= 1.20D-04  0.00D+00 EMaxC= 1.00D-01 BMatC= 3.52D-06 BMatP= 6.28D-05
 IDIUse=3 WtCom= 9.99D-01 WtEn= 1.20D-03
 Coeff-Com: -0.819D-03 0.397D-03 0.127D-01 0.456D-01 0.116D+00 0.268D+00
 Coeff-Com:  0.558D+00
 Coeff-En:   0.000D+00 0.000D+00 0.000D+00 0.000D+00 0.000D+00 0.000D+00
 Coeff-En:   0.100D+01
 Coeff:     -0.818D-03 0.396D-03 0.127D-01 0.455D-01 0.116D+00 0.267D+00
 Coeff:      0.559D+00
 Gap=     0.183 Goal=   None    Shift=    0.000
 RMSDP=7.22D-06 MaxDP=3.36D-04 DE=-5.38D-05 OVMax= 4.13D-04

 Cycle   8  Pass 1  IDiag  1:
 E= -1120.35883772704     Delta-E=       -0.000002734695 Rises=F Damp=F
 DIIS: error= 1.69D-05 at cycle   8 NSaved=   8.
 NSaved= 8 IEnMin= 8 EnMin= -1120.35883772704     IErMin= 8 ErrMin= 1.69D-05
 ErrMax= 1.69D-05  0.00D+00 EMaxC= 1.00D-01 BMatC= 3.11D-07 BMatP= 3.52D-06
 IDIUse=1 WtCom= 1.00D+00 WtEn= 0.00D+00
 Coeff-Com: -0.243D-03-0.159D-03 0.232D-02 0.953D-02 0.313D-01 0.958D-01
 Coeff-Com:  0.286D+00 0.576D+00
 Coeff:     -0.243D-03-0.159D-03 0.232D-02 0.953D-02 0.313D-01 0.958D-01
 Coeff:      0.286D+00 0.576D+00
 Gap=     0.183 Goal=   None    Shift=    0.000
 RMSDP=2.44D-06 MaxDP=1.13D-04 DE=-2.73D-06 OVMax= 1.16D-04

 Cycle   9  Pass 1  IDiag  1:
 E= -1120.35883797453     Delta-E=       -0.000000247488 Rises=F Damp=F
 DIIS: error= 6.59D-06 at cycle   9 NSaved=   9.
 NSaved= 9 IEnMin= 9 EnMin= -1120.35883797453     IErMin= 9 ErrMin= 6.59D-06
 ErrMax= 6.59D-06  0.00D+00 EMaxC= 1.00D-01 BMatC= 3.23D-08 BMatP= 3.11D-07
 IDIUse=1 WtCom= 1.00D+00 WtEn= 0.00D+00
 Coeff-Com: -0.205D-04-0.114D-03-0.472D-03-0.119D-02 0.181D-03 0.134D-01
 Coeff-Com:  0.630D-01 0.286D+00 0.639D+00
 Coeff:     -0.205D-04-0.114D-03-0.472D-03-0.119D-02 0.181D-03 0.134D-01
 Coeff:      0.630D-01 0.286D+00 0.639D+00
 Gap=     0.183 Goal=   None    Shift=    0.000
 RMSDP=7.45D-07 MaxDP=2.46D-05 DE=-2.47D-07 OVMax= 4.44D-05

 Cycle  10  Pass 1  IDiag  1:
 E= -1120.35883800125     Delta-E=       -0.000000026717 Rises=F Damp=F
 DIIS: error= 3.37D-06 at cycle  10 NSaved=  10.
 NSaved=10 IEnMin=10 EnMin= -1120.35883800125     IErMin=10 ErrMin= 3.37D-06
 ErrMax= 3.37D-06  0.00D+00 EMaxC= 1.00D-01 BMatC= 1.72D-09 BMatP= 3.23D-08
 IDIUse=1 WtCom= 1.00D+00 WtEn= 0.00D+00
 Coeff-Com: -0.249D-05-0.418D-04-0.317D-03-0.941D-03-0.125D-02 0.276D-02
 Coeff-Com:  0.174D-01 0.116D+00 0.303D+00 0.563D+00
 Coeff:     -0.249D-05-0.418D-04-0.317D-03-0.941D-03-0.125D-02 0.276D-02
 Coeff:      0.174D-01 0.116D+00 0.303D+00 0.563D+00
 Gap=     0.183 Goal=   None    Shift=    0.000
 RMSDP=2.07D-07 MaxDP=6.03D-06 DE=-2.67D-08 OVMax= 1.46D-05

 Cycle  11  Pass 1  IDiag  1:
 E= -1120.35883800269     Delta-E=       -0.000000001443 Rises=F Damp=F
 DIIS: error= 1.17D-06 at cycle  11 NSaved=  11.
 NSaved=11 IEnMin=11 EnMin= -1120.35883800269     IErMin=11 ErrMin= 1.17D-06
 ErrMax= 1.17D-06  0.00D+00 EMaxC= 1.00D-01 BMatC= 2.75D-10 BMatP= 1.72D-09
 IDIUse=1 WtCom= 1.00D+00 WtEn= 0.00D+00
 Coeff-Com:  0.123D-05-0.507D-06-0.101D-03-0.327D-03-0.797D-03-0.692D-03
 Coeff-Com: -0.141D-02 0.163D-01 0.545D-01 0.298D+00 0.634D+00
 Coeff:      0.123D-05-0.507D-06-0.101D-03-0.327D-03-0.797D-03-0.692D-03
 Coeff:     -0.141D-02 0.163D-01 0.545D-01 0.298D+00 0.634D+00
 Gap=     0.183 Goal=   None    Shift=    0.000
 RMSDP=6.75D-08 MaxDP=2.36D-06 DE=-1.44D-09 OVMax= 5.64D-06

 Cycle  12  Pass 1  IDiag  1:
 E= -1120.35883800295     Delta-E=       -0.000000000257 Rises=F Damp=F
 DIIS: error= 1.67D-07 at cycle  12 NSaved=  12.
 NSaved=12 IEnMin=12 EnMin= -1120.35883800295     IErMin=12 ErrMin= 1.67D-07
 ErrMax= 1.67D-07  0.00D+00 EMaxC= 1.00D-01 BMatC= 2.08D-11 BMatP= 2.75D-10
 IDIUse=1 WtCom= 1.00D+00 WtEn= 0.00D+00
 Coeff-Com:  0.520D-06 0.260D-05-0.299D-04-0.957D-04-0.317D-03-0.524D-03
 Coeff-Com: -0.209D-02-0.329D-03 0.348D-02 0.102D+00 0.307D+00 0.591D+00
 Coeff:      0.520D-06 0.260D-05-0.299D-04-0.957D-04-0.317D-03-0.524D-03
 Coeff:     -0.209D-02-0.329D-03 0.348D-02 0.102D+00 0.307D+00 0.591D+00
 Gap=     0.183 Goal=   None    Shift=    0.000
 RMSDP=2.15D-08 MaxDP=8.45D-07 DE=-2.57D-10 OVMax= 1.07D-06

 Cycle  13  Pass 1  IDiag  1:
 E= -1120.35883800296     Delta-E=       -0.000000000014 Rises=F Damp=F
 DIIS: error= 8.23D-08 at cycle  13 NSaved=  13.
 NSaved=13 IEnMin=13 EnMin= -1120.35883800296     IErMin=13 ErrMin= 8.23D-08
 ErrMax= 8.23D-08  0.00D+00 EMaxC= 1.00D-01 BMatC= 3.22D-12 BMatP= 2.08D-11
 IDIUse=1 WtCom= 1.00D+00 WtEn= 0.00D+00
 Coeff-Com:  0.139D-06 0.153D-05-0.541D-05-0.166D-04-0.913D-04-0.215D-03
 Coeff-Com: -0.105D-02-0.207D-02-0.467D-02 0.211D-01 0.923D-01 0.332D+00
 Coeff-Com:  0.563D+00
 Coeff:      0.139D-06 0.153D-05-0.541D-05-0.166D-04-0.913D-04-0.215D-03
 Coeff:     -0.105D-02-0.207D-02-0.467D-02 0.211D-01 0.923D-01 0.332D+00
 Coeff:      0.563D+00
 Gap=     0.183 Goal=   None    Shift=    0.000
 RMSDP=8.29D-09 MaxDP=3.45D-07 DE=-1.36D-11 OVMax= 4.75D-07

 Error on total polarization charges =  0.01925
 SCF Done:  E(RB3LYP) =  -1120.35883800     A.U. after   13 cycles
            NFock= 13  Conv=0.83D-08     -V/T= 2.0073
 KE= 1.112201618841D+03 PE=-4.969930386210D+03 EE= 1.566154973774D+03
 Leave Link  502 at Tue Sep 22 18:09:57 2020, MaxMem=  2147483648 cpu:             144.6 elap:              44.4
 (Enter /prod/apps/gaussian/g16b1/l601.exe)
 Copying SCF densities to generalized density rwf, IOpCl= 0 IROHF=0.

 **********************************************************************

            Population analysis using the SCF Density.

 **********************************************************************

 Alpha  occ. eigenvalues --  -89.13227 -19.24205 -19.15998 -19.15941 -14.39049
 Alpha  occ. eigenvalues --  -14.38398 -10.28016 -10.27150 -10.22450 -10.21696
 Alpha  occ. eigenvalues --  -10.20331 -10.20275 -10.20131 -10.19907 -10.19810
 Alpha  occ. eigenvalues --  -10.19769  -8.15762  -6.12306  -6.12178  -6.12009
 Alpha  occ. eigenvalues --   -1.14791  -1.12741  -1.01606  -0.96501  -0.87583
 Alpha  occ. eigenvalues --   -0.85395  -0.81294  -0.78189  -0.75503  -0.75279
 Alpha  occ. eigenvalues --   -0.66664  -0.65030  -0.62215  -0.60309  -0.57812
 Alpha  occ. eigenvalues --   -0.55322  -0.53300  -0.50776  -0.49701  -0.48587
 Alpha  occ. eigenvalues --   -0.48168  -0.47615  -0.46683  -0.44887  -0.44021
 Alpha  occ. eigenvalues --   -0.43501  -0.43325  -0.42661  -0.39821  -0.38982
 Alpha  occ. eigenvalues --   -0.37599  -0.36297  -0.35730  -0.35067  -0.33242
 Alpha  occ. eigenvalues --   -0.32736  -0.32066  -0.31471  -0.30033  -0.26376
 Alpha  occ. eigenvalues --   -0.25956  -0.23663
 Alpha virt. eigenvalues --   -0.05319  -0.01016   0.01865   0.05019   0.06712
 Alpha virt. eigenvalues --    0.06886   0.07798   0.08685   0.10011   0.11536
 Alpha virt. eigenvalues --    0.11827   0.12746   0.13561   0.15273   0.15875
 Alpha virt. eigenvalues --    0.16843   0.16934   0.17051   0.18622   0.19334
 Alpha virt. eigenvalues --    0.23307   0.25582   0.25793   0.29561   0.29984
 Alpha virt. eigenvalues --    0.31950   0.33044   0.34040   0.36381   0.38288
 Alpha virt. eigenvalues --    0.40945   0.43222   0.43953   0.44566   0.47962
 Alpha virt. eigenvalues --    0.49278   0.50103   0.51305   0.51944   0.53297
 Alpha virt. eigenvalues --    0.53493   0.54281   0.55635   0.56788   0.57901
 Alpha virt. eigenvalues --    0.58176   0.58834   0.59652   0.60675   0.61372
 Alpha virt. eigenvalues --    0.61909   0.62486   0.64205   0.64766   0.66575
 Alpha virt. eigenvalues --    0.68001   0.69501   0.71042   0.71899   0.75801
 Alpha virt. eigenvalues --    0.76251   0.78253   0.78868   0.79187   0.80437
 Alpha virt. eigenvalues --    0.81696   0.83616   0.84055   0.84562   0.84999
 Alpha virt. eigenvalues --    0.86526   0.86885   0.87874   0.88645   0.89151
 Alpha virt. eigenvalues --    0.90814   0.91399   0.92684   0.94556   0.95099
 Alpha virt. eigenvalues --    0.96838   0.97599   0.98660   1.00355   1.01196
 Alpha virt. eigenvalues --    1.02280   1.04082   1.04675   1.06485   1.09385
 Alpha virt. eigenvalues --    1.10580   1.13600   1.14603   1.15891   1.16908
 Alpha virt. eigenvalues --    1.17601   1.19451   1.22145   1.24193   1.26233
 Alpha virt. eigenvalues --    1.29724   1.31098   1.33201   1.33790   1.36540
 Alpha virt. eigenvalues --    1.37910   1.41957   1.42092   1.42661   1.44933
 Alpha virt. eigenvalues --    1.46442   1.47125   1.48239   1.49990   1.50133
 Alpha virt. eigenvalues --    1.51216   1.53819   1.57630   1.58840   1.66454
 Alpha virt. eigenvalues --    1.69037   1.72057   1.74896   1.76533   1.78556
 Alpha virt. eigenvalues --    1.78789   1.79465   1.80332   1.81221   1.83542
 Alpha virt. eigenvalues --    1.84820   1.87108   1.88792   1.92008   1.93249
 Alpha virt. eigenvalues --    1.94544   1.96610   1.98228   1.99405   1.99973
 Alpha virt. eigenvalues --    2.04593   2.05778   2.06845   2.10029   2.10520
 Alpha virt. eigenvalues --    2.11748   2.13266   2.14309   2.16052   2.17244
 Alpha virt. eigenvalues --    2.18744   2.20728   2.22290   2.23591   2.24850
 Alpha virt. eigenvalues --    2.25627   2.26394   2.28408   2.28920   2.29996
 Alpha virt. eigenvalues --    2.32780   2.35088   2.43187   2.50473   2.52853
 Alpha virt. eigenvalues --    2.53437   2.56809   2.58173   2.60078   2.62244
 Alpha virt. eigenvalues --    2.66021   2.66382   2.71166   2.72145   2.73995
 Alpha virt. eigenvalues --    2.74693   2.76755   2.80442   2.87150   2.89138
 Alpha virt. eigenvalues --    2.91347   3.02375   3.05166   3.13331   3.26831
 Alpha virt. eigenvalues --    3.42743   3.76162   3.79812   3.92555   3.97775
 Alpha virt. eigenvalues --    4.06816   4.08413   4.10849   4.11023   4.14820
 Alpha virt. eigenvalues --    4.22707   4.23112   4.31549   4.36918   4.40275
 Alpha virt. eigenvalues --    4.56694   4.74108
          Condensed to atoms (all electrons):
               1          2          3          4          5          6
     1  O    8.268448   0.440532  -0.054908   0.005634  -0.002105   0.000009
     2  S    0.440532  13.608319   0.100830  -0.001527   0.002797  -0.000336
     3  N   -0.054908   0.100830   7.468440   0.228684  -0.075164   0.005510
     4  C    0.005634  -0.001527   0.228684   4.463487   0.401446  -0.036451
     5  N   -0.002105   0.002797  -0.075164   0.401446   6.958271   0.111751
     6  O    0.000009  -0.000336   0.005510  -0.036451   0.111751   8.212707
     7  C    0.000000   0.000241  -0.000699  -0.017400  -0.082609   0.245086
     8  C   -0.000000  -0.000009  -0.000208   0.002722   0.004224  -0.037809
     9  C    0.000000   0.000000   0.000003   0.000633  -0.000100   0.003111
    10  C    0.000000  -0.000000   0.000000  -0.000007   0.000001  -0.000061
    11  C    0.000000  -0.000000   0.000000   0.000000  -0.000000   0.000002
    12  C    0.000000  -0.000000  -0.000000   0.000005   0.000000   0.000279
    13  C   -0.000000  -0.000000  -0.000001  -0.000350   0.000128  -0.006587
    14  C    0.000111   0.001503  -0.052338   0.454835  -0.044029  -0.090309
    15  C   -0.056465   0.231869  -0.051598  -0.007527  -0.007636   0.000132
    16  O   -0.045383   0.460778  -0.050801   0.001288  -0.000023   0.000000
    17  H   -0.000203  -0.011835   0.299744  -0.014075   0.002623  -0.000055
    18  H    0.000000  -0.000000  -0.000001   0.000082  -0.000006   0.000024
    19  H   -0.000000   0.000000  -0.000000  -0.000000  -0.000000   0.000000
    20  H   -0.000000  -0.000000  -0.000000  -0.000000  -0.000000   0.000000
    21  H    0.000000   0.000000   0.000000  -0.000000   0.000000  -0.000003
    22  H    0.000000  -0.000000  -0.000000   0.000054  -0.000255   0.009670
    23  H    0.000002  -0.000126  -0.001909  -0.027967   0.004805   0.003312
    24  H   -0.001281  -0.002389  -0.002820  -0.000347   0.017039  -0.000349
    25  H    0.001827  -0.007258   0.000878   0.000246   0.000049  -0.000001
    26  H    0.000106  -0.017189   0.002406   0.000107   0.000138  -0.000001
               7          8          9         10         11         12
     1  O    0.000000  -0.000000   0.000000   0.000000   0.000000   0.000000
     2  S    0.000241  -0.000009   0.000000  -0.000000  -0.000000  -0.000000
     3  N   -0.000699  -0.000208   0.000003   0.000000   0.000000  -0.000000
     4  C   -0.017400   0.002722   0.000633  -0.000007   0.000000   0.000005
     5  N   -0.082609   0.004224  -0.000100   0.000001  -0.000000   0.000000
     6  O    0.245086  -0.037809   0.003111  -0.000061   0.000002   0.000279
     7  C    4.724298   0.349061  -0.042425   0.006361   0.000857   0.004759
     8  C    0.349061   4.782796   0.536498  -0.011301  -0.033823  -0.009770
     9  C   -0.042425   0.536498   5.012539   0.517915  -0.040011  -0.041285
    10  C    0.006361  -0.011301   0.517915   4.884613   0.539082  -0.026052
    11  C    0.000857  -0.033823  -0.040011   0.539082   4.874337   0.538606
    12  C    0.004759  -0.009770  -0.041285  -0.026052   0.538606   4.891337
    13  C   -0.041914   0.472349  -0.081711  -0.042093  -0.038015   0.505641
    14  C    0.507423  -0.057058  -0.019846   0.000225   0.000014  -0.000226
    15  C   -0.000026   0.000000  -0.000000   0.000000  -0.000000   0.000000
    16  O    0.000000  -0.000000  -0.000000  -0.000000   0.000000  -0.000000
    17  H    0.000009  -0.000001  -0.000000  -0.000000  -0.000000  -0.000000
    18  H   -0.012607  -0.036797   0.357376  -0.041517   0.004482   0.000160
    19  H   -0.000204   0.003221  -0.037455   0.363145  -0.040662   0.004367
    20  H    0.000003   0.000480   0.004805  -0.041664   0.364845  -0.041459
    21  H   -0.000173   0.003222   0.000765   0.004402  -0.040860   0.363813
    22  H   -0.012806  -0.043029   0.005287   0.000197   0.004536  -0.040775
    23  H   -0.027561  -0.003397   0.001138   0.000089  -0.000001   0.000001
    24  H    0.000052  -0.000000   0.000000  -0.000000  -0.000000  -0.000000
    25  H    0.000000   0.000000  -0.000000  -0.000000   0.000000  -0.000000
    26  H    0.000000   0.000000   0.000000  -0.000000   0.000000  -0.000000
              13         14         15         16         17         18
     1  O   -0.000000   0.000111  -0.056465  -0.045383  -0.000203   0.000000
     2  S   -0.000000   0.001503   0.231869   0.460778  -0.011835  -0.000000
     3  N   -0.000001  -0.052338  -0.051598  -0.050801   0.299744  -0.000001
     4  C   -0.000350   0.454835  -0.007527   0.001288  -0.014075   0.000082
     5  N    0.000128  -0.044029  -0.007636  -0.000023   0.002623  -0.000006
     6  O   -0.006587  -0.090309   0.000132   0.000000  -0.000055   0.000024
     7  C   -0.041914   0.507423  -0.000026   0.000000   0.000009  -0.012607
     8  C    0.472349  -0.057058   0.000000  -0.000000  -0.000001  -0.036797
     9  C   -0.081711  -0.019846  -0.000000  -0.000000  -0.000000   0.357376
    10  C   -0.042093   0.000225   0.000000  -0.000000  -0.000000  -0.041517
    11  C   -0.038015   0.000014  -0.000000   0.000000  -0.000000   0.004482
    12  C    0.505641  -0.000226   0.000000  -0.000000  -0.000000   0.000160
    13  C    5.059765   0.011739   0.000000   0.000000   0.000000   0.005631
    14  C    0.011739   5.223261  -0.000324  -0.000055  -0.004850   0.006003
    15  C    0.000000  -0.000324   5.557437  -0.057604   0.002351  -0.000000
    16  O    0.000000  -0.000055  -0.057604   8.250957   0.003990  -0.000000
    17  H    0.000000  -0.004850   0.002351   0.003990   0.287406   0.000000
    18  H    0.005631   0.006003  -0.000000  -0.000000   0.000000   0.554955
    19  H    0.000784  -0.000001  -0.000000   0.000000   0.000000  -0.004840
    20  H    0.004677  -0.000000   0.000000  -0.000000   0.000000  -0.000154
    21  H   -0.037595   0.000001  -0.000000   0.000000   0.000000   0.000015
    22  H    0.363012   0.000254   0.000000  -0.000000   0.000000  -0.000138
    23  H   -0.000102   0.355766   0.000001  -0.000001   0.001522   0.001894
    24  H   -0.000000   0.000187   0.326540   0.001584  -0.000074   0.000000
    25  H    0.000000  -0.000002   0.342621  -0.000124  -0.000039  -0.000000
    26  H   -0.000000   0.000002   0.356019  -0.000443  -0.000041  -0.000000
              19         20         21         22         23         24
     1  O   -0.000000  -0.000000   0.000000   0.000000   0.000002  -0.001281
     2  S    0.000000  -0.000000   0.000000  -0.000000  -0.000126  -0.002389
     3  N   -0.000000  -0.000000   0.000000  -0.000000  -0.001909  -0.002820
     4  C   -0.000000  -0.000000  -0.000000   0.000054  -0.027967  -0.000347
     5  N   -0.000000  -0.000000   0.000000  -0.000255   0.004805   0.017039
     6  O    0.000000   0.000000  -0.000003   0.009670   0.003312  -0.000349
     7  C   -0.000204   0.000003  -0.000173  -0.012806  -0.027561   0.000052
     8  C    0.003221   0.000480   0.003222  -0.043029  -0.003397  -0.000000
     9  C   -0.037455   0.004805   0.000765   0.005287   0.001138   0.000000
    10  C    0.363145  -0.041664   0.004402   0.000197   0.000089  -0.000000
    11  C   -0.040662   0.364845  -0.040860   0.004536  -0.000001  -0.000000
    12  C    0.004367  -0.041459   0.363813  -0.040775   0.000001  -0.000000
    13  C    0.000784   0.004677  -0.037595   0.363012  -0.000102  -0.000000
    14  C   -0.000001  -0.000000   0.000001   0.000254   0.355766   0.000187
    15  C   -0.000000   0.000000  -0.000000   0.000000   0.000001   0.326540
    16  O    0.000000  -0.000000   0.000000  -0.000000  -0.000001   0.001584
    17  H    0.000000   0.000000   0.000000   0.000000   0.001522  -0.000074
    18  H   -0.004840  -0.000154   0.000015  -0.000138   0.001894   0.000000
    19  H    0.556938  -0.005111  -0.000161   0.000015  -0.000002   0.000000
    20  H   -0.005111   0.559957  -0.005108  -0.000150  -0.000000  -0.000000
    21  H   -0.000161  -0.005108   0.556990  -0.004888   0.000000   0.000000
    22  H    0.000015  -0.000150  -0.004888   0.553727  -0.000008  -0.000000
    23  H   -0.000002  -0.000000   0.000000  -0.000008   0.497287  -0.000003
    24  H    0.000000  -0.000000   0.000000  -0.000000  -0.000003   0.457924
    25  H    0.000000   0.000000   0.000000   0.000000  -0.000000  -0.019558
    26  H    0.000000   0.000000  -0.000000   0.000000  -0.000000  -0.015150
              25         26
     1  O    0.001827   0.000106
     2  S   -0.007258  -0.017189
     3  N    0.000878   0.002406
     4  C    0.000246   0.000107
     5  N    0.000049   0.000138
     6  O   -0.000001  -0.000001
     7  C    0.000000   0.000000
     8  C    0.000000   0.000000
     9  C   -0.000000   0.000000
    10  C   -0.000000  -0.000000
    11  C    0.000000   0.000000
    12  C   -0.000000  -0.000000
    13  C    0.000000  -0.000000
    14  C   -0.000002   0.000002
    15  C    0.342621   0.356019
    16  O   -0.000124  -0.000443
    17  H   -0.000039  -0.000041
    18  H   -0.000000  -0.000000
    19  H    0.000000   0.000000
    20  H    0.000000   0.000000
    21  H    0.000000  -0.000000
    22  H    0.000000   0.000000
    23  H   -0.000000  -0.000000
    24  H   -0.019558  -0.015150
    25  H    0.466450  -0.016921
    26  H   -0.016921   0.454195
 Mulliken charges:
               1
     1  O   -0.556325
     2  S    1.193800
     3  N   -0.816046
     4  C    0.546426
     5  N   -0.291347
     6  O   -0.419632
     7  C    0.400274
     8  C    0.078627
     9  C   -0.177236
    10  C   -0.153337
    11  C   -0.133392
    12  C   -0.149400
    13  C   -0.175359
    14  C   -0.292288
    15  C   -0.635791
    16  O   -0.564163
    17  H    0.433526
    18  H    0.165438
    19  H    0.159966
    20  H    0.158878
    21  H    0.159579
    22  H    0.165296
    23  H    0.195259
    24  H    0.238645
    25  H    0.231832
    26  H    0.236771
 Sum of Mulliken charges =  -0.00000
 Mulliken charges with hydrogens summed into heavy atoms:
               1
     1  O   -0.556325
     2  S    1.193800
     3  N   -0.382520
     4  C    0.546426
     5  N   -0.291347
     6  O   -0.419632
     7  C    0.400274
     8  C    0.078627
     9  C   -0.011799
    10  C    0.006629
    11  C    0.025486
    12  C    0.010179
    13  C   -0.010063
    14  C   -0.097029
    15  C    0.071457
    16  O   -0.564163
 Electronic spatial extent (au):  <R**2>=           5863.4559
 Charge=             -0.0000 electrons
 Dipole moment (field-independent basis, Debye):
    X=              5.2039    Y=              2.7346    Z=             -3.9181  Tot=              7.0647
 Quadrupole moment (field-independent basis, Debye-Ang):
   XX=            -94.1863   YY=            -88.9952   ZZ=           -103.9956
   XY=              8.0947   XZ=             14.9953   YZ=              2.0360
 Traceless Quadrupole moment (field-independent basis, Debye-Ang):
   XX=              1.5394   YY=              6.7305   ZZ=             -8.2699
   XY=              8.0947   XZ=             14.9953   YZ=              2.0360
 Octapole moment (field-independent basis, Debye-Ang**2):
  XXX=            139.7858  YYY=             15.6578  ZZZ=             -6.8771  XYY=              4.1874
  XXY=            -52.2544  XXZ=            -48.6621  XZZ=            -20.6492  YZZ=             -0.5297
  YYZ=             -2.9929  XYZ=            -13.2453
 Hexadecapole moment (field-independent basis, Debye-Ang**3):
 XXXX=          -6444.7310 YYYY=           -568.4046 ZZZZ=           -245.5160 XXXY=            288.6203
 XXXZ=            219.7457 YYYX=             -6.2193 YYYZ=             -5.5850 ZZZX=             23.9678
 ZZZY=              5.5404 XXYY=          -1143.2673 XXZZ=          -1258.5099 YYZZ=           -152.1859
 XXYZ=             26.8746 YYXZ=              9.9342 ZZXY=             -9.7855
 N-N= 1.171214955592D+03 E-N=-4.969930385345D+03  KE= 1.112201618841D+03
 No NMR shielding tensors so no spin-rotation constants.
 Leave Link  601 at Tue Sep 22 18:09:57 2020, MaxMem=  2147483648 cpu:               0.3 elap:               0.1
 (Enter /prod/apps/gaussian/g16b1/l701.exe)
 ... and contract with generalized density number  0.
 Compute integral first derivatives.
 D1PCM: PCM CHGder 1st derivatives, ID1Alg=3 FixD1E=F DoIter=F DoCFld=F I1PDM=0.
 GePol: Maximum number of non-zero 1st derivatives   =     178
 Leave Link  701 at Tue Sep 22 18:09:58 2020, MaxMem=  2147483648 cpu:               6.4 elap:               1.6
 (Enter /prod/apps/gaussian/g16b1/l702.exe)
 L702 exits ... SP integral derivatives will be done elsewhere.
 Leave Link  702 at Tue Sep 22 18:09:58 2020, MaxMem=  2147483648 cpu:               0.1 elap:               0.0
 (Enter /prod/apps/gaussian/g16b1/l703.exe)
 Integral derivatives from FoFJK, PRISM(SPDF).
 Compute integral first derivatives, UseDBF=F ICtDFT=           0.
 Calling FoFJK, ICntrl=      2127 FMM=F ISym2X=0 I1Cent= 0 IOpClX= 0 NMat=1 NMatS=1 NMatT=0.
 FoFJK:  IHMeth= 1 ICntrl=    2127 DoSepK=F KAlg= 0 I1Cent=           0 FoldK=F
 IRaf=         0 NMat=       1 IRICut=       1 DoRegI=T DoRafI=F ISym2E= 0 IDoP0=0 IntGTp=1.
 FoFCou: FMM=F IPFlag=           0 FMFlag=      100000 FMFlg1=         800
         NFxFlg=           0 DoJE=F BraDBF=F KetDBF=F FulRan=T
         wScrn=  0.000000 ICntrl=      2127 IOpCl=  0 I1Cent=           0 NGrid=           0
         NMat0=    1 NMatS0=      1 NMatT0=    0 NMatD0=    1 NMtDS0=    0 NMtDT0=    0
 Symmetry not used in FoFCou.
 Leave Link  703 at Tue Sep 22 18:10:08 2020, MaxMem=  2147483648 cpu:              37.7 elap:               9.4
 (Enter /prod/apps/gaussian/g16b1/l716.exe)
 Dipole        = 2.04736942D+00 1.07586842D+00-1.54149574D+00
 -------------------------------------------------------------------
 Center     Atomic                   Forces (Hartrees/Bohr)
 Number     Number              X              Y              Z
 -------------------------------------------------------------------
      1        8          -0.000002915   -0.000079720    0.000095592
      2       16           0.001241542   -0.000014450    0.000330951
      3        7          -0.000946671    0.000024733   -0.000043200
      4        6           0.000222339   -0.001165735    0.000100946
      5        7          -0.000351422    0.000807438   -0.000283270
      6        8           0.000200517   -0.000283346    0.000246516
      7        6           0.001230843   -0.000749061   -0.000035746
      8        6           0.000247927   -0.000595749   -0.000094201
      9        6           0.000002627   -0.000107848    0.000103597
     10        6           0.000185169    0.000007967   -0.000158089
     11        6          -0.000252244    0.000359023    0.000125475
     12        6          -0.000526500    0.000391459    0.000035693
     13        6          -0.000057213    0.000572286   -0.000124920
     14        6          -0.000697423    0.001271068   -0.000078770
     15        6          -0.000888301    0.000201162   -0.000979770
     16        8          -0.000559857    0.000528935   -0.000085330
     17        1           0.000083634   -0.000061672    0.000072157
     18        1          -0.000010735    0.000282178   -0.000000638
     19        1          -0.000104273   -0.000344257    0.000071351
     20        1           0.000138217   -0.000114574   -0.000050323
     21        1           0.000255911   -0.000423405    0.000001017
     22        1          -0.000112315    0.000016485    0.000033763
     23        1          -0.000093252   -0.000102197   -0.000021978
     24        1           0.000642940   -0.000169112    0.000206390
     25        1           0.000175361   -0.000152514    0.000487420
     26        1          -0.000023908   -0.000099093    0.000045366
 -------------------------------------------------------------------
 Cartesian Forces:  Max     0.001271068 RMS     0.000429993
 Leave Link  716 at Tue Sep 22 18:10:08 2020, MaxMem=  2147483648 cpu:               0.1 elap:               0.0
 (Enter /prod/apps/gaussian/g16b1/l103.exe)

 GradGradGradGradGradGradGradGradGradGradGradGradGradGradGradGradGradGrad
 Berny optimization.
 FormGI is forming the generalized inverse of G from B-inverse, IUseBI=4.
 GSVD:  received Info=                   1 from GESDD.
 Internal  Forces:  Max     0.001316291 RMS     0.000257141
 Search for a local minimum.
 Step number   1 out of a maximum of  141
 All quantities printed in internal units (Hartrees-Bohrs-Radians)
 RMS Force = .25714D-03 SwitMx=.10000D-02 MixMth= 2
 Mixed Optimization -- En-DIIS/RFO-DIIS
 Second derivative matrix not updated -- first step.
 ITU=  0
     Eigenvalues ---    0.00557   0.01310   0.01343   0.01812   0.01817
     Eigenvalues ---    0.01887   0.01963   0.02043   0.02072   0.02098
     Eigenvalues ---    0.02111   0.02124   0.02137   0.02140   0.02144
     Eigenvalues ---    0.02159   0.02164   0.02274   0.02340   0.06147
     Eigenvalues ---    0.06305   0.08276   0.09005   0.12461   0.14521
     Eigenvalues ---    0.16000   0.16000   0.16000   0.16000   0.16000
     Eigenvalues ---    0.16000   0.16000   0.16000   0.16000   0.17871
     Eigenvalues ---    0.22000   0.22000   0.22492   0.23477   0.23804
     Eigenvalues ---    0.24974   0.24997   0.25000   0.25000   0.25000
     Eigenvalues ---    0.27264   0.34761   0.34851   0.34943   0.35369
     Eigenvalues ---    0.35453   0.35493   0.35523   0.35593   0.36280
     Eigenvalues ---    0.36316   0.37107   0.39901   0.41438   0.41948
     Eigenvalues ---    0.43549   0.44255   0.45260   0.45532   0.46286
     Eigenvalues ---    0.46912   0.47232   0.48853   0.52007   0.59603
     Eigenvalues ---    0.88204   0.88579
 RFO step:  Lambda=-3.54901062D-05 EMin= 5.57457467D-03
 Linear search not attempted -- first point.
 Iteration  1 RMS(Cart)=  0.01162745 RMS(Int)=  0.00002666
 Iteration  2 RMS(Cart)=  0.00007474 RMS(Int)=  0.00000166
 Iteration  3 RMS(Cart)=  0.00000000 RMS(Int)=  0.00000166
 ITry= 1 IFail=0 DXMaxC= 3.29D-02 DCOld= 1.00D+10 DXMaxT= 3.00D-01 DXLimC= 3.00D+00 Rises=F
 Variable       Old X    -DE/DX   Delta X   Delta X   Delta X     New X
                                 (Linear)    (Quad)   (Total)
    R1        2.77472   0.00011   0.00000   0.00013   0.00013   2.77485
    R2        3.20590  -0.00057   0.00000  -0.00157  -0.00157   3.20433
    R3        3.37477   0.00035   0.00000   0.00128   0.00128   3.37605
    R4        2.77295   0.00077   0.00000   0.00087   0.00087   2.77382
    R5        2.62767   0.00032   0.00000   0.00067   0.00067   2.62834
    R6        1.92850  -0.00006   0.00000  -0.00013  -0.00013   1.92837
    R7        2.49672  -0.00069   0.00000  -0.00126  -0.00126   2.49547
    R8        2.68398   0.00035   0.00000   0.00083   0.00083   2.68481
    R9        2.65203   0.00021   0.00000   0.00033   0.00033   2.65235
   R10        2.55961   0.00012   0.00000   0.00031   0.00032   2.55992
   R11        2.75686  -0.00024   0.00000  -0.00064  -0.00064   2.75622
   R12        2.58131   0.00132   0.00000   0.00273   0.00273   2.58403
   R13        2.65449   0.00011   0.00000   0.00026   0.00026   2.65474
   R14        2.65442  -0.00072   0.00000  -0.00163  -0.00163   2.65279
   R15        2.63025   0.00004   0.00000   0.00014   0.00014   2.63039
   R16        2.04881   0.00025   0.00000   0.00069   0.00069   2.04951
   R17        2.64166  -0.00025   0.00000  -0.00050  -0.00050   2.64115
   R18        2.05081  -0.00035   0.00000  -0.00100  -0.00100   2.04980
   R19        2.63950  -0.00006   0.00000  -0.00015  -0.00015   2.63935
   R20        2.04946   0.00013   0.00000   0.00038   0.00038   2.04984
   R21        2.63219  -0.00034   0.00000  -0.00079  -0.00079   2.63140
   R22        2.04835   0.00049   0.00000   0.00139   0.00139   2.04974
   R23        2.04723   0.00004   0.00000   0.00012   0.00012   2.04735
   R24        2.03646  -0.00011   0.00000  -0.00031  -0.00031   2.03615
   R25        2.05767   0.00061   0.00000   0.00176   0.00176   2.05943
   R26        2.05918  -0.00052   0.00000  -0.00149  -0.00149   2.05769
   R27        2.06065   0.00008   0.00000   0.00023   0.00023   2.06088
    A1        1.93856   0.00015   0.00000   0.00045   0.00045   1.93902
    A2        1.89522   0.00002   0.00000  -0.00030  -0.00030   1.89492
    A3        2.07778  -0.00003   0.00000   0.00046   0.00046   2.07824
    A4        1.78599  -0.00042   0.00000  -0.00203  -0.00203   1.78396
    A5        1.81264   0.00014   0.00000   0.00066   0.00066   1.81330
    A6        1.93068   0.00010   0.00000   0.00041   0.00041   1.93109
    A7        2.15393  -0.00047   0.00000  -0.00234  -0.00234   2.15159
    A8        1.94641   0.00022   0.00000   0.00058   0.00058   1.94699
    A9        2.02741   0.00017   0.00000   0.00025   0.00025   2.02766
   A10        2.12258  -0.00033   0.00000  -0.00119  -0.00119   2.12139
   A11        2.19531   0.00013   0.00000   0.00066   0.00066   2.19598
   A12        1.96434   0.00021   0.00000   0.00060   0.00059   1.96493
   A13        1.82646   0.00032   0.00000   0.00052   0.00052   1.82698
   A14        1.91287  -0.00001   0.00000   0.00001   0.00001   1.91288
   A15        2.05046  -0.00044   0.00000  -0.00205  -0.00206   2.04841
   A16        1.91060  -0.00023   0.00000  -0.00033  -0.00033   1.91027
   A17        2.32212   0.00067   0.00000   0.00236   0.00236   2.32448
   A18        2.09337   0.00055   0.00000   0.00224   0.00223   2.09560
   A19        2.10543  -0.00067   0.00000  -0.00265  -0.00265   2.10278
   A20        2.08439   0.00011   0.00000   0.00042   0.00041   2.08480
   A21        2.09747  -0.00023   0.00000  -0.00089  -0.00089   2.09657
   A22        2.09055   0.00025   0.00000   0.00131   0.00131   2.09187
   A23        2.09517  -0.00002   0.00000  -0.00042  -0.00042   2.09474
   A24        2.09754   0.00003   0.00000   0.00034   0.00034   2.09788
   A25        2.08809   0.00007   0.00000   0.00035   0.00035   2.08843
   A26        2.09755  -0.00010   0.00000  -0.00069  -0.00069   2.09687
   A27        2.09232  -0.00002   0.00000  -0.00005  -0.00005   2.09227
   A28        2.09421   0.00013   0.00000   0.00076   0.00076   2.09497
   A29        2.09665  -0.00011   0.00000  -0.00071  -0.00071   2.09594
   A30        2.09842  -0.00003   0.00000  -0.00029  -0.00029   2.09814
   A31        2.09676   0.00001   0.00000   0.00013   0.00013   2.09689
   A32        2.08800   0.00002   0.00000   0.00016   0.00016   2.08816
   A33        2.09623   0.00014   0.00000   0.00048   0.00048   2.09671
   A34        2.08532  -0.00018   0.00000  -0.00090  -0.00090   2.08442
   A35        2.10164   0.00003   0.00000   0.00042   0.00042   2.10206
   A36        1.81049  -0.00029   0.00000  -0.00083  -0.00083   1.80966
   A37        2.22730   0.00007   0.00000  -0.00010  -0.00010   2.22720
   A38        2.24539   0.00023   0.00000   0.00091   0.00091   2.24630
   A39        1.88216  -0.00052   0.00000  -0.00372  -0.00372   1.87844
   A40        1.89514  -0.00007   0.00000  -0.00033  -0.00033   1.89481
   A41        1.86824   0.00015   0.00000   0.00131   0.00131   1.86955
   A42        1.94345   0.00019   0.00000   0.00039   0.00039   1.94384
   A43        1.93553   0.00014   0.00000   0.00065   0.00065   1.93618
   A44        1.93645   0.00008   0.00000   0.00154   0.00154   1.93799
    D1        0.69068  -0.00006   0.00000   0.00279   0.00279   0.69347
    D2       -1.85551  -0.00000   0.00000   0.00519   0.00518  -1.85032
    D3       -1.32892   0.00008   0.00000   0.00403   0.00403  -1.32490
    D4        2.40808   0.00014   0.00000   0.00642   0.00642   2.41450
    D5        2.94428   0.00009   0.00000   0.00411   0.00411   2.94839
    D6        0.39810   0.00015   0.00000   0.00650   0.00650   0.40460
    D7       -1.03774  -0.00000   0.00000  -0.00015  -0.00015  -1.03789
    D8        3.13746   0.00011   0.00000   0.00174   0.00174   3.13919
    D9        1.04581  -0.00003   0.00000  -0.00065  -0.00065   1.04516
   D10        1.01307  -0.00004   0.00000  -0.00076  -0.00076   1.01231
   D11       -1.09493   0.00008   0.00000   0.00113   0.00112  -1.09380
   D12        3.09662  -0.00007   0.00000  -0.00126  -0.00126   3.09535
   D13        2.93522  -0.00005   0.00000  -0.00084  -0.00084   2.93438
   D14        0.82722   0.00007   0.00000   0.00105   0.00105   0.82827
   D15       -1.26442  -0.00008   0.00000  -0.00134  -0.00134  -1.26576
   D16        0.47071   0.00006   0.00000   0.00301   0.00301   0.47372
   D17       -2.72141   0.00011   0.00000   0.00496   0.00496  -2.71645
   D18        2.99198  -0.00001   0.00000   0.00056   0.00056   2.99254
   D19       -0.20014   0.00004   0.00000   0.00251   0.00251  -0.19763
   D20        3.10233   0.00015   0.00000   0.00665   0.00665   3.10898
   D21        0.00511   0.00011   0.00000   0.00493   0.00493   0.01004
   D22       -3.09796  -0.00012   0.00000  -0.00574  -0.00574  -3.10369
   D23        0.04792  -0.00004   0.00000  -0.00209  -0.00209   0.04583
   D24       -0.00295  -0.00009   0.00000  -0.00398  -0.00398  -0.00693
   D25       -3.14026  -0.00001   0.00000  -0.00033  -0.00033  -3.14059
   D26       -0.00542  -0.00008   0.00000  -0.00404  -0.00404  -0.00946
   D27        3.14157  -0.00005   0.00000  -0.00225  -0.00225   3.13932
   D28        0.00379   0.00003   0.00000   0.00169   0.00168   0.00548
   D29        3.12183   0.00011   0.00000   0.00616   0.00616   3.12798
   D30       -0.01866   0.00003   0.00000   0.00164   0.00164  -0.01702
   D31       -0.02469   0.00001   0.00000   0.00106   0.00106  -0.02363
   D32        3.11801  -0.00007   0.00000  -0.00346  -0.00346   3.11455
   D33       -0.00065   0.00004   0.00000   0.00121   0.00121   0.00056
   D34        3.13659  -0.00005   0.00000  -0.00249  -0.00249   3.13410
   D35       -3.13761   0.00013   0.00000   0.00601   0.00602  -3.13159
   D36       -0.00036   0.00004   0.00000   0.00231   0.00231   0.00195
   D37        3.14101  -0.00006   0.00000  -0.00332  -0.00332   3.13769
   D38       -0.00076  -0.00005   0.00000  -0.00271  -0.00272  -0.00348
   D39       -0.00168   0.00002   0.00000   0.00114   0.00114  -0.00053
   D40        3.13974   0.00003   0.00000   0.00175   0.00175   3.14149
   D41        3.14086   0.00009   0.00000   0.00465   0.00464  -3.13768
   D42       -0.00018   0.00004   0.00000   0.00239   0.00239   0.00221
   D43        0.00037   0.00001   0.00000   0.00015   0.00015   0.00053
   D44       -3.14067  -0.00004   0.00000  -0.00210  -0.00210   3.14041
   D45        0.00202  -0.00004   0.00000  -0.00195  -0.00195   0.00007
   D46        3.14121   0.00002   0.00000   0.00069   0.00069  -3.14128
   D47       -3.13939  -0.00005   0.00000  -0.00256  -0.00256   3.14123
   D48       -0.00020   0.00000   0.00000   0.00009   0.00009  -0.00011
   D49       -0.00105   0.00003   0.00000   0.00146   0.00146   0.00041
   D50       -3.14108  -0.00000   0.00000  -0.00005  -0.00005  -3.14113
   D51       -3.14023  -0.00002   0.00000  -0.00120  -0.00120  -3.14143
   D52        0.00292  -0.00006   0.00000  -0.00271  -0.00271   0.00021
   D53       -0.00026  -0.00000   0.00000  -0.00016  -0.00016  -0.00042
   D54       -3.14042  -0.00002   0.00000  -0.00086  -0.00086  -3.14128
   D55        3.13977   0.00003   0.00000   0.00135   0.00135   3.14112
   D56       -0.00039   0.00001   0.00000   0.00065   0.00065   0.00026
   D57        0.00059  -0.00002   0.00000  -0.00064  -0.00064  -0.00005
   D58       -3.14156   0.00003   0.00000   0.00163   0.00163  -3.13992
   D59        3.14076   0.00000   0.00000   0.00006   0.00006   3.14081
   D60       -0.00139   0.00005   0.00000   0.00233   0.00233   0.00094
         Item               Value     Threshold  Converged?
 Maximum Force            0.001316     0.000450     NO 
 RMS     Force            0.000257     0.000300     YES
 Maximum Displacement     0.032893     0.001800     NO 
 RMS     Displacement     0.011645     0.001200     NO 
 Predicted change in Energy=-1.775321D-05
 Lowest energy point so far.  Saving SCF results.
 GradGradGradGradGradGradGradGradGradGradGradGradGradGradGradGradGradGrad

 Leave Link  103 at Tue Sep 22 18:10:08 2020, MaxMem=  2147483648 cpu:               0.1 elap:               0.1
 (Enter /prod/apps/gaussian/g16b1/l202.exe)
                          Input orientation:                          
 ---------------------------------------------------------------------
 Center     Atomic      Atomic             Coordinates (Angstroms)
 Number     Number       Type             X           Y           Z
 ---------------------------------------------------------------------
      1          8           0       -3.383105   -0.541799    1.494857
      2         16           0       -3.607429    0.119064    0.202922
      3          7           0       -2.192020    0.869513   -0.352690
      4          6           0       -0.927861    0.303611   -0.225650
      5          7           0       -0.759450   -1.004773   -0.165595
      6          8           0        0.630712   -1.181130   -0.085956
      7          6           0        1.244254    0.026307   -0.113250
      8          6           0        2.700698    0.040134   -0.036510
      9          6           0        3.396122    1.260101   -0.076664
     10          6           0        4.785807    1.274949    0.001173
     11          6           0        5.496156    0.077121    0.119521
     12          6           0        4.809092   -1.138235    0.159267
     13          6           0        3.418941   -1.160181    0.081873
     14          6           0        0.302476    1.013696   -0.202288
     15          6           0       -3.881845   -1.136275   -1.038248
     16          8           0       -4.625452    1.172214    0.107692
     17          1           0       -2.242836    1.884093   -0.255927
     18          1           0        2.847808    2.191360   -0.168108
     19          1           0        5.315073    2.221250   -0.030250
[...]
 Alpha virt. eigenvalues --    0.10698   0.12062   0.12466   0.12612   0.12891
 Alpha virt. eigenvalues --    0.13343   0.13720   0.13869   0.14048   0.14498
 Alpha virt. eigenvalues --    0.14857   0.14949   0.15348   0.15880   0.16142
 Alpha virt. eigenvalues --    0.16404   0.16576   0.17635   0.17651   0.17950
 Alpha virt. eigenvalues --    0.18561   0.18937   0.19345   0.20108   0.20231
 Alpha virt. eigenvalues --    0.20381   0.21028   0.21713   0.22306   0.22882
 Alpha virt. eigenvalues --    0.23193   0.23688   0.24335   0.24596   0.25585
 Alpha virt. eigenvalues --    0.25833   0.26105   0.26876   0.26994   0.27288
 Alpha virt. eigenvalues --    0.27464   0.28209   0.29027   0.29625   0.29986
 Alpha virt. eigenvalues --    0.30153   0.30974   0.31402   0.31601   0.32002
 Alpha virt. eigenvalues --    0.32460   0.33241   0.33484   0.33652   0.33838
 Alpha virt. eigenvalues --    0.33969   0.34503   0.35241   0.35497   0.35837
 Alpha virt. eigenvalues --    0.36254   0.36763   0.37164   0.37561   0.38341
 Alpha virt. eigenvalues --    0.38479   0.38797   0.39079   0.39352   0.39800
 Alpha virt. eigenvalues --    0.40227   0.40449   0.40607   0.41275   0.42385
 Alpha virt. eigenvalues --    0.42796   0.43138   0.43716   0.44271   0.44519
 Alpha virt. eigenvalues --    0.45388   0.45960   0.46332   0.46927   0.47032
 Alpha virt. eigenvalues --    0.47874   0.48741   0.49605   0.50735   0.51168
 Alpha virt. eigenvalues --    0.52009   0.52146   0.52421   0.53945   0.54199
 Alpha virt. eigenvalues --    0.55679   0.56289   0.56901   0.57214   0.57504
 Alpha virt. eigenvalues --    0.57834   0.57963   0.58644   0.59084   0.59343
 Alpha virt. eigenvalues --    0.59989   0.60418   0.60914   0.61323   0.62453
 Alpha virt. eigenvalues --    0.63159   0.63319   0.63904   0.64616   0.65279
 Alpha virt. eigenvalues --    0.65617   0.66133   0.66612   0.67457   0.67568
 Alpha virt. eigenvalues --    0.67939   0.68135   0.68287   0.68700   0.69765
 Alpha virt. eigenvalues --    0.69958   0.70308   0.70650   0.71361   0.71573
 Alpha virt. eigenvalues --    0.72500   0.72629   0.73654   0.74459   0.74695
 Alpha virt. eigenvalues --    0.75503   0.75651   0.76044   0.76624   0.77310
 Alpha virt. eigenvalues --    0.77708   0.78468   0.80854   0.81482   0.82322
 Alpha virt. eigenvalues --    0.83027   0.84186   0.85387   0.85590   0.86054
 Alpha virt. eigenvalues --    0.87567   0.88147   0.88831   0.89269   0.89872
 Alpha virt. eigenvalues --    0.90514   0.91195   0.91360   0.92027   0.92498
 Alpha virt. eigenvalues --    0.92837   0.93176   0.93800   0.94283   0.94723
 Alpha virt. eigenvalues --    0.95195   0.95909   0.96503   0.97106   0.97521
 Alpha virt. eigenvalues --    0.98969   0.99240   1.00238   1.01224   1.02570
 Alpha virt. eigenvalues --    1.02700   1.03324   1.04672   1.05175   1.05806
 Alpha virt. eigenvalues --    1.06534   1.07768   1.08964   1.10519   1.11212
 Alpha virt. eigenvalues --    1.12236   1.12367   1.13570   1.14455   1.15665
 Alpha virt. eigenvalues --    1.16140   1.16784   1.17214   1.18129   1.19410
 Alpha virt. eigenvalues --    1.20052   1.20902   1.21210   1.22792   1.23248
 Alpha virt. eigenvalues --    1.26019   1.26646   1.27822   1.28076   1.29228
 Alpha virt. eigenvalues --    1.31518   1.32157   1.32895   1.35115   1.35914
 Alpha virt. eigenvalues --    1.36841   1.37485   1.38685   1.39842   1.41505
 Alpha virt. eigenvalues --    1.42163   1.43818   1.44678   1.46010   1.47554
 Alpha virt. eigenvalues --    1.47921   1.50717   1.51110   1.51312   1.51968
 Alpha virt. eigenvalues --    1.52181   1.52979   1.53701   1.54557   1.56684
 Alpha virt. eigenvalues --    1.57135   1.57885   1.58345   1.59831   1.60786
 Alpha virt. eigenvalues --    1.61448   1.61683   1.62512   1.63728   1.64908
 Alpha virt. eigenvalues --    1.66758   1.67084   1.68533   1.69821   1.70106
 Alpha virt. eigenvalues --    1.70624   1.71188   1.71613   1.73618   1.73878
 Alpha virt. eigenvalues --    1.75118   1.76347   1.76919   1.78230   1.79538
 Alpha virt. eigenvalues --    1.80128   1.81698   1.82934   1.83484   1.84684
 Alpha virt. eigenvalues --    1.86162   1.86960   1.87573   1.88752   1.89285
 Alpha virt. eigenvalues --    1.89486   1.91090   1.91297   1.92239   1.93917
 Alpha virt. eigenvalues --    1.94901   1.95389   1.95986   1.97041   1.97943
 Alpha virt. eigenvalues --    1.98979   1.99806   2.00175   2.01125   2.02977
 Alpha virt. eigenvalues --    2.03466   2.05407   2.06208   2.08343   2.08779
 Alpha virt. eigenvalues --    2.09673   2.12338   2.12426   2.13159   2.14468
 Alpha virt. eigenvalues --    2.16431   2.17249   2.17956   2.18849   2.19901
 Alpha virt. eigenvalues --    2.21140   2.22486   2.23295   2.24967   2.26309
 Alpha virt. eigenvalues --    2.27863   2.28008   2.29225   2.30018   2.31386
 Alpha virt. eigenvalues --    2.31849   2.33440   2.33911   2.35329   2.35824
 Alpha virt. eigenvalues --    2.36446   2.37047   2.37182   2.38155   2.39786
 Alpha virt. eigenvalues --    2.41377   2.43997   2.46074   2.47295   2.48473
 Alpha virt. eigenvalues --    2.49252   2.53543   2.56282   2.58628   2.60091
 Alpha virt. eigenvalues --    2.61536   2.63827   2.65699   2.66774   2.69275
 Alpha virt. eigenvalues --    2.75046   2.76546   2.78083   2.79219   2.79770
 Alpha virt. eigenvalues --    2.81090   2.81602   2.82307   2.83579   2.85783
 Alpha virt. eigenvalues --    2.86544   2.90333   2.90936   2.93697   2.95312
 Alpha virt. eigenvalues --    2.98731   3.00434   3.02428   3.03805   3.05375
 Alpha virt. eigenvalues --    3.12934   3.15085   3.15524   3.17458   3.19883
 Alpha virt. eigenvalues --    3.25104   3.32286   3.35565   3.39134   3.42320
 Alpha virt. eigenvalues --    3.44935   3.47109   3.51527   3.60250   3.64114
 Alpha virt. eigenvalues --    3.72967   3.73909   3.75823   3.75987   3.76516
 Alpha virt. eigenvalues --    3.78531   3.80176   3.80661   3.82475   3.85167
 Alpha virt. eigenvalues --    3.88805   3.89820   3.92405   3.96431   4.00387
 Alpha virt. eigenvalues --    4.03112   4.12493   4.29312   4.62278   4.88203
          Condensed to atoms (all electrons):
               1          2          3          4          5          6
     1  O    9.155754  -0.227857   0.087366  -0.031513   0.036548   0.000490
     2  S   -0.227857  13.717164  -0.095166   0.016078  -0.041774  -0.026484
     3  N    0.087366  -0.095166   8.353078  -0.793372  -0.076117  -0.045564
     4  C   -0.031513   0.016078  -0.793372  12.083065  -0.707652   0.515553
     5  N    0.036548  -0.041774  -0.076117  -0.707652   9.046766  -1.002923
     6  O    0.000490  -0.026484  -0.045564   0.515553  -1.002923  10.174881
     7  C   -0.009134   0.107799   0.217177  -0.712767  -0.998529  -0.147890
     8  C   -0.002503   0.012612  -0.069437   0.432127   0.283444   0.352223
     9  C   -0.000019  -0.011258   0.057617  -0.469539   0.258513  -0.107927
    10  C    0.000144  -0.001690  -0.019409   0.033715   0.043450   0.039614
    11  C   -0.000055   0.000034   0.005351  -0.077661   0.003688  -0.040872
    12  C   -0.000282   0.002444  -0.005085   0.196155  -0.044344  -0.038200
    13  C   -0.003898   0.015814   0.047936  -0.292308  -0.272385  -0.183187
    14  C    0.040353  -0.283163   0.058962  -4.584010   0.772562  -0.317773
    15  C    0.048920   0.346273  -0.085597  -0.029937   0.034304  -0.013489
    16  O    0.011546  -0.044736   0.018224  -0.036387   0.023700   0.001258
    17  H    0.004062  -0.102123   0.342687   0.094820  -0.020866   0.011056
    18  H   -0.000824   0.001869   0.003931   0.038104  -0.007788   0.008064
    19  H    0.000011  -0.000027  -0.000672   0.005278   0.001258   0.001176
    20  H   -0.000004   0.000012   0.000187  -0.002947   0.000403  -0.000346
    21  H    0.000003  -0.000036  -0.000389   0.003181  -0.002704   0.003930
    22  H   -0.000623   0.001993   0.004214  -0.006064  -0.019948  -0.097966
    23  H    0.002609   0.000523  -0.050951   0.587760  -0.040452  -0.003567
    24  H    0.034115  -0.022221  -0.057728  -0.000649  -0.018831   0.000195
    25  H    0.015392  -0.087493   0.038313  -0.033787  -0.007468  -0.000490
    26  H    0.000402  -0.019338   0.020514   0.009408   0.018290  -0.001042
               7          8          9         10         11         12
     1  O   -0.009134  -0.002503  -0.000019   0.000144  -0.000055  -0.000282
     2  S    0.107799   0.012612  -0.011258  -0.001690   0.000034   0.002444
     3  N    0.217177  -0.069437   0.057617  -0.019409   0.005351  -0.005085
     4  C   -0.712767   0.432127  -0.469539   0.033715  -0.077661   0.196155
     5  N   -0.998529   0.283444   0.258513   0.043450   0.003688  -0.044344
     6  O   -0.147890   0.352223  -0.107927   0.039614  -0.040872  -0.038200
     7  C   19.415143  -4.108484  -0.836822  -0.631280   0.430583  -0.553259
     8  C   -4.108484  18.985844  -6.952756   2.188341  -3.507512   1.304973
     9  C   -0.836822  -6.952756  21.375338  -6.555659   3.526677  -3.118356
    10  C   -0.631280   2.188341  -6.555659  13.822049  -3.207990   3.492662
    11  C    0.430583  -3.507512   3.526677  -3.207990   9.142297  -2.826059
    12  C   -0.553259   1.304973  -3.118356   3.492662  -2.826059  11.662450
    13  C   -0.304443  -5.330726  -0.181375  -3.272887   2.455498  -3.964940
    14  C   -6.855244   0.121324  -1.116831   0.605212  -0.265142  -0.063752
    15  C   -0.051181  -0.000309   0.000307   0.001124  -0.000325  -0.000595
    16  O    0.004099  -0.001189   0.001030   0.000019   0.000007  -0.000047
    17  H    0.023765  -0.001364  -0.005601  -0.003855  -0.000081   0.001662
    18  H   -0.122077   0.837506  -1.228363   0.233554  -0.116205   0.082194
    19  H   -0.043441  -0.145686   0.916670  -0.975198   0.309164  -0.266605
    20  H   -0.010075   0.027129  -0.085549   0.267167  -0.525043   0.357720
    21  H   -0.001228  -0.132687   0.086488  -0.224808   0.296970  -0.767192
    22  H    0.227116   0.273420  -0.087334   0.053384  -0.088722   0.329396
    23  H    0.749821  -0.014746  -0.031637   0.075982  -0.028421   0.009571
    24  H    0.012193  -0.002574   0.000542   0.000091  -0.000100  -0.000024
    25  H   -0.023917  -0.000147   0.000374   0.000155  -0.000020  -0.000019
    26  H    0.003748   0.000254  -0.000232   0.000018  -0.000018   0.000017
              13         14         15         16         17         18
     1  O   -0.003898   0.040353   0.048920   0.011546   0.004062  -0.000824
     2  S    0.015814  -0.283163   0.346273  -0.044736  -0.102123   0.001869
     3  N    0.047936   0.058962  -0.085597   0.018224   0.342687   0.003931
     4  C   -0.292308  -4.584010  -0.029937  -0.036387   0.094820   0.038104
     5  N   -0.272385   0.772562   0.034304   0.023700  -0.020866  -0.007788
     6  O   -0.183187  -0.317773  -0.013489   0.001258   0.011056   0.008064
     7  C   -0.304443  -6.855244  -0.051181   0.004099   0.023765  -0.122077
     8  C   -5.330726   0.121324  -0.000309  -0.001189  -0.001364   0.837506
     9  C   -0.181375  -1.116831   0.000307   0.001030  -0.005601  -1.228363
    10  C   -3.272887   0.605212   0.001124   0.000019  -0.003855   0.233554
    11  C    2.455498  -0.265142  -0.000325   0.000007  -0.000081  -0.116205
    12  C   -3.964940  -0.063752  -0.000595  -0.000047   0.001662   0.082194
    13  C   18.736778  -1.641196  -0.008818  -0.000470   0.002134  -0.096984
    14  C   -1.641196  19.181684   0.021983   0.018722  -0.099143   0.147492
    15  C   -0.008818   0.021983   4.597366  -0.012232   0.006293  -0.001669
    16  O   -0.000470   0.018722  -0.012232   9.119478   0.016585   0.000067
    17  H    0.002134  -0.099143   0.006293   0.016585   0.782594  -0.000093
    18  H   -0.096984   0.147492  -0.001669   0.000067  -0.000093   1.994984
    19  H    0.112623   0.046760   0.000059  -0.000001  -0.000138  -0.079150
    20  H   -0.059692   0.001054  -0.000016   0.000000   0.000010  -0.016876
    21  H    0.685038   0.001912   0.000025  -0.000001   0.000018   0.009083
    22  H   -0.798116  -0.033127  -0.001071  -0.000017  -0.000243  -0.012941
    23  H   -0.021301  -1.507847   0.011038  -0.001134   0.016298  -0.092180
    24  H   -0.000824  -0.027783   0.401066   0.007733   0.000320  -0.000124
    25  H   -0.000391   0.052481   0.334745   0.013517  -0.005756  -0.000123
    26  H   -0.000198  -0.013437   0.291123   0.004499   0.002591  -0.000019
              19         20         21         22         23         24
     1  O    0.000011  -0.000004   0.000003  -0.000623   0.002609   0.034115
     2  S   -0.000027   0.000012  -0.000036   0.001993   0.000523  -0.022221
     3  N   -0.000672   0.000187  -0.000389   0.004214  -0.050951  -0.057728
     4  C    0.005278  -0.002947   0.003181  -0.006064   0.587760  -0.000649
     5  N    0.001258   0.000403  -0.002704  -0.019948  -0.040452  -0.018831
     6  O    0.001176  -0.000346   0.003930  -0.097966  -0.003567   0.000195
     7  C   -0.043441  -0.010075  -0.001228   0.227116   0.749821   0.012193
     8  C   -0.145686   0.027129  -0.132687   0.273420  -0.014746  -0.002574
     9  C    0.916670  -0.085549   0.086488  -0.087334  -0.031637   0.000542
    10  C   -0.975198   0.267167  -0.224808   0.053384   0.075982   0.000091
    11  C    0.309164  -0.525043   0.296970  -0.088722  -0.028421  -0.000100
    12  C   -0.266605   0.357720  -0.767192   0.329396   0.009571  -0.000024
    13  C    0.112623  -0.059692   0.685038  -0.798116  -0.021301  -0.000824
    14  C    0.046760   0.001054   0.001912  -0.033127  -1.507847  -0.027783
    15  C    0.000059  -0.000016   0.000025  -0.001071   0.011038   0.401066
    16  O   -0.000001   0.000000  -0.000001  -0.000017  -0.001134   0.007733
    17  H   -0.000138   0.000010   0.000018  -0.000243   0.016298   0.000320
    18  H   -0.079150  -0.016876   0.009083  -0.012941  -0.092180  -0.000124
    19  H    1.662083  -0.052318  -0.020551   0.006941  -0.000210   0.000000
    20  H   -0.052318   1.598880  -0.057390  -0.010688   0.000200  -0.000004
    21  H   -0.020551  -0.057390   1.645825  -0.086950   0.000585   0.000022
    22  H    0.006941  -0.010688  -0.086950   2.003549  -0.001642  -0.000281
    23  H   -0.000210   0.000200   0.000585  -0.001642   1.893878   0.002725
    24  H    0.000000  -0.000004   0.000022  -0.000281   0.002725   0.790086
    25  H    0.000009  -0.000001   0.000004  -0.000124   0.000328  -0.045321
    26  H    0.000002  -0.000001  -0.000000   0.000025  -0.000378  -0.112687
              25         26
     1  O    0.015392   0.000402
     2  S   -0.087493  -0.019338
     3  N    0.038313   0.020514
     4  C   -0.033787   0.009408
     5  N   -0.007468   0.018290
     6  O   -0.000490  -0.001042
     7  C   -0.023917   0.003748
     8  C   -0.000147   0.000254
     9  C    0.000374  -0.000232
    10  C    0.000155   0.000018
    11  C   -0.000020  -0.000018
    12  C   -0.000019   0.000017
    13  C   -0.000391  -0.000198
    14  C    0.052481  -0.013437
    15  C    0.334745   0.291123
    16  O    0.013517   0.004499
    17  H   -0.005756   0.002591
    18  H   -0.000123  -0.000019
    19  H    0.000009   0.000002
    20  H   -0.000001  -0.000001
    21  H    0.000004  -0.000000
    22  H   -0.000124   0.000025
    23  H    0.000328  -0.000378
    24  H   -0.045321  -0.112687
    25  H    0.823278  -0.094230
    26  H   -0.094230   0.866626
 Mulliken charges:
               1
     1  O   -1.161002
     2  S    2.740750
     3  N   -0.956074
     4  C   -0.236652
     5  N   -0.261148
     6  O   -1.080722
     7  C    0.218328
     8  C    1.450922
     9  C    0.565702
    10  C    0.036096
    11  C    0.513956
    12  C    0.209515
    13  C    0.378317
    14  C    1.737946
    15  C    0.110613
    16  O   -1.144269
    17  H   -0.065634
    18  H   -0.581433
    19  H   -0.478037
    20  H   -0.431814
    21  H   -0.439149
    22  H   -0.654180
    23  H   -0.556852
    24  H    0.040064
    25  H    0.020692
    26  H    0.024065
 Sum of Mulliken charges =  -0.00000
 Mulliken charges with hydrogens summed into heavy atoms:
               1
     1  O   -1.161002
     2  S    2.740750
     3  N   -1.021708
     4  C   -0.236652
     5  N   -0.261148
     6  O   -1.080722
     7  C    0.218328
     8  C    1.450922
     9  C   -0.015730
    10  C   -0.441941
    11  C    0.082142
    12  C   -0.229635
    13  C   -0.275864
    14  C    1.181095
    15  C    0.195434
    16  O   -1.144269
 Electronic spatial extent (au):  <R**2>=           5862.4233
 Charge=             -0.0000 electrons
 Dipole moment (field-independent basis, Debye):
    X=              5.1101    Y=              1.4599    Z=             -3.4270  Tot=              6.3237
 Quadrupole moment (field-independent basis, Debye-Ang):
   XX=            -97.2186   YY=            -92.6838   ZZ=           -108.5405
   XY=              8.7722   XZ=             14.1730   YZ=              2.0354
 Traceless Quadrupole moment (field-independent basis, Debye-Ang):
   XX=              2.2624   YY=              6.7972   ZZ=             -9.0595
   XY=              8.7722   XZ=             14.1730   YZ=              2.0354
 Octapole moment (field-independent basis, Debye-Ang**2):
  XXX=            131.9722  YYY=              9.2307  ZZZ=             -6.2116  XYY=              3.9555
  XXY=            -61.0358  XXZ=            -41.8237  XZZ=            -26.2206  YZZ=             -1.3678
  YYZ=             -2.0147  XYZ=            -14.1219
 Hexadecapole moment (field-independent basis, Debye-Ang**3):
 XXXX=          -6665.8009 YYYY=           -592.6825 ZZZZ=           -269.8089 XXXY=            296.9211
 XXXZ=            209.2522 YYYX=             -3.8504 YYYZ=             -5.5669 ZZZX=             21.1828
 ZZZY=              6.2920 XXYY=          -1187.5441 XXZZ=          -1320.2668 YYZZ=           -163.1616
 XXYZ=             24.4932 YYXZ=              9.0404 ZZXY=            -11.4176
 N-N= 1.171556954518D+03 E-N=-4.968952349259D+03  KE= 1.114177880365D+03
 Leave Link  601 at Tue Sep 22 18:53:41 2020, MaxMem=   262144000 cpu:               0.8 elap:               0.3
 (Enter /prod/apps/gaussian/g16b1/l9999.exe)
 1\1\GINC-PIRINEUS21\SP\RMP2-FC\Aug-CC-pVDZ\C10H10N2O3S1\UBAFAR01\22-Se
 p-2020\0\\#p mp2/aug-cc-pVDZ scf=(MaxCycle=2000,NoVarAcc,NoIncFock) ma
 xdisk=120GB geom=allcheck\\SM41_m0.n.10.pdb.xyz\\0,1\O,0,-3.3758871524
 ,-0.5421528323,1.495690048\S,0,-3.6055834636,0.1177777516,0.2039957297
 \N,0,-2.1939609368,0.8719762373,-0.3589313809\C,0,-0.9285635493,0.3056
 033194,-0.2329414266\N,0,-0.7592641824,-1.0028322838,-0.1856775696\O,0
 ,0.6305395842,-1.1790003363,-0.1065856172\C,0,1.2435957307,0.029270185
 ,-0.1187269777\C,0,2.6999429694,0.0420603991,-0.0388430816\C,0,3.39741
 53531,1.2606996965,-0.0823540493\C,0,4.7870278168,1.2733828296,-0.0012
 23634\C,0,5.4952321979,0.0749789978,0.1232166995\C,0,4.8061476331,-1.1
 392317128,0.1659128331\C,0,3.4162290434,-1.159004269,0.08559298\C,0,0.
 3008396157,1.0166015315,-0.1980453991\C,0,-3.8805157306,-1.1386238629,
 -1.0367696113\O,0,-4.6263699754,1.1691483848,0.1134733633\H,0,-2.24218
 12509,1.8848323893,-0.2419753265\H,0,2.8516146039,2.1927834382,-0.1800
 378914\H,0,5.3180415193,2.2186325744,-0.0354777158\H,0,6.5780231618,0.
 0881684628,0.186477829\H,0,5.3513754624,-2.0718759299,0.262780394\H,0,
 2.8778841584,-2.0984998912,0.1199801768\H,0,0.4433198861,2.0843231499,
 -0.2223349455\H,0,-2.9909999314,-1.7674280981,-1.0696006196\H,0,-4.055
 7214442,-0.6484912072,-1.9931287392\H,0,-4.7531811192,-1.7130989237,-0
 .7244660682\\Version=ES64L-G16RevB.01\State=1-A\HF=-1115.472371\MP2=-1
 117.9240153\RMSD=5.959e-09\PG=C01 [X(C10H10N2O3S1)]\\@


 HERE WE GO......
 SLIDING DOWN THE RAZOR BLADE OF LIFE......
                                 TOM LEHRER
 Job cpu time:       0 days  0 hours 56 minutes 46.0 seconds.
 Elapsed time:       0 days  0 hours 15 minutes 19.0 seconds.
 File lengths (MBytes):  RWF=  34846 Int=      0 D2E=      0 Chk=     19 Scr=      1
 Normal termination of Gaussian 16 at Tue Sep 22 18:53:43 2020.
