 Entering Gaussian System, Link 0=g16
 Initial command:
 /prod/apps/gaussian/g16b1/l1.exe "/tmp/ubafar01/1460519/Gau-182817.inp" -scrdir="/tmp/ubafar01/1460519/"
 Entering Link 1 = /prod/apps/gaussian/g16b1/l1.exe PID=    182819.
  
 Copyright (c) 1988-2017, Gaussian, Inc.  All Rights Reserved.
  
 This is part of the Gaussian(R) 16 program.  It is based on
 the Gaussian(R) 09 system (copyright 2009, Gaussian, Inc.),
 the Gaussian(R) 03 system (copyright 2003, Gaussian, Inc.),
 the Gaussian(R) 98 system (copyright 1998, Gaussian, Inc.),
 the Gaussian(R) 94 system (copyright 1995, Gaussian, Inc.),
 the Gaussian 92(TM) system (copyright 1992, Gaussian, Inc.),
 the Gaussian 90(TM) system (copyright 1990, Gaussian, Inc.),
 the Gaussian 88(TM) system (copyright 1988, Gaussian, Inc.),
 the Gaussian 86(TM) system (copyright 1986, Carnegie Mellon
 University), and the Gaussian 82(TM) system (copyright 1983,
 Carnegie Mellon University). Gaussian is a federally registered
 trademark of Gaussian, Inc.
  
 This software contains proprietary and confidential information,
 including trade secrets, belonging to Gaussian, Inc.
  
 This software is provided under written license and may be
 used, copied, transmitted, or stored only in accord with that
 written license.
  
 The following legend is applicable only to US Government
 contracts under FAR:
  
                    RESTRICTED RIGHTS LEGEND
  
 Use, reproduction and disclosure by the US Government is
 subject to restrictions as set forth in subparagraphs (a)
 and (c) of the Commercial Computer Software - Restricted
 Rights clause in FAR 52.227-19.
  
 Gaussian, Inc.
 340 Quinnipiac St., Bldg. 40, Wallingford CT 06492
  
  
 ---------------------------------------------------------------
 Warning -- This program may not be used in any manner that
 competes with the business of Gaussian, Inc. or will provide
 assistance to any competitor of Gaussian, Inc.  The licensee
 of this program is prohibited from giving any competitor of
 Gaussian, Inc. access to this program.  By using this program,
 the user acknowledges that Gaussian, Inc. is engaged in the
 business of creating and licensing software in the field of
 computational chemistry and represents and warrants to the
 licensee that it is not a competitor of Gaussian, Inc. and that
 it will not use this program in any manner prohibited above.
 ---------------------------------------------------------------
  

 Cite this work as:
 Gaussian 16, Revision B.01,
 M. J. Frisch, G. W. Trucks, H. B. Schlegel, G. E. Scuseria, 
 M. A. Robb, J. R. Cheeseman, G. Scalmani, V. Barone, 
 G. A. Petersson, H. Nakatsuji, X. Li, M. Caricato, A. V. Marenich, 
 J. Bloino, B. G. Janesko, R. Gomperts, B. Mennucci, H. P. Hratchian, 
 J. V. Ortiz, A. F. Izmaylov, J. L. Sonnenberg, D. Williams-Young, 
 F. Ding, F. Lipparini, F. Egidi, J. Goings, B. Peng, A. Petrone, 
 T. Henderson, D. Ranasinghe, V. G. Zakrzewski, J. Gao, N. Rega, 
 G. Zheng, W. Liang, M. Hada, M. Ehara, K. Toyota, R. Fukuda, 
 J. Hasegawa, M. Ishida, T. Nakajima, Y. Honda, O. Kitao, H. Nakai, 
 T. Vreven, K. Throssell, J. A. Montgomery, Jr., J. E. Peralta, 
 F. Ogliaro, M. J. Bearpark, J. J. Heyd, E. N. Brothers, K. N. Kudin, 
 V. N. Staroverov, T. A. Keith, R. Kobayashi, J. Normand, 
 K. Raghavachari, A. P. Rendell, J. C. Burant, S. S. Iyengar, 
 J. Tomasi, M. Cossi, J. M. Millam, M. Klene, C. Adamo, R. Cammi, 
 J. W. Ochterski, R. L. Martin, K. Morokuma, O. Farkas, 
 J. B. Foresman, and D. J. Fox, Gaussian, Inc., Wallingford CT, 2016.
 
 ******************************************
 Gaussian 16:  ES64L-G16RevB.01 20-Dec-2017
                22-Sep-2020 
 ******************************************
 %nproc=4
 Will use up to    4 processors via shared memory.
 %Chk=SM41_m0.n.4.pdb.xyz.mst.n.w.chk
 %mem=16GB
 ----------------------------------------------------------------------
 #p b3lyp/6-31G(d) opt freq NoSymm scf=(MaxCycle=2000,NoVarAcc,NoIncFoc
 k) scrf=(iefpcm,read,solvent=water)
 ----------------------------------------------------------------------
 1/18=20,19=15,26=3,38=1,40=2/1,3;
 2/9=110,12=2,15=1,17=6,18=5,40=1/2;
 3/5=1,6=6,7=1,11=2,25=1,30=1,70=2203,71=1,72=1,74=-5/1,2,3;
 4//1;
 5/5=100002,7=2000,38=1,53=1/2;
 6/7=2,8=2,9=2,10=2,28=1/1;
 7/30=1/1,2,3,16;
 1/18=20,19=15,26=3/3(2);
 2/9=110,15=1/2;
 99//99;
 2/9=110,15=1/2;
 3/5=1,6=6,7=1,11=2,25=1,30=1,70=2205,71=1,72=1,74=-5/1,2,3;
 4/5=5,16=3,69=1/1;
 5/5=100002,7=2000,38=1,53=1/2;
 7/30=1/1,2,3,16;
 1/18=20,19=15,26=3/3(-5);
 2/9=110,15=1/2;
 6/7=2,8=2,9=2,10=2,19=2,28=1/1;
 99/9=1/99;
 Leave Link    1 at Tue Sep 22 18:09:12 2020, MaxMem=  2147483648 cpu:               0.1 elap:               0.0
 (Enter /prod/apps/gaussian/g16b1/l101.exe)
 -------------------
 SM41_m0.n.4.pdb.xyz
 -------------------
 Symbolic Z-matrix:
 Charge =  0 Multiplicity = 1
 O                    -4.655     1.134    -0.04 
 S                    -3.644     0.071    -0.059 
 N                    -2.182     0.902    -0.244 
 C                    -0.925     0.307    -0.19 
 N                    -0.756    -1.001    -0.245 
 O                     0.637    -1.18     -0.184 
 C                     1.248     0.026    -0.096 
 C                     2.703     0.04     -0.022 
 C                     3.39      1.263     0.049 
 C                     4.78      1.28      0.122 
 C                     5.499     0.082     0.126 
 C                     4.821    -1.136     0.053 
 C                     3.43     -1.161    -0.02 
 C                     0.303     1.014    -0.095 
 C                    -3.564    -0.712     1.55 
 O                    -3.705    -0.973    -1.086 
 H                    -2.235     1.865     0.085 
 H                     2.836     2.194     0.047 
 H                     5.303     2.229     0.178 
 H                     6.583     0.098     0.183 
 H                     5.374    -2.07      0.055 
 H                     2.902    -2.105    -0.075 
 H                     0.444     2.081    -0.035 
 H                    -3.494     0.064     2.312 
 H                    -2.693    -1.367     1.57 
 H                    -4.48     -1.291     1.669 
 
 ITRead=  0  0  0  0  0  0  0  0  0  0  0  0  0  0  0  0  0  0  0  0
 ITRead=  0  0  0  0  0  0
 MicOpt= -1 -1 -1 -1 -1 -1 -1 -1 -1 -1 -1 -1 -1 -1 -1 -1 -1 -1 -1 -1
 MicOpt= -1 -1 -1 -1 -1 -1
 NAtoms=     26 NQM=       26 NQMF=       0 NMMI=      0 NMMIF=      0
                NMic=       0 NMicF=      0.
                    Isotopes and Nuclear Properties:
 (Nuclear quadrupole moments (NQMom) in fm**2, nuclear magnetic moments (NMagM)
  in nuclear magnetons)

  Atom         1           2           3           4           5           6           7           8           9          10
 IAtWgt=          16          32          14          12          14          16          12          12          12          12
 AtmWgt=  15.9949146  31.9720718  14.0030740  12.0000000  14.0030740  15.9949146  12.0000000  12.0000000  12.0000000  12.0000000
 NucSpn=           0           0           2           0           2           0           0           0           0           0
 AtZEff=  -0.0000000  -0.0000000  -0.0000000  -0.0000000  -0.0000000  -0.0000000  -0.0000000  -0.0000000  -0.0000000  -0.0000000
 NQMom=    0.0000000   0.0000000   2.0440000   0.0000000   2.0440000   0.0000000   0.0000000   0.0000000   0.0000000   0.0000000
 NMagM=    0.0000000   0.0000000   0.4037610   0.0000000   0.4037610   0.0000000   0.0000000   0.0000000   0.0000000   0.0000000
 AtZNuc=   8.0000000  16.0000000   7.0000000   6.0000000   7.0000000   8.0000000   6.0000000   6.0000000   6.0000000   6.0000000

  Atom        11          12          13          14          15          16          17          18          19          20
 IAtWgt=          12          12          12          12          12          16           1           1           1           1
 AtmWgt=  12.0000000  12.0000000  12.0000000  12.0000000  12.0000000  15.9949146   1.0078250   1.0078250   1.0078250   1.0078250
 NucSpn=           0           0           0           0           0           0           1           1           1           1
 AtZEff=  -0.0000000  -0.0000000  -0.0000000  -0.0000000  -0.0000000  -0.0000000  -0.0000000  -0.0000000  -0.0000000  -0.0000000
 NQMom=    0.0000000   0.0000000   0.0000000   0.0000000   0.0000000   0.0000000   0.0000000   0.0000000   0.0000000   0.0000000
 NMagM=    0.0000000   0.0000000   0.0000000   0.0000000   0.0000000   0.0000000   2.7928460   2.7928460   2.7928460   2.7928460
 AtZNuc=   6.0000000   6.0000000   6.0000000   6.0000000   6.0000000   8.0000000   1.0000000   1.0000000   1.0000000   1.0000000

  Atom        21          22          23          24          25          26
 IAtWgt=           1           1           1           1           1           1
 AtmWgt=   1.0078250   1.0078250   1.0078250   1.0078250   1.0078250   1.0078250
 NucSpn=           1           1           1           1           1           1
 AtZEff=  -0.0000000  -0.0000000  -0.0000000  -0.0000000  -0.0000000  -0.0000000
 NQMom=    0.0000000   0.0000000   0.0000000   0.0000000   0.0000000   0.0000000
 NMagM=    2.7928460   2.7928460   2.7928460   2.7928460   2.7928460   2.7928460
 AtZNuc=   1.0000000   1.0000000   1.0000000   1.0000000   1.0000000   1.0000000
 Leave Link  101 at Tue Sep 22 18:09:12 2020, MaxMem=  2147483648 cpu:               1.3 elap:               0.3
 (Enter /prod/apps/gaussian/g16b1/l103.exe)

 GradGradGradGradGradGradGradGradGradGradGradGradGradGradGradGradGradGrad
 Berny optimization.
 Initialization pass.
                           ----------------------------
                           !    Initial Parameters    !
                           ! (Angstroms and Degrees)  !
 --------------------------                            --------------------------
 ! Name  Definition              Value          Derivative Info.                !
 --------------------------------------------------------------------------------
 ! R1    R(1,2)                  1.4671         estimate D2E/DX2                !
 ! R2    R(2,3)                  1.6918         estimate D2E/DX2                !
 ! R3    R(2,15)                 1.7912         estimate D2E/DX2                !
 ! R4    R(2,16)                 1.4657         estimate D2E/DX2                !
 ! R5    R(3,4)                  1.3918         estimate D2E/DX2                !
 ! R6    R(3,17)                 1.019          estimate D2E/DX2                !
 ! R7    R(4,5)                  1.32           estimate D2E/DX2                !
 ! R8    R(4,14)                 1.4202         estimate D2E/DX2                !
 ! R9    R(5,6)                  1.4058         estimate D2E/DX2                !
 ! R10   R(6,7)                  1.3548         estimate D2E/DX2                !
 ! R11   R(7,8)                  1.4569         estimate D2E/DX2                !
 ! R12   R(7,14)                 1.3672         estimate D2E/DX2                !
 ! R13   R(8,9)                  1.4045         estimate D2E/DX2                !
 ! R14   R(8,13)                 1.4039         estimate D2E/DX2                !
 ! R15   R(9,10)                 1.392          estimate D2E/DX2                !
 ! R16   R(9,18)                 1.0834         estimate D2E/DX2                !
 ! R17   R(10,11)                1.3972         estimate D2E/DX2                !
 ! R18   R(10,19)                1.085          estimate D2E/DX2                !
 ! R19   R(11,12)                1.3959         estimate D2E/DX2                !
 ! R20   R(11,20)                1.0856         estimate D2E/DX2                !
 ! R21   R(12,13)                1.3931         estimate D2E/DX2                !
 ! R22   R(12,21)                1.0854         estimate D2E/DX2                !
 ! R23   R(13,22)                1.083          estimate D2E/DX2                !
 ! R24   R(14,23)                1.0779         estimate D2E/DX2                !
 ! R25   R(15,24)                1.0898         estimate D2E/DX2                !
 ! R26   R(15,25)                1.09           estimate D2E/DX2                !
 ! R27   R(15,26)                1.0902         estimate D2E/DX2                !
 ! A1    A(1,2,3)              103.947          estimate D2E/DX2                !
 ! A2    A(1,2,15)             109.6256         estimate D2E/DX2                !
 ! A3    A(1,2,16)             119.7666         estimate D2E/DX2                !
 ! A4    A(3,2,15)             105.9232         estimate D2E/DX2                !
 ! A5    A(3,2,16)             108.0113         estimate D2E/DX2                !
 ! A6    A(15,2,16)            108.6569         estimate D2E/DX2                !
 ! A7    A(2,3,4)              124.4894         estimate D2E/DX2                !
 ! A8    A(2,3,17)             112.5775         estimate D2E/DX2                !
 ! A9    A(4,3,17)             116.0056         estimate D2E/DX2                !
 ! A10   A(3,4,5)              122.5231         estimate D2E/DX2                !
 ! A11   A(3,4,14)             124.8012         estimate D2E/DX2                !
 ! A12   A(5,4,14)             112.6673         estimate D2E/DX2                !
 ! A13   A(4,5,6)              104.5503         estimate D2E/DX2                !
 ! A14   A(5,6,7)              109.6553         estimate D2E/DX2                !
 ! A15   A(6,7,8)              117.5315         estimate D2E/DX2                !
 ! A16   A(6,7,14)             109.3663         estimate D2E/DX2                !
 ! A17   A(8,7,14)             133.1021         estimate D2E/DX2                !
 ! A18   A(7,8,9)              119.9608         estimate D2E/DX2                !
 ! A19   A(7,8,13)             120.5974         estimate D2E/DX2                !
 ! A20   A(9,8,13)             119.4417         estimate D2E/DX2                !
 ! A21   A(8,9,10)             120.1127         estimate D2E/DX2                !
 ! A22   A(8,9,18)             119.8721         estimate D2E/DX2                !
 ! A23   A(10,9,18)            120.0152         estimate D2E/DX2                !
 ! A24   A(9,10,11)            120.2339         estimate D2E/DX2                !
 ! A25   A(9,10,19)            119.6505         estimate D2E/DX2                !
 ! A26   A(11,10,19)           120.1155         estimate D2E/DX2                !
 ! A27   A(10,11,12)           119.8716         estimate D2E/DX2                !
 ! A28   A(10,11,20)           120.0891         estimate D2E/DX2                !
 ! A29   A(12,11,20)           120.0391         estimate D2E/DX2                !
 ! A30   A(11,12,13)           120.2226         estimate D2E/DX2                !
 ! A31   A(11,12,21)           120.2165         estimate D2E/DX2                !
 ! A32   A(13,12,21)           119.5608         estimate D2E/DX2                !
 ! A33   A(8,13,12)            120.1173         estimate D2E/DX2                !
 ! A34   A(8,13,22)            119.5462         estimate D2E/DX2                !
 ! A35   A(12,13,22)           120.3365         estimate D2E/DX2                !
 ! A36   A(4,14,7)             103.7608         estimate D2E/DX2                !
 ! A37   A(4,14,23)            127.5608         estimate D2E/DX2                !
 ! A38   A(7,14,23)            128.6783         estimate D2E/DX2                !
 ! A39   A(2,15,24)            108.6438         estimate D2E/DX2                !
 ! A40   A(2,15,25)            108.3524         estimate D2E/DX2                !
 ! A41   A(2,15,26)            107.0195         estimate D2E/DX2                !
 ! A42   A(24,15,25)           111.3293         estimate D2E/DX2                !
 ! A43   A(24,15,26)           110.8437         estimate D2E/DX2                !
 ! A44   A(25,15,26)           110.5038         estimate D2E/DX2                !
 ! D1    D(1,2,3,4)            173.7346         estimate D2E/DX2                !
 ! D2    D(1,2,3,17)            24.2185         estimate D2E/DX2                !
 ! D3    D(15,2,3,4)            58.2204         estimate D2E/DX2                !
 ! D4    D(15,2,3,17)          -91.2957         estimate D2E/DX2                !
 ! D5    D(16,2,3,4)           -58.0474         estimate D2E/DX2                !
 ! D6    D(16,2,3,17)          152.4365         estimate D2E/DX2                !
 ! D7    D(1,2,15,24)          -48.7825         estimate D2E/DX2                !
 ! D8    D(1,2,15,25)         -169.8712         estimate D2E/DX2                !
 ! D9    D(1,2,15,26)           70.9533         estimate D2E/DX2                !
 ! D10   D(3,2,15,24)           62.7995         estimate D2E/DX2                !
 ! D11   D(3,2,15,25)          -58.2893         estimate D2E/DX2                !
 ! D12   D(3,2,15,26)         -177.4647         estimate D2E/DX2                !
 ! D13   D(16,2,15,24)         178.6296         estimate D2E/DX2                !
 ! D14   D(16,2,15,25)          57.5408         estimate D2E/DX2                !
 ! D15   D(16,2,15,26)         -61.6346         estimate D2E/DX2                !
 ! D16   D(2,3,4,5)             13.4306         estimate D2E/DX2                !
 ! D17   D(2,3,4,14)          -167.6989         estimate D2E/DX2                !
 ! D18   D(17,3,4,5)           162.0188         estimate D2E/DX2                !
 ! D19   D(17,3,4,14)          -19.1108         estimate D2E/DX2                !
 ! D20   D(3,4,5,6)            179.0266         estimate D2E/DX2                !
 ! D21   D(14,4,5,6)             0.0317         estimate D2E/DX2                !
 ! D22   D(3,4,14,7)          -178.9725         estimate D2E/DX2                !
 ! D23   D(3,4,14,23)            1.1216         estimate D2E/DX2                !
 ! D24   D(5,4,14,7)            -0.0047         estimate D2E/DX2                !
 ! D25   D(5,4,14,23)         -179.9105         estimate D2E/DX2                !
 ! D26   D(4,5,6,7)             -0.048          estimate D2E/DX2                !
 ! D27   D(5,6,7,8)            179.9689         estimate D2E/DX2                !
 ! D28   D(5,6,7,14)             0.0472         estimate D2E/DX2                !
 ! D29   D(6,7,8,9)            178.9836         estimate D2E/DX2                !
 ! D30   D(6,7,8,13)            -1.056          estimate D2E/DX2                !
 ! D31   D(14,7,8,9)            -1.1176         estimate D2E/DX2                !
 ! D32   D(14,7,8,13)          178.8428         estimate D2E/DX2                !
 ! D33   D(6,7,14,4)            -0.0263         estimate D2E/DX2                !
 ! D34   D(6,7,14,23)          179.8781         estimate D2E/DX2                !
 ! D35   D(8,7,14,4)          -179.9312         estimate D2E/DX2                !
 ! D36   D(8,7,14,23)           -0.0268         estimate D2E/DX2                !
 ! D37   D(7,8,9,10)           179.8956         estimate D2E/DX2                !
 ! D38   D(7,8,9,18)            -0.0963         estimate D2E/DX2                !
 ! D39   D(13,8,9,10)           -0.0653         estimate D2E/DX2                !
 ! D40   D(13,8,9,18)          179.9428         estimate D2E/DX2                !
 ! D41   D(7,8,13,12)         -179.9089         estimate D2E/DX2                !
 ! D42   D(7,8,13,22)            0.0584         estimate D2E/DX2                !
 ! D43   D(9,8,13,12)            0.0517         estimate D2E/DX2                !
 ! D44   D(9,8,13,22)         -179.981          estimate D2E/DX2                !
 ! D45   D(8,9,10,11)           -0.0443         estimate D2E/DX2                !
 ! D46   D(8,9,10,19)         -179.9131         estimate D2E/DX2                !
 ! D47   D(18,9,10,11)         179.9475         estimate D2E/DX2                !
 ! D48   D(18,9,10,19)           0.0788         estimate D2E/DX2                !
 ! D49   D(9,10,11,12)           0.1678         estimate D2E/DX2                !
 ! D50   D(9,10,11,20)         179.9996         estimate D2E/DX2                !
 ! D51   D(19,10,11,12)       -179.9641         estimate D2E/DX2                !
 ! D52   D(19,10,11,20)         -0.1322         estimate D2E/DX2                !
 ! D53   D(10,11,12,13)         -0.1814         estimate D2E/DX2                !
 ! D54   D(10,11,12,21)        179.957          estimate D2E/DX2                !
 ! D55   D(20,11,12,13)        179.9866         estimate D2E/DX2                !
 ! D56   D(20,11,12,21)          0.1251         estimate D2E/DX2                !
 ! D57   D(11,12,13,8)           0.0716         estimate D2E/DX2                !
 ! D58   D(11,12,13,22)       -179.8954         estimate D2E/DX2                !
 ! D59   D(21,12,13,8)         179.9341         estimate D2E/DX2                !
 ! D60   D(21,12,13,22)         -0.033          estimate D2E/DX2                !
 --------------------------------------------------------------------------------
 Trust Radius=3.00D-01 FncErr=1.00D-07 GrdErr=1.00D-06 EigMax=2.50D+02 EigMin=1.00D-04
 Number of steps in this run=    141 maximum allowed number of steps=    156.
 GradGradGradGradGradGradGradGradGradGradGradGradGradGradGradGradGradGrad

 Leave Link  103 at Tue Sep 22 18:09:12 2020, MaxMem=  2147483648 cpu:               0.1 elap:               0.0
 (Enter /prod/apps/gaussian/g16b1/l202.exe)
                          Input orientation:                          
 ---------------------------------------------------------------------
 Center     Atomic      Atomic             Coordinates (Angstroms)
 Number     Number       Type             X           Y           Z
 ---------------------------------------------------------------------
      1          8           0       -4.655000    1.134000   -0.040000
      2         16           0       -3.644000    0.071000   -0.059000
      3          7           0       -2.182000    0.902000   -0.244000
      4          6           0       -0.925000    0.307000   -0.190000
      5          7           0       -0.756000   -1.001000   -0.245000
      6          8           0        0.637000   -1.180000   -0.184000
      7          6           0        1.248000    0.026000   -0.096000
      8          6           0        2.703000    0.040000   -0.022000
      9          6           0        3.390000    1.263000    0.049000
     10          6           0        4.780000    1.280000    0.122000
     11          6           0        5.499000    0.082000    0.126000
     12          6           0        4.821000   -1.136000    0.053000
     13          6           0        3.430000   -1.161000   -0.020000
     14          6           0        0.303000    1.014000   -0.095000
     15          6           0       -3.564000   -0.712000    1.550000
     16          8           0       -3.705000   -0.973000   -1.086000
     17          1           0       -2.235000    1.865000    0.085000
     18          1           0        2.836000    2.194000    0.047000
     19          1           0        5.303000    2.229000    0.178000
     20          1           0        6.583000    0.098000    0.183000
     21          1           0        5.374000   -2.070000    0.055000
     22          1           0        2.902000   -2.105000   -0.075000
     23          1           0        0.444000    2.081000   -0.035000
     24          1           0       -3.494000    0.064000    2.312000
     25          1           0       -2.693000   -1.367000    1.570000
     26          1           0       -4.480000   -1.291000    1.669000
 ---------------------------------------------------------------------
                    Distance matrix (angstroms):
                    1          2          3          4          5
     1  O    0.000000
     2  S    1.467123   0.000000
     3  N    2.492222   1.691813   0.000000
     4  C    3.823523   2.732365   1.391758   0.000000
     5  N    4.449994   3.086150   2.378000   1.320019   0.000000
     6  O    5.777594   4.461792   3.505009   2.156629   1.405778
     7  C    6.006347   4.892347   3.543188   2.193109   2.256756
     8  C    7.438906   6.347184   4.965436   3.641689   3.619128
     9  C    8.046526   7.135102   5.591364   4.426091   4.733017
    10  C    9.437520   8.512239   6.981854   5.795783   5.998745
    11  C   10.209700   9.144878   7.733503   6.435702   6.358896
    12  C    9.744543   8.551352   7.299566   5.929402   5.586587
    13  C    8.404442   7.180586   5.983368   4.598907   4.195095
    14  C    4.959757   4.058245   2.491981   1.420161   2.281273
    15  C    2.669475   1.791192   2.780891   3.321187   3.345207
    16  O    2.536940   1.465737   2.558147   3.188984   3.066703
    17  H    2.531084   2.285706   1.019028   2.054042   3.241959
    18  H    7.566125   6.819733   5.189824   4.214506   4.816197
    19  H   10.020395   9.206625   7.613425   6.528207   6.879194
    20  H   11.287855  10.229898   8.812149   7.520164   7.433163
    21  H   10.528793   9.269369   8.124981   6.737029   6.229740
    22  H    8.221958   6.898213   5.909117   4.525141   3.824746
    23  H    5.186197   4.555482   2.886104   2.246166   3.314034
    24  H    2.832795   2.375750   2.992779   3.594275   3.894755
    25  H    3.563221   2.371895   2.949589   3.004280   2.679580
    26  H    2.971856   2.353704   3.708048   4.318276   4.197103
                    6          7          8          9         10
     6  O    0.000000
     7  C    1.354807   0.000000
     8  C    2.404787   1.456948   0.000000
     9  C    3.688028   2.477773   1.404542   0.000000
    10  C    4.828010   3.754339   2.423276   1.392019   0.000000
    11  C    5.032672   4.257161   2.800229   2.418382   1.397205
    12  C    4.190938   3.760156   2.423742   2.793381   2.417333
    13  C    2.797875   2.485130   1.403900   2.425312   2.793053
    14  C    2.221061   1.367176   2.591140   3.100372   4.490142
    15  C    4.568827   5.138998   6.504766   7.383207   8.696527
    16  O    4.439529   5.148816   6.574247   7.525088   8.861744
    17  H    4.194374   3.942838   5.265541   5.657237   7.039447
    18  H    4.033961   2.691174   2.159205   1.083366   2.149455
    19  H    5.789981   4.622911   3.404662   2.146943   1.085019
    20  H    6.092856   5.342775   3.885845   3.401533   2.156769
    21  H    4.825805   4.630323   3.404742   3.878812   3.402914
    22  H    2.449027   2.697650   2.154863   3.405429   3.876070
    23  H    3.270103   2.207524   3.044492   3.058610   4.412159
    24  H    4.984246   5.318503   6.622004   7.344946   8.644873
    25  H    3.768340   4.499721   5.799218   6.799502   8.059097
    26  H    5.443310   6.136750   7.498435   8.431146   9.734005
                   11         12         13         14         15
    11  C    0.000000
    12  C    1.395900   0.000000
    13  C    2.418083   1.393139   0.000000
    14  C    5.283548   5.005670   3.809774   0.000000
    15  C    9.208484   8.528131   7.182098   4.542994   0.000000
    16  O    9.343211   8.603288   7.216642   4.581955   2.652640
    17  H    7.936972   7.667735   6.423389   2.682917   3.248599
    18  H    3.399758   3.876746   3.407837   2.797973   7.187757
    19  H    2.156555   3.401643   3.878071   5.152742   9.442222
    20  H    1.085615   2.155064   3.401132   6.352538  10.270657
    21  H    2.156796   1.085435   2.147334   5.937053   9.163353
    22  H    3.401144   2.153580   1.083026   4.059971   6.811037
    23  H    5.438285   5.432767   4.407605   1.077947   5.135868
    24  H    9.254889   8.699558   7.408146   4.594927   1.089826
    25  H    8.443554   7.669084   6.329428   4.173416   1.089984
    26  H   10.190506   9.441614   8.089359   5.594802   1.090164
                   16         17         18         19         20
    16  O    0.000000
    17  H    3.403878   0.000000
    18  H    7.355152   5.081803   0.000000
    19  H    9.643369   7.547356   2.470724   0.000000
    20  H   10.421149   8.993832   4.295547   2.485877   0.000000
    21  H    9.215939   8.566330   4.962177   4.301345   2.485616
    22  H    6.779085   6.494249   4.301237   4.961085   4.297620
    23  H    5.257920   2.690371   2.396071   4.865918   6.455008
    24  H    3.558974   3.128612   7.052377   9.307437  10.299501
    25  H    2.869445   3.586198   6.750562   8.877212   9.492848
    26  H    2.879544   4.184426   8.264379  10.503360  11.248444
                   21         22         23         24         25
    21  H    0.000000
    22  H    2.475663   0.000000
    23  H    6.445448   4.854478   0.000000
    24  H    9.396245   7.163180   5.008447   0.000000
    25  H    8.238078   5.878324   4.930061   1.799979   0.000000
    26  H   10.015645   7.628765   6.206430   1.794901   1.791353
                   26
    26  H    0.000000
 Symmetry turned off by external request.
 Stoichiometry    C10H10N2O3S
 Framework group  C1[X(C10H10N2O3S)]
 Deg. of freedom    72
 Full point group                 C1      NOp   1
 Rotational constants (GHZ):           1.9042648           0.1830354           0.1740660
 Leave Link  202 at Tue Sep 22 18:09:12 2020, MaxMem=  2147483648 cpu:               0.0 elap:               0.0
 (Enter /prod/apps/gaussian/g16b1/l301.exe)
 Standard basis: 6-31G(d) (6D, 7F)
 Ernie: Thresh=  0.10000D-02 Tol=  0.10000D-05 Strict=F.
   264 basis functions,   512 primitive gaussians,   264 cartesian basis functions
    62 alpha electrons       62 beta electrons
       nuclear repulsion energy      1170.7987541011 Hartrees.
 IExCor=  402 DFT=T Ex+Corr=B3LYP ExCW=0 ScaHFX=  0.200000
 ScaDFX=  0.800000  0.720000  1.000000  0.810000 ScalE2=  1.000000  1.000000
 IRadAn=      5 IRanWt=     -1 IRanGd=            0 ICorTp=0 IEmpDi=  4
 NAtoms=   26 NActive=   26 NUniq=   26 SFac= 1.00D+00 NAtFMM=   60 NAOKFM=F Big=F
 Integral buffers will be    131072 words long.
 Raffenetti 2 integral format.
 Two-electron integral symmetry is turned off.
 Using the following non-standard input for PCM:
 MSTModel=DFT cav
 --- end of non-standard input.
 MST model for solvation energy: B3LYP parametrization.
 MST cavity parameters:
 ISph   IAn     Re0     Alpha   Atom Type   QCorr
 ------------------------------------------------
   1      8     1.40     1.25      O          F
   2     16     1.75     1.25      S          F
   3      7     1.50     1.25      NH         F
   4      6     1.50     1.25      C          F
   5      7     1.40     1.25      N          F
   6      8     1.40     1.25      O          F
   7      6     1.50     1.25      C          F
   8      6     1.50     1.25      C          F
   9      6     1.50     1.25      CH         F
  10      6     1.50     1.25      CH         F
  11      6     1.50     1.25      CH         F
  12      6     1.50     1.25      CH         F
  13      6     1.50     1.25      CH         F
  14      6     1.50     1.25      CH         F
  15      6     1.50     1.25      CH3        F
  16      8     1.40     1.25      O          F
  17      1     0.90     1.25      NH         F
  18      1     1.20     1.25      CH         F
  19      1     1.20     1.25      CH         F
  20      1     1.20     1.25      CH         F
  21      1     1.20     1.25      CH         F
  22      1     1.20     1.25      CH         F
  23      1     1.20     1.25      CH         F
  24      1     1.20     1.25      CH3        F
  25      1     1.20     1.25      CH3        F
  26      1     1.20     1.25      CH3        F
 ------------------------------------------------------------------------------
 Polarizable Continuum Model (PCM)
 =================================
 Model                : PCM.
 Atomic radii         : MST.
 Polarization charges : Total charges.
 Charge compensation  : None.
 Solution method      : On-the-fly selection.
 Cavity type          : Scaled VdW (van der Waals Surface) (Alpha=1.250).
 Cavity algorithm     : GePol (No added spheres)
                        Default sphere list used, NSphG=   26.
                        Lebedev-Laikov grids with approx.  5.0 points / Ang**2.
                        Smoothing algorithm: York/Karplus (Gamma=1.0000).
                        Polarization charges: spherical gaussians, with
                                              point-specific exponents (IZeta= 3).
                        Self-potential: point-specific (ISelfS= 7).
                        Self-field    : sphere-specific E.n sum rule (ISelfD= 2).
 1st derivatives      : Analytical E(r).r(x)/FMM algorithm (CHGder, D1EAlg=3).
                        Cavity 1st derivative terms included.
 Solvent              : Water, Eps=  78.355300 Eps(inf)=   1.777849
 ------------------------------------------------------------------------------
 GePol: Number of generator spheres                  =      26
 GePol: Total number of spheres                      =      26
 GePol: Number of exposed spheres                    =      26 (100.00%)
 GePol: Number of points                             =    2115
 GePol: Average weight of points                     =       0.13
 GePol: Minimum weight of points                     =   0.27D-11
 GePol: Maximum weight of points                     =    0.22001
 GePol: Number of points with low weight             =     137
 GePol: Fraction of low-weight points (<1% of avg)   =       6.48%
 GePol: Cavity surface area                          =    273.954 Ang**2
 GePol: Cavity volume                                =    255.245 Ang**3
 PCM non-electrostatic energy =         0.0028280691 Hartrees.
 Nuclear repulsion after PCM non-electrostatic terms =     1170.8015821702 Hartrees.
 Leave Link  301 at Tue Sep 22 18:09:12 2020, MaxMem=  2147483648 cpu:               0.3 elap:               0.1
 (Enter /prod/apps/gaussian/g16b1/l302.exe)
 NPDir=0 NMtPBC=     1 NCelOv=     1 NCel=       1 NClECP=     1 NCelD=      1
         NCelK=      1 NCelE2=     1 NClLst=     1 CellRange=     0.0.
 One-electron integrals computed using PRISM.
 NBasis=   264 RedAO= T EigKep=  4.58D-04  NBF=   264
 NBsUse=   264 1.00D-06 EigRej= -1.00D+00 NBFU=   264
 Precomputing XC quadrature grid using
 IXCGrd= 4 IRadAn=           5 IRanWt=          -1 IRanGd=           0 AccXCQ= 0.00D+00.
 Generated NRdTot=       0 NPtTot=           0 NUsed=           0 NTot=          32
 NSgBfM=   263   263   263   263   263 MxSgAt=    26 MxSgA2=    26.
 Leave Link  302 at Tue Sep 22 18:09:12 2020, MaxMem=  2147483648 cpu:               1.0 elap:               0.3
 (Enter /prod/apps/gaussian/g16b1/l303.exe)
 DipDrv:  MaxL=1.
 Leave Link  303 at Tue Sep 22 18:09:13 2020, MaxMem=  2147483648 cpu:               0.1 elap:               0.0
 (Enter /prod/apps/gaussian/g16b1/l401.exe)
 ExpMin= 1.17D-01 ExpMax= 2.19D+04 ExpMxC= 3.30D+03 IAcc=3 IRadAn=         5 AccDes= 0.00D+00
 Harris functional with IExCor=  402 and IRadAn=       5 diagonalized for initial guess.
 HarFok:  IExCor=  402 AccDes= 0.00D+00 IRadAn=         5 IDoV= 1 UseB2=F ITyADJ=14
 ICtDFT=  3500011 ScaDFX=  1.000000  1.000000  1.000000  1.000000
 FoFCou: FMM=F IPFlag=           0 FMFlag=      100000 FMFlg1=           0
         NFxFlg=           0 DoJE=T BraDBF=F KetDBF=T FulRan=T
         wScrn=  0.000000 ICntrl=       500 IOpCl=  0 I1Cent=   200000004 NGrid=           0
         NMat0=    1 NMatS0=      1 NMatT0=    0 NMatD0=    1 NMtDS0=    0 NMtDT0=    0
 Symmetry not used in FoFCou.
 Harris En= -1120.37287928360    
 JPrj=0 DoOrth=F DoCkMO=F.
 Leave Link  401 at Tue Sep 22 18:09:14 2020, MaxMem=  2147483648 cpu:               5.3 elap:               1.3
 (Enter /prod/apps/gaussian/g16b1/l502.exe)
 Keep R1 ints in memory in canonical form, NReq=621123487.
 FoFCou: FMM=F IPFlag=           0 FMFlag=           0 FMFlg1=           0
         NFxFlg=           0 DoJE=F BraDBF=F KetDBF=F FulRan=T
         wScrn=  0.000000 ICntrl=       600 IOpCl=  0 I1Cent=           0 NGrid=           0
         NMat0=    1 NMatS0=  34980 NMatT0=    0 NMatD0=    1 NMtDS0=    0 NMtDT0=    0
 Symmetry not used in FoFCou.
 Two-electron integral symmetry not used.
 Closed shell SCF:
 Using DIIS extrapolation, IDIIS=  1040.
 NGot=  2147483648 LenX=  1535522690 LenY=  1535452553
 Requested convergence on RMS density matrix=1.00D-08 within2000 cycles.
 Requested convergence on MAX density matrix=1.00D-06.
 Requested convergence on             energy=1.00D-06.
 No special actions if energy rises.

 Cycle   1  Pass 1  IDiag  1:
 Inv3:  Mode=1 IEnd=    13419675.
 Iteration    1 A*A^-1 deviation from unit magnitude is 3.11D-15 for    548.
 Iteration    1 A*A^-1 deviation from orthogonality  is 3.04D-15 for   1675     85.
 Iteration    1 A^-1*A deviation from unit magnitude is 3.33D-15 for    212.
 Iteration    1 A^-1*A deviation from orthogonality  is 1.05D-14 for   1282   1260.
 E= -1119.87644585752    
 DIIS: error= 3.65D-02 at cycle   1 NSaved=   1.
 NSaved= 1 IEnMin= 1 EnMin= -1119.87644585752     IErMin= 1 ErrMin= 3.65D-02
 ErrMax= 3.65D-02  0.00D+00 EMaxC= 1.00D-01 BMatC= 5.61D-01 BMatP= 5.61D-01
 IDIUse=3 WtCom= 6.35D-01 WtEn= 3.65D-01
 Coeff-Com:  0.100D+01
 Coeff-En:   0.100D+01
 Coeff:      0.100D+01
 Gap=     0.268 Goal=   None    Shift=    0.000
 GapD=    0.268 DampG=1.000 DampE=0.500 DampFc=0.5000 IDamp=-1.
 Damping current iteration by 5.00D-01
 RMSDP=6.72D-03 MaxDP=5.56D-01              OVMax= 2.25D-01

 Cycle   2  Pass 1  IDiag  1:
 E= -1120.02036416119     Delta-E=       -0.143918303668 Rises=F Damp=T
 DIIS: error= 1.43D-02 at cycle   2 NSaved=   2.
 NSaved= 2 IEnMin= 2 EnMin= -1120.02036416119     IErMin= 2 ErrMin= 1.43D-02
 ErrMax= 1.43D-02  0.00D+00 EMaxC= 1.00D-01 BMatC= 7.13D-02 BMatP= 5.61D-01
 IDIUse=3 WtCom= 8.57D-01 WtEn= 1.43D-01
 Coeff-Com:  0.200D+00 0.800D+00
 Coeff-En:   0.323D+00 0.677D+00
 Coeff:      0.218D+00 0.782D+00
 Gap=     0.208 Goal=   None    Shift=    0.000
 RMSDP=1.89D-03 MaxDP=1.21D-01 DE=-1.44D-01 OVMax= 1.75D-01

 Cycle   3  Pass 1  IDiag  1:
 E= -1120.32612945222     Delta-E=       -0.305765291033 Rises=F Damp=F
 DIIS: error= 9.54D-03 at cycle   3 NSaved=   3.
 NSaved= 3 IEnMin= 3 EnMin= -1120.32612945222     IErMin= 3 ErrMin= 9.54D-03
 ErrMax= 9.54D-03  0.00D+00 EMaxC= 1.00D-01 BMatC= 3.82D-02 BMatP= 7.13D-02
 IDIUse=3 WtCom= 9.05D-01 WtEn= 9.54D-02
 Coeff-Com:  0.548D-01 0.423D+00 0.523D+00
 Coeff-En:   0.000D+00 0.000D+00 0.100D+01
 Coeff:      0.496D-01 0.382D+00 0.568D+00
 Gap=     0.184 Goal=   None    Shift=    0.000
 RMSDP=9.21D-04 MaxDP=3.07D-02 DE=-3.06D-01 OVMax= 4.56D-02

 Cycle   4  Pass 1  IDiag  1:
 E= -1120.35462797187     Delta-E=       -0.028498519649 Rises=F Damp=F
 DIIS: error= 3.67D-03 at cycle   4 NSaved=   4.
 NSaved= 4 IEnMin= 4 EnMin= -1120.35462797187     IErMin= 4 ErrMin= 3.67D-03
 ErrMax= 3.67D-03  0.00D+00 EMaxC= 1.00D-01 BMatC= 5.17D-03 BMatP= 3.82D-02
 IDIUse=3 WtCom= 9.63D-01 WtEn= 3.67D-02
 Coeff-Com:  0.145D-02 0.856D-01 0.291D+00 0.622D+00
 Coeff-En:   0.000D+00 0.000D+00 0.901D-01 0.910D+00
 Coeff:      0.139D-02 0.825D-01 0.283D+00 0.633D+00
 Gap=     0.183 Goal=   None    Shift=    0.000
 RMSDP=2.98D-04 MaxDP=1.37D-02 DE=-2.85D-02 OVMax= 1.50D-02

 Cycle   5  Pass 1  IDiag  1:
 E= -1120.35851350665     Delta-E=       -0.003885534777 Rises=F Damp=F
 DIIS: error= 8.78D-04 at cycle   5 NSaved=   5.
 NSaved= 5 IEnMin= 5 EnMin= -1120.35851350665     IErMin= 5 ErrMin= 8.78D-04
 ErrMax= 8.78D-04  0.00D+00 EMaxC= 1.00D-01 BMatC= 5.45D-04 BMatP= 5.17D-03
 IDIUse=3 WtCom= 9.91D-01 WtEn= 8.78D-03
 Coeff-Com: -0.331D-02 0.190D-01 0.119D+00 0.355D+00 0.510D+00
 Coeff-En:   0.000D+00 0.000D+00 0.000D+00 0.187D-01 0.981D+00
 Coeff:     -0.328D-02 0.188D-01 0.118D+00 0.352D+00 0.515D+00
 Gap=     0.184 Goal=   None    Shift=    0.000
 RMSDP=1.10D-04 MaxDP=4.50D-03 DE=-3.89D-03 OVMax= 8.12D-03

 Cycle   6  Pass 1  IDiag  1:
 E= -1120.35894087118     Delta-E=       -0.000427364529 Rises=F Damp=F
 DIIS: error= 4.34D-04 at cycle   6 NSaved=   6.
 NSaved= 6 IEnMin= 6 EnMin= -1120.35894087118     IErMin= 6 ErrMin= 4.34D-04
 ErrMax= 4.34D-04  0.00D+00 EMaxC= 1.00D-01 BMatC= 6.16D-05 BMatP= 5.45D-04
 IDIUse=3 WtCom= 9.96D-01 WtEn= 4.34D-03
 Coeff-Com: -0.204D-02 0.429D-02 0.425D-01 0.146D+00 0.310D+00 0.499D+00
 Coeff-En:   0.000D+00 0.000D+00 0.000D+00 0.000D+00 0.620D-01 0.938D+00
 Coeff:     -0.203D-02 0.427D-02 0.423D-01 0.146D+00 0.309D+00 0.501D+00
 Gap=     0.184 Goal=   None    Shift=    0.000
 RMSDP=3.19D-05 MaxDP=1.47D-03 DE=-4.27D-04 OVMax= 2.53D-03

 Cycle   7  Pass 1  IDiag  1:
 E= -1120.35899436036     Delta-E=       -0.000053489185 Rises=F Damp=F
 DIIS: error= 1.21D-04 at cycle   7 NSaved=   7.
 NSaved= 7 IEnMin= 7 EnMin= -1120.35899436036     IErMin= 7 ErrMin= 1.21D-04
 ErrMax= 1.21D-04  0.00D+00 EMaxC= 1.00D-01 BMatC= 3.33D-06 BMatP= 6.16D-05
 IDIUse=3 WtCom= 9.99D-01 WtEn= 1.21D-03
 Coeff-Com: -0.860D-03 0.477D-03 0.119D-01 0.450D-01 0.116D+00 0.264D+00
 Coeff-Com:  0.563D+00
 Coeff-En:   0.000D+00 0.000D+00 0.000D+00 0.000D+00 0.000D+00 0.000D+00
 Coeff-En:   0.100D+01
 Coeff:     -0.859D-03 0.477D-03 0.118D-01 0.450D-01 0.116D+00 0.264D+00
 Coeff:      0.564D+00
 Gap=     0.184 Goal=   None    Shift=    0.000
 RMSDP=7.05D-06 MaxDP=3.38D-04 DE=-5.35D-05 OVMax= 4.10D-04

 Cycle   8  Pass 1  IDiag  1:
 E= -1120.35899697761     Delta-E=       -0.000002617246 Rises=F Damp=F
 DIIS: error= 2.04D-05 at cycle   8 NSaved=   8.
 NSaved= 8 IEnMin= 8 EnMin= -1120.35899697761     IErMin= 8 ErrMin= 2.04D-05
 ErrMax= 2.04D-05  0.00D+00 EMaxC= 1.00D-01 BMatC= 3.10D-07 BMatP= 3.33D-06
 IDIUse=1 WtCom= 1.00D+00 WtEn= 0.00D+00
 Coeff-Com: -0.258D-03-0.128D-03 0.217D-02 0.969D-02 0.320D-01 0.970D-01
 Coeff-Com:  0.291D+00 0.568D+00
 Coeff:     -0.258D-03-0.128D-03 0.217D-02 0.969D-02 0.320D-01 0.970D-01
 Coeff:      0.291D+00 0.568D+00
 Gap=     0.184 Goal=   None    Shift=    0.000
 RMSDP=2.43D-06 MaxDP=1.20D-04 DE=-2.62D-06 OVMax= 1.25D-04

 Cycle   9  Pass 1  IDiag  1:
 E= -1120.35899722005     Delta-E=       -0.000000242447 Rises=F Damp=F
 DIIS: error= 7.80D-06 at cycle   9 NSaved=   9.
 NSaved= 9 IEnMin= 9 EnMin= -1120.35899722005     IErMin= 9 ErrMin= 7.80D-06
 ErrMax= 7.80D-06  0.00D+00 EMaxC= 1.00D-01 BMatC= 3.46D-08 BMatP= 3.10D-07
 IDIUse=1 WtCom= 1.00D+00 WtEn= 0.00D+00
 Coeff-Com: -0.221D-04-0.115D-03-0.476D-03-0.118D-02 0.300D-03 0.142D-01
 Coeff-Com:  0.658D-01 0.291D+00 0.630D+00
 Coeff:     -0.221D-04-0.115D-03-0.476D-03-0.118D-02 0.300D-03 0.142D-01
 Coeff:      0.658D-01 0.291D+00 0.630D+00
 Gap=     0.184 Goal=   None    Shift=    0.000
 RMSDP=7.39D-07 MaxDP=2.61D-05 DE=-2.42D-07 OVMax= 4.09D-05

 Cycle  10  Pass 1  IDiag  1:
 E= -1120.35899724813     Delta-E=       -0.000000028076 Rises=F Damp=F
 DIIS: error= 3.11D-06 at cycle  10 NSaved=  10.
 NSaved=10 IEnMin=10 EnMin= -1120.35899724813     IErMin=10 ErrMin= 3.11D-06
 ErrMax= 3.11D-06  0.00D+00 EMaxC= 1.00D-01 BMatC= 1.66D-09 BMatP= 3.46D-08
 IDIUse=1 WtCom= 1.00D+00 WtEn= 0.00D+00
 Coeff-Com: -0.247D-05-0.418D-04-0.308D-03-0.931D-03-0.123D-02 0.303D-02
 Coeff-Com:  0.181D-01 0.116D+00 0.294D+00 0.571D+00
 Coeff:     -0.247D-05-0.418D-04-0.308D-03-0.931D-03-0.123D-02 0.303D-02
 Coeff:      0.181D-01 0.116D+00 0.294D+00 0.571D+00
 Gap=     0.184 Goal=   None    Shift=    0.000
 RMSDP=2.02D-07 MaxDP=5.95D-06 DE=-2.81D-08 OVMax= 1.47D-05

 Cycle  11  Pass 1  IDiag  1:
 E= -1120.35899724942     Delta-E=       -0.000000001291 Rises=F Damp=F
 DIIS: error= 1.03D-06 at cycle  11 NSaved=  11.
 NSaved=11 IEnMin=11 EnMin= -1120.35899724942     IErMin=11 ErrMin= 1.03D-06
 ErrMax= 1.03D-06  0.00D+00 EMaxC= 1.00D-01 BMatC= 3.25D-10 BMatP= 1.66D-09
 IDIUse=1 WtCom= 1.00D+00 WtEn= 0.00D+00
 Coeff-Com:  0.143D-05-0.211D-05-0.104D-03-0.348D-03-0.834D-03-0.580D-03
 Coeff-Com: -0.983D-03 0.194D-01 0.593D-01 0.320D+00 0.604D+00
 Coeff:      0.143D-05-0.211D-05-0.104D-03-0.348D-03-0.834D-03-0.580D-03
 Coeff:     -0.983D-03 0.194D-01 0.593D-01 0.320D+00 0.604D+00
 Gap=     0.184 Goal=   None    Shift=    0.000
 RMSDP=7.29D-08 MaxDP=2.21D-06 DE=-1.29D-09 OVMax= 4.99D-06

 Cycle  12  Pass 1  IDiag  1:
 E= -1120.35899724968     Delta-E=       -0.000000000261 Rises=F Damp=F
 DIIS: error= 2.54D-07 at cycle  12 NSaved=  12.
 NSaved=12 IEnMin=12 EnMin= -1120.35899724968     IErMin=12 ErrMin= 2.54D-07
 ErrMax= 2.54D-07  0.00D+00 EMaxC= 1.00D-01 BMatC= 3.01D-11 BMatP= 3.25D-10
 IDIUse=1 WtCom= 1.00D+00 WtEn= 0.00D+00
 Coeff-Com:  0.787D-06 0.233D-05-0.337D-04-0.115D-03-0.371D-03-0.572D-03
 Coeff-Com: -0.224D-02 0.521D-03 0.553D-02 0.121D+00 0.321D+00 0.555D+00
 Coeff:      0.787D-06 0.233D-05-0.337D-04-0.115D-03-0.371D-03-0.572D-03
 Coeff:     -0.224D-02 0.521D-03 0.553D-02 0.121D+00 0.321D+00 0.555D+00
 Gap=     0.184 Goal=   None    Shift=    0.000
 RMSDP=2.49D-08 MaxDP=9.79D-07 DE=-2.61D-10 OVMax= 1.24D-06

 Cycle  13  Pass 1  IDiag  1:
 E= -1120.35899724972     Delta-E=       -0.000000000042 Rises=F Damp=F
 DIIS: error= 1.31D-07 at cycle  13 NSaved=  13.
 NSaved=13 IEnMin=13 EnMin= -1120.35899724972     IErMin=13 ErrMin= 1.31D-07
 ErrMax= 1.31D-07  0.00D+00 EMaxC= 1.00D-01 BMatC= 3.84D-12 BMatP= 3.01D-11
 IDIUse=1 WtCom= 1.00D+00 WtEn= 0.00D+00
 Coeff-Com:  0.213D-06 0.150D-05-0.625D-05-0.211D-04-0.107D-03-0.238D-03
 Coeff-Com: -0.115D-02-0.203D-02-0.450D-02 0.263D-01 0.984D-01 0.310D+00
 Coeff-Com:  0.573D+00
 Coeff:      0.213D-06 0.150D-05-0.625D-05-0.211D-04-0.107D-03-0.238D-03
 Coeff:     -0.115D-02-0.203D-02-0.450D-02 0.263D-01 0.984D-01 0.310D+00
 Coeff:      0.573D+00
 Gap=     0.184 Goal=   None    Shift=    0.000
 RMSDP=9.22D-09 MaxDP=3.26D-07 DE=-4.23D-11 OVMax= 6.21D-07

 Error on total polarization charges =  0.01920
 SCF Done:  E(RB3LYP) =  -1120.35899725     A.U. after   13 cycles
            NFock= 13  Conv=0.92D-08     -V/T= 2.0073
 KE= 1.112190612986D+03 PE=-4.968955770409D+03 EE= 1.565604578002D+03
 Leave Link  502 at Tue Sep 22 18:09:55 2020, MaxMem=  2147483648 cpu:             132.9 elap:              40.9
 (Enter /prod/apps/gaussian/g16b1/l601.exe)
 Copying SCF densities to generalized density rwf, IOpCl= 0 IROHF=0.

 **********************************************************************

            Population analysis using the SCF Density.

 **********************************************************************

 Alpha  occ. eigenvalues --  -89.13305 -19.24155 -19.15972 -19.15931 -14.39192
 Alpha  occ. eigenvalues --  -14.38425 -10.28145 -10.27169 -10.22521 -10.21689
 Alpha  occ. eigenvalues --  -10.20337 -10.20284 -10.20131 -10.19914 -10.19813
 Alpha  occ. eigenvalues --  -10.19780  -8.15809  -6.12352  -6.12228  -6.12065
 Alpha  occ. eigenvalues --   -1.14698  -1.12811  -1.01719  -0.96548  -0.87639
 Alpha  occ. eigenvalues --   -0.85466  -0.81254  -0.77933  -0.75519  -0.75318
 Alpha  occ. eigenvalues --   -0.66921  -0.65019  -0.62223  -0.60300  -0.57826
 Alpha  occ. eigenvalues --   -0.55318  -0.53691  -0.50717  -0.49906  -0.48675
 Alpha  occ. eigenvalues --   -0.48133  -0.47435  -0.46680  -0.44949  -0.44160
 Alpha  occ. eigenvalues --   -0.43542  -0.43282  -0.42620  -0.39820  -0.38722
 Alpha  occ. eigenvalues --   -0.37307  -0.36410  -0.35648  -0.35089  -0.33542
 Alpha  occ. eigenvalues --   -0.32772  -0.32109  -0.31270  -0.30057  -0.26467
 Alpha  occ. eigenvalues --   -0.26014  -0.23695
 Alpha virt. eigenvalues --   -0.05330  -0.01028   0.01996   0.05109   0.06443
 Alpha virt. eigenvalues --    0.07254   0.07556   0.08667   0.09977   0.11584
 Alpha virt. eigenvalues --    0.12006   0.12390   0.13703   0.15307   0.15721
 Alpha virt. eigenvalues --    0.16665   0.16904   0.16999   0.18573   0.19346
 Alpha virt. eigenvalues --    0.23254   0.25403   0.25717   0.29471   0.29971
 Alpha virt. eigenvalues --    0.31024   0.32997   0.33541   0.36260   0.37938
 Alpha virt. eigenvalues --    0.42131   0.42204   0.43962   0.44667   0.47871
 Alpha virt. eigenvalues --    0.49744   0.50641   0.51436   0.52067   0.53309
 Alpha virt. eigenvalues --    0.53902   0.54617   0.55727   0.56862   0.57917
 Alpha virt. eigenvalues --    0.58305   0.59057   0.59546   0.60687   0.61372
 Alpha virt. eigenvalues --    0.62041   0.62872   0.64052   0.64841   0.66695
 Alpha virt. eigenvalues --    0.67640   0.69208   0.70779   0.71974   0.75371
 Alpha virt. eigenvalues --    0.76349   0.77437   0.78590   0.79596   0.80343
 Alpha virt. eigenvalues --    0.82502   0.83037   0.83612   0.84868   0.85232
 Alpha virt. eigenvalues --    0.86664   0.87154   0.87539   0.88671   0.89034
 Alpha virt. eigenvalues --    0.90674   0.90972   0.92073   0.94175   0.94836
 Alpha virt. eigenvalues --    0.96111   0.97407   0.97770   1.00548   1.01099
 Alpha virt. eigenvalues --    1.03513   1.04277   1.06048   1.06700   1.10424
 Alpha virt. eigenvalues --    1.11007   1.13509   1.15919   1.16169   1.17509
 Alpha virt. eigenvalues --    1.17921   1.19105   1.21629   1.24167   1.24500
 Alpha virt. eigenvalues --    1.27420   1.30767   1.32105   1.33684   1.36098
 Alpha virt. eigenvalues --    1.38213   1.40934   1.42331   1.42789   1.42944
 Alpha virt. eigenvalues --    1.46095   1.47144   1.48230   1.50078   1.50475
 Alpha virt. eigenvalues --    1.51716   1.54217   1.57894   1.59489   1.66076
 Alpha virt. eigenvalues --    1.68006   1.73424   1.76487   1.77324   1.78538
 Alpha virt. eigenvalues --    1.78921   1.79453   1.79973   1.83386   1.83842
 Alpha virt. eigenvalues --    1.85810   1.87611   1.88979   1.90909   1.92012
 Alpha virt. eigenvalues --    1.94031   1.96258   1.97099   1.99688   2.00872
 Alpha virt. eigenvalues --    2.03811   2.04958   2.06574   2.10303   2.10988
 Alpha virt. eigenvalues --    2.11570   2.13252   2.14314   2.16122   2.16807
 Alpha virt. eigenvalues --    2.18203   2.20020   2.21661   2.23375   2.24362
 Alpha virt. eigenvalues --    2.25481   2.27468   2.27688   2.29912   2.30722
 Alpha virt. eigenvalues --    2.32428   2.35147   2.44337   2.50327   2.52569
 Alpha virt. eigenvalues --    2.53602   2.56646   2.58154   2.60057   2.62531
 Alpha virt. eigenvalues --    2.66057   2.66314   2.71715   2.72076   2.74000
 Alpha virt. eigenvalues --    2.74597   2.76656   2.81448   2.86650   2.89542
 Alpha virt. eigenvalues --    2.90765   3.02531   3.04833   3.13404   3.26959
 Alpha virt. eigenvalues --    3.42836   3.75912   3.80063   3.92095   3.97977
 Alpha virt. eigenvalues --    4.07047   4.08710   4.10814   4.11280   4.12006
 Alpha virt. eigenvalues --    4.22880   4.24367   4.31514   4.36462   4.40411
 Alpha virt. eigenvalues --    4.56416   4.74084
          Condensed to atoms (all electrons):
               1          2          3          4          5          6
     1  O    8.255665   0.454433  -0.050507   0.001250  -0.000001   0.000000
     2  S    0.454433  13.601365   0.111428  -0.011260   0.008953  -0.000270
     3  N   -0.050507   0.111428   7.448363   0.232585  -0.079373   0.005650
     4  C    0.001250  -0.011260   0.232585   4.466702   0.411292  -0.038540
     5  N   -0.000001   0.008953  -0.079373   0.411292   6.952714   0.110839
     6  O    0.000000  -0.000270   0.005650  -0.038540   0.110839   8.217259
     7  C    0.000000   0.000290  -0.001246  -0.015372  -0.081764   0.244173
     8  C   -0.000000  -0.000007  -0.000220   0.002756   0.004345  -0.038022
     9  C   -0.000000   0.000000   0.000003   0.000630  -0.000103   0.003128
    10  C   -0.000000  -0.000000   0.000000  -0.000007   0.000001  -0.000061
    11  C    0.000000  -0.000000   0.000000   0.000000  -0.000000   0.000002
    12  C   -0.000000  -0.000000  -0.000000   0.000005   0.000000   0.000280
    13  C    0.000000  -0.000000  -0.000001  -0.000359   0.000132  -0.006688
    14  C   -0.000058   0.001343  -0.049495   0.451755  -0.046963  -0.088752
    15  C   -0.056834   0.238168  -0.059640   0.001697  -0.008507   0.000075
    16  O   -0.043831   0.434985  -0.048626  -0.003501   0.000598   0.000041
    17  H    0.002166  -0.006602   0.296390  -0.015295   0.002525  -0.000048
    18  H   -0.000000  -0.000000  -0.000001   0.000081  -0.000005   0.000024
    19  H    0.000000   0.000000  -0.000000  -0.000000  -0.000000   0.000000
    20  H    0.000000  -0.000000  -0.000000  -0.000000   0.000000   0.000000
    21  H    0.000000   0.000000   0.000000  -0.000000   0.000000  -0.000003
    22  H   -0.000000  -0.000000  -0.000000   0.000050  -0.000249   0.009678
    23  H   -0.000001  -0.000137  -0.002065  -0.028172   0.004902   0.003314
    24  H    0.000104  -0.008030   0.000379   0.000103   0.000118  -0.000001
    25  H    0.001665  -0.004150  -0.003332   0.000919   0.012762  -0.000365
    26  H   -0.000417  -0.014638   0.002305   0.000053   0.000040   0.000000
               7          8          9         10         11         12
     1  O    0.000000  -0.000000  -0.000000  -0.000000   0.000000  -0.000000
     2  S    0.000290  -0.000007   0.000000  -0.000000  -0.000000  -0.000000
     3  N   -0.001246  -0.000220   0.000003   0.000000   0.000000  -0.000000
     4  C   -0.015372   0.002756   0.000630  -0.000007   0.000000   0.000005
     5  N   -0.081764   0.004345  -0.000103   0.000001  -0.000000   0.000000
     6  O    0.244173  -0.038022   0.003128  -0.000061   0.000002   0.000280
     7  C    4.721652   0.348836  -0.042525   0.006409   0.000868   0.004776
     8  C    0.348836   4.784124   0.536124  -0.011109  -0.033837  -0.009533
     9  C   -0.042525   0.536124   5.012887   0.517802  -0.040067  -0.041319
    10  C    0.006409  -0.011109   0.517802   4.884572   0.539312  -0.026109
    11  C    0.000868  -0.033837  -0.040067   0.539312   4.873634   0.538928
    12  C    0.004776  -0.009533  -0.041319  -0.026109   0.538928   4.891224
    13  C   -0.042079   0.472176  -0.081973  -0.042166  -0.038141   0.505424
    14  C    0.506537  -0.057415  -0.019889   0.000226   0.000015  -0.000229
    15  C   -0.000027   0.000000  -0.000000   0.000000   0.000000   0.000000
    16  O   -0.000011  -0.000000   0.000000   0.000000  -0.000000   0.000000
    17  H    0.000014   0.000000  -0.000000  -0.000000  -0.000000  -0.000000
    18  H   -0.012602  -0.036804   0.357584  -0.041511   0.004483   0.000159
    19  H   -0.000206   0.003222  -0.037450   0.363147  -0.040732   0.004386
    20  H    0.000003   0.000477   0.004791  -0.041589   0.364736  -0.041455
    21  H   -0.000174   0.003217   0.000767   0.004397  -0.040744   0.363592
    22  H   -0.012885  -0.043048   0.005286   0.000197   0.004557  -0.040810
    23  H   -0.027115  -0.003341   0.001147   0.000089  -0.000001   0.000001
    24  H    0.000001   0.000000  -0.000000  -0.000000   0.000000   0.000000
    25  H    0.000049  -0.000000   0.000000  -0.000000  -0.000000  -0.000000
    26  H   -0.000000   0.000000   0.000000  -0.000000  -0.000000  -0.000000
              13         14         15         16         17         18
     1  O    0.000000  -0.000058  -0.056834  -0.043831   0.002166  -0.000000
     2  S   -0.000000   0.001343   0.238168   0.434985  -0.006602  -0.000000
     3  N   -0.000001  -0.049495  -0.059640  -0.048626   0.296390  -0.000001
     4  C   -0.000359   0.451755   0.001697  -0.003501  -0.015295   0.000081
     5  N    0.000132  -0.046963  -0.008507   0.000598   0.002525  -0.000005
     6  O   -0.006688  -0.088752   0.000075   0.000041  -0.000048   0.000024
     7  C   -0.042079   0.506537  -0.000027  -0.000011   0.000014  -0.012602
     8  C    0.472176  -0.057415   0.000000  -0.000000   0.000000  -0.036804
     9  C   -0.081973  -0.019889  -0.000000   0.000000  -0.000000   0.357584
    10  C   -0.042166   0.000226   0.000000   0.000000  -0.000000  -0.041511
    11  C   -0.038141   0.000015   0.000000  -0.000000  -0.000000   0.004483
    12  C    0.505424  -0.000229   0.000000   0.000000  -0.000000   0.000159
    13  C    5.060411   0.011787  -0.000000   0.000000   0.000000   0.005631
    14  C    0.011787   5.228307  -0.000144   0.000001  -0.004864   0.005985
    15  C   -0.000000  -0.000144   5.543506  -0.057263   0.000392  -0.000000
    16  O    0.000000   0.000001  -0.057263   8.279311   0.001117   0.000000
    17  H    0.000000  -0.004864   0.000392   0.001117   0.289722   0.000000
    18  H    0.005631   0.005985  -0.000000   0.000000   0.000000   0.554582
    19  H    0.000791  -0.000001  -0.000000  -0.000000   0.000000  -0.004842
    20  H    0.004681  -0.000000   0.000000  -0.000000   0.000000  -0.000153
    21  H   -0.037540   0.000001  -0.000000   0.000000   0.000000   0.000015
    22  H    0.363143   0.000258   0.000000   0.000000   0.000000  -0.000138
    23  H   -0.000104   0.355272   0.000006   0.000001   0.001544   0.001885
    24  H    0.000000  -0.000014   0.343447   0.001812  -0.000008  -0.000000
    25  H    0.000000   0.000165   0.331458  -0.001225  -0.000068   0.000000
    26  H    0.000000   0.000001   0.356065   0.000048  -0.000027   0.000000
              19         20         21         22         23         24
     1  O    0.000000   0.000000   0.000000  -0.000000  -0.000001   0.000104
     2  S    0.000000  -0.000000   0.000000  -0.000000  -0.000137  -0.008030
     3  N   -0.000000  -0.000000   0.000000  -0.000000  -0.002065   0.000379
     4  C   -0.000000  -0.000000  -0.000000   0.000050  -0.028172   0.000103
     5  N   -0.000000   0.000000   0.000000  -0.000249   0.004902   0.000118
     6  O    0.000000   0.000000  -0.000003   0.009678   0.003314  -0.000001
     7  C   -0.000206   0.000003  -0.000174  -0.012885  -0.027115   0.000001
     8  C    0.003222   0.000477   0.003217  -0.043048  -0.003341   0.000000
     9  C   -0.037450   0.004791   0.000767   0.005286   0.001147  -0.000000
    10  C    0.363147  -0.041589   0.004397   0.000197   0.000089  -0.000000
    11  C   -0.040732   0.364736  -0.040744   0.004557  -0.000001   0.000000
    12  C    0.004386  -0.041455   0.363592  -0.040810   0.000001   0.000000
    13  C    0.000791   0.004681  -0.037540   0.363143  -0.000104   0.000000
    14  C   -0.000001  -0.000000   0.000001   0.000258   0.355272  -0.000014
    15  C   -0.000000   0.000000  -0.000000   0.000000   0.000006   0.343447
    16  O   -0.000000  -0.000000   0.000000   0.000000   0.000001   0.001812
    17  H    0.000000   0.000000   0.000000   0.000000   0.001544  -0.000008
    18  H   -0.004842  -0.000153   0.000015  -0.000138   0.001885  -0.000000
    19  H    0.557021  -0.005125  -0.000162   0.000015  -0.000002   0.000000
    20  H   -0.005125   0.559911  -0.005107  -0.000151  -0.000000   0.000000
    21  H   -0.000162  -0.005107   0.557002  -0.004895   0.000000   0.000000
    22  H    0.000015  -0.000151  -0.004895   0.553597  -0.000008   0.000000
    23  H   -0.000002  -0.000000   0.000000  -0.000008   0.497648  -0.000001
    24  H    0.000000   0.000000   0.000000   0.000000  -0.000001   0.468032
    25  H    0.000000  -0.000000   0.000000  -0.000000  -0.000006  -0.019789
    26  H    0.000000  -0.000000  -0.000000  -0.000000  -0.000000  -0.017363
              25         26
     1  O    0.001665  -0.000417
     2  S   -0.004150  -0.014638
     3  N   -0.003332   0.002305
     4  C    0.000919   0.000053
     5  N    0.012762   0.000040
     6  O   -0.000365   0.000000
     7  C    0.000049  -0.000000
     8  C   -0.000000   0.000000
     9  C    0.000000   0.000000
    10  C   -0.000000  -0.000000
    11  C   -0.000000  -0.000000
    12  C   -0.000000  -0.000000
    13  C    0.000000   0.000000
    14  C    0.000165   0.000001
    15  C    0.331458   0.356065
    16  O   -0.001225   0.000048
    17  H   -0.000068  -0.000027
    18  H    0.000000   0.000000
    19  H    0.000000   0.000000
    20  H   -0.000000  -0.000000
    21  H    0.000000  -0.000000
    22  H   -0.000000  -0.000000
    23  H   -0.000006  -0.000000
    24  H   -0.019789  -0.017363
    25  H    0.466977  -0.017825
    26  H   -0.017825   0.452945
 Mulliken charges:
               1
     1  O   -0.563634
     2  S    1.194129
     3  N   -0.802596
     4  C    0.542629
     5  N   -0.292256
     6  O   -0.421715
     7  C    0.402398
     8  C    0.078061
     9  C   -0.176823
    10  C   -0.153601
    11  C   -0.133014
    12  C   -0.149322
    13  C   -0.175126
    14  C   -0.293830
    15  C   -0.632399
    16  O   -0.563456
    17  H    0.433041
    18  H    0.165627
    19  H    0.159937
    20  H    0.158981
    21  H    0.159633
    22  H    0.165404
    23  H    0.195142
    24  H    0.231210
    25  H    0.232765
    26  H    0.238813
 Sum of Mulliken charges =  -0.00000
 Mulliken charges with hydrogens summed into heavy atoms:
               1
     1  O   -0.563634
     2  S    1.194129
     3  N   -0.369555
     4  C    0.542629
     5  N   -0.292256
     6  O   -0.421715
     7  C    0.402398
     8  C    0.078061
     9  C   -0.011195
    10  C    0.006336
    11  C    0.025967
    12  C    0.010312
    13  C   -0.009722
    14  C   -0.098688
    15  C    0.070390
    16  O   -0.563456
 Electronic spatial extent (au):  <R**2>=           5872.3547
 Charge=             -0.0000 electrons
 Dipole moment (field-independent basis, Debye):
    X=              6.2762    Y=              4.0818    Z=              5.3802  Tot=              9.2194
 Quadrupole moment (field-independent basis, Debye-Ang):
   XX=           -102.0917   YY=            -91.6319   ZZ=            -99.9349
   XY=              2.0203   XZ=            -17.2234   YZ=             -3.1550
 Traceless Quadrupole moment (field-independent basis, Debye-Ang):
   XX=             -4.2056   YY=              6.2543   ZZ=             -2.0487
   XY=              2.0203   XZ=            -17.2234   YZ=             -3.1550
 Octapole moment (field-independent basis, Debye-Ang**2):
  XXX=            185.1424  YYY=             18.1138  ZZZ=              8.3105  XYY=             14.1560
  XXY=            -27.0317  XXZ=             68.2198  XZZ=            -33.8404  YZZ=             -1.2686
  YYZ=              6.9744  XYZ=             13.3098
 Hexadecapole moment (field-independent basis, Debye-Ang**3):
 XXXX=          -6670.0596 YYYY=           -559.9874 ZZZZ=           -251.0903 XXXY=            179.6454
 XXXZ=           -204.5163 YYYX=            -17.5217 YYYZ=              0.7277 ZZZX=            -35.6218
 ZZZY=             -0.3218 XXYY=          -1178.4049 XXZZ=          -1220.6845 YYZZ=           -152.1928
 XXYZ=            -43.6944 YYXZ=            -17.6463 ZZXY=             -6.5434
 N-N= 1.170801582170D+03 E-N=-4.968955766853D+03  KE= 1.112190612986D+03
 No NMR shielding tensors so no spin-rotation constants.
 Leave Link  601 at Tue Sep 22 18:09:55 2020, MaxMem=  2147483648 cpu:               0.3 elap:               0.1
 (Enter /prod/apps/gaussian/g16b1/l701.exe)
 ... and contract with generalized density number  0.
 Compute integral first derivatives.
 D1PCM: PCM CHGder 1st derivatives, ID1Alg=3 FixD1E=F DoIter=F DoCFld=F I1PDM=0.
 GePol: Maximum number of non-zero 1st derivatives   =     181
 Leave Link  701 at Tue Sep 22 18:09:56 2020, MaxMem=  2147483648 cpu:               6.2 elap:               1.6
 (Enter /prod/apps/gaussian/g16b1/l702.exe)
 L702 exits ... SP integral derivatives will be done elsewhere.
 Leave Link  702 at Tue Sep 22 18:09:57 2020, MaxMem=  2147483648 cpu:               0.1 elap:               0.0
 (Enter /prod/apps/gaussian/g16b1/l703.exe)
 Integral derivatives from FoFJK, PRISM(SPDF).
 Compute integral first derivatives, UseDBF=F ICtDFT=           0.
 Calling FoFJK, ICntrl=      2127 FMM=F ISym2X=0 I1Cent= 0 IOpClX= 0 NMat=1 NMatS=1 NMatT=0.
 FoFJK:  IHMeth= 1 ICntrl=    2127 DoSepK=F KAlg= 0 I1Cent=           0 FoldK=F
 IRaf=         0 NMat=       1 IRICut=       1 DoRegI=T DoRafI=F ISym2E= 0 IDoP0=0 IntGTp=1.
 FoFCou: FMM=F IPFlag=           0 FMFlag=      100000 FMFlg1=         800
         NFxFlg=           0 DoJE=F BraDBF=F KetDBF=F FulRan=T
         wScrn=  0.000000 ICntrl=      2127 IOpCl=  0 I1Cent=           0 NGrid=           0
         NMat0=    1 NMatS0=      1 NMatT0=    0 NMatD0=    1 NMtDS0=    0 NMtDT0=    0
 Symmetry not used in FoFCou.
 Leave Link  703 at Tue Sep 22 18:10:05 2020, MaxMem=  2147483648 cpu:              34.8 elap:               8.7
 (Enter /prod/apps/gaussian/g16b1/l716.exe)
 Dipole        = 2.46923031D+00 1.60590029D+00 2.11675200D+00
 -------------------------------------------------------------------
 Center     Atomic                   Forces (Hartrees/Bohr)
 Number     Number              X              Y              Z
 -------------------------------------------------------------------
      1        8           0.000116485   -0.000450433   -0.000237685
      2       16           0.001598217    0.000666552   -0.000032516
      3        7          -0.001840242   -0.001220745   -0.000107133
      4        6          -0.000591932    0.000120881    0.000035898
      5        7           0.000098238   -0.000286845    0.000153533
      6        8          -0.000109462   -0.000249953   -0.000050333
      7        6          -0.001456338    0.000011939   -0.000032655
      8        6           0.000676676   -0.000074841   -0.000094953
      9        6           0.000797829   -0.000542203    0.000040308
     10        6          -0.000074153    0.000657645    0.000306412
     11        6           0.001090667    0.000048693   -0.000284049
     12        6          -0.000463573   -0.001061773    0.000171378
     13        6           0.000662122   -0.000062910   -0.000018599
     14        6           0.000984445    0.000905091    0.000176407
     15        6           0.000578259   -0.000439631    0.000842823
     16        8          -0.000220158    0.000265523    0.000205668
     17        1           0.000187467    0.000541025    0.000169482
     18        1          -0.000369598    0.000710932   -0.000034995
     19        1          -0.000113894   -0.000149812   -0.000073681
     20        1          -0.000605826    0.000106510    0.000025321
     21        1          -0.000143950    0.000535410   -0.000030635
     22        1          -0.000205218   -0.000202867   -0.000032686
     23        1          -0.000058151   -0.000283379   -0.000067993
     24        1          -0.000014348    0.000049120   -0.000447446
     25        1          -0.000098069    0.000434404   -0.000354730
     26        1          -0.000425492   -0.000028333   -0.000227141
 -------------------------------------------------------------------
 Cartesian Forces:  Max     0.001840242 RMS     0.000527998
 Leave Link  716 at Tue Sep 22 18:10:05 2020, MaxMem=  2147483648 cpu:               0.1 elap:               0.0
 (Enter /prod/apps/gaussian/g16b1/l103.exe)

 GradGradGradGradGradGradGradGradGradGradGradGradGradGradGradGradGradGrad
 Berny optimization.
 FormGI is forming the generalized inverse of G from B-inverse, IUseBI=4.
 GSVD:  received Info=                   1 from GESDD.
 Internal  Forces:  Max     0.001604881 RMS     0.000311059
 Search for a local minimum.
 Step number   1 out of a maximum of  141
 All quantities printed in internal units (Hartrees-Bohrs-Radians)
 RMS Force = .31106D-03 SwitMx=.10000D-02 MixMth= 2
 Mixed Optimization -- En-DIIS/RFO-DIIS
 Second derivative matrix not updated -- first step.
 ITU=  0
     Eigenvalues ---    0.00487   0.01335   0.01404   0.01801   0.01824
     Eigenvalues ---    0.01884   0.01960   0.02022   0.02049   0.02070
     Eigenvalues ---    0.02101   0.02114   0.02134   0.02143   0.02150
     Eigenvalues ---    0.02162   0.02166   0.02272   0.02330   0.06053
     Eigenvalues ---    0.06242   0.08172   0.08465   0.13215   0.14832
     Eigenvalues ---    0.16000   0.16000   0.16000   0.16000   0.16000
     Eigenvalues ---    0.16000   0.16000   0.16000   0.16000   0.18525
     Eigenvalues ---    0.22000   0.22000   0.22388   0.23478   0.23807
     Eigenvalues ---    0.24996   0.25000   0.25000   0.25000   0.25000
     Eigenvalues ---    0.26823   0.34794   0.34814   0.34833   0.35324
     Eigenvalues ---    0.35346   0.35395   0.35591   0.35631   0.36244
     Eigenvalues ---    0.36894   0.37349   0.39859   0.41515   0.41970
     Eigenvalues ---    0.43275   0.44493   0.45327   0.45636   0.46367
     Eigenvalues ---    0.46880   0.47014   0.48698   0.51906   0.59844
     Eigenvalues ---    0.88683   0.89242
 RFO step:  Lambda=-4.76857989D-05 EMin= 4.86809944D-03
 Linear search not attempted -- first point.
 Iteration  1 RMS(Cart)=  0.00738541 RMS(Int)=  0.00002188
 Iteration  2 RMS(Cart)=  0.00003457 RMS(Int)=  0.00000122
 Iteration  3 RMS(Cart)=  0.00000000 RMS(Int)=  0.00000122
 ITry= 1 IFail=0 DXMaxC= 2.71D-02 DCOld= 1.00D+10 DXMaxT= 3.00D-01 DXLimC= 3.00D+00 Rises=F
 Variable       Old X    -DE/DX   Delta X   Delta X   Delta X     New X
                                 (Linear)    (Quad)   (Total)
    R1        2.77246  -0.00041   0.00000  -0.00046  -0.00046   2.77200
    R2        3.19706  -0.00160   0.00000  -0.00435  -0.00435   3.19271
    R3        3.38486  -0.00019   0.00000  -0.00070  -0.00070   3.38416
    R4        2.76984  -0.00033   0.00000  -0.00037  -0.00037   2.76948
    R5        2.63004   0.00005   0.00000   0.00011   0.00011   2.63015
    R6        1.92568   0.00056   0.00000   0.00126   0.00126   1.92695
    R7        2.49447   0.00026   0.00000   0.00045   0.00045   2.49492
    R8        2.68372   0.00091   0.00000   0.00226   0.00226   2.68598
    R9        2.65653  -0.00025   0.00000  -0.00065  -0.00065   2.65588
   R10        2.56021   0.00015   0.00000   0.00021   0.00021   2.56043
   R11        2.75323   0.00125   0.00000   0.00334   0.00334   2.75657
   R12        2.58359   0.00017   0.00000   0.00037   0.00037   2.58396
   R13        2.65420   0.00044   0.00000   0.00096   0.00096   2.65516
   R14        2.65299   0.00039   0.00000   0.00084   0.00084   2.65383
   R15        2.63054  -0.00009   0.00000  -0.00019  -0.00019   2.63035
   R16        2.04726   0.00080   0.00000   0.00224   0.00224   2.04950
   R17        2.64033   0.00035   0.00000   0.00077   0.00077   2.64111
   R18        2.05039  -0.00019   0.00000  -0.00054  -0.00054   2.04984
   R19        2.63787   0.00062   0.00000   0.00136   0.00136   2.63923
   R20        2.05152  -0.00060   0.00000  -0.00170  -0.00170   2.04981
   R21        2.63265  -0.00021   0.00000  -0.00046  -0.00046   2.63219
   R22        2.05117  -0.00053   0.00000  -0.00150  -0.00150   2.04967
   R23        2.04662   0.00028   0.00000   0.00079   0.00079   2.04741
   R24        2.03702  -0.00029   0.00000  -0.00080  -0.00080   2.03623
   R25        2.05947  -0.00028   0.00000  -0.00081  -0.00081   2.05866
   R26        2.05977  -0.00035   0.00000  -0.00100  -0.00100   2.05878
   R27        2.06011   0.00035   0.00000   0.00100   0.00100   2.06111
    A1        1.81422   0.00019   0.00000   0.00157   0.00157   1.81578
    A2        1.91333   0.00019   0.00000   0.00105   0.00105   1.91437
    A3        2.09032  -0.00026   0.00000  -0.00209  -0.00209   2.08823
    A4        1.84871  -0.00031   0.00000  -0.00069  -0.00069   1.84802
    A5        1.88515   0.00016   0.00000   0.00072   0.00072   1.88588
    A6        1.89642   0.00002   0.00000  -0.00037  -0.00037   1.89605
    A7        2.17275  -0.00084   0.00000  -0.00389  -0.00389   2.16886
    A8        1.96485   0.00058   0.00000   0.00281   0.00281   1.96765
    A9        2.02468   0.00016   0.00000   0.00000   0.00000   2.02468
   A10        2.13843  -0.00069   0.00000  -0.00291  -0.00291   2.13552
   A11        2.17819   0.00079   0.00000   0.00304   0.00304   2.18123
   A12        1.96642  -0.00010   0.00000  -0.00013  -0.00013   1.96629
   A13        1.82475   0.00014   0.00000   0.00048   0.00048   1.82523
   A14        1.91385   0.00004   0.00000  -0.00021  -0.00021   1.91363
   A15        2.05131  -0.00037   0.00000  -0.00148  -0.00148   2.04984
   A16        1.90880   0.00026   0.00000   0.00103   0.00103   1.90983
   A17        2.32307   0.00011   0.00000   0.00045   0.00045   2.32352
   A18        2.09371   0.00015   0.00000   0.00064   0.00064   2.09435
   A19        2.10482  -0.00008   0.00000  -0.00029  -0.00029   2.10453
   A20        2.08465  -0.00007   0.00000  -0.00035  -0.00035   2.08430
   A21        2.09636   0.00014   0.00000   0.00059   0.00059   2.09695
   A22        2.09216  -0.00002   0.00000  -0.00000  -0.00000   2.09216
   A23        2.09466  -0.00012   0.00000  -0.00059  -0.00059   2.09407
   A24        2.09848  -0.00011   0.00000  -0.00046  -0.00046   2.09802
   A25        2.08830   0.00003   0.00000   0.00008   0.00008   2.08837
   A26        2.09641   0.00008   0.00000   0.00039   0.00039   2.09680
   A27        2.09215   0.00001   0.00000   0.00008   0.00008   2.09223
   A28        2.09595  -0.00012   0.00000  -0.00074  -0.00074   2.09521
   A29        2.09508   0.00011   0.00000   0.00067   0.00067   2.09575
   A30        2.09828   0.00001   0.00000   0.00007   0.00007   2.09835
   A31        2.09817  -0.00015   0.00000  -0.00094  -0.00094   2.09723
   A32        2.08673   0.00014   0.00000   0.00088   0.00088   2.08761
   A33        2.09644   0.00003   0.00000   0.00008   0.00008   2.09652
   A34        2.08648  -0.00010   0.00000  -0.00057  -0.00057   2.08591
   A35        2.10027   0.00007   0.00000   0.00049   0.00049   2.10075
   A36        1.81097  -0.00034   0.00000  -0.00117  -0.00117   1.80979
   A37        2.22636   0.00015   0.00000   0.00046   0.00046   2.22682
   A38        2.24586   0.00019   0.00000   0.00072   0.00072   2.24658
   A39        1.89619  -0.00039   0.00000  -0.00273  -0.00273   1.89346
   A40        1.89111  -0.00050   0.00000  -0.00317  -0.00317   1.88794
   A41        1.86784  -0.00032   0.00000  -0.00171  -0.00171   1.86613
   A42        1.94306   0.00037   0.00000   0.00171   0.00170   1.94476
   A43        1.93459   0.00033   0.00000   0.00210   0.00209   1.93668
   A44        1.92865   0.00045   0.00000   0.00341   0.00341   1.93206
    D1        3.03224   0.00004   0.00000  -0.00042  -0.00043   3.03182
    D2        0.42269   0.00013   0.00000   0.00152   0.00152   0.42421
    D3        1.01614  -0.00012   0.00000  -0.00199  -0.00199   1.01414
    D4       -1.59341  -0.00003   0.00000  -0.00005  -0.00005  -1.59346
    D5       -1.01312  -0.00007   0.00000  -0.00156  -0.00156  -1.01468
    D6        2.66052   0.00002   0.00000   0.00038   0.00038   2.66090
    D7       -0.85141  -0.00013   0.00000   0.00084   0.00084  -0.85057
    D8       -2.96481  -0.00004   0.00000   0.00227   0.00227  -2.96255
    D9        1.23837  -0.00013   0.00000   0.00088   0.00088   1.23925
   D10        1.09606   0.00002   0.00000   0.00277   0.00277   1.09883
   D11       -1.01734   0.00011   0.00000   0.00420   0.00420  -1.01314
   D12       -3.09734   0.00002   0.00000   0.00281   0.00281  -3.09453
   D13        3.11767   0.00006   0.00000   0.00308   0.00308   3.12075
   D14        1.00428   0.00014   0.00000   0.00451   0.00450   1.00878
   D15       -1.07573   0.00006   0.00000   0.00312   0.00312  -1.07261
   D16        0.23441  -0.00003   0.00000  -0.00078  -0.00078   0.23363
   D17       -2.92690  -0.00003   0.00000  -0.00079  -0.00079  -2.92769
   D18        2.82776  -0.00002   0.00000  -0.00208  -0.00208   2.82568
   D19       -0.33355  -0.00002   0.00000  -0.00209  -0.00209  -0.33564
   D20        3.12460  -0.00007   0.00000  -0.00348  -0.00348   3.12112
   D21        0.00055  -0.00008   0.00000  -0.00351  -0.00351  -0.00296
   D22       -3.12366   0.00008   0.00000   0.00334   0.00334  -3.12032
   D23        0.01958   0.00001   0.00000   0.00016   0.00016   0.01973
   D24       -0.00008   0.00007   0.00000   0.00330   0.00330   0.00322
   D25       -3.14003  -0.00000   0.00000   0.00011   0.00011  -3.13992
   D26       -0.00084   0.00005   0.00000   0.00241   0.00241   0.00157
   D27        3.14105  -0.00000   0.00000  -0.00011  -0.00011   3.14094
   D28        0.00082  -0.00001   0.00000  -0.00042  -0.00042   0.00040
   D29        3.12385   0.00008   0.00000   0.00606   0.00606   3.12992
   D30       -0.01843   0.00006   0.00000   0.00475   0.00475  -0.01368
   D31       -0.01951   0.00009   0.00000   0.00647   0.00647  -0.01303
   D32        3.12140   0.00007   0.00000   0.00516   0.00516   3.12656
   D33       -0.00046  -0.00004   0.00000  -0.00160  -0.00160  -0.00206
   D34        3.13947   0.00004   0.00000   0.00163   0.00163   3.14110
   D35       -3.14039  -0.00004   0.00000  -0.00198  -0.00198   3.14081
   D36       -0.00047   0.00003   0.00000   0.00125   0.00125   0.00078
   D37        3.13977  -0.00002   0.00000  -0.00111  -0.00111   3.13866
   D38       -0.00168  -0.00002   0.00000  -0.00113  -0.00113  -0.00281
   D39       -0.00114   0.00000   0.00000   0.00019   0.00019  -0.00095
   D40        3.14059   0.00000   0.00000   0.00017   0.00017   3.14076
   D41       -3.14000   0.00001   0.00000   0.00043   0.00043  -3.13957
   D42        0.00102   0.00002   0.00000   0.00117   0.00117   0.00219
   D43        0.00090  -0.00002   0.00000  -0.00087  -0.00087   0.00003
   D44       -3.14126  -0.00000   0.00000  -0.00013  -0.00013  -3.14139
   D45       -0.00077   0.00005   0.00000   0.00238   0.00238   0.00160
   D46       -3.14008  -0.00002   0.00000  -0.00114  -0.00114  -3.14121
   D47        3.14068   0.00005   0.00000   0.00240   0.00240  -3.14011
   D48        0.00137  -0.00002   0.00000  -0.00111  -0.00111   0.00026
   D49        0.00293  -0.00009   0.00000  -0.00426  -0.00426  -0.00133
   D50        3.14159  -0.00002   0.00000  -0.00070  -0.00071   3.14088
   D51       -3.14097  -0.00002   0.00000  -0.00073  -0.00073   3.14149
   D52       -0.00231   0.00006   0.00000   0.00282   0.00282   0.00052
   D53       -0.00317   0.00008   0.00000   0.00358   0.00358   0.00041
   D54        3.14084   0.00002   0.00000   0.00103   0.00104  -3.14131
   D55        3.14136   0.00000   0.00000   0.00002   0.00002   3.14138
   D56        0.00218  -0.00005   0.00000  -0.00252  -0.00252  -0.00033
   D57        0.00125  -0.00002   0.00000  -0.00102  -0.00102   0.00024
   D58       -3.13977  -0.00004   0.00000  -0.00176  -0.00176  -3.14153
   D59        3.14044   0.00003   0.00000   0.00151   0.00151  -3.14123
   D60       -0.00058   0.00002   0.00000   0.00076   0.00077   0.00019
         Item               Value     Threshold  Converged?
 Maximum Force            0.001605     0.000450     NO 
 RMS     Force            0.000311     0.000300     NO 
 Maximum Displacement     0.027059     0.001800     NO 
 RMS     Displacement     0.007393     0.001200     NO 
 Predicted change in Energy=-2.385408D-05
 Lowest energy point so far.  Saving SCF results.
 GradGradGradGradGradGradGradGradGradGradGradGradGradGradGradGradGradGrad

 Leave Link  103 at Tue Sep 22 18:10:05 2020, MaxMem=  2147483648 cpu:               0.1 elap:               0.0
 (Enter /prod/apps/gaussian/g16b1/l202.exe)
                          Input orientation:                          
 ---------------------------------------------------------------------
 Center     Atomic      Atomic             Coordinates (Angstroms)
 Number     Number       Type             X           Y           Z
 ---------------------------------------------------------------------
      1          8           0       -4.660610    1.120805   -0.047129
      2         16           0       -3.641460    0.065871   -0.060810
      3          7           0       -2.186429    0.904164   -0.246816
      4          6           0       -0.928030    0.312518   -0.187384
      5          7           0       -0.759492   -0.996047   -0.235641
      6          8           0        0.633128   -1.175780   -0.176088
      7          6           0        1.244870    0.030286   -0.092528
      8          6           0        2.701762    0.041672   -0.020477
      9          6           0        3.391913    1.263313    0.053387
     10          6           0        4.781875    1.277683    0.125774
     11          6           0        5.498575    0.077826    0.123465
     12          6           0        4.817463   -1.139225    0.049885
     13          6           0        3.426579   -1.161169   -0.021684
     14          6           0        0.301245    1.019871   -0.093601
     15          6           0       -3.556574   -0.711834    1.550096
     16          8           0       -3.696118   -0.981676   -1.084272
     17          1           0       -2.242827    1.868721    0.079114
     18          1           0        2.839493    2.196630    0.054049
     19          1           0        5.306555    2.225360    0.182879
[...]
 Alpha virt. eigenvalues --    0.10731   0.11983   0.12371   0.12577   0.12780
 Alpha virt. eigenvalues --    0.13282   0.13630   0.13831   0.14105   0.14481
 Alpha virt. eigenvalues --    0.14775   0.14830   0.15112   0.15820   0.15949
 Alpha virt. eigenvalues --    0.16298   0.16532   0.17473   0.17613   0.18181
 Alpha virt. eigenvalues --    0.18500   0.18565   0.19643   0.19995   0.20411
 Alpha virt. eigenvalues --    0.20535   0.20740   0.21911   0.22001   0.22977
 Alpha virt. eigenvalues --    0.23212   0.23511   0.24092   0.24772   0.25196
 Alpha virt. eigenvalues --    0.25733   0.25961   0.26621   0.26734   0.27351
 Alpha virt. eigenvalues --    0.27635   0.27889   0.28720   0.29387   0.30056
 Alpha virt. eigenvalues --    0.30311   0.30753   0.31012   0.31612   0.32247
 Alpha virt. eigenvalues --    0.32441   0.32825   0.33265   0.33422   0.33538
 Alpha virt. eigenvalues --    0.34122   0.34707   0.34811   0.35215   0.35895
 Alpha virt. eigenvalues --    0.36051   0.36499   0.37083   0.37463   0.38032
 Alpha virt. eigenvalues --    0.38195   0.38641   0.39043   0.39325   0.39737
 Alpha virt. eigenvalues --    0.40018   0.40547   0.40749   0.41243   0.42100
 Alpha virt. eigenvalues --    0.42865   0.42946   0.43723   0.43910   0.44274
 Alpha virt. eigenvalues --    0.44768   0.45338   0.46264   0.47728   0.48123
 Alpha virt. eigenvalues --    0.48387   0.49136   0.49730   0.50983   0.51510
 Alpha virt. eigenvalues --    0.51781   0.51921   0.52974   0.53539   0.54049
 Alpha virt. eigenvalues --    0.55158   0.55477   0.56127   0.56789   0.57210
 Alpha virt. eigenvalues --    0.57581   0.57793   0.58443   0.58496   0.58818
 Alpha virt. eigenvalues --    0.59176   0.59855   0.60637   0.61171   0.61838
 Alpha virt. eigenvalues --    0.62672   0.63108   0.63318   0.63882   0.65024
 Alpha virt. eigenvalues --    0.65132   0.65835   0.66487   0.67261   0.67437
 Alpha virt. eigenvalues --    0.67745   0.68048   0.68501   0.69014   0.69347
 Alpha virt. eigenvalues --    0.69803   0.70304   0.70722   0.71532   0.71706
 Alpha virt. eigenvalues --    0.71912   0.72216   0.72920   0.73916   0.74424
 Alpha virt. eigenvalues --    0.74845   0.76045   0.76187   0.76931   0.77766
 Alpha virt. eigenvalues --    0.78416   0.79161   0.79450   0.81044   0.82456
 Alpha virt. eigenvalues --    0.82956   0.84698   0.85793   0.86135   0.86954
 Alpha virt. eigenvalues --    0.87457   0.87570   0.88863   0.89063   0.89693
 Alpha virt. eigenvalues --    0.89951   0.90887   0.91330   0.91799   0.92247
 Alpha virt. eigenvalues --    0.92763   0.93338   0.94287   0.94672   0.95218
 Alpha virt. eigenvalues --    0.95726   0.96105   0.96480   0.96727   0.97601
 Alpha virt. eigenvalues --    0.99429   0.99983   1.01084   1.01452   1.01838
 Alpha virt. eigenvalues --    1.02268   1.04121   1.04322   1.04536   1.04763
 Alpha virt. eigenvalues --    1.05262   1.07438   1.08166   1.08789   1.09512
 Alpha virt. eigenvalues --    1.11053   1.12794   1.14168   1.14771   1.15108
 Alpha virt. eigenvalues --    1.16334   1.16973   1.17278   1.17743   1.19159
 Alpha virt. eigenvalues --    1.19364   1.21015   1.21673   1.22273   1.22836
 Alpha virt. eigenvalues --    1.24377   1.25400   1.26508   1.28625   1.29585
 Alpha virt. eigenvalues --    1.30602   1.32409   1.33538   1.34907   1.35078
 Alpha virt. eigenvalues --    1.36199   1.37948   1.40663   1.41185   1.42497
 Alpha virt. eigenvalues --    1.42773   1.43604   1.44756   1.45344   1.47098
 Alpha virt. eigenvalues --    1.48167   1.49656   1.50711   1.51656   1.51922
 Alpha virt. eigenvalues --    1.52374   1.52565   1.53850   1.54569   1.56535
 Alpha virt. eigenvalues --    1.56814   1.57924   1.59034   1.59763   1.60894
 Alpha virt. eigenvalues --    1.61133   1.61956   1.62493   1.63331   1.64602
 Alpha virt. eigenvalues --    1.66667   1.67187   1.68329   1.69576   1.69723
 Alpha virt. eigenvalues --    1.70541   1.71218   1.72048   1.72723   1.74226
 Alpha virt. eigenvalues --    1.74712   1.75586   1.76690   1.78059   1.78609
 Alpha virt. eigenvalues --    1.79564   1.80641   1.82274   1.82733   1.83101
 Alpha virt. eigenvalues --    1.85197   1.86218   1.87842   1.88841   1.89381
 Alpha virt. eigenvalues --    1.89876   1.91148   1.91324   1.93226   1.94279
 Alpha virt. eigenvalues --    1.94474   1.95565   1.95790   1.96899   1.97394
 Alpha virt. eigenvalues --    1.97898   1.99730   2.00145   2.01640   2.02723
 Alpha virt. eigenvalues --    2.03932   2.05401   2.06789   2.08273   2.08845
 Alpha virt. eigenvalues --    2.10055   2.11480   2.12589   2.13019   2.13317
 Alpha virt. eigenvalues --    2.16177   2.17256   2.17932   2.19128   2.19864
 Alpha virt. eigenvalues --    2.20450   2.21758   2.23337   2.24855   2.25405
 Alpha virt. eigenvalues --    2.27140   2.28283   2.29138   2.29471   2.30918
 Alpha virt. eigenvalues --    2.31566   2.33212   2.33987   2.35037   2.35775
 Alpha virt. eigenvalues --    2.36639   2.37280   2.38432   2.39463   2.40979
 Alpha virt. eigenvalues --    2.41522   2.45864   2.46200   2.46848   2.48951
 Alpha virt. eigenvalues --    2.50472   2.52719   2.54042   2.60005   2.61028
 Alpha virt. eigenvalues --    2.61494   2.62352   2.65781   2.69234   2.70549
 Alpha virt. eigenvalues --    2.74389   2.75461   2.77611   2.78282   2.79322
 Alpha virt. eigenvalues --    2.80996   2.81461   2.82279   2.83109   2.85917
 Alpha virt. eigenvalues --    2.86293   2.89391   2.91416   2.92892   2.94584
 Alpha virt. eigenvalues --    2.98705   2.99699   3.01832   3.03863   3.05451
 Alpha virt. eigenvalues --    3.12231   3.13100   3.15122   3.16469   3.21826
 Alpha virt. eigenvalues --    3.23169   3.32305   3.36147   3.38905   3.43953
 Alpha virt. eigenvalues --    3.47463   3.48368   3.51935   3.59536   3.64035
 Alpha virt. eigenvalues --    3.72312   3.73447   3.75781   3.76107   3.76794
 Alpha virt. eigenvalues --    3.78951   3.80355   3.81132   3.82591   3.84731
 Alpha virt. eigenvalues --    3.88150   3.89261   3.91589   3.95982   4.01695
 Alpha virt. eigenvalues --    4.03286   4.12517   4.29384   4.60448   4.88017
          Condensed to atoms (all electrons):
               1          2          3          4          5          6
     1  O    9.103300   0.003164  -0.015599  -0.022620   0.010512   0.000760
     2  S    0.003164  13.214883   0.086846  -0.037516  -0.003277  -0.022950
     3  N   -0.015599   0.086846   7.949324  -0.589024  -0.068021  -0.025983
     4  C   -0.022620  -0.037516  -0.589024  11.239567  -0.503667   0.441768
     5  N    0.010512  -0.003277  -0.068021  -0.503667   8.954942  -1.016659
     6  O    0.000760  -0.022950  -0.025983   0.441768  -1.016659  10.185487
     7  C    0.006643   0.054873   0.299609  -0.364003  -1.170479  -0.127356
     8  C   -0.000423   0.009208  -0.105770   0.371032   0.425144   0.371089
     9  C    0.000416  -0.001298   0.066017  -0.413573   0.217596  -0.108635
    10  C   -0.000035  -0.000038  -0.018376   0.011127   0.054767   0.047381
    11  C    0.000007  -0.000100   0.005834  -0.069993  -0.006287  -0.044573
    12  C   -0.000022   0.000455  -0.008362   0.207101  -0.060346  -0.024514
    13  C   -0.000045   0.002969   0.042198  -0.211445  -0.369807  -0.202541
    14  C    0.017511  -0.164514  -0.020509  -4.493254   0.833372  -0.292295
    15  C   -0.031324   0.346048   0.104163  -0.201576   0.018740  -0.004208
    16  O    0.011316  -0.064443   0.011270   0.001024   0.002786  -0.013134
    17  H    0.000654  -0.061507   0.323793   0.087066  -0.032558   0.012829
    18  H    0.000225   0.000356   0.004110   0.029454  -0.006606   0.006030
    19  H   -0.000004   0.000024  -0.000840   0.006165   0.001598   0.001533
    20  H    0.000000   0.000001   0.000190  -0.002383   0.000054  -0.000465
    21  H   -0.000002  -0.000009  -0.000482   0.003452  -0.001856   0.004509
    22  H    0.000045   0.000590   0.004243  -0.004906  -0.039486  -0.096325
    23  H   -0.002265   0.011643  -0.050928   0.529243  -0.047523  -0.000484
    24  H    0.022752  -0.005660  -0.048332  -0.004376  -0.005257   0.001854
    25  H    0.007399  -0.042177  -0.040430   0.015018   0.012333  -0.010278
    26  H    0.003529  -0.000126  -0.004280   0.028660   0.010692  -0.000332
               7          8          9         10         11         12
     1  O    0.006643  -0.000423   0.000416  -0.000035   0.000007  -0.000022
     2  S    0.054873   0.009208  -0.001298  -0.000038  -0.000100   0.000455
     3  N    0.299609  -0.105770   0.066017  -0.018376   0.005834  -0.008362
     4  C   -0.364003   0.371032  -0.413573   0.011127  -0.069993   0.207101
     5  N   -1.170479   0.425144   0.217596   0.054767  -0.006287  -0.060346
     6  O   -0.127356   0.371089  -0.108635   0.047381  -0.044573  -0.024514
     7  C   19.395625  -4.876593  -0.530320  -0.712498   0.493687  -0.470997
     8  C   -4.876593  19.172899  -6.872253   2.247028  -3.516620   1.498690
     9  C   -0.530320  -6.872253  21.151472  -6.571528   3.518734  -3.271361
    10  C   -0.712498   2.247028  -6.571528  13.892192  -3.249606   3.567421
    11  C    0.493687  -3.516620   3.518734  -3.249606   9.135540  -2.937839
    12  C   -0.470997   1.498690  -3.271361   3.567421  -2.937839  11.489332
    13  C   -0.015051  -5.693678  -0.080354  -3.281110   2.585323  -3.984582
    14  C   -6.935449   0.707582  -1.264271   0.561649  -0.281249   0.014492
    15  C   -0.058881  -0.003675   0.000616   0.000628  -0.000167   0.000125
    16  O   -0.046550   0.002484  -0.000035   0.000112  -0.000040  -0.000059
    17  H    0.008096  -0.000900  -0.001785  -0.001995  -0.000085   0.000922
    18  H   -0.129590   0.841087  -1.221574   0.225655  -0.117377   0.075615
    19  H   -0.042780  -0.139003   0.912054  -0.969091   0.303736  -0.260409
    20  H   -0.008353   0.028231  -0.087151   0.272388  -0.527388   0.357076
    21  H   -0.002003  -0.132014   0.084284  -0.219712   0.301441  -0.758870
    22  H    0.263349   0.254537  -0.081929   0.041914  -0.084181   0.316747
    23  H    0.763713  -0.026753  -0.019469   0.064997  -0.030621   0.017182
    24  H    0.011971  -0.001292   0.000149  -0.000048   0.000050  -0.000145
    25  H   -0.034783   0.006341  -0.000505   0.000822  -0.000420   0.000527
    26  H    0.005820   0.000607  -0.000319  -0.000006  -0.000005   0.000037
              13         14         15         16         17         18
     1  O   -0.000045   0.017511  -0.031324   0.011316   0.000654   0.000225
     2  S    0.002969  -0.164514   0.346048  -0.064443  -0.061507   0.000356
     3  N    0.042198  -0.020509   0.104163   0.011270   0.323793   0.004110
     4  C   -0.211445  -4.493254  -0.201576   0.001024   0.087066   0.029454
     5  N   -0.369807   0.833372   0.018740   0.002786  -0.032558  -0.006606
     6  O   -0.202541  -0.292295  -0.004208  -0.013134   0.012829   0.006030
     7  C   -0.015051  -6.935449  -0.058881  -0.046550   0.008096  -0.129590
     8  C   -5.693678   0.707582  -0.003675   0.002484  -0.000900   0.841087
     9  C   -0.080354  -1.264271   0.000616  -0.000035  -0.001785  -1.221574
    10  C   -3.281110   0.561649   0.000628   0.000112  -0.001995   0.225655
    11  C    2.585323  -0.281249  -0.000167  -0.000040  -0.000085  -0.117377
    12  C   -3.984582   0.014492   0.000125  -0.000059   0.000922   0.075615
    13  C   18.665810  -1.644796  -0.002106  -0.002625  -0.001298  -0.090864
    14  C   -1.644796  18.674996   0.117507   0.038140  -0.086936   0.165803
    15  C   -0.002106   0.117507   4.748388   0.004408  -0.025296  -0.000838
    16  O   -0.002625   0.038140   0.004408   9.130409  -0.000746  -0.000386
    17  H   -0.001298  -0.086936  -0.025296  -0.000746   0.832837  -0.000401
    18  H   -0.090864   0.165803  -0.000838  -0.000386  -0.000401   1.990082
    19  H    0.105072   0.044177   0.000047   0.000009  -0.000056  -0.078533
    20  H   -0.063515   0.001068  -0.000006  -0.000002  -0.000001  -0.017063
    21  H    0.667884   0.001945   0.000003   0.000010   0.000015   0.009214
    22  H   -0.784241  -0.035296  -0.000092  -0.000688  -0.000362  -0.013395
    23  H   -0.005560  -1.465339   0.002006   0.000968   0.008408  -0.089600
    24  H    0.000726  -0.003542   0.265328   0.013408   0.007256   0.000050
    25  H   -0.005741   0.015315   0.375015   0.049212  -0.003078  -0.000396
    26  H    0.000304  -0.010263   0.304939  -0.005152   0.000044   0.000053
              19         20         21         22         23         24
     1  O   -0.000004   0.000000  -0.000002   0.000045  -0.002265   0.022752
     2  S    0.000024   0.000001  -0.000009   0.000590   0.011643  -0.005660
     3  N   -0.000840   0.000190  -0.000482   0.004243  -0.050928  -0.048332
     4  C    0.006165  -0.002383   0.003452  -0.004906   0.529243  -0.004376
     5  N    0.001598   0.000054  -0.001856  -0.039486  -0.047523  -0.005257
     6  O    0.001533  -0.000465   0.004509  -0.096325  -0.000484   0.001854
     7  C   -0.042780  -0.008353  -0.002003   0.263349   0.763713   0.011971
     8  C   -0.139003   0.028231  -0.132014   0.254537  -0.026753  -0.001292
     9  C    0.912054  -0.087151   0.084284  -0.081929  -0.019469   0.000149
    10  C   -0.969091   0.272388  -0.219712   0.041914   0.064997  -0.000048
    11  C    0.303736  -0.527388   0.301441  -0.084181  -0.030621   0.000050
    12  C   -0.260409   0.357076  -0.758870   0.316747   0.017182  -0.000145
    13  C    0.105072  -0.063515   0.667884  -0.784241  -0.005560   0.000726
    14  C    0.044177   0.001068   0.001945  -0.035296  -1.465339  -0.003542
    15  C    0.000047  -0.000006   0.000003  -0.000092   0.002006   0.265328
    16  O    0.000009  -0.000002   0.000010  -0.000688   0.000968   0.013408
    17  H   -0.000056  -0.000001   0.000015  -0.000362   0.008408   0.007256
    18  H   -0.078533  -0.017063   0.009214  -0.013395  -0.089600   0.000050
    19  H    1.663160  -0.052375  -0.020305   0.006402  -0.000801  -0.000006
    20  H   -0.052375   1.599220  -0.057381  -0.010819   0.000302   0.000002
    21  H   -0.020305  -0.057381   1.646253  -0.088717   0.000691  -0.000011
    22  H    0.006402  -0.010819  -0.088717   2.009573  -0.001110   0.000227
    23  H   -0.000801   0.000302   0.000691  -0.001110   1.888997   0.000494
    24  H   -0.000006   0.000002  -0.000011   0.000227   0.000494   0.859615
    25  H    0.000042  -0.000016   0.000081  -0.001009   0.003572  -0.051390
    26  H    0.000000   0.000000  -0.000004   0.000156  -0.000549  -0.099778
              25         26
     1  O    0.007399   0.003529
     2  S   -0.042177  -0.000126
     3  N   -0.040430  -0.004280
     4  C    0.015018   0.028660
     5  N    0.012333   0.010692
     6  O   -0.010278  -0.000332
     7  C   -0.034783   0.005820
     8  C    0.006341   0.000607
     9  C   -0.000505  -0.000319
    10  C    0.000822  -0.000006
    11  C   -0.000420  -0.000005
    12  C    0.000527   0.000037
    13  C   -0.005741   0.000304
    14  C    0.015315  -0.010263
    15  C    0.375015   0.304939
    16  O    0.049212  -0.005152
    17  H   -0.003078   0.000044
    18  H   -0.000396   0.000053
    19  H    0.000042   0.000000
    20  H   -0.000016   0.000000
    21  H    0.000081  -0.000004
    22  H   -0.001009   0.000156
    23  H    0.003572  -0.000549
    24  H   -0.051390  -0.099778
    25  H    0.797121  -0.120389
    26  H   -0.120389   0.860298
 Mulliken charges:
               1
     1  O   -1.115896
     2  S    2.672557
     3  N   -0.900661
     4  C   -0.052343
     5  N   -0.210705
     6  O   -1.082507
     7  C    0.222301
     8  C    1.433014
     9  C    0.575022
    10  C    0.035965
    11  C    0.522200
    12  C    0.231786
    13  C    0.369075
    14  C    1.504157
    15  C    0.040207
    16  O   -1.131695
    17  H   -0.064917
    18  H   -0.581110
    19  H   -0.479812
    20  H   -0.431612
    21  H   -0.438419
    22  H   -0.655228
    23  H   -0.551212
    24  H    0.035957
    25  H    0.027814
    26  H    0.026061
 Sum of Mulliken charges =  -0.00000
 Mulliken charges with hydrogens summed into heavy atoms:
               1
     1  O   -1.115896
     2  S    2.672557
     3  N   -0.965578
     4  C   -0.052343
     5  N   -0.210705
     6  O   -1.082507
     7  C    0.222301
     8  C    1.433014
     9  C   -0.006087
    10  C   -0.443847
    11  C    0.090588
    12  C   -0.206633
    13  C   -0.286153
    14  C    0.952945
    15  C    0.130039
    16  O   -1.131695
 Electronic spatial extent (au):  <R**2>=           5873.1475
 Charge=             -0.0000 electrons
 Dipole moment (field-independent basis, Debye):
    X=              6.0732    Y=              2.6794    Z=              4.4220  Tot=              7.9760
 Quadrupole moment (field-independent basis, Debye-Ang):
   XX=           -104.3955   YY=            -95.3294   ZZ=           -104.3343
   XY=              2.8580   XZ=            -15.5179   YZ=             -3.1606
 Traceless Quadrupole moment (field-independent basis, Debye-Ang):
   XX=             -3.0424   YY=              6.0237   ZZ=             -2.9813
   XY=              2.8580   XZ=            -15.5179   YZ=             -3.1606
 Octapole moment (field-independent basis, Debye-Ang**2):
  XXX=            174.4011  YYY=             11.5695  ZZZ=              6.1522  XYY=             14.0455
  XXY=            -37.0297  XXZ=             60.8121  XZZ=            -39.5817  YZZ=             -2.3189
  YYZ=              5.7702  XYZ=             15.3304
 Hexadecapole moment (field-independent basis, Debye-Ang**3):
 XXXX=          -6870.7550 YYYY=           -583.6222 ZZZZ=           -273.1113 XXXY=            190.0465
 XXXZ=           -184.6377 YYYX=            -15.8520 YYYZ=              1.2979 ZZZX=            -30.0262
 ZZZY=             -0.9345 XXYY=          -1223.4876 XXZZ=          -1284.4150 YYZZ=           -161.8429
 XXYZ=            -42.4402 YYXZ=            -17.0489 ZZXY=             -7.4690
 N-N= 1.171415908780D+03 E-N=-4.968553495899D+03  KE= 1.114174660331D+03
 Leave Link  601 at Tue Sep 22 18:49:24 2020, MaxMem=   262144000 cpu:               0.9 elap:               0.5
 (Enter /prod/apps/gaussian/g16b1/l9999.exe)
 1\1\GINC-PIRINEUS30\SP\RMP2-FC\Aug-CC-pVDZ\C10H10N2O3S1\UBAFAR01\22-Se
 p-2020\0\\#p mp2/aug-cc-pVDZ scf=(MaxCycle=2000,NoVarAcc,NoIncFock) ma
 xdisk=120GB geom=allcheck\\SM41_m0.n.4.pdb.xyz\\0,1\O,0,-4.6620947194,
 1.116422328,-0.0568940427\S,0,-3.6408773912,0.0633750625,-0.0646644618
 \N,0,-2.1878519192,0.9030664856,-0.2514648617\C,0,-0.9288784876,0.3134
 673149,-0.1782813846\N,0,-0.7619281857,-0.996156326,-0.1834753254\O,0,
 0.6301038041,-1.1760789426,-0.1218804985\C,0,1.2437445614,0.0312066983
 ,-0.0807937815\C,0,2.7010421525,0.042175654,-0.0141876613\C,0,3.391393
 078,1.2625656064,0.0730393536\C,0,4.7817460419,1.275970967,0.138702091
 3\C,0,5.498309411,0.0762306412,0.118168015\C,0,4.8166392146,-1.1397328
 838,0.0314770405\C,0,3.4257281638,-1.1604331074,-0.0344674995\C,0,0.30
 18368722,1.0216149606,-0.1134300051\C,0,-3.5541524208,-0.7097809281,1.
 5490526917\O,0,-3.6930876248,-0.9876783056,-1.0848471752\H,0,-2.247028
 5027,1.871807708,0.0615300908\H,0,2.8390996413,2.195720949,0.091601470
 2\H,0,5.306718649,2.2227553941,0.2066946102\H,0,6.5817173263,0.0897564
 881,0.1697868912\H,0,5.3684265992,-2.0734100622,0.0147488825\H,0,2.894
 6186345,-2.102252754,-0.1025471195\H,0,0.4458102846,2.0893595545,-0.09
 94170831\H,0,-3.5020204625,0.0734544136,2.3044955925\H,0,-2.6685807962
 ,-1.3441709003,1.5700081867\H,0,-4.4604339243,-1.3052560155,1.66504598
 37\\Version=ES64L-G16RevB.01\State=1-A\HF=-1115.469667\MP2=-1117.92115
 29\RMSD=5.517e-09\PG=C01 [X(C10H10N2O3S1)]\\@


 FAULTILY FAULTLESS, ICILY REGULAR, SPLENDIDLY NULL...
           MAUDE BY TENNYSON
 Job cpu time:       0 days  1 hours 26 minutes  9.7 seconds.
 Elapsed time:       0 days  0 hours 24 minutes 47.7 seconds.
 File lengths (MBytes):  RWF=  34900 Int=      0 D2E=      0 Chk=     19 Scr=      1
 Normal termination of Gaussian 16 at Tue Sep 22 18:49:29 2020.
