 Entering Gaussian System, Link 0=g16
 Initial command:
 /prod/apps/gaussian/g16b1/l1.exe "/tmp/ubafar01/1460522/Gau-181527.inp" -scrdir="/tmp/ubafar01/1460522/"
 Entering Link 1 = /prod/apps/gaussian/g16b1/l1.exe PID=    181529.
  
 Copyright (c) 1988-2017, Gaussian, Inc.  All Rights Reserved.
  
 This is part of the Gaussian(R) 16 program.  It is based on
 the Gaussian(R) 09 system (copyright 2009, Gaussian, Inc.),
 the Gaussian(R) 03 system (copyright 2003, Gaussian, Inc.),
 the Gaussian(R) 98 system (copyright 1998, Gaussian, Inc.),
 the Gaussian(R) 94 system (copyright 1995, Gaussian, Inc.),
 the Gaussian 92(TM) system (copyright 1992, Gaussian, Inc.),
 the Gaussian 90(TM) system (copyright 1990, Gaussian, Inc.),
 the Gaussian 88(TM) system (copyright 1988, Gaussian, Inc.),
 the Gaussian 86(TM) system (copyright 1986, Carnegie Mellon
 University), and the Gaussian 82(TM) system (copyright 1983,
 Carnegie Mellon University). Gaussian is a federally registered
 trademark of Gaussian, Inc.
  
 This software contains proprietary and confidential information,
 including trade secrets, belonging to Gaussian, Inc.
  
 This software is provided under written license and may be
 used, copied, transmitted, or stored only in accord with that
 written license.
  
 The following legend is applicable only to US Government
 contracts under FAR:
  
                    RESTRICTED RIGHTS LEGEND
  
 Use, reproduction and disclosure by the US Government is
 subject to restrictions as set forth in subparagraphs (a)
 and (c) of the Commercial Computer Software - Restricted
 Rights clause in FAR 52.227-19.
  
 Gaussian, Inc.
 340 Quinnipiac St., Bldg. 40, Wallingford CT 06492
  
  
 ---------------------------------------------------------------
 Warning -- This program may not be used in any manner that
 competes with the business of Gaussian, Inc. or will provide
 assistance to any competitor of Gaussian, Inc.  The licensee
 of this program is prohibited from giving any competitor of
 Gaussian, Inc. access to this program.  By using this program,
 the user acknowledges that Gaussian, Inc. is engaged in the
 business of creating and licensing software in the field of
 computational chemistry and represents and warrants to the
 licensee that it is not a competitor of Gaussian, Inc. and that
 it will not use this program in any manner prohibited above.
 ---------------------------------------------------------------
  

 Cite this work as:
 Gaussian 16, Revision B.01,
 M. J. Frisch, G. W. Trucks, H. B. Schlegel, G. E. Scuseria, 
 M. A. Robb, J. R. Cheeseman, G. Scalmani, V. Barone, 
 G. A. Petersson, H. Nakatsuji, X. Li, M. Caricato, A. V. Marenich, 
 J. Bloino, B. G. Janesko, R. Gomperts, B. Mennucci, H. P. Hratchian, 
 J. V. Ortiz, A. F. Izmaylov, J. L. Sonnenberg, D. Williams-Young, 
 F. Ding, F. Lipparini, F. Egidi, J. Goings, B. Peng, A. Petrone, 
 T. Henderson, D. Ranasinghe, V. G. Zakrzewski, J. Gao, N. Rega, 
 G. Zheng, W. Liang, M. Hada, M. Ehara, K. Toyota, R. Fukuda, 
 J. Hasegawa, M. Ishida, T. Nakajima, Y. Honda, O. Kitao, H. Nakai, 
 T. Vreven, K. Throssell, J. A. Montgomery, Jr., J. E. Peralta, 
 F. Ogliaro, M. J. Bearpark, J. J. Heyd, E. N. Brothers, K. N. Kudin, 
 V. N. Staroverov, T. A. Keith, R. Kobayashi, J. Normand, 
 K. Raghavachari, A. P. Rendell, J. C. Burant, S. S. Iyengar, 
 J. Tomasi, M. Cossi, J. M. Millam, M. Klene, C. Adamo, R. Cammi, 
 J. W. Ochterski, R. L. Martin, K. Morokuma, O. Farkas, 
 J. B. Foresman, and D. J. Fox, Gaussian, Inc., Wallingford CT, 2016.
 
 ******************************************
 Gaussian 16:  ES64L-G16RevB.01 20-Dec-2017
                22-Sep-2020 
 ******************************************
 %nproc=4
 Will use up to    4 processors via shared memory.
 %Chk=SM41_m0.n.7.pdb.xyz.mst.n.w.chk
 %mem=16GB
 ----------------------------------------------------------------------
 #p b3lyp/6-31G(d) opt freq NoSymm scf=(MaxCycle=2000,NoVarAcc,NoIncFoc
 k) scrf=(iefpcm,read,solvent=water)
 ----------------------------------------------------------------------
 1/18=20,19=15,26=3,38=1,40=2/1,3;
 2/9=110,12=2,15=1,17=6,18=5,40=1/2;
 3/5=1,6=6,7=1,11=2,25=1,30=1,70=2203,71=1,72=1,74=-5/1,2,3;
 4//1;
 5/5=100002,7=2000,38=1,53=1/2;
 6/7=2,8=2,9=2,10=2,28=1/1;
 7/30=1/1,2,3,16;
 1/18=20,19=15,26=3/3(2);
 2/9=110,15=1/2;
 99//99;
 2/9=110,15=1/2;
 3/5=1,6=6,7=1,11=2,25=1,30=1,70=2205,71=1,72=1,74=-5/1,2,3;
 4/5=5,16=3,69=1/1;
 5/5=100002,7=2000,38=1,53=1/2;
 7/30=1/1,2,3,16;
 1/18=20,19=15,26=3/3(-5);
 2/9=110,15=1/2;
 6/7=2,8=2,9=2,10=2,19=2,28=1/1;
 99/9=1/99;
 Leave Link    1 at Tue Sep 22 18:09:11 2020, MaxMem=  2147483648 cpu:               0.1 elap:               0.0
 (Enter /prod/apps/gaussian/g16b1/l101.exe)
 -------------------
 SM41_m0.n.7.pdb.xyz
 -------------------
 Symbolic Z-matrix:
 Charge =  0 Multiplicity = 1
 O                    -4.693    -0.179    -0.555 
 S                    -3.352    -0.47     -0.039 
 N                    -2.407     0.833    -0.554 
 C                    -1.031     0.907    -0.313 
 N                    -0.49      2.087    -0.073 
 O                     0.886     1.83      0.032 
 C                     1.115     0.505    -0.128 
 C                     2.498     0.047    -0.041 
 C                     2.796    -1.32     -0.169 
 C                     4.115    -1.758    -0.088 
 C                     5.149    -0.841     0.122 
 C                     4.858     0.519     0.25 
 C                     3.541     0.963     0.169 
 C                    -0.071    -0.138    -0.357 
 C                    -3.39     -0.407     1.753 
 O                    -2.654    -1.692    -0.452 
 H                    -2.9       1.723    -0.466 
 H                     1.997    -2.034    -0.33 
 H                     4.336    -2.815    -0.188 
 H                     6.176    -1.186     0.184 
 H                     5.657     1.234     0.412 
 H                     3.312     2.017     0.268 
 H                    -0.255    -1.182    -0.537 
 H                    -3.833     0.54      2.059 
 H                    -2.373    -0.505     2.131 
 H                    -4.003    -1.244     2.089 
 
 ITRead=  0  0  0  0  0  0  0  0  0  0  0  0  0  0  0  0  0  0  0  0
 ITRead=  0  0  0  0  0  0
 MicOpt= -1 -1 -1 -1 -1 -1 -1 -1 -1 -1 -1 -1 -1 -1 -1 -1 -1 -1 -1 -1
 MicOpt= -1 -1 -1 -1 -1 -1
 NAtoms=     26 NQM=       26 NQMF=       0 NMMI=      0 NMMIF=      0
                NMic=       0 NMicF=      0.
                    Isotopes and Nuclear Properties:
 (Nuclear quadrupole moments (NQMom) in fm**2, nuclear magnetic moments (NMagM)
  in nuclear magnetons)

  Atom         1           2           3           4           5           6           7           8           9          10
 IAtWgt=          16          32          14          12          14          16          12          12          12          12
 AtmWgt=  15.9949146  31.9720718  14.0030740  12.0000000  14.0030740  15.9949146  12.0000000  12.0000000  12.0000000  12.0000000
 NucSpn=           0           0           2           0           2           0           0           0           0           0
 AtZEff=  -0.0000000  -0.0000000  -0.0000000  -0.0000000  -0.0000000  -0.0000000  -0.0000000  -0.0000000  -0.0000000  -0.0000000
 NQMom=    0.0000000   0.0000000   2.0440000   0.0000000   2.0440000   0.0000000   0.0000000   0.0000000   0.0000000   0.0000000
 NMagM=    0.0000000   0.0000000   0.4037610   0.0000000   0.4037610   0.0000000   0.0000000   0.0000000   0.0000000   0.0000000
 AtZNuc=   8.0000000  16.0000000   7.0000000   6.0000000   7.0000000   8.0000000   6.0000000   6.0000000   6.0000000   6.0000000

  Atom        11          12          13          14          15          16          17          18          19          20
 IAtWgt=          12          12          12          12          12          16           1           1           1           1
 AtmWgt=  12.0000000  12.0000000  12.0000000  12.0000000  12.0000000  15.9949146   1.0078250   1.0078250   1.0078250   1.0078250
 NucSpn=           0           0           0           0           0           0           1           1           1           1
 AtZEff=  -0.0000000  -0.0000000  -0.0000000  -0.0000000  -0.0000000  -0.0000000  -0.0000000  -0.0000000  -0.0000000  -0.0000000
 NQMom=    0.0000000   0.0000000   0.0000000   0.0000000   0.0000000   0.0000000   0.0000000   0.0000000   0.0000000   0.0000000
 NMagM=    0.0000000   0.0000000   0.0000000   0.0000000   0.0000000   0.0000000   2.7928460   2.7928460   2.7928460   2.7928460
 AtZNuc=   6.0000000   6.0000000   6.0000000   6.0000000   6.0000000   8.0000000   1.0000000   1.0000000   1.0000000   1.0000000

  Atom        21          22          23          24          25          26
 IAtWgt=           1           1           1           1           1           1
 AtmWgt=   1.0078250   1.0078250   1.0078250   1.0078250   1.0078250   1.0078250
 NucSpn=           1           1           1           1           1           1
 AtZEff=  -0.0000000  -0.0000000  -0.0000000  -0.0000000  -0.0000000  -0.0000000
 NQMom=    0.0000000   0.0000000   0.0000000   0.0000000   0.0000000   0.0000000
 NMagM=    2.7928460   2.7928460   2.7928460   2.7928460   2.7928460   2.7928460
 AtZNuc=   1.0000000   1.0000000   1.0000000   1.0000000   1.0000000   1.0000000
 Leave Link  101 at Tue Sep 22 18:09:12 2020, MaxMem=  2147483648 cpu:               1.2 elap:               0.3
 (Enter /prod/apps/gaussian/g16b1/l103.exe)

 GradGradGradGradGradGradGradGradGradGradGradGradGradGradGradGradGradGrad
 Berny optimization.
 Initialization pass.
                           ----------------------------
                           !    Initial Parameters    !
                           ! (Angstroms and Degrees)  !
 --------------------------                            --------------------------
 ! Name  Definition              Value          Derivative Info.                !
 --------------------------------------------------------------------------------
 ! R1    R(1,2)                  1.466          estimate D2E/DX2                !
 ! R2    R(2,3)                  1.69           estimate D2E/DX2                !
 ! R3    R(2,15)                 1.7935         estimate D2E/DX2                !
 ! R4    R(2,16)                 1.4666         estimate D2E/DX2                !
 ! R5    R(3,4)                  1.3989         estimate D2E/DX2                !
 ! R6    R(3,17)                 1.0212         estimate D2E/DX2                !
 ! R7    R(4,5)                  1.3201         estimate D2E/DX2                !
 ! R8    R(4,14)                 1.4197         estimate D2E/DX2                !
 ! R9    R(5,6)                  1.4037         estimate D2E/DX2                !
 ! R10   R(6,7)                  1.3541         estimate D2E/DX2                !
 ! R11   R(7,8)                  1.4595         estimate D2E/DX2                !
 ! R12   R(7,14)                 1.3684         estimate D2E/DX2                !
 ! R13   R(8,9)                  1.4049         estimate D2E/DX2                !
 ! R14   R(8,13)                 1.4039         estimate D2E/DX2                !
 ! R15   R(9,10)                 1.3922         estimate D2E/DX2                !
 ! R16   R(9,18)                 1.0836         estimate D2E/DX2                !
 ! R17   R(10,11)                1.3979         estimate D2E/DX2                !
 ! R18   R(10,19)                1.0845         estimate D2E/DX2                !
 ! R19   R(11,12)                1.3967         estimate D2E/DX2                !
 ! R20   R(11,20)                1.0852         estimate D2E/DX2                !
 ! R21   R(12,13)                1.3922         estimate D2E/DX2                !
 ! R22   R(12,21)                1.0844         estimate D2E/DX2                !
 ! R23   R(13,22)                1.0831         estimate D2E/DX2                !
 ! R24   R(14,23)                1.0753         estimate D2E/DX2                !
 ! R25   R(15,24)                1.0894         estimate D2E/DX2                !
 ! R26   R(15,25)                1.0894         estimate D2E/DX2                !
 ! R27   R(15,26)                1.0905         estimate D2E/DX2                !
 ! A1    A(1,2,3)              104.5478         estimate D2E/DX2                !
 ! A2    A(1,2,15)             108.9852         estimate D2E/DX2                !
 ! A3    A(1,2,16)             120.106          estimate D2E/DX2                !
 ! A4    A(3,2,15)             106.8127         estimate D2E/DX2                !
 ! A5    A(3,2,16)             106.886          estimate D2E/DX2                !
 ! A6    A(15,2,16)            108.7058         estimate D2E/DX2                !
 ! A7    A(2,3,4)              122.5684         estimate D2E/DX2                !
 ! A8    A(2,3,17)             112.0698         estimate D2E/DX2                !
 ! A9    A(4,3,17)             114.4503         estimate D2E/DX2                !
 ! A10   A(3,4,5)              118.7972         estimate D2E/DX2                !
 ! A11   A(3,4,14)             128.3782         estimate D2E/DX2                !
 ! A12   A(5,4,14)             112.7348         estimate D2E/DX2                !
 ! A13   A(4,5,6)              104.5762         estimate D2E/DX2                !
 ! A14   A(5,6,7)              109.6382         estimate D2E/DX2                !
 ! A15   A(6,7,8)              117.4048         estimate D2E/DX2                !
 ! A16   A(6,7,14)             109.4503         estimate D2E/DX2                !
 ! A17   A(8,7,14)             133.1431         estimate D2E/DX2                !
 ! A18   A(7,8,9)              120.0598         estimate D2E/DX2                !
 ! A19   A(7,8,13)             120.5415         estimate D2E/DX2                !
 ! A20   A(9,8,13)             119.3987         estimate D2E/DX2                !
 ! A21   A(8,9,10)             120.1174         estimate D2E/DX2                !
 ! A22   A(8,9,18)             119.8856         estimate D2E/DX2                !
 ! A23   A(10,9,18)            119.9969         estimate D2E/DX2                !
 ! A24   A(9,10,11)            120.209          estimate D2E/DX2                !
 ! A25   A(9,10,19)            119.627          estimate D2E/DX2                !
 ! A26   A(11,10,19)           120.164          estimate D2E/DX2                !
 ! A27   A(10,11,12)           119.8951         estimate D2E/DX2                !
 ! A28   A(10,11,20)           120.0038         estimate D2E/DX2                !
 ! A29   A(12,11,20)           120.101          estimate D2E/DX2                !
 ! A30   A(11,12,13)           120.1536         estimate D2E/DX2                !
 ! A31   A(11,12,21)           120.1475         estimate D2E/DX2                !
 ! A32   A(13,12,21)           119.6989         estimate D2E/DX2                !
 ! A33   A(8,13,12)            120.2262         estimate D2E/DX2                !
 ! A34   A(8,13,22)            119.4401         estimate D2E/DX2                !
 ! A35   A(12,13,22)           120.3338         estimate D2E/DX2                !
 ! A36   A(4,14,7)             103.592          estimate D2E/DX2                !
 ! A37   A(4,14,23)            127.1673         estimate D2E/DX2                !
 ! A38   A(7,14,23)            129.2393         estimate D2E/DX2                !
 ! A39   A(2,15,24)            108.6518         estimate D2E/DX2                !
 ! A40   A(2,15,25)            108.8899         estimate D2E/DX2                !
 ! A41   A(2,15,26)            107.0257         estimate D2E/DX2                !
 ! A42   A(24,15,25)           111.1232         estimate D2E/DX2                !
 ! A43   A(24,15,26)           110.6149         estimate D2E/DX2                !
 ! A44   A(25,15,26)           110.4145         estimate D2E/DX2                !
 ! D1    D(1,2,3,4)           -177.073          estimate D2E/DX2                !
 ! D2    D(1,2,3,17)            40.8399         estimate D2E/DX2                !
 ! D3    D(15,2,3,4)            67.4899         estimate D2E/DX2                !
 ! D4    D(15,2,3,17)          -74.5972         estimate D2E/DX2                !
 ! D5    D(16,2,3,4)           -48.7319         estimate D2E/DX2                !
 ! D6    D(16,2,3,17)          169.181          estimate D2E/DX2                !
 ! D7    D(1,2,15,24)          -52.1525         estimate D2E/DX2                !
 ! D8    D(1,2,15,25)         -173.3173         estimate D2E/DX2                !
 ! D9    D(1,2,15,26)           67.3195         estimate D2E/DX2                !
 ! D10   D(3,2,15,24)           60.2713         estimate D2E/DX2                !
 ! D11   D(3,2,15,25)          -60.8936         estimate D2E/DX2                !
 ! D12   D(3,2,15,26)          179.7432         estimate D2E/DX2                !
 ! D13   D(16,2,15,24)         175.2746         estimate D2E/DX2                !
 ! D14   D(16,2,15,25)          54.1097         estimate D2E/DX2                !
 ! D15   D(16,2,15,26)         -65.2535         estimate D2E/DX2                !
 ! D16   D(2,3,4,5)           -144.8199         estimate D2E/DX2                !
 ! D17   D(2,3,4,14)            38.8978         estimate D2E/DX2                !
 ! D18   D(17,3,4,5)            -3.5414         estimate D2E/DX2                !
 ! D19   D(17,3,4,14)         -179.8238         estimate D2E/DX2                !
 ! D20   D(3,4,5,6)           -176.1082         estimate D2E/DX2                !
 ! D21   D(14,4,5,6)             0.7325         estimate D2E/DX2                !
 ! D22   D(3,4,14,7)           176.2075         estimate D2E/DX2                !
 ! D23   D(3,4,14,23)           -3.3896         estimate D2E/DX2                !
 ! D24   D(5,4,14,7)            -0.2604         estimate D2E/DX2                !
 ! D25   D(5,4,14,23)         -179.8575         estimate D2E/DX2                !
 ! D26   D(4,5,6,7)             -0.9461         estimate D2E/DX2                !
 ! D27   D(5,6,7,8)           -179.6032         estimate D2E/DX2                !
 ! D28   D(5,6,7,14)             0.8245         estimate D2E/DX2                !
 ! D29   D(6,7,8,9)            178.5925         estimate D2E/DX2                !
 ! D30   D(6,7,8,13)            -1.4805         estimate D2E/DX2                !
 ! D31   D(14,7,8,9)            -1.9602         estimate D2E/DX2                !
 ! D32   D(14,7,8,13)          177.9668         estimate D2E/DX2                !
 ! D33   D(6,7,14,4)            -0.3575         estimate D2E/DX2                !
 ! D34   D(6,7,14,23)          179.2279         estimate D2E/DX2                !
 ! D35   D(8,7,14,4)          -179.8371         estimate D2E/DX2                !
 ! D36   D(8,7,14,23)           -0.2517         estimate D2E/DX2                !
 ! D37   D(7,8,9,10)           179.9137         estimate D2E/DX2                !
 ! D38   D(7,8,9,18)            -0.15           estimate D2E/DX2                !
 ! D39   D(13,8,9,10)           -0.0142         estimate D2E/DX2                !
 ! D40   D(13,8,9,18)          179.9222         estimate D2E/DX2                !
 ! D41   D(7,8,13,12)         -179.9553         estimate D2E/DX2                !
 ! D42   D(7,8,13,22)            0.0864         estimate D2E/DX2                !
 ! D43   D(9,8,13,12)           -0.0278         estimate D2E/DX2                !
 ! D44   D(9,8,13,22)         -179.9861         estimate D2E/DX2                !
 ! D45   D(8,9,10,11)            0.051          estimate D2E/DX2                !
 ! D46   D(8,9,10,19)         -179.9947         estimate D2E/DX2                !
 ! D47   D(18,9,10,11)        -179.8852         estimate D2E/DX2                !
 ! D48   D(18,9,10,19)           0.069          estimate D2E/DX2                !
 ! D49   D(9,10,11,12)          -0.0459         estimate D2E/DX2                !
 ! D50   D(9,10,11,20)        -179.9634         estimate D2E/DX2                !
 ! D51   D(19,10,11,12)       -179.9999         estimate D2E/DX2                !
 ! D52   D(19,10,11,20)          0.0826         estimate D2E/DX2                !
 ! D53   D(10,11,12,13)          0.0038         estimate D2E/DX2                !
 ! D54   D(10,11,12,21)       -179.9388         estimate D2E/DX2                !
 ! D55   D(20,11,12,13)        179.9212         estimate D2E/DX2                !
 ! D56   D(20,11,12,21)         -0.0213         estimate D2E/DX2                !
 ! D57   D(11,12,13,8)           0.0331         estimate D2E/DX2                !
 ! D58   D(11,12,13,22)        179.991          estimate D2E/DX2                !
 ! D59   D(21,12,13,8)         179.9759         estimate D2E/DX2                !
 ! D60   D(21,12,13,22)         -0.0662         estimate D2E/DX2                !
 --------------------------------------------------------------------------------
 Trust Radius=3.00D-01 FncErr=1.00D-07 GrdErr=1.00D-06 EigMax=2.50D+02 EigMin=1.00D-04
 Number of steps in this run=    141 maximum allowed number of steps=    156.
 GradGradGradGradGradGradGradGradGradGradGradGradGradGradGradGradGradGrad

 Leave Link  103 at Tue Sep 22 18:09:12 2020, MaxMem=  2147483648 cpu:               0.1 elap:               0.0
 (Enter /prod/apps/gaussian/g16b1/l202.exe)
                          Input orientation:                          
 ---------------------------------------------------------------------
 Center     Atomic      Atomic             Coordinates (Angstroms)
 Number     Number       Type             X           Y           Z
 ---------------------------------------------------------------------
      1          8           0       -4.693000   -0.179000   -0.555000
      2         16           0       -3.352000   -0.470000   -0.039000
      3          7           0       -2.407000    0.833000   -0.554000
      4          6           0       -1.031000    0.907000   -0.313000
      5          7           0       -0.490000    2.087000   -0.073000
      6          8           0        0.886000    1.830000    0.032000
      7          6           0        1.115000    0.505000   -0.128000
      8          6           0        2.498000    0.047000   -0.041000
      9          6           0        2.796000   -1.320000   -0.169000
     10          6           0        4.115000   -1.758000   -0.088000
     11          6           0        5.149000   -0.841000    0.122000
     12          6           0        4.858000    0.519000    0.250000
     13          6           0        3.541000    0.963000    0.169000
     14          6           0       -0.071000   -0.138000   -0.357000
     15          6           0       -3.390000   -0.407000    1.753000
     16          8           0       -2.654000   -1.692000   -0.452000
     17          1           0       -2.900000    1.723000   -0.466000
     18          1           0        1.997000   -2.034000   -0.330000
     19          1           0        4.336000   -2.815000   -0.188000
     20          1           0        6.176000   -1.186000    0.184000
     21          1           0        5.657000    1.234000    0.412000
     22          1           0        3.312000    2.017000    0.268000
     23          1           0       -0.255000   -1.182000   -0.537000
     24          1           0       -3.833000    0.540000    2.059000
     25          1           0       -2.373000   -0.505000    2.131000
     26          1           0       -4.003000   -1.244000    2.089000
 ---------------------------------------------------------------------
                    Distance matrix (angstroms):
                    1          2          3          4          5
     1  O    0.000000
     2  S    1.466021   0.000000
     3  N    2.499988   1.689988   0.000000
     4  C    3.827297   2.712609   1.398904   0.000000
     5  N    4.799197   3.838027   2.340676   1.320106   0.000000
     6  O    5.958682   4.822415   3.490165   2.155422   1.403727
     7  C    5.863706   4.573033   3.562800   2.191152   2.254279
     8  C    7.212888   5.872801   4.993995   3.642448   3.618117
     9  C    7.585249   6.207842   5.644009   4.430146   4.734412
    10  C    8.960591   7.577429   7.033272   5.799497   5.999190
    11  C    9.887443   8.510615   7.768680   6.437168   6.356849
    12  C    9.610246   8.274403   7.316094   5.928561   5.582478
    13  C    8.344285   7.043451   5.993191   4.597678   4.191766
    14  C    4.626421   3.313051   2.537429   1.419705   2.281851
    15  C    2.660199   1.793510   2.797524   3.399975   4.238433
    16  O    2.541122   1.466648   2.539102   3.067287   4.371199
    17  H    2.615411   2.279448   1.021221   2.045098   2.468814
    18  H    6.946060   5.580554   5.259761   4.221203   4.820151
    19  H    9.413077   8.039065   7.675279   6.532503   6.879906
    20  H   10.940536   9.557467   8.848101   7.521204   7.430621
    21  H   10.490670   9.179820   8.131547   6.735124   6.224825
    22  H    8.341449   7.119573   5.897839   4.520101   3.817903
    23  H    4.549965   3.216575   2.948155   2.239704   3.310118
    24  H    2.844215   2.377618   2.991169   3.689482   4.256088
    25  H    3.564165   2.380875   3.000104   3.125355   3.888672
    26  H    2.932757   2.356111   3.721101   4.385110   5.301978
                    6          7          8          9         10
     6  O    0.000000
     7  C    1.354129   0.000000
     8  C    2.404779   1.459459   0.000000
     9  C    3.689309   2.481545   1.404947   0.000000
    10  C    4.828518   3.758027   2.423824   1.392180   0.000000
    11  C    5.031452   4.259973   2.800520   2.418828   1.397907
    12  C    4.188440   3.762064   2.424266   2.794517   2.418889
    13  C    2.796334   2.486654   1.403925   2.425151   2.792735
    14  C    2.222655   1.368388   2.594965   3.106792   4.496594
    15  C    5.123494   4.966380   6.171960   6.541731   7.844712
    16  O    5.017005   4.374602   5.453086   5.470007   6.779101
    17  H    3.820111   4.209275   5.668157   6.464710   7.840311
    18  H    4.036813   2.695413   2.159880   1.083567   2.149573
    19  H    5.790244   4.626104   3.404541   2.146389   1.084477
    20  H    6.091261   5.345142   3.885691   3.401024   2.156128
    21  H    4.823075   4.631717   3.404917   3.878891   3.402915
    22  H    2.444615   2.696251   2.153828   3.404819   3.875844
    23  H    3.270747   2.211368   3.055399   3.076210   4.430607
    24  H    5.295450   5.409889   6.688394   7.236520   8.547580
    25  H    4.525385   4.276602   5.361803   5.716011   6.970517
    26  H    6.130501   5.845341   6.961794   7.164548   8.420537
                   11         12         13         14         15
    11  C    0.000000
    12  C    1.396662   0.000000
    13  C    2.417083   1.392187   0.000000
    14  C    5.288861   5.009505   3.812535   0.000000
    15  C    8.704197   8.434808   7.240491   3.942109   0.000000
    16  O    7.870228   7.862027   6.768507   3.015929   2.656115
    17  H    8.467954   7.883453   6.516694   3.387985   3.114637
    18  H    3.400391   3.878083   3.408071   2.805739   6.000482
    19  H    2.157254   3.402923   3.877210   5.159122   8.322080
    20  H    1.085172   2.156039   3.400243   6.357357   9.725069
    21  H    2.155873   1.084375   2.147078   5.940011   9.291898
    22  H    3.400595   2.152776   1.083124   4.059475   7.279959
    23  H    5.454702   5.445690   4.416908   1.075264   3.958908
    24  H    9.291687   8.877297   7.624100   4.522100   1.089355
    25  H    7.792911   7.541492   6.401552   3.409404   1.089393
    26  H    9.369664   9.219946   8.091303   4.760964   1.090520
                   16         17         18         19         20
    16  O    0.000000
    17  H    3.423877   0.000000
    18  H    4.665153   6.173666   0.000000
    19  H    7.084555   8.545784   2.470030   0.000000
    20  H    8.867324   9.552934   4.295037   2.485483   0.000000
    21  H    8.853287   8.615814   4.962458   4.301098   2.485507
    22  H    7.061745   6.262119   4.300864   4.960316   4.297530
    23  H    2.454084   3.929388   2.416662   4.885261   6.471292
    24  H    3.560476   2.940341   6.806004   9.112497  10.328348
    25  H    2.856540   3.462098   5.243211   7.464887   8.794315
    26  H    2.911561   4.067889   6.517335   8.785880  10.355889
                   21         22         23         24         25
    21  H    0.000000
    22  H    2.476459   0.000000
    23  H    6.456733   4.858510   0.000000
    24  H    9.656829   7.512672   4.744110   0.000000
    25  H    8.394044   6.492340   3.473108   1.796889   0.000000
    26  H   10.112785   8.213366   4.576814   1.792333   1.790191
                   26
    26  H    0.000000
 Symmetry turned off by external request.
 Stoichiometry    C10H10N2O3S
 Framework group  C1[X(C10H10N2O3S)]
 Deg. of freedom    72
 Full point group                 C1      NOp   1
 Rotational constants (GHZ):           1.3757793           0.2081098           0.1900180
 Leave Link  202 at Tue Sep 22 18:09:12 2020, MaxMem=  2147483648 cpu:               0.1 elap:               0.0
 (Enter /prod/apps/gaussian/g16b1/l301.exe)
 Standard basis: 6-31G(d) (6D, 7F)
 Ernie: Thresh=  0.10000D-02 Tol=  0.10000D-05 Strict=F.
   264 basis functions,   512 primitive gaussians,   264 cartesian basis functions
    62 alpha electrons       62 beta electrons
       nuclear repulsion energy      1179.4334150003 Hartrees.
 IExCor=  402 DFT=T Ex+Corr=B3LYP ExCW=0 ScaHFX=  0.200000
 ScaDFX=  0.800000  0.720000  1.000000  0.810000 ScalE2=  1.000000  1.000000
 IRadAn=      5 IRanWt=     -1 IRanGd=            0 ICorTp=0 IEmpDi=  4
 NAtoms=   26 NActive=   26 NUniq=   26 SFac= 1.00D+00 NAtFMM=   60 NAOKFM=F Big=F
 Integral buffers will be    131072 words long.
 Raffenetti 2 integral format.
 Two-electron integral symmetry is turned off.
 Using the following non-standard input for PCM:
 MSTModel=DFT cav
 --- end of non-standard input.
 MST model for solvation energy: B3LYP parametrization.
 MST cavity parameters:
 ISph   IAn     Re0     Alpha   Atom Type   QCorr
 ------------------------------------------------
   1      8     1.40     1.25      O          F
   2     16     1.75     1.25      S          F
   3      7     1.50     1.25      NH         F
   4      6     1.50     1.25      C          F
   5      7     1.40     1.25      N          F
   6      8     1.40     1.25      O          F
   7      6     1.50     1.25      C          F
   8      6     1.50     1.25      C          F
   9      6     1.50     1.25      CH         F
  10      6     1.50     1.25      CH         F
  11      6     1.50     1.25      CH         F
  12      6     1.50     1.25      CH         F
  13      6     1.50     1.25      CH         F
  14      6     1.50     1.25      CH         F
  15      6     1.50     1.25      CH3        F
  16      8     1.40     1.25      O          F
  17      1     0.90     1.25      NH         F
  18      1     1.20     1.25      CH         F
  19      1     1.20     1.25      CH         F
  20      1     1.20     1.25      CH         F
  21      1     1.20     1.25      CH         F
  22      1     1.20     1.25      CH         F
  23      1     1.20     1.25      CH         F
  24      1     1.20     1.25      CH3        F
  25      1     1.20     1.25      CH3        F
  26      1     1.20     1.25      CH3        F
 ------------------------------------------------------------------------------
 Polarizable Continuum Model (PCM)
 =================================
 Model                : PCM.
 Atomic radii         : MST.
 Polarization charges : Total charges.
 Charge compensation  : None.
 Solution method      : On-the-fly selection.
 Cavity type          : Scaled VdW (van der Waals Surface) (Alpha=1.250).
 Cavity algorithm     : GePol (No added spheres)
                        Default sphere list used, NSphG=   26.
                        Lebedev-Laikov grids with approx.  5.0 points / Ang**2.
                        Smoothing algorithm: York/Karplus (Gamma=1.0000).
                        Polarization charges: spherical gaussians, with
                                              point-specific exponents (IZeta= 3).
                        Self-potential: point-specific (ISelfS= 7).
                        Self-field    : sphere-specific E.n sum rule (ISelfD= 2).
 1st derivatives      : Analytical E(r).r(x)/FMM algorithm (CHGder, D1EAlg=3).
                        Cavity 1st derivative terms included.
 Solvent              : Water, Eps=  78.355300 Eps(inf)=   1.777849
 ------------------------------------------------------------------------------
 GePol: Number of generator spheres                  =      26
 GePol: Total number of spheres                      =      26
 GePol: Number of exposed spheres                    =      26 (100.00%)
 GePol: Number of points                             =    2092
 GePol: Average weight of points                     =       0.13
 GePol: Minimum weight of points                     =   0.27D-10
 GePol: Maximum weight of points                     =    0.22001
 GePol: Number of points with low weight             =     125
 GePol: Fraction of low-weight points (<1% of avg)   =       5.98%
 GePol: Cavity surface area                          =    272.728 Ang**2
 GePol: Cavity volume                                =    255.100 Ang**3
 PCM non-electrostatic energy =         0.0028036308 Hartrees.
 Nuclear repulsion after PCM non-electrostatic terms =     1179.4362186311 Hartrees.
 Leave Link  301 at Tue Sep 22 18:09:12 2020, MaxMem=  2147483648 cpu:               0.3 elap:               0.1
 (Enter /prod/apps/gaussian/g16b1/l302.exe)
 NPDir=0 NMtPBC=     1 NCelOv=     1 NCel=       1 NClECP=     1 NCelD=      1
         NCelK=      1 NCelE2=     1 NClLst=     1 CellRange=     0.0.
 One-electron integrals computed using PRISM.
 NBasis=   264 RedAO= T EigKep=  4.58D-04  NBF=   264
 NBsUse=   264 1.00D-06 EigRej= -1.00D+00 NBFU=   264
 Precomputing XC quadrature grid using
 IXCGrd= 4 IRadAn=           5 IRanWt=          -1 IRanGd=           0 AccXCQ= 0.00D+00.
 Generated NRdTot=       0 NPtTot=           0 NUsed=           0 NTot=          32
 NSgBfM=   263   263   263   263   263 MxSgAt=    26 MxSgA2=    26.
 Leave Link  302 at Tue Sep 22 18:09:12 2020, MaxMem=  2147483648 cpu:               1.1 elap:               0.3
 (Enter /prod/apps/gaussian/g16b1/l303.exe)
 DipDrv:  MaxL=1.
 Leave Link  303 at Tue Sep 22 18:09:12 2020, MaxMem=  2147483648 cpu:               0.1 elap:               0.0
 (Enter /prod/apps/gaussian/g16b1/l401.exe)
 ExpMin= 1.17D-01 ExpMax= 2.19D+04 ExpMxC= 3.30D+03 IAcc=3 IRadAn=         5 AccDes= 0.00D+00
 Harris functional with IExCor=  402 and IRadAn=       5 diagonalized for initial guess.
 HarFok:  IExCor=  402 AccDes= 0.00D+00 IRadAn=         5 IDoV= 1 UseB2=F ITyADJ=14
 ICtDFT=  3500011 ScaDFX=  1.000000  1.000000  1.000000  1.000000
 FoFCou: FMM=F IPFlag=           0 FMFlag=      100000 FMFlg1=           0
         NFxFlg=           0 DoJE=T BraDBF=F KetDBF=T FulRan=T
         wScrn=  0.000000 ICntrl=       500 IOpCl=  0 I1Cent=   200000004 NGrid=           0
         NMat0=    1 NMatS0=      1 NMatT0=    0 NMatD0=    1 NMtDS0=    0 NMtDT0=    0
 Symmetry not used in FoFCou.
 Harris En= -1120.37181526591    
 JPrj=0 DoOrth=F DoCkMO=F.
 Leave Link  401 at Tue Sep 22 18:09:14 2020, MaxMem=  2147483648 cpu:               5.5 elap:               1.4
 (Enter /prod/apps/gaussian/g16b1/l502.exe)
 Keep R1 ints in memory in canonical form, NReq=621123487.
 FoFCou: FMM=F IPFlag=           0 FMFlag=           0 FMFlg1=           0
         NFxFlg=           0 DoJE=F BraDBF=F KetDBF=F FulRan=T
         wScrn=  0.000000 ICntrl=       600 IOpCl=  0 I1Cent=           0 NGrid=           0
         NMat0=    1 NMatS0=  34980 NMatT0=    0 NMatD0=    1 NMtDS0=    0 NMtDT0=    0
 Symmetry not used in FoFCou.
 Two-electron integral symmetry not used.
 Closed shell SCF:
 Using DIIS extrapolation, IDIIS=  1040.
 NGot=  2147483648 LenX=  1535522690 LenY=  1535452553
 Requested convergence on RMS density matrix=1.00D-08 within2000 cycles.
 Requested convergence on MAX density matrix=1.00D-06.
 Requested convergence on             energy=1.00D-06.
 No special actions if energy rises.

 Cycle   1  Pass 1  IDiag  1:
 Inv3:  Mode=1 IEnd=    13129392.
 Iteration    1 A*A^-1 deviation from unit magnitude is 2.89D-15 for    245.
 Iteration    1 A*A^-1 deviation from orthogonality  is 2.37D-15 for   1333    173.
 Iteration    1 A^-1*A deviation from unit magnitude is 2.78D-15 for    609.
 Iteration    1 A^-1*A deviation from orthogonality  is 2.45D-15 for   1306   1304.
 E= -1119.87983398413    
 DIIS: error= 4.26D-02 at cycle   1 NSaved=   1.
 NSaved= 1 IEnMin= 1 EnMin= -1119.87983398413     IErMin= 1 ErrMin= 4.26D-02
 ErrMax= 4.26D-02  0.00D+00 EMaxC= 1.00D-01 BMatC= 5.57D-01 BMatP= 5.57D-01
 IDIUse=3 WtCom= 5.74D-01 WtEn= 4.26D-01
 Coeff-Com:  0.100D+01
 Coeff-En:   0.100D+01
 Coeff:      0.100D+01
 Gap=     0.265 Goal=   None    Shift=    0.000
 GapD=    0.265 DampG=1.000 DampE=0.500 DampFc=0.5000 IDamp=-1.
 Damping current iteration by 5.00D-01
 RMSDP=6.70D-03 MaxDP=5.51D-01              OVMax= 2.41D-01

 Cycle   2  Pass 1  IDiag  1:
 E= -1120.02500749609     Delta-E=       -0.145173511959 Rises=F Damp=T
 DIIS: error= 1.53D-02 at cycle   2 NSaved=   2.
 NSaved= 2 IEnMin= 2 EnMin= -1120.02500749609     IErMin= 2 ErrMin= 1.53D-02
 ErrMax= 1.53D-02  0.00D+00 EMaxC= 1.00D-01 BMatC= 6.96D-02 BMatP= 5.57D-01
 IDIUse=3 WtCom= 8.47D-01 WtEn= 1.53D-01
 Coeff-Com:  0.197D+00 0.803D+00
 Coeff-En:   0.319D+00 0.681D+00
 Coeff:      0.216D+00 0.784D+00
 Gap=     0.208 Goal=   None    Shift=    0.000
 RMSDP=1.87D-03 MaxDP=1.19D-01 DE=-1.45D-01 OVMax= 1.97D-01

 Cycle   3  Pass 1  IDiag  1:
 E= -1120.32694456627     Delta-E=       -0.301937070178 Rises=F Damp=F
 DIIS: error= 1.18D-02 at cycle   3 NSaved=   3.
 NSaved= 3 IEnMin= 3 EnMin= -1120.32694456627     IErMin= 3 ErrMin= 1.18D-02
 ErrMax= 1.18D-02  0.00D+00 EMaxC= 1.00D-01 BMatC= 3.80D-02 BMatP= 6.96D-02
 IDIUse=3 WtCom= 8.82D-01 WtEn= 1.18D-01
 Coeff-Com:  0.544D-01 0.425D+00 0.521D+00
 Coeff-En:   0.000D+00 0.000D+00 0.100D+01
 Coeff:      0.480D-01 0.375D+00 0.577D+00
 Gap=     0.183 Goal=   None    Shift=    0.000
 RMSDP=9.40D-04 MaxDP=2.94D-02 DE=-3.02D-01 OVMax= 4.53D-02

 Cycle   4  Pass 1  IDiag  1:
 E= -1120.35443934674     Delta-E=       -0.027494780474 Rises=F Damp=F
 DIIS: error= 4.09D-03 at cycle   4 NSaved=   4.
 NSaved= 4 IEnMin= 4 EnMin= -1120.35443934674     IErMin= 4 ErrMin= 4.09D-03
 ErrMax= 4.09D-03  0.00D+00 EMaxC= 1.00D-01 BMatC= 6.16D-03 BMatP= 3.80D-02
 IDIUse=3 WtCom= 9.59D-01 WtEn= 4.09D-02
 Coeff-Com:  0.301D-02 0.843D-01 0.306D+00 0.607D+00
 Coeff-En:   0.000D+00 0.000D+00 0.126D+00 0.874D+00
 Coeff:      0.289D-02 0.808D-01 0.299D+00 0.618D+00
 Gap=     0.183 Goal=   None    Shift=    0.000
 RMSDP=3.21D-04 MaxDP=1.40D-02 DE=-2.75D-02 OVMax= 1.79D-02

 Cycle   5  Pass 1  IDiag  1:
 E= -1120.35909623812     Delta-E=       -0.004656891379 Rises=F Damp=F
 DIIS: error= 9.15D-04 at cycle   5 NSaved=   5.
 NSaved= 5 IEnMin= 5 EnMin= -1120.35909623812     IErMin= 5 ErrMin= 9.15D-04
 ErrMax= 9.15D-04  0.00D+00 EMaxC= 1.00D-01 BMatC= 5.95D-04 BMatP= 6.16D-03
 IDIUse=3 WtCom= 9.91D-01 WtEn= 9.15D-03
 Coeff-Com: -0.249D-02 0.184D-01 0.130D+00 0.352D+00 0.501D+00
 Coeff-En:   0.000D+00 0.000D+00 0.000D+00 0.831D-02 0.992D+00
 Coeff:     -0.247D-02 0.182D-01 0.129D+00 0.349D+00 0.506D+00
 Gap=     0.183 Goal=   None    Shift=    0.000
 RMSDP=1.12D-04 MaxDP=6.42D-03 DE=-4.66D-03 OVMax= 9.90D-03

 Cycle   6  Pass 1  IDiag  1:
 E= -1120.35956530799     Delta-E=       -0.000469069868 Rises=F Damp=F
 DIIS: error= 3.71D-04 at cycle   6 NSaved=   6.
 NSaved= 6 IEnMin= 6 EnMin= -1120.35956530799     IErMin= 6 ErrMin= 3.71D-04
 ErrMax= 3.71D-04  0.00D+00 EMaxC= 1.00D-01 BMatC= 6.37D-05 BMatP= 5.95D-04
 IDIUse=3 WtCom= 9.96D-01 WtEn= 3.71D-03
 Coeff-Com: -0.169D-02 0.358D-02 0.458D-01 0.143D+00 0.303D+00 0.506D+00
 Coeff-En:   0.000D+00 0.000D+00 0.000D+00 0.000D+00 0.595D-01 0.940D+00
 Coeff:     -0.168D-02 0.357D-02 0.457D-01 0.142D+00 0.302D+00 0.508D+00
 Gap=     0.183 Goal=   None    Shift=    0.000
 RMSDP=3.24D-05 MaxDP=1.59D-03 DE=-4.69D-04 OVMax= 2.97D-03

 Cycle   7  Pass 1  IDiag  1:
 E= -1120.35962085795     Delta-E=       -0.000055549964 Rises=F Damp=F
 DIIS: error= 7.96D-05 at cycle   7 NSaved=   7.
 NSaved= 7 IEnMin= 7 EnMin= -1120.35962085795     IErMin= 7 ErrMin= 7.96D-05
 ErrMax= 7.96D-05  0.00D+00 EMaxC= 1.00D-01 BMatC= 3.28D-06 BMatP= 6.37D-05
 IDIUse=1 WtCom= 1.00D+00 WtEn= 0.00D+00
 Coeff-Com: -0.741D-03 0.248D-03 0.129D-01 0.440D-01 0.113D+00 0.264D+00
 Coeff-Com:  0.567D+00
 Coeff:     -0.741D-03 0.248D-03 0.129D-01 0.440D-01 0.113D+00 0.264D+00
 Coeff:      0.567D+00
 Gap=     0.183 Goal=   None    Shift=    0.000
 RMSDP=7.24D-06 MaxDP=3.19D-04 DE=-5.55D-05 OVMax= 4.61D-04

 Cycle   8  Pass 1  IDiag  1:
 E= -1120.35962347322     Delta-E=       -0.000002615264 Rises=F Damp=F
 DIIS: error= 2.52D-05 at cycle   8 NSaved=   8.
 NSaved= 8 IEnMin= 8 EnMin= -1120.35962347322     IErMin= 8 ErrMin= 2.52D-05
 ErrMax= 2.52D-05  0.00D+00 EMaxC= 1.00D-01 BMatC= 3.25D-07 BMatP= 3.28D-06
 IDIUse=1 WtCom= 1.00D+00 WtEn= 0.00D+00
 Coeff-Com: -0.227D-03-0.191D-03 0.241D-02 0.944D-02 0.307D-01 0.963D-01
 Coeff-Com:  0.296D+00 0.566D+00
 Coeff:     -0.227D-03-0.191D-03 0.241D-02 0.944D-02 0.307D-01 0.963D-01
 Coeff:      0.296D+00 0.566D+00
 Gap=     0.183 Goal=   None    Shift=    0.000
 RMSDP=2.45D-06 MaxDP=1.20D-04 DE=-2.62D-06 OVMax= 1.45D-04

 Cycle   9  Pass 1  IDiag  1:
 E= -1120.35962372786     Delta-E=       -0.000000254647 Rises=F Damp=F
 DIIS: error= 1.05D-05 at cycle   9 NSaved=   9.
 NSaved= 9 IEnMin= 9 EnMin= -1120.35962372786     IErMin= 9 ErrMin= 1.05D-05
 ErrMax= 1.05D-05  0.00D+00 EMaxC= 1.00D-01 BMatC= 3.47D-08 BMatP= 3.25D-07
 IDIUse=1 WtCom= 1.00D+00 WtEn= 0.00D+00
 Coeff-Com: -0.232D-04-0.119D-03-0.475D-03-0.106D-02 0.337D-03 0.142D-01
 Coeff-Com:  0.689D-01 0.289D+00 0.629D+00
 Coeff:     -0.232D-04-0.119D-03-0.475D-03-0.106D-02 0.337D-03 0.142D-01
 Coeff:      0.689D-01 0.289D+00 0.629D+00
 Gap=     0.183 Goal=   None    Shift=    0.000
 RMSDP=7.31D-07 MaxDP=2.68D-05 DE=-2.55D-07 OVMax= 3.76D-05

 Cycle  10  Pass 1  IDiag  1:
 E= -1120.35962375591     Delta-E=       -0.000000028046 Rises=F Damp=F
 DIIS: error= 2.46D-06 at cycle  10 NSaved=  10.
 NSaved=10 IEnMin=10 EnMin= -1120.35962375591     IErMin=10 ErrMin= 2.46D-06
 ErrMax= 2.46D-06  0.00D+00 EMaxC= 1.00D-01 BMatC= 1.78D-09 BMatP= 3.47D-08
 IDIUse=1 WtCom= 1.00D+00 WtEn= 0.00D+00
 Coeff-Com: -0.395D-05-0.401D-04-0.326D-03-0.895D-03-0.120D-02 0.302D-02
 Coeff-Com:  0.200D-01 0.117D+00 0.299D+00 0.564D+00
 Coeff:     -0.395D-05-0.401D-04-0.326D-03-0.895D-03-0.120D-02 0.302D-02
 Coeff:      0.200D-01 0.117D+00 0.299D+00 0.564D+00
 Gap=     0.183 Goal=   None    Shift=    0.000
 RMSDP=2.04D-07 MaxDP=9.83D-06 DE=-2.80D-08 OVMax= 1.39D-05

 Cycle  11  Pass 1  IDiag  1:
 E= -1120.35962375721     Delta-E=       -0.000000001302 Rises=F Damp=F
 DIIS: error= 8.31D-07 at cycle  11 NSaved=  11.
 NSaved=11 IEnMin=11 EnMin= -1120.35962375721     IErMin=11 ErrMin= 8.31D-07
 ErrMax= 8.31D-07  0.00D+00 EMaxC= 1.00D-01 BMatC= 3.67D-10 BMatP= 1.78D-09
 IDIUse=1 WtCom= 1.00D+00 WtEn= 0.00D+00
 Coeff-Com:  0.522D-06-0.121D-05-0.115D-03-0.342D-03-0.808D-03-0.598D-03
 Coeff-Com: -0.326D-03 0.204D-01 0.637D-01 0.328D+00 0.590D+00
 Coeff:      0.522D-06-0.121D-05-0.115D-03-0.342D-03-0.808D-03-0.598D-03
 Coeff:     -0.326D-03 0.204D-01 0.637D-01 0.328D+00 0.590D+00
 Gap=     0.183 Goal=   None    Shift=    0.000
 RMSDP=7.58D-08 MaxDP=3.16D-06 DE=-1.30D-09 OVMax= 5.15D-06

 Cycle  12  Pass 1  IDiag  1:
 E= -1120.35962375752     Delta-E=       -0.000000000306 Rises=F Damp=F
 DIIS: error= 2.51D-07 at cycle  12 NSaved=  12.
 NSaved=12 IEnMin=12 EnMin= -1120.35962375752     IErMin=12 ErrMin= 2.51D-07
 ErrMax= 2.51D-07  0.00D+00 EMaxC= 1.00D-01 BMatC= 3.25D-11 BMatP= 3.67D-10
 IDIUse=1 WtCom= 1.00D+00 WtEn= 0.00D+00
 Coeff-Com:  0.428D-06 0.307D-05-0.390D-04-0.118D-03-0.368D-03-0.615D-03
 Coeff-Com: -0.212D-02 0.737D-03 0.712D-02 0.129D+00 0.315D+00 0.551D+00
 Coeff:      0.428D-06 0.307D-05-0.390D-04-0.118D-03-0.368D-03-0.615D-03
 Coeff:     -0.212D-02 0.737D-03 0.712D-02 0.129D+00 0.315D+00 0.551D+00
 Gap=     0.183 Goal=   None    Shift=    0.000
 RMSDP=2.65D-08 MaxDP=9.19D-07 DE=-3.06D-10 OVMax= 1.83D-06

 Cycle  13  Pass 1  IDiag  1:
 E= -1120.35962375755     Delta-E=       -0.000000000035 Rises=F Damp=F
 DIIS: error= 1.60D-07 at cycle  13 NSaved=  13.
 NSaved=13 IEnMin=13 EnMin= -1120.35962375755     IErMin=13 ErrMin= 1.60D-07
 ErrMax= 1.60D-07  0.00D+00 EMaxC= 1.00D-01 BMatC= 3.61D-12 BMatP= 3.25D-11
 IDIUse=1 WtCom= 1.00D+00 WtEn= 0.00D+00
 Coeff-Com:  0.807D-07 0.170D-05-0.743D-05-0.212D-04-0.103D-03-0.250D-03
 Coeff-Com: -0.114D-02-0.202D-02-0.415D-02 0.291D-01 0.921D-01 0.296D+00
 Coeff-Com:  0.591D+00
 Coeff:      0.807D-07 0.170D-05-0.743D-05-0.212D-04-0.103D-03-0.250D-03
 Coeff:     -0.114D-02-0.202D-02-0.415D-02 0.291D-01 0.921D-01 0.296D+00
 Coeff:      0.591D+00
 Gap=     0.183 Goal=   None    Shift=    0.000
 RMSDP=9.36D-09 MaxDP=3.13D-07 DE=-3.46D-11 OVMax= 8.53D-07

 Error on total polarization charges =  0.01963
 SCF Done:  E(RB3LYP) =  -1120.35962376     A.U. after   13 cycles
            NFock= 13  Conv=0.94D-08     -V/T= 2.0073
 KE= 1.112196152187D+03 PE=-4.985890014844D+03 EE= 1.573898020269D+03
 Leave Link  502 at Tue Sep 22 18:09:56 2020, MaxMem=  2147483648 cpu:             138.7 elap:              42.7
 (Enter /prod/apps/gaussian/g16b1/l601.exe)
 Copying SCF densities to generalized density rwf, IOpCl= 0 IROHF=0.

 **********************************************************************

            Population analysis using the SCF Density.

 **********************************************************************

 Alpha  occ. eigenvalues --  -89.13344 -19.24250 -19.16160 -19.16078 -14.39215
 Alpha  occ. eigenvalues --  -14.38528 -10.27920 -10.27116 -10.22695 -10.21672
 Alpha  occ. eigenvalues --  -10.20255 -10.20144 -10.20094 -10.19895 -10.19790
 Alpha  occ. eigenvalues --  -10.19755  -8.15866  -6.12397  -6.12289  -6.12124
 Alpha  occ. eigenvalues --   -1.14802  -1.12977  -1.01930  -0.96562  -0.87585
 Alpha  occ. eigenvalues --   -0.85471  -0.81116  -0.77842  -0.75488  -0.75293
 Alpha  occ. eigenvalues --   -0.66810  -0.64410  -0.62020  -0.59844  -0.59443
 Alpha  occ. eigenvalues --   -0.54977  -0.53901  -0.50402  -0.50085  -0.48963
 Alpha  occ. eigenvalues --   -0.47986  -0.47516  -0.46299  -0.44827  -0.44244
 Alpha  occ. eigenvalues --   -0.43621  -0.43242  -0.42478  -0.40007  -0.38624
 Alpha  occ. eigenvalues --   -0.37173  -0.36134  -0.35573  -0.35056  -0.33596
 Alpha  occ. eigenvalues --   -0.32620  -0.32245  -0.31970  -0.29989  -0.26725
 Alpha  occ. eigenvalues --   -0.26080  -0.23629
 Alpha virt. eigenvalues --   -0.05326  -0.01012   0.01367   0.04808   0.06380
 Alpha virt. eigenvalues --    0.07223   0.08284   0.09566   0.10354   0.10910
 Alpha virt. eigenvalues --    0.11901   0.13366   0.13672   0.15333   0.15597
 Alpha virt. eigenvalues --    0.15955   0.16918   0.17074   0.17845   0.19416
 Alpha virt. eigenvalues --    0.23804   0.24296   0.26908   0.28464   0.30029
 Alpha virt. eigenvalues --    0.31107   0.33073   0.34116   0.35500   0.37268
 Alpha virt. eigenvalues --    0.41017   0.42023   0.44033   0.44783   0.47303
 Alpha virt. eigenvalues --    0.49959   0.50911   0.51746   0.52783   0.53393
 Alpha virt. eigenvalues --    0.54364   0.54693   0.55686   0.57789   0.58140
 Alpha virt. eigenvalues --    0.58798   0.59157   0.60143   0.60904   0.61370
 Alpha virt. eigenvalues --    0.62235   0.63721   0.64175   0.64725   0.66619
 Alpha virt. eigenvalues --    0.67734   0.69375   0.70502   0.71065   0.74863
 Alpha virt. eigenvalues --    0.75450   0.76436   0.78475   0.79266   0.80669
 Alpha virt. eigenvalues --    0.81232   0.82121   0.83252   0.83791   0.84580
 Alpha virt. eigenvalues --    0.85437   0.86564   0.87103   0.88770   0.89509
 Alpha virt. eigenvalues --    0.90036   0.90996   0.92410   0.94622   0.95529
 Alpha virt. eigenvalues --    0.95921   0.96687   0.97903   0.98869   1.01226
 Alpha virt. eigenvalues --    1.02942   1.03223   1.06048   1.09269   1.10359
 Alpha virt. eigenvalues --    1.12145   1.14423   1.15189   1.17346   1.17763
 Alpha virt. eigenvalues --    1.19757   1.20359   1.23597   1.24113   1.24711
 Alpha virt. eigenvalues --    1.29423   1.30782   1.31333   1.34657   1.35500
 Alpha virt. eigenvalues --    1.37684   1.39932   1.41444   1.42278   1.43069
 Alpha virt. eigenvalues --    1.46618   1.47112   1.48268   1.48947   1.50098
 Alpha virt. eigenvalues --    1.51700   1.54082   1.57284   1.60543   1.63860
 Alpha virt. eigenvalues --    1.68845   1.73717   1.73881   1.76908   1.78264
 Alpha virt. eigenvalues --    1.78551   1.79447   1.79609   1.81425   1.84186
 Alpha virt. eigenvalues --    1.85644   1.86833   1.88818   1.89918   1.92248
 Alpha virt. eigenvalues --    1.94516   1.96889   1.97805   2.00207   2.01655
 Alpha virt. eigenvalues --    2.04197   2.05453   2.05993   2.10171   2.10563
 Alpha virt. eigenvalues --    2.12433   2.13262   2.13882   2.14723   2.15824
 Alpha virt. eigenvalues --    2.18348   2.18999   2.20849   2.22230   2.24486
 Alpha virt. eigenvalues --    2.25654   2.27815   2.29626   2.30053   2.30548
 Alpha virt. eigenvalues --    2.32547   2.33653   2.43729   2.50261   2.52736
 Alpha virt. eigenvalues --    2.53875   2.56472   2.58110   2.59446   2.62029
 Alpha virt. eigenvalues --    2.65993   2.66698   2.69193   2.72569   2.74030
 Alpha virt. eigenvalues --    2.74554   2.76203   2.80066   2.83974   2.89965
 Alpha virt. eigenvalues --    2.90439   3.01095   3.04595   3.13526   3.26842
 Alpha virt. eigenvalues --    3.42779   3.75657   3.78216   3.87650   3.97136
 Alpha virt. eigenvalues --    4.04072   4.06997   4.08712   4.10871   4.12803
 Alpha virt. eigenvalues --    4.21410   4.24460   4.31521   4.37640   4.39339
 Alpha virt. eigenvalues --    4.54965   4.74029
          Condensed to atoms (all electrons):
               1          2          3          4          5          6
     1  O    8.251754   0.455577  -0.052219   0.001428  -0.000015   0.000000
     2  S    0.455577  13.621017   0.129159  -0.010327  -0.002260   0.000110
     3  N   -0.052219   0.129159   7.420591   0.230639  -0.073833   0.005363
     4  C    0.001428  -0.010327   0.230639   4.497462   0.437550  -0.048660
     5  N   -0.000015  -0.002260  -0.073833   0.437550   6.920965   0.129580
     6  O    0.000000   0.000110   0.005363  -0.048660   0.129580   8.193594
     7  C   -0.000001   0.000278  -0.000611  -0.013993  -0.087282   0.249984
     8  C   -0.000000  -0.000017  -0.000200   0.003238   0.004670  -0.037622
     9  C   -0.000000  -0.000001   0.000002   0.000605  -0.000110   0.003122
    10  C   -0.000000  -0.000000   0.000000  -0.000007   0.000001  -0.000061
    11  C   -0.000000   0.000000   0.000000   0.000000  -0.000000   0.000002
    12  C   -0.000000  -0.000000  -0.000000   0.000004   0.000001   0.000286
    13  C   -0.000000   0.000000  -0.000001  -0.000367   0.000163  -0.006813
    14  C   -0.000044  -0.001740  -0.054090   0.452308  -0.050639  -0.087255
    15  C   -0.058310   0.238658  -0.062590   0.000419   0.000048   0.000004
    16  O   -0.042805   0.422424  -0.049731  -0.005432   0.000079  -0.000000
    17  H    0.000603  -0.004734   0.288215  -0.021021   0.003208  -0.000176
    18  H   -0.000000  -0.000004  -0.000000   0.000078  -0.000006   0.000027
    19  H    0.000000   0.000000  -0.000000  -0.000000  -0.000000   0.000000
    20  H   -0.000000  -0.000000  -0.000000  -0.000000   0.000000   0.000000
    21  H    0.000000   0.000000   0.000000  -0.000000   0.000000  -0.000003
    22  H   -0.000000  -0.000000  -0.000000   0.000052  -0.000236   0.009776
    23  H    0.000017   0.001378  -0.001540  -0.028180   0.005104   0.003201
    24  H    0.000022  -0.008096   0.000017   0.000208   0.000040  -0.000000
    25  H    0.001713  -0.007351  -0.001675   0.001477   0.000121  -0.000024
    26  H   -0.000327  -0.013547   0.002244   0.000023  -0.000002   0.000000
               7          8          9         10         11         12
     1  O   -0.000001  -0.000000  -0.000000  -0.000000  -0.000000  -0.000000
     2  S    0.000278  -0.000017  -0.000001  -0.000000   0.000000  -0.000000
     3  N   -0.000611  -0.000200   0.000002   0.000000   0.000000  -0.000000
     4  C   -0.013993   0.003238   0.000605  -0.000007   0.000000   0.000004
     5  N   -0.087282   0.004670  -0.000110   0.000001  -0.000000   0.000001
     6  O    0.249984  -0.037622   0.003122  -0.000061   0.000002   0.000286
     7  C    4.751866   0.343233  -0.041804   0.006325   0.000837   0.004667
     8  C    0.343233   4.788679   0.535049  -0.011056  -0.033926  -0.009617
     9  C   -0.041804   0.535049   5.015726   0.517274  -0.039830  -0.041273
    10  C    0.006325  -0.011056   0.517274   4.884902   0.539165  -0.026144
    11  C    0.000837  -0.033926  -0.039830   0.539165   4.874773   0.538568
    12  C    0.004667  -0.009617  -0.041273  -0.026144   0.538568   4.890934
    13  C   -0.041300   0.472114  -0.081736  -0.042167  -0.038016   0.505905
    14  C    0.490522  -0.056963  -0.020667   0.000233   0.000015  -0.000234
    15  C   -0.000197   0.000000  -0.000000  -0.000000  -0.000000  -0.000000
    16  O    0.000530  -0.000004   0.000002  -0.000000  -0.000000   0.000000
    17  H    0.000256   0.000001   0.000000  -0.000000   0.000000   0.000000
    18  H   -0.012550  -0.036905   0.357424  -0.041555   0.004486   0.000161
    19  H   -0.000201   0.003223  -0.037540   0.363282  -0.040703   0.004373
    20  H    0.000003   0.000480   0.004796  -0.041659   0.364717  -0.041462
    21  H   -0.000170   0.003233   0.000759   0.004398  -0.040853   0.363847
    22  H   -0.012947  -0.042999   0.005339   0.000198   0.004569  -0.040962
    23  H   -0.029412  -0.003193   0.001017   0.000078  -0.000001   0.000001
    24  H    0.000001   0.000000   0.000000  -0.000000  -0.000000   0.000000
    25  H    0.000098  -0.000001  -0.000000   0.000000   0.000000   0.000000
    26  H    0.000000   0.000000  -0.000000   0.000000   0.000000  -0.000000
              13         14         15         16         17         18
     1  O   -0.000000  -0.000044  -0.058310  -0.042805   0.000603  -0.000000
     2  S    0.000000  -0.001740   0.238658   0.422424  -0.004734  -0.000004
     3  N   -0.000001  -0.054090  -0.062590  -0.049731   0.288215  -0.000000
     4  C   -0.000367   0.452308   0.000419  -0.005432  -0.021021   0.000078
     5  N    0.000163  -0.050639   0.000048   0.000079   0.003208  -0.000006
     6  O   -0.006813  -0.087255   0.000004  -0.000000  -0.000176   0.000027
     7  C   -0.041300   0.490522  -0.000197   0.000530   0.000256  -0.012550
     8  C    0.472114  -0.056963   0.000000  -0.000004   0.000001  -0.036905
     9  C   -0.081736  -0.020667  -0.000000   0.000002   0.000000   0.357424
    10  C   -0.042167   0.000233  -0.000000  -0.000000  -0.000000  -0.041555
    11  C   -0.038016   0.000015  -0.000000  -0.000000   0.000000   0.004486
    12  C    0.505905  -0.000234  -0.000000   0.000000   0.000000   0.000161
    13  C    5.060128   0.011744   0.000000   0.000000  -0.000000   0.005622
    14  C    0.011744   5.232056  -0.001334   0.000342   0.004079   0.006369
    15  C    0.000000  -0.001334   5.520055  -0.057472   0.000117  -0.000000
    16  O    0.000000   0.000342  -0.057472   8.283678   0.001193  -0.000014
    17  H   -0.000000   0.004079   0.000117   0.001193   0.303598  -0.000000
    18  H    0.005622   0.006369  -0.000000  -0.000014  -0.000000   0.554455
    19  H    0.000788  -0.000001   0.000000   0.000000   0.000000  -0.004843
    20  H    0.004693  -0.000000   0.000000  -0.000000  -0.000000  -0.000154
    21  H   -0.037620   0.000001  -0.000000   0.000000  -0.000000   0.000015
    22  H    0.362878   0.000235   0.000000  -0.000000  -0.000000  -0.000138
    23  H   -0.000083   0.350222   0.000163   0.009898  -0.000133   0.001774
    24  H   -0.000000   0.000008   0.344537   0.001773  -0.000013   0.000000
    25  H   -0.000000   0.001745   0.342412  -0.000430   0.000073   0.000000
    26  H   -0.000000  -0.000024   0.355547  -0.000167  -0.000010   0.000000
              19         20         21         22         23         24
     1  O    0.000000  -0.000000   0.000000  -0.000000   0.000017   0.000022
     2  S    0.000000  -0.000000   0.000000  -0.000000   0.001378  -0.008096
     3  N   -0.000000  -0.000000   0.000000  -0.000000  -0.001540   0.000017
     4  C   -0.000000  -0.000000  -0.000000   0.000052  -0.028180   0.000208
     5  N   -0.000000   0.000000   0.000000  -0.000236   0.005104   0.000040
     6  O    0.000000   0.000000  -0.000003   0.009776   0.003201  -0.000000
     7  C   -0.000201   0.000003  -0.000170  -0.012947  -0.029412   0.000001
     8  C    0.003223   0.000480   0.003233  -0.042999  -0.003193   0.000000
     9  C   -0.037540   0.004796   0.000759   0.005339   0.001017   0.000000
    10  C    0.363282  -0.041659   0.004398   0.000198   0.000078  -0.000000
    11  C   -0.040703   0.364717  -0.040853   0.004569  -0.000001  -0.000000
    12  C    0.004373  -0.041462   0.363847  -0.040962   0.000001   0.000000
    13  C    0.000788   0.004693  -0.037620   0.362878  -0.000083  -0.000000
    14  C   -0.000001  -0.000000   0.000001   0.000235   0.350222   0.000008
    15  C    0.000000   0.000000  -0.000000   0.000000   0.000163   0.344537
    16  O    0.000000  -0.000000   0.000000  -0.000000   0.009898   0.001773
    17  H    0.000000  -0.000000  -0.000000  -0.000000  -0.000133  -0.000013
    18  H   -0.004843  -0.000154   0.000015  -0.000138   0.001774   0.000000
    19  H    0.557022  -0.005122  -0.000162   0.000015  -0.000002  -0.000000
    20  H   -0.005122   0.560287  -0.005102  -0.000151  -0.000000   0.000000
    21  H   -0.000162  -0.005102   0.557042  -0.004917   0.000000  -0.000000
    22  H    0.000015  -0.000151  -0.004917   0.554479  -0.000008   0.000000
    23  H   -0.000002  -0.000000   0.000000  -0.000008   0.490408  -0.000005
    24  H   -0.000000   0.000000  -0.000000   0.000000  -0.000005   0.465932
    25  H   -0.000000   0.000000   0.000000   0.000000   0.000003  -0.020192
    26  H    0.000000   0.000000  -0.000000   0.000000   0.000000  -0.017758
              25         26
     1  O    0.001713  -0.000327
     2  S   -0.007351  -0.013547
     3  N   -0.001675   0.002244
     4  C    0.001477   0.000023
     5  N    0.000121  -0.000002
     6  O   -0.000024   0.000000
     7  C    0.000098   0.000000
     8  C   -0.000001   0.000000
     9  C   -0.000000  -0.000000
    10  C    0.000000   0.000000
    11  C    0.000000   0.000000
    12  C    0.000000  -0.000000
    13  C   -0.000000  -0.000000
    14  C    0.001745  -0.000024
    15  C    0.342412   0.355547
    16  O   -0.000430  -0.000167
    17  H    0.000073  -0.000010
    18  H    0.000000   0.000000
    19  H   -0.000000   0.000000
    20  H    0.000000   0.000000
    21  H    0.000000  -0.000000
    22  H    0.000000   0.000000
    23  H    0.000003   0.000000
    24  H   -0.020192  -0.017758
    25  H    0.468211  -0.019070
    26  H   -0.019070   0.452948
 Mulliken charges:
               1
     1  O   -0.557394
     2  S    1.179476
     3  N   -0.779741
     4  C    0.502495
     5  N   -0.287145
     6  O   -0.414435
     7  C    0.391869
     8  C    0.078584
     9  C   -0.178154
    10  C   -0.153206
    11  C   -0.133802
    12  C   -0.149056
    13  C   -0.175932
    14  C   -0.276889
    15  C   -0.622058
    16  O   -0.563864
    17  H    0.424745
    18  H    0.165759
    19  H    0.159871
    20  H    0.158675
    21  H    0.159532
    22  H    0.164816
    23  H    0.199294
    24  H    0.233526
    25  H    0.232891
    26  H    0.240141
 Sum of Mulliken charges =  -0.00000
 Mulliken charges with hydrogens summed into heavy atoms:
               1
     1  O   -0.557394
     2  S    1.179476
     3  N   -0.354996
     4  C    0.502495
     5  N   -0.287145
     6  O   -0.414435
     7  C    0.391869
     8  C    0.078584
     9  C   -0.012394
    10  C    0.006665
    11  C    0.024874
    12  C    0.010476
    13  C   -0.011116
    14  C   -0.077595
    15  C    0.084501
    16  O   -0.563864
 Electronic spatial extent (au):  <R**2>=           5421.7238
 Charge=             -0.0000 electrons
 Dipole moment (field-independent basis, Debye):
    X=              3.1022    Y=             -0.5571    Z=              4.3943  Tot=              5.4078
 Quadrupole moment (field-independent basis, Debye-Ang):
   XX=            -92.6218   YY=           -100.7913   ZZ=            -97.2201
   XY=            -10.8301   XZ=            -15.5264   YZ=             -2.2035
 Traceless Quadrupole moment (field-independent basis, Debye-Ang):
   XX=              4.2559   YY=             -3.9136   ZZ=             -0.3424
   XY=            -10.8301   XZ=            -15.5264   YZ=             -2.2035
 Octapole moment (field-independent basis, Debye-Ang**2):
  XXX=            132.8334  YYY=            -15.6814  ZZZ=             10.4859  XYY=              4.8081
  XXY=             20.9558  XXZ=             69.5146  XZZ=            -37.9767  YZZ=             -0.2863
  YYZ=              1.5799  XYZ=             14.0899
 Hexadecapole moment (field-independent basis, Debye-Ang**3):
 XXXX=          -5846.8740 YYYY=           -854.8494 ZZZZ=           -273.1590 XXXY=            -96.8672
 XXXZ=           -200.0372 YYYX=            -39.0048 YYYZ=             -1.9223 ZZZX=            -34.3442
 ZZZY=             -3.4493 XXYY=          -1020.7915 XXZZ=          -1050.7635 YYZZ=           -186.7128
 XXYZ=            -22.9465 YYXZ=            -11.4886 ZZXY=             21.0544
 N-N= 1.179436218631D+03 E-N=-4.985890010786D+03  KE= 1.112196152187D+03
 No NMR shielding tensors so no spin-rotation constants.
 Leave Link  601 at Tue Sep 22 18:09:56 2020, MaxMem=  2147483648 cpu:               0.4 elap:               0.1
 (Enter /prod/apps/gaussian/g16b1/l701.exe)
 ... and contract with generalized density number  0.
 Compute integral first derivatives.
 D1PCM: PCM CHGder 1st derivatives, ID1Alg=3 FixD1E=F DoIter=F DoCFld=F I1PDM=0.
 GePol: Maximum number of non-zero 1st derivatives   =     175
 Leave Link  701 at Tue Sep 22 18:09:58 2020, MaxMem=  2147483648 cpu:               6.4 elap:               1.6
 (Enter /prod/apps/gaussian/g16b1/l702.exe)
 L702 exits ... SP integral derivatives will be done elsewhere.
 Leave Link  702 at Tue Sep 22 18:09:58 2020, MaxMem=  2147483648 cpu:               0.1 elap:               0.0
 (Enter /prod/apps/gaussian/g16b1/l703.exe)
 Integral derivatives from FoFJK, PRISM(SPDF).
 Compute integral first derivatives, UseDBF=F ICtDFT=           0.
 Calling FoFJK, ICntrl=      2127 FMM=F ISym2X=0 I1Cent= 0 IOpClX= 0 NMat=1 NMatS=1 NMatT=0.
 FoFJK:  IHMeth= 1 ICntrl=    2127 DoSepK=F KAlg= 0 I1Cent=           0 FoldK=F
 IRaf=         0 NMat=       1 IRICut=       1 DoRegI=T DoRafI=F ISym2E= 0 IDoP0=0 IntGTp=1.
 FoFCou: FMM=F IPFlag=           0 FMFlag=      100000 FMFlg1=         800
         NFxFlg=           0 DoJE=F BraDBF=F KetDBF=F FulRan=T
         wScrn=  0.000000 ICntrl=      2127 IOpCl=  0 I1Cent=           0 NGrid=           0
         NMat0=    1 NMatS0=      1 NMatT0=    0 NMatD0=    1 NMtDS0=    0 NMtDT0=    0
 Symmetry not used in FoFCou.
 Leave Link  703 at Tue Sep 22 18:10:07 2020, MaxMem=  2147483648 cpu:              36.8 elap:               9.2
 (Enter /prod/apps/gaussian/g16b1/l716.exe)
 Dipole        = 1.22051632D+00-2.19164220D-01 1.72884154D+00
 -------------------------------------------------------------------
 Center     Atomic                   Forces (Hartrees/Bohr)
 Number     Number              X              Y              Z
 -------------------------------------------------------------------
      1        8           0.000214324   -0.000223740    0.000000073
      2       16          -0.000256532    0.000444776    0.000276244
      3        7           0.000248631    0.000519768   -0.000153431
      4        6          -0.001180877   -0.000908341   -0.000113527
      5        7           0.000593166    0.000351688    0.000050400
      6        8          -0.000294342    0.000817093    0.000049515
      7        6          -0.000041240   -0.001320251   -0.000076818
      8        6          -0.000523309   -0.000265995   -0.000158201
      9        6           0.000440687    0.000366342    0.000083091
     10        6           0.000018418    0.000433047    0.000117878
     11        6           0.000313402   -0.000491093   -0.000178345
     12        6           0.000167813   -0.000633743   -0.000081835
     13        6          -0.000118237    0.000649382    0.000217580
     14        6           0.000847980    0.001002556    0.000160050
     15        6           0.000135837    0.000083778    0.000548974
     16        8          -0.000041906   -0.000110107   -0.000040398
     17        1           0.000119505   -0.000428280    0.000093178
     18        1          -0.000398589   -0.000440122   -0.000075226
     19        1           0.000117566   -0.000131152    0.000003388
     20        1          -0.000394832    0.000160628    0.000030324
     21        1           0.000104921    0.000124316    0.000051425
     22        1          -0.000029788    0.000282671   -0.000032138
     23        1           0.000015657   -0.000127954   -0.000066298
     24        1          -0.000057776    0.000053790   -0.000267844
     25        1           0.000074462    0.000025294   -0.000309565
     26        1          -0.000074940   -0.000234352   -0.000128493
 -------------------------------------------------------------------
 Cartesian Forces:  Max     0.001320251 RMS     0.000383409
 Leave Link  716 at Tue Sep 22 18:10:07 2020, MaxMem=  2147483648 cpu:               0.1 elap:               0.0
 (Enter /prod/apps/gaussian/g16b1/l103.exe)

 GradGradGradGradGradGradGradGradGradGradGradGradGradGradGradGradGradGrad
 Berny optimization.
 FormGI is forming the generalized inverse of G from B-inverse, IUseBI=4.
 Internal  Forces:  Max     0.000763532 RMS     0.000210914
 Search for a local minimum.
 Step number   1 out of a maximum of  141
 All quantities printed in internal units (Hartrees-Bohrs-Radians)
 RMS Force = .21091D-03 SwitMx=.10000D-02 MixMth= 2
 Mixed Optimization -- En-DIIS/RFO-DIIS
 Second derivative matrix not updated -- first step.
 ITU=  0
     Eigenvalues ---    0.00456   0.01302   0.01429   0.01706   0.01812
     Eigenvalues ---    0.01869   0.01929   0.02046   0.02073   0.02100
     Eigenvalues ---    0.02114   0.02125   0.02141   0.02146   0.02161
     Eigenvalues ---    0.02166   0.02272   0.02281   0.02322   0.05987
     Eigenvalues ---    0.06201   0.08173   0.08351   0.13365   0.14241
     Eigenvalues ---    0.15999   0.16000   0.16000   0.16000   0.16000
     Eigenvalues ---    0.16000   0.16000   0.16000   0.16000   0.18678
     Eigenvalues ---    0.22000   0.22000   0.22603   0.23477   0.23802
     Eigenvalues ---    0.24959   0.24996   0.24999   0.25000   0.25000
     Eigenvalues ---    0.26635   0.34753   0.34883   0.34887   0.35377
     Eigenvalues ---    0.35459   0.35471   0.35567   0.35619   0.36573
     Eigenvalues ---    0.37032   0.37123   0.39954   0.41460   0.41972
     Eigenvalues ---    0.43508   0.44144   0.45298   0.45547   0.45803
     Eigenvalues ---    0.46309   0.46941   0.48574   0.51966   0.59825
     Eigenvalues ---    0.88874   0.89127
 RFO step:  Lambda=-2.55064044D-05 EMin= 4.56155881D-03
 Linear search not attempted -- first point.
 Iteration  1 RMS(Cart)=  0.01001655 RMS(Int)=  0.00002847
 Iteration  2 RMS(Cart)=  0.00004373 RMS(Int)=  0.00000124
 Iteration  3 RMS(Cart)=  0.00000000 RMS(Int)=  0.00000124
 ITry= 1 IFail=0 DXMaxC= 5.15D-02 DCOld= 1.00D+10 DXMaxT= 3.00D-01 DXLimC= 3.00D+00 Rises=F
 Variable       Old X    -DE/DX   Delta X   Delta X   Delta X     New X
                                 (Linear)    (Quad)   (Total)
    R1        2.77038  -0.00024   0.00000  -0.00027  -0.00027   2.77011
    R2        3.19361  -0.00001   0.00000  -0.00003  -0.00003   3.19358
    R3        3.38924  -0.00017   0.00000  -0.00064  -0.00064   3.38860
    R4        2.77156   0.00008   0.00000   0.00009   0.00009   2.77166
    R5        2.64355  -0.00036   0.00000  -0.00079  -0.00079   2.64276
    R6        1.92983  -0.00042   0.00000  -0.00095  -0.00095   1.92887
    R7        2.49464   0.00063   0.00000   0.00107   0.00107   2.49571
    R8        2.68285  -0.00003   0.00000  -0.00016  -0.00016   2.68269
    R9        2.65266  -0.00008   0.00000  -0.00006  -0.00006   2.65260
   R10        2.55893   0.00075   0.00000   0.00138   0.00138   2.56031
   R11        2.75798  -0.00030   0.00000  -0.00081  -0.00081   2.75717
   R12        2.58588  -0.00076   0.00000  -0.00160  -0.00160   2.58428
   R13        2.65497   0.00010   0.00000   0.00025   0.00025   2.65522
   R14        2.65303   0.00048   0.00000   0.00116   0.00116   2.65419
   R15        2.63084  -0.00005   0.00000  -0.00018  -0.00018   2.63066
   R16        2.04765   0.00060   0.00000   0.00167   0.00167   2.04932
   R17        2.64166  -0.00039   0.00000  -0.00094  -0.00094   2.64072
   R18        2.04936   0.00015   0.00000   0.00043   0.00043   2.04979
   R19        2.63931   0.00002   0.00000   0.00003   0.00003   2.63934
   R20        2.05068  -0.00042   0.00000  -0.00119  -0.00119   2.04948
   R21        2.63085   0.00053   0.00000   0.00120   0.00120   2.63206
   R22        2.04917   0.00017   0.00000   0.00047   0.00047   2.04964
   R23        2.04681   0.00028   0.00000   0.00078   0.00078   2.04759
   R24        2.03195   0.00013   0.00000   0.00036   0.00036   2.03231
   R25        2.05858  -0.00001   0.00000  -0.00002  -0.00002   2.05857
   R26        2.05865  -0.00004   0.00000  -0.00012  -0.00012   2.05853
   R27        2.06078   0.00018   0.00000   0.00052   0.00052   2.06131
    A1        1.82470   0.00016   0.00000   0.00143   0.00143   1.82614
    A2        1.90215   0.00013   0.00000   0.00101   0.00101   1.90316
    A3        2.09625  -0.00014   0.00000  -0.00107  -0.00107   2.09518
    A4        1.86423  -0.00018   0.00000  -0.00044  -0.00044   1.86379
    A5        1.86551   0.00002   0.00000  -0.00030  -0.00030   1.86521
    A6        1.89727  -0.00001   0.00000  -0.00056  -0.00056   1.89672
    A7        2.13922  -0.00046   0.00000  -0.00257  -0.00257   2.13665
    A8        1.95599   0.00007   0.00000  -0.00092  -0.00093   1.95506
    A9        1.99754   0.00026   0.00000   0.00037   0.00036   1.99789
   A10        2.07340   0.00027   0.00000   0.00114   0.00114   2.07454
   A11        2.24062   0.00010   0.00000   0.00046   0.00046   2.24108
   A12        1.96759  -0.00037   0.00000  -0.00153  -0.00153   1.96606
   A13        1.82520   0.00008   0.00000   0.00073   0.00073   1.82592
   A14        1.91355  -0.00014   0.00000  -0.00040  -0.00040   1.91315
   A15        2.04910   0.00035   0.00000   0.00153   0.00154   2.05064
   A16        1.91027  -0.00007   0.00000  -0.00056  -0.00056   1.90971
   A17        2.32379  -0.00028   0.00000  -0.00098  -0.00098   2.32281
   A18        2.09544  -0.00024   0.00000  -0.00105  -0.00105   2.09439
   A19        2.10385   0.00024   0.00000   0.00087   0.00087   2.10472
   A20        2.08390  -0.00001   0.00000   0.00018   0.00018   2.08408
   A21        2.09644   0.00011   0.00000   0.00039   0.00039   2.09684
   A22        2.09240   0.00001   0.00000   0.00020   0.00020   2.09260
   A23        2.09434  -0.00012   0.00000  -0.00059  -0.00059   2.09375
   A24        2.09804   0.00011   0.00000   0.00018   0.00018   2.09822
   A25        2.08788   0.00003   0.00000   0.00048   0.00048   2.08836
   A26        2.09726  -0.00015   0.00000  -0.00065  -0.00065   2.09660
   A27        2.09256  -0.00002   0.00000  -0.00030  -0.00030   2.09226
   A28        2.09446   0.00004   0.00000   0.00035   0.00035   2.09482
   A29        2.09616  -0.00002   0.00000  -0.00005  -0.00005   2.09610
   A30        2.09708   0.00022   0.00000   0.00112   0.00112   2.09820
   A31        2.09697  -0.00009   0.00000  -0.00043  -0.00043   2.09654
   A32        2.08914  -0.00013   0.00000  -0.00070  -0.00070   2.08844
   A33        2.09834  -0.00042   0.00000  -0.00157  -0.00157   2.09677
   A34        2.08462   0.00024   0.00000   0.00094   0.00094   2.08557
   A35        2.10022   0.00019   0.00000   0.00063   0.00063   2.10085
   A36        1.80802   0.00049   0.00000   0.00175   0.00174   1.80977
   A37        2.21949  -0.00021   0.00000  -0.00065  -0.00065   2.21883
   A38        2.25565  -0.00028   0.00000  -0.00107  -0.00107   2.25458
   A39        1.89633  -0.00030   0.00000  -0.00190  -0.00190   1.89443
   A40        1.90049  -0.00038   0.00000  -0.00250  -0.00250   1.89798
   A41        1.86795  -0.00017   0.00000  -0.00097  -0.00097   1.86698
   A42        1.93947   0.00031   0.00000   0.00170   0.00170   1.94116
   A43        1.93059   0.00025   0.00000   0.00185   0.00185   1.93245
   A44        1.92710   0.00025   0.00000   0.00157   0.00156   1.92866
    D1       -3.09051   0.00002   0.00000  -0.00199  -0.00199  -3.09249
    D2        0.71279   0.00011   0.00000   0.00256   0.00256   0.71535
    D3        1.17792  -0.00013   0.00000  -0.00359  -0.00359   1.17433
    D4       -1.30197  -0.00004   0.00000   0.00096   0.00096  -1.30101
    D5       -0.85053  -0.00004   0.00000  -0.00259  -0.00258  -0.85312
    D6        2.95276   0.00005   0.00000   0.00196   0.00196   2.95473
    D7       -0.91023  -0.00007   0.00000   0.00539   0.00539  -0.90485
    D8       -3.02496  -0.00004   0.00000   0.00597   0.00597  -3.01899
    D9        1.17495  -0.00004   0.00000   0.00601   0.00601   1.18096
   D10        1.05193   0.00008   0.00000   0.00730   0.00730   1.05923
   D11       -1.06279   0.00012   0.00000   0.00788   0.00788  -1.05492
   D12        3.13711   0.00012   0.00000   0.00792   0.00792  -3.13815
   D13        3.05912   0.00001   0.00000   0.00644   0.00644   3.06556
   D14        0.94439   0.00005   0.00000   0.00702   0.00702   0.95142
   D15       -1.13889   0.00005   0.00000   0.00707   0.00707  -1.13182
   D16       -2.52758   0.00007   0.00000   0.00224   0.00225  -2.52534
   D17        0.67889   0.00006   0.00000   0.00079   0.00079   0.67968
   D18       -0.06181  -0.00009   0.00000  -0.00287  -0.00287  -0.06468
   D19       -3.13852  -0.00011   0.00000  -0.00433  -0.00433   3.14034
   D20       -3.07367  -0.00009   0.00000  -0.00394  -0.00394  -3.07761
   D21        0.01279  -0.00006   0.00000  -0.00265  -0.00265   0.01014
   D22        3.07540   0.00013   0.00000   0.00564   0.00564   3.08104
   D23       -0.05916   0.00005   0.00000   0.00223   0.00223  -0.05693
   D24       -0.00455   0.00009   0.00000   0.00418   0.00418  -0.00037
   D25       -3.13911   0.00001   0.00000   0.00077   0.00077  -3.13834
   D26       -0.01651   0.00000   0.00000   0.00005   0.00005  -0.01646
   D27       -3.13467   0.00006   0.00000   0.00265   0.00265  -3.13201
   D28        0.01439   0.00006   0.00000   0.00260   0.00260   0.01699
   D29        3.11703  -0.00003   0.00000  -0.00154  -0.00154   3.11548
   D30       -0.02584   0.00001   0.00000   0.00059   0.00059  -0.02525
   D31       -0.03421  -0.00002   0.00000  -0.00147  -0.00147  -0.03568
   D32        3.10611   0.00002   0.00000   0.00066   0.00066   3.10677
   D33       -0.00624  -0.00009   0.00000  -0.00394  -0.00394  -0.01018
   D34        3.12812  -0.00000   0.00000  -0.00043  -0.00043   3.12768
   D35       -3.13875  -0.00010   0.00000  -0.00402  -0.00403   3.14041
   D36       -0.00439  -0.00001   0.00000  -0.00051  -0.00051  -0.00491
   D37        3.14009   0.00002   0.00000   0.00133   0.00133   3.14142
   D38       -0.00262   0.00001   0.00000   0.00062   0.00062  -0.00200
   D39       -0.00025  -0.00001   0.00000  -0.00077  -0.00077  -0.00102
   D40        3.14023  -0.00003   0.00000  -0.00149  -0.00149   3.13874
   D41       -3.14081  -0.00001   0.00000  -0.00070  -0.00070  -3.14151
   D42        0.00151  -0.00004   0.00000  -0.00219  -0.00219  -0.00068
   D43       -0.00049   0.00003   0.00000   0.00142   0.00142   0.00093
   D44       -3.14135  -0.00000   0.00000  -0.00007  -0.00007  -3.14142
   D45        0.00089  -0.00002   0.00000  -0.00067  -0.00067   0.00022
   D46       -3.14150  -0.00001   0.00000  -0.00050  -0.00050   3.14119
   D47       -3.13959   0.00000   0.00000   0.00005   0.00004  -3.13955
   D48        0.00120   0.00000   0.00000   0.00022   0.00022   0.00142
   D49       -0.00080   0.00003   0.00000   0.00148   0.00148   0.00068
   D50       -3.14095  -0.00002   0.00000  -0.00091  -0.00091   3.14132
   D51       -3.14159   0.00003   0.00000   0.00131   0.00131  -3.14029
   D52        0.00144  -0.00002   0.00000  -0.00109  -0.00109   0.00035
   D53        0.00007  -0.00002   0.00000  -0.00084  -0.00084  -0.00077
   D54       -3.14052  -0.00003   0.00000  -0.00158  -0.00158   3.14108
   D55        3.14022   0.00003   0.00000   0.00156   0.00156  -3.14141
   D56       -0.00037   0.00002   0.00000   0.00082   0.00081   0.00044
   D57        0.00058  -0.00001   0.00000  -0.00062  -0.00062  -0.00004
   D58        3.14143   0.00002   0.00000   0.00089   0.00089  -3.14086
   D59        3.14117   0.00000   0.00000   0.00013   0.00013   3.14130
   D60       -0.00116   0.00004   0.00000   0.00163   0.00163   0.00048
         Item               Value     Threshold  Converged?
 Maximum Force            0.000764     0.000450     NO 
 RMS     Force            0.000211     0.000300     YES
 Maximum Displacement     0.051469     0.001800     NO 
 RMS     Displacement     0.010025     0.001200     NO 
 Predicted change in Energy=-1.275903D-05
 Lowest energy point so far.  Saving SCF results.
 GradGradGradGradGradGradGradGradGradGradGradGradGradGradGradGradGradGrad

 Leave Link  103 at Tue Sep 22 18:10:07 2020, MaxMem=  2147483648 cpu:               0.1 elap:               0.0
 (Enter /prod/apps/gaussian/g16b1/l202.exe)
                          Input orientation:                          
 ---------------------------------------------------------------------
 Center     Atomic      Atomic             Coordinates (Angstroms)
 Number     Number       Type             X           Y           Z
 ---------------------------------------------------------------------
      1          8           0       -4.693691   -0.186856   -0.544780
      2         16           0       -3.348334   -0.471632   -0.037120
      3          7           0       -2.410493    0.834447   -0.557329
      4          6           0       -1.034360    0.910875   -0.320292
      5          7           0       -0.493495    2.091468   -0.079788
      6          8           0        0.882653    1.835747    0.025988
      7          6           0        1.112579    0.510179   -0.134162
      8          6           0        2.494326    0.050472   -0.043508
      9          6           0        2.789343   -1.317449   -0.170017
     10          6           0        4.106668   -1.759252   -0.084208
     11          6           0        5.142471   -0.845636    0.128339
     12          6           0        4.854723    0.515118    0.255880
     13          6           0        3.539076    0.964369    0.170997
     14          6           0       -0.072198   -0.131902   -0.366983
     15          6           0       -3.373905   -0.409680    1.754797
     16          8           0       -2.648693   -1.691122   -0.454910
     17          1           0       -2.905545    1.722188   -0.464048
     18          1           0        1.988541   -2.030292   -0.333145
     19          1           0        4.325433   -2.817099   -0.182627
     20          1           0        6.167604   -1.193334    0.194929
     21          1           0        5.655544    1.227644    0.421411
[...]
 Alpha virt. eigenvalues --    0.16297   0.16711   0.17237   0.17347   0.17936
 Alpha virt. eigenvalues --    0.18376   0.18690   0.19533   0.19687   0.20496
 Alpha virt. eigenvalues --    0.20682   0.21231   0.21466   0.21792   0.22311
 Alpha virt. eigenvalues --    0.23385   0.23731   0.24110   0.24606   0.25263
 Alpha virt. eigenvalues --    0.25623   0.25936   0.26221   0.26647   0.27485
 Alpha virt. eigenvalues --    0.27877   0.28416   0.29139   0.29507   0.30074
 Alpha virt. eigenvalues --    0.30425   0.30673   0.31209   0.31365   0.31533
 Alpha virt. eigenvalues --    0.32680   0.33046   0.33521   0.33958   0.34045
 Alpha virt. eigenvalues --    0.34314   0.34339   0.35169   0.35456   0.35967
 Alpha virt. eigenvalues --    0.36372   0.36784   0.37033   0.37635   0.37859
 Alpha virt. eigenvalues --    0.38074   0.38200   0.38454   0.38831   0.40080
 Alpha virt. eigenvalues --    0.40189   0.40651   0.40928   0.41327   0.41616
 Alpha virt. eigenvalues --    0.42563   0.43022   0.43372   0.43753   0.44244
 Alpha virt. eigenvalues --    0.44750   0.45070   0.45581   0.46420   0.46947
 Alpha virt. eigenvalues --    0.47717   0.48316   0.49102   0.50316   0.50507
 Alpha virt. eigenvalues --    0.50677   0.51500   0.52155   0.53439   0.53716
 Alpha virt. eigenvalues --    0.54693   0.55435   0.55692   0.56372   0.56904
 Alpha virt. eigenvalues --    0.57071   0.58105   0.58545   0.58993   0.59321
 Alpha virt. eigenvalues --    0.59917   0.60515   0.60610   0.61160   0.62009
 Alpha virt. eigenvalues --    0.62864   0.63341   0.64325   0.64810   0.65082
 Alpha virt. eigenvalues --    0.65656   0.66084   0.66447   0.66674   0.67347
 Alpha virt. eigenvalues --    0.67636   0.68148   0.68440   0.69113   0.69851
 Alpha virt. eigenvalues --    0.69995   0.70166   0.70821   0.71083   0.71513
 Alpha virt. eigenvalues --    0.72418   0.72773   0.73103   0.74209   0.74959
 Alpha virt. eigenvalues --    0.75792   0.76162   0.76870   0.77232   0.78038
 Alpha virt. eigenvalues --    0.79263   0.79772   0.80482   0.81266   0.83459
 Alpha virt. eigenvalues --    0.84028   0.84674   0.85993   0.86179   0.86914
 Alpha virt. eigenvalues --    0.87905   0.88465   0.89043   0.89559   0.89751
 Alpha virt. eigenvalues --    0.90006   0.91251   0.91371   0.91737   0.92110
 Alpha virt. eigenvalues --    0.92862   0.93397   0.94157   0.94942   0.95526
 Alpha virt. eigenvalues --    0.96313   0.96607   0.96706   0.97198   0.98446
 Alpha virt. eigenvalues --    0.99191   0.99774   1.00179   1.00572   1.01169
 Alpha virt. eigenvalues --    1.01950   1.02827   1.03757   1.04406   1.04945
 Alpha virt. eigenvalues --    1.05549   1.07457   1.07564   1.08767   1.10962
 Alpha virt. eigenvalues --    1.11197   1.12124   1.13051   1.13981   1.14364
 Alpha virt. eigenvalues --    1.15287   1.16341   1.17119   1.18981   1.19593
 Alpha virt. eigenvalues --    1.20300   1.21314   1.22176   1.22607   1.23065
 Alpha virt. eigenvalues --    1.24690   1.25515   1.26452   1.26805   1.30341
 Alpha virt. eigenvalues --    1.30431   1.31511   1.32905   1.34411   1.35917
 Alpha virt. eigenvalues --    1.36920   1.38293   1.39403   1.40536   1.41510
 Alpha virt. eigenvalues --    1.42514   1.44190   1.45387   1.46537   1.48337
 Alpha virt. eigenvalues --    1.49393   1.50112   1.50234   1.51483   1.51918
 Alpha virt. eigenvalues --    1.53511   1.54184   1.55312   1.55920   1.56498
 Alpha virt. eigenvalues --    1.57512   1.58031   1.58837   1.60313   1.60732
 Alpha virt. eigenvalues --    1.61906   1.62580   1.62848   1.64404   1.65212
 Alpha virt. eigenvalues --    1.66789   1.67712   1.67915   1.68517   1.69414
 Alpha virt. eigenvalues --    1.70295   1.70977   1.71091   1.73585   1.73772
 Alpha virt. eigenvalues --    1.76005   1.77355   1.78292   1.78737   1.79630
 Alpha virt. eigenvalues --    1.80201   1.81469   1.81747   1.83149   1.84017
 Alpha virt. eigenvalues --    1.84536   1.86745   1.87231   1.88615   1.89893
 Alpha virt. eigenvalues --    1.90699   1.91133   1.92319   1.92990   1.94107
 Alpha virt. eigenvalues --    1.95028   1.96195   1.96754   1.97857   1.98547
 Alpha virt. eigenvalues --    1.98851   1.99371   2.00121   2.01416   2.02049
 Alpha virt. eigenvalues --    2.03066   2.04060   2.06428   2.06875   2.07417
 Alpha virt. eigenvalues --    2.09091   2.11419   2.11784   2.12931   2.13903
 Alpha virt. eigenvalues --    2.15947   2.17203   2.17381   2.19214   2.19880
 Alpha virt. eigenvalues --    2.21373   2.22096   2.23989   2.24612   2.27376
 Alpha virt. eigenvalues --    2.27736   2.28455   2.29219   2.30685   2.31771
 Alpha virt. eigenvalues --    2.33504   2.34004   2.34955   2.35184   2.35952
 Alpha virt. eigenvalues --    2.36052   2.36823   2.38784   2.40351   2.40565
 Alpha virt. eigenvalues --    2.41390   2.43599   2.46346   2.47612   2.48600
 Alpha virt. eigenvalues --    2.50557   2.51985   2.55863   2.57897   2.60084
 Alpha virt. eigenvalues --    2.61534   2.62567   2.65188   2.65490   2.67780
 Alpha virt. eigenvalues --    2.71870   2.74001   2.75323   2.76929   2.78123
 Alpha virt. eigenvalues --    2.81116   2.81885   2.82617   2.83724   2.84980
 Alpha virt. eigenvalues --    2.87642   2.89248   2.91586   2.95510   2.95932
 Alpha virt. eigenvalues --    2.98269   2.98669   3.01697   3.04885   3.06371
 Alpha virt. eigenvalues --    3.07851   3.13948   3.15750   3.16119   3.19976
 Alpha virt. eigenvalues --    3.20364   3.31226   3.36450   3.37675   3.40381
 Alpha virt. eigenvalues --    3.44552   3.47272   3.50185   3.61158   3.63580
 Alpha virt. eigenvalues --    3.72071   3.72917   3.74629   3.75769   3.76364
 Alpha virt. eigenvalues --    3.78228   3.79492   3.80655   3.85865   3.86269
 Alpha virt. eigenvalues --    3.88068   3.88541   3.92172   3.95233   4.01860
 Alpha virt. eigenvalues --    4.04493   4.12912   4.32080   4.58303   4.88904
          Condensed to atoms (all electrons):
               1          2          3          4          5          6
     1  O    9.093935   0.012341  -0.051538   0.036023   0.002093   0.000842
     2  S    0.012341  13.160277   0.204072  -0.377443   0.041421  -0.004202
     3  N   -0.051538   0.204072   7.887018  -0.637793   0.086388  -0.051015
     4  C    0.036023  -0.377443  -0.637793  11.144648  -1.090224   0.679972
     5  N    0.002093   0.041421   0.086388  -1.090224   8.682051  -0.733080
     6  O    0.000842  -0.004202  -0.051015   0.679972  -0.733080  10.117510
     7  C    0.007453  -0.007980   0.084120  -0.365083  -0.325718  -0.986080
     8  C   -0.000329   0.000174  -0.066173   0.220919   0.048943   0.689220
     9  C    0.000279  -0.004618   0.042596  -0.399757   0.188678  -0.188130
    10  C   -0.000009   0.000915  -0.003991  -0.095546   0.030812   0.041525
    11  C    0.000005  -0.000470   0.003135  -0.043752   0.005089  -0.044590
    12  C   -0.000016   0.000470  -0.008543   0.228289  -0.079553  -0.016460
    13  C    0.000006  -0.000430   0.013200   0.071523  -0.130208  -0.237145
    14  C   -0.010547   0.097725   0.154072  -4.008303   0.845897  -0.126366
    15  C   -0.040159   0.452274   0.034946  -0.066804   0.017659   0.002327
    16  O    0.022163  -0.109457  -0.064771   0.163093  -0.007510   0.000468
    17  H    0.006534  -0.096018   0.347156   0.129188  -0.141673   0.001641
    18  H   -0.000208   0.001867  -0.003694   0.065843   0.001273   0.011239
    19  H    0.000002   0.000091  -0.000258   0.001701   0.000258   0.001193
    20  H   -0.000000   0.000000   0.000079  -0.000991   0.000275  -0.000177
    21  H   -0.000001   0.000002  -0.000308   0.002184  -0.001758   0.005346
    22  H    0.000033  -0.000246   0.001972   0.021778  -0.035234  -0.103884
    23  H    0.002440  -0.000136  -0.035017   0.346633  -0.094847   0.023459
    24  H    0.028520   0.016814  -0.069988   0.006280  -0.008443   0.001563
    25  H    0.010856  -0.079605   0.003396  -0.009963  -0.003016   0.000302
    26  H    0.004050  -0.020727   0.020142  -0.020127   0.003059   0.000211
               7          8          9         10         11         12
     1  O    0.007453  -0.000329   0.000279  -0.000009   0.000005  -0.000016
     2  S   -0.007980   0.000174  -0.004618   0.000915  -0.000470   0.000470
     3  N    0.084120  -0.066173   0.042596  -0.003991   0.003135  -0.008543
     4  C   -0.365083   0.220919  -0.399757  -0.095546  -0.043752   0.228289
     5  N   -0.325718   0.048943   0.188678   0.030812   0.005089  -0.079553
     6  O   -0.986080   0.689220  -0.188130   0.041525  -0.044590  -0.016460
     7  C   20.649893  -5.892583   0.242759  -0.697062   0.643741  -0.499951
     8  C   -5.892583  19.834994  -7.377657   1.822890  -3.757132   1.662561
     9  C    0.242759  -7.377657  20.880394  -5.986266   3.462404  -3.363240
    10  C   -0.697062   1.822890  -5.986266  13.509537  -3.133592   3.441633
    11  C    0.643741  -3.757132   3.462404  -3.133592   9.260745  -3.003782
    12  C   -0.499951   1.662561  -3.363240   3.441633  -3.003782  11.482049
    13  C    0.079440  -5.859951   0.183623  -3.043631   2.720407  -3.962174
    14  C   -7.894015   2.369013  -1.799408   0.596773  -0.401132   0.050910
    15  C   -0.047066   0.004459  -0.004425   0.001391  -0.000504   0.000795
    16  O   -0.103117   0.007891  -0.003646   0.002641  -0.000232  -0.000135
    17  H   -0.029607   0.005070  -0.000112   0.000087  -0.000185   0.000447
    18  H   -0.248118   0.876509  -1.203163   0.225459  -0.134368   0.092927
    19  H   -0.031583  -0.150269   0.918798  -0.974130   0.309584  -0.257432
    20  H   -0.012759   0.045578  -0.088557   0.297419  -0.571712   0.378299
    21  H   -0.015063  -0.120939   0.083682  -0.223262   0.299679  -0.779318
    22  H    0.340095   0.231430  -0.117405   0.059297  -0.095361   0.358356
    23  H    0.932855  -0.058053  -0.006920   0.043263  -0.030892   0.015961
    24  H    0.006308  -0.001504   0.001509   0.000077   0.000022  -0.000147
    25  H    0.007775  -0.001827  -0.000688  -0.000842  -0.000190   0.000573
    26  H   -0.001298   0.002485  -0.000475   0.000050  -0.000066   0.000161
              13         14         15         16         17         18
     1  O    0.000006  -0.010547  -0.040159   0.022163   0.006534  -0.000208
     2  S   -0.000430   0.097725   0.452274  -0.109457  -0.096018   0.001867
     3  N    0.013200   0.154072   0.034946  -0.064771   0.347156  -0.003694
     4  C    0.071523  -4.008303  -0.066804   0.163093   0.129188   0.065843
     5  N   -0.130208   0.845897   0.017659  -0.007510  -0.141673   0.001273
     6  O   -0.237145  -0.126366   0.002327   0.000468   0.001641   0.011239
     7  C    0.079440  -7.894015  -0.047066  -0.103117  -0.029607  -0.248118
     8  C   -5.859951   2.369013   0.004459   0.007891   0.005070   0.876509
     9  C    0.183623  -1.799408  -0.004425  -0.003646  -0.000112  -1.203163
    10  C   -3.043631   0.596773   0.001391   0.002641   0.000087   0.225459
    11  C    2.720407  -0.401132  -0.000504  -0.000232  -0.000185  -0.134368
    12  C   -3.962174   0.050910   0.000795  -0.000135   0.000447   0.092927
    13  C   18.244092  -2.209649  -0.001923  -0.006010  -0.003340  -0.107536
    14  C   -2.209649  18.049365   0.036360   0.039200  -0.059495   0.178903
    15  C   -0.001923   0.036360   4.641293  -0.011839  -0.040060  -0.000514
    16  O   -0.006010   0.039200  -0.011839   9.232927   0.001645  -0.007691
    17  H   -0.003340  -0.059495  -0.040060   0.001645   0.935319   0.000353
    18  H   -0.107536   0.178903  -0.000514  -0.007691   0.000353   2.000025
    19  H    0.101661   0.047331   0.000028   0.000295   0.000013  -0.078348
    20  H   -0.082126   0.001947  -0.000017  -0.000026  -0.000007  -0.018682
    21  H    0.685606   0.007480   0.000036   0.000016   0.000026   0.009866
    22  H   -0.826949  -0.075708  -0.000195  -0.000515  -0.000792  -0.017733
    23  H    0.041565  -1.554628   0.008608  -0.021715   0.002708  -0.072751
    24  H   -0.000539  -0.005691   0.289106   0.010818   0.016102   0.000345
    25  H   -0.001196   0.004861   0.347851   0.036549  -0.000064  -0.000957
    26  H    0.000504   0.020470   0.320205   0.000022  -0.003164   0.000731
              19         20         21         22         23         24
     1  O    0.000002  -0.000000  -0.000001   0.000033   0.002440   0.028520
     2  S    0.000091   0.000000   0.000002  -0.000246  -0.000136   0.016814
     3  N   -0.000258   0.000079  -0.000308   0.001972  -0.035017  -0.069988
     4  C    0.001701  -0.000991   0.002184   0.021778   0.346633   0.006280
     5  N    0.000258   0.000275  -0.001758  -0.035234  -0.094847  -0.008443
     6  O    0.001193  -0.000177   0.005346  -0.103884   0.023459   0.001563
     7  C   -0.031583  -0.012759  -0.015063   0.340095   0.932855   0.006308
     8  C   -0.150269   0.045578  -0.120939   0.231430  -0.058053  -0.001504
     9  C    0.918798  -0.088557   0.083682  -0.117405  -0.006920   0.001509
    10  C   -0.974130   0.297419  -0.223262   0.059297   0.043263   0.000077
    11  C    0.309584  -0.571712   0.299679  -0.095361  -0.030892   0.000022
    12  C   -0.257432   0.378299  -0.779318   0.358356   0.015961  -0.000147
    13  C    0.101661  -0.082126   0.685606  -0.826949   0.041565  -0.000539
    14  C    0.047331   0.001947   0.007480  -0.075708  -1.554628  -0.005691
    15  C    0.000028  -0.000017   0.000036  -0.000195   0.008608   0.289106
    16  O    0.000295  -0.000026   0.000016  -0.000515  -0.021715   0.010818
    17  H    0.000013  -0.000007   0.000026  -0.000792   0.002708   0.016102
    18  H   -0.078348  -0.018682   0.009866  -0.017733  -0.072751   0.000345
    19  H    1.663039  -0.051284  -0.020314   0.006907  -0.002815  -0.000017
    20  H   -0.051284   1.605726  -0.056562  -0.012984   0.000682   0.000001
    21  H   -0.020314  -0.056562   1.650459  -0.087406   0.000718  -0.000005
    22  H    0.006907  -0.012984  -0.087406   2.015770   0.001585   0.000001
    23  H   -0.002815   0.000682   0.000718   0.001585   2.063477  -0.000166
    24  H   -0.000017   0.000001  -0.000005   0.000001  -0.000166   0.866301
    25  H    0.000066  -0.000011   0.000007   0.000190  -0.001314  -0.081201
    26  H    0.000007   0.000000   0.000005   0.000044  -0.004205  -0.101529
              25         26
     1  O    0.010856   0.004050
     2  S   -0.079605  -0.020727
     3  N    0.003396   0.020142
     4  C   -0.009963  -0.020127
     5  N   -0.003016   0.003059
     6  O    0.000302   0.000211
     7  C    0.007775  -0.001298
     8  C   -0.001827   0.002485
     9  C   -0.000688  -0.000475
    10  C   -0.000842   0.000050
    11  C   -0.000190  -0.000066
    12  C    0.000573   0.000161
    13  C   -0.001196   0.000504
    14  C    0.004861   0.020470
    15  C    0.347851   0.320205
    16  O    0.036549   0.000022
    17  H   -0.000064  -0.003164
    18  H   -0.000957   0.000731
    19  H    0.000066   0.000007
    20  H   -0.000011   0.000000
    21  H    0.000007   0.000005
    22  H    0.000190   0.000044
    23  H   -0.001314  -0.004205
    24  H   -0.081201  -0.101529
    25  H    0.838132  -0.087156
    26  H   -0.087156   0.824757
 Mulliken charges:
               1
     1  O   -1.124768
     2  S    2.712888
     3  N   -0.889202
     4  C   -0.002287
     5  N   -0.302631
     6  O   -1.085689
     7  C    0.162641
     8  C    1.464281
     9  C    0.539745
    10  C    0.084563
    11  C    0.513149
    12  C    0.257318
    13  C    0.331181
    14  C    1.644636
    15  C    0.056168
    16  O   -1.181062
    17  H   -0.071773
    18  H   -0.571578
    19  H   -0.484523
    20  H   -0.434111
    21  H   -0.440177
    22  H   -0.663046
    23  H   -0.600495
    24  H    0.025460
    25  H    0.017471
    26  H    0.041842
 Sum of Mulliken charges =  -0.00000
 Mulliken charges with hydrogens summed into heavy atoms:
               1
     1  O   -1.124768
     2  S    2.712888
     3  N   -0.960975
     4  C   -0.002287
     5  N   -0.302631
     6  O   -1.085689
     7  C    0.162641
     8  C    1.464281
     9  C   -0.031833
    10  C   -0.399960
    11  C    0.079038
    12  C   -0.182859
    13  C   -0.331866
    14  C    1.044141
    15  C    0.140941
    16  O   -1.181062
 Electronic spatial extent (au):  <R**2>=           5421.8227
 Charge=             -0.0000 electrons
 Dipole moment (field-independent basis, Debye):
    X=              3.2342    Y=             -0.6821    Z=              3.8285  Tot=              5.0579
 Quadrupole moment (field-independent basis, Debye-Ang):
   XX=            -96.4009   YY=           -103.9580   ZZ=           -101.2856
   XY=             -8.4951   XZ=            -14.2753   YZ=             -2.1024
 Traceless Quadrupole moment (field-independent basis, Debye-Ang):
   XX=              4.1472   YY=             -3.4098   ZZ=             -0.7374
   XY=             -8.4951   XZ=            -14.2753   YZ=             -2.1024
 Octapole moment (field-independent basis, Debye-Ang**2):
  XXX=            127.3472  YYY=            -15.0350  ZZZ=              9.0452  XYY=              4.6526
  XXY=             17.5685  XXZ=             66.4621  XZZ=            -44.3053  YZZ=             -0.1206
  YYZ=              1.3866  XYZ=             14.6016
 Hexadecapole moment (field-independent basis, Debye-Ang**3):
 XXXX=          -6061.8919 YYYY=           -885.2848 ZZZZ=           -295.9971 XXXY=            -63.1368
 XXXZ=           -182.9872 YYYX=            -27.4924 YYYZ=             -0.1663 ZZZX=            -31.8875
 ZZZY=             -3.7532 XXYY=          -1056.3219 XXZZ=          -1101.9873 YYZZ=           -198.4235
 XXYZ=            -20.5495 YYXZ=            -12.0582 ZZXY=             25.8318
 N-N= 1.179697160010D+03 E-N=-4.984903566912D+03  KE= 1.114169298214D+03
 Leave Link  601 at Tue Sep 22 18:49:40 2020, MaxMem=   262144000 cpu:               2.6 elap:               0.9
 (Enter /prod/apps/gaussian/g16b1/l9999.exe)
 1\1\GINC-PIRINEUS28\SP\RMP2-FC\Aug-CC-pVDZ\C10H10N2O3S1\UBAFAR01\22-Se
 p-2020\0\\#p mp2/aug-cc-pVDZ scf=(MaxCycle=2000,NoVarAcc,NoIncFock) ma
 xdisk=120GB geom=allcheck\\SM41_m0.n.7.pdb.xyz\\0,1\O,0,-4.6937739088,
 -0.1851650263,-0.5476695568\S,0,-3.3492862263,-0.4713656053,-0.0388086
 425\N,0,-2.4097794821,0.8348674835,-0.5592375059\C,0,-1.0342334628,0.9
 101717565,-0.3179402757\N,0,-0.4936072891,2.090006362,-0.0723840721\O,
 0,0.881991146,1.8345649959,0.0335517545\C,0,1.112794795,0.5091839629,-
 0.1315600555\C,0,2.4946027943,0.0500859778,-0.0422186516\C,0,2.7896174
 029,-1.3179772975,-0.1669134322\C,0,4.1071061987,-1.75949973,-0.082729
 5962\C,0,5.1431319298,-0.8453708497,0.1267797613\C,0,4.8553382172,0.51
 55280071,0.2522906368\C,0,3.5395736879,0.9645803074,0.1687209363\C,0,-
 0.0717696585,-0.1323342513,-0.3660786416\C,0,-3.3753857486,-0.40925190
 1,1.7535137317\O,0,-2.650451967,-1.6914164509,-0.456600286\H,0,-2.9041
 196945,1.7227156563,-0.4617650156\H,0,1.9885199128,-2.0310523472,-0.32
 72316354\H,0,4.3258365575,-2.8174812079,-0.1798336447\H,0,6.1685621125
 ,-1.1924364013,0.1922216297\H,0,5.6563022762,1.2285575285,0.4150835203
 \H,0,3.3137036656,2.019891468,0.2648240334\H,0,-0.2537721652,-1.175932
 4784,-0.5516186175\H,0,-3.8293432764,0.5320683965,2.0607882417\H,0,-2.
 3535439173,-0.493227646,2.1214268895\H,0,-3.9740138999,-1.2557107096,2
 .0923884942\\Version=ES64L-G16RevB.01\State=1-A\HF=-1115.4756968\MP2=-
 1117.9275835\RMSD=7.746e-09\PG=C01 [X(C10H10N2O3S1)]\\@


 GOD GAVE US TWO ENDS... ONE TO SIT ON...    
 AND THE OTHER TO THINK WITH...              
 YOUR SUCCESS DEPENDS UPON WHICH END YOU     
 USE THE MOST...                             
                                             
 IT'S A CASE OF HEADS YOU WIN TAILS YOU LOSE.
          SOURCE UNKNOWN(IT'S JUST AS WELL.) 
 Job cpu time:       0 days  1 hours 35 minutes 56.1 seconds.
 Elapsed time:       0 days  0 hours 28 minutes 14.9 seconds.
 File lengths (MBytes):  RWF=  35469 Int=      0 D2E=      0 Chk=     19 Scr=      1
 Normal termination of Gaussian 16 at Tue Sep 22 18:49:42 2020.
