 Entering Gaussian System, Link 0=g16
 Initial command:
 /prod/apps/gaussian/g16b1/l1.exe "/tmp/ubafar01/1461140/Gau-96342.inp" -scrdir="/tmp/ubafar01/1461140/"
 Entering Link 1 = /prod/apps/gaussian/g16b1/l1.exe PID=     96347.
  
 Copyright (c) 1988-2017, Gaussian, Inc.  All Rights Reserved.
  
 This is part of the Gaussian(R) 16 program.  It is based on
 the Gaussian(R) 09 system (copyright 2009, Gaussian, Inc.),
 the Gaussian(R) 03 system (copyright 2003, Gaussian, Inc.),
 the Gaussian(R) 98 system (copyright 1998, Gaussian, Inc.),
 the Gaussian(R) 94 system (copyright 1995, Gaussian, Inc.),
 the Gaussian 92(TM) system (copyright 1992, Gaussian, Inc.),
 the Gaussian 90(TM) system (copyright 1990, Gaussian, Inc.),
 the Gaussian 88(TM) system (copyright 1988, Gaussian, Inc.),
 the Gaussian 86(TM) system (copyright 1986, Carnegie Mellon
 University), and the Gaussian 82(TM) system (copyright 1983,
 Carnegie Mellon University). Gaussian is a federally registered
 trademark of Gaussian, Inc.
  
 This software contains proprietary and confidential information,
 including trade secrets, belonging to Gaussian, Inc.
  
 This software is provided under written license and may be
 used, copied, transmitted, or stored only in accord with that
 written license.
  
 The following legend is applicable only to US Government
 contracts under FAR:
  
                    RESTRICTED RIGHTS LEGEND
  
 Use, reproduction and disclosure by the US Government is
 subject to restrictions as set forth in subparagraphs (a)
 and (c) of the Commercial Computer Software - Restricted
 Rights clause in FAR 52.227-19.
  
 Gaussian, Inc.
 340 Quinnipiac St., Bldg. 40, Wallingford CT 06492
  
  
 ---------------------------------------------------------------
 Warning -- This program may not be used in any manner that
 competes with the business of Gaussian, Inc. or will provide
 assistance to any competitor of Gaussian, Inc.  The licensee
 of this program is prohibited from giving any competitor of
 Gaussian, Inc. access to this program.  By using this program,
 the user acknowledges that Gaussian, Inc. is engaged in the
 business of creating and licensing software in the field of
 computational chemistry and represents and warrants to the
 licensee that it is not a competitor of Gaussian, Inc. and that
 it will not use this program in any manner prohibited above.
 ---------------------------------------------------------------
  

 Cite this work as:
 Gaussian 16, Revision B.01,
 M. J. Frisch, G. W. Trucks, H. B. Schlegel, G. E. Scuseria, 
 M. A. Robb, J. R. Cheeseman, G. Scalmani, V. Barone, 
 G. A. Petersson, H. Nakatsuji, X. Li, M. Caricato, A. V. Marenich, 
 J. Bloino, B. G. Janesko, R. Gomperts, B. Mennucci, H. P. Hratchian, 
 J. V. Ortiz, A. F. Izmaylov, J. L. Sonnenberg, D. Williams-Young, 
 F. Ding, F. Lipparini, F. Egidi, J. Goings, B. Peng, A. Petrone, 
 T. Henderson, D. Ranasinghe, V. G. Zakrzewski, J. Gao, N. Rega, 
 G. Zheng, W. Liang, M. Hada, M. Ehara, K. Toyota, R. Fukuda, 
 J. Hasegawa, M. Ishida, T. Nakajima, Y. Honda, O. Kitao, H. Nakai, 
 T. Vreven, K. Throssell, J. A. Montgomery, Jr., J. E. Peralta, 
 F. Ogliaro, M. J. Bearpark, J. J. Heyd, E. N. Brothers, K. N. Kudin, 
 V. N. Staroverov, T. A. Keith, R. Kobayashi, J. Normand, 
 K. Raghavachari, A. P. Rendell, J. C. Burant, S. S. Iyengar, 
 J. Tomasi, M. Cossi, J. M. Millam, M. Klene, C. Adamo, R. Cammi, 
 J. W. Ochterski, R. L. Martin, K. Morokuma, O. Farkas, 
 J. B. Foresman, and D. J. Fox, Gaussian, Inc., Wallingford CT, 2016.
 
 ******************************************
 Gaussian 16:  ES64L-G16RevB.01 20-Dec-2017
                24-Sep-2020 
 ******************************************
 %nproc=4
 Will use up to    4 processors via shared memory.
 %Chk=SM41_m1.b.5.pdb.xyz.mst.b.w.chk
 %mem=16GB
 ----------------------------------------------------------------------
 #p b3lyp/6-31G(d) opt freq NoSymm scf=(MaxCycle=2000,NoVarAcc,NoIncFoc
 k) scrf=(iefpcm,read,solvent=water)
 ----------------------------------------------------------------------
 1/18=20,19=15,26=3,38=1,40=2/1,3;
 2/9=110,12=2,15=1,17=6,18=5,40=1/2;
 3/5=1,6=6,7=1,11=2,25=1,30=1,70=2203,71=1,72=1,74=-5/1,2,3;
 4//1;
 5/5=100002,7=2000,38=1,53=1/2;
 6/7=2,8=2,9=2,10=2,28=1/1;
 7/30=1/1,2,3,16;
 1/18=20,19=15,26=3/3(2);
 2/9=110,15=1/2;
 99//99;
 2/9=110,15=1/2;
 3/5=1,6=6,7=1,11=2,25=1,30=1,70=2205,71=1,72=1,74=-5/1,2,3;
 4/5=5,16=3,69=1/1;
 5/5=100002,7=2000,38=1,53=1/2;
 7/30=1/1,2,3,16;
 1/18=20,19=15,26=3/3(-5);
 2/9=110,15=1/2;
 6/7=2,8=2,9=2,10=2,19=2,28=1/1;
 99/9=1/99;
 Leave Link    1 at Thu Sep 24 04:40:28 2020, MaxMem=  2147483648 cpu:               0.1 elap:               0.0
 (Enter /prod/apps/gaussian/g16b1/l101.exe)
 -------------------
 SM41_m1.b.5.pdb.xyz
 -------------------
 Symbolic Z-matrix:
 Charge =  1 Multiplicity = 1
 O                    -3.628    -0.751     1.423 
 S                    -3.574     0.093     0.195 
 N                    -2.199     0.92      0.009 
 C                    -0.993     0.27      0.07 
 N                    -0.794    -1.043     0.214 
 O                     0.619    -1.216     0.198 
 C                     1.215    -0.006     0.05 
 C                     2.678     0.021     0.019 
 C                     3.36      1.234    -0.188 
 C                     4.752     1.265    -0.215 
 C                     5.487     0.088    -0.038 
 C                     4.817    -1.121     0.167 
 C                     3.424    -1.158     0.196 
 C                     0.262     0.963    -0.037 
 C                    -3.742    -1.043    -1.201 
 O                    -4.673     1.084     0.068 
 H                     2.798     2.152    -0.329 
 H                     5.265     2.209    -0.376 
 H                     6.573     0.114    -0.06 
 H                     5.381    -2.04      0.306 
 H                     2.909    -2.099     0.357 
 H                     0.394     2.028    -0.155 
 H                    -2.894    -1.729    -1.198 
 H                    -3.761    -0.461    -2.125 
 H                    -4.678    -1.592    -1.08 
 H                    -2.227     1.907    -0.151 
 H                    -1.49     -1.754     0.312 
 
 ITRead=  0  0  0  0  0  0  0  0  0  0  0  0  0  0  0  0  0  0  0  0
 ITRead=  0  0  0  0  0  0  0
 MicOpt= -1 -1 -1 -1 -1 -1 -1 -1 -1 -1 -1 -1 -1 -1 -1 -1 -1 -1 -1 -1
 MicOpt= -1 -1 -1 -1 -1 -1 -1
 NAtoms=     27 NQM=       27 NQMF=       0 NMMI=      0 NMMIF=      0
                NMic=       0 NMicF=      0.
                    Isotopes and Nuclear Properties:
 (Nuclear quadrupole moments (NQMom) in fm**2, nuclear magnetic moments (NMagM)
  in nuclear magnetons)

  Atom         1           2           3           4           5           6           7           8           9          10
 IAtWgt=          16          32          14          12          14          16          12          12          12          12
 AtmWgt=  15.9949146  31.9720718  14.0030740  12.0000000  14.0030740  15.9949146  12.0000000  12.0000000  12.0000000  12.0000000
 NucSpn=           0           0           2           0           2           0           0           0           0           0
 AtZEff=  -0.0000000  -0.0000000  -0.0000000  -0.0000000  -0.0000000  -0.0000000  -0.0000000  -0.0000000  -0.0000000  -0.0000000
 NQMom=    0.0000000   0.0000000   2.0440000   0.0000000   2.0440000   0.0000000   0.0000000   0.0000000   0.0000000   0.0000000
 NMagM=    0.0000000   0.0000000   0.4037610   0.0000000   0.4037610   0.0000000   0.0000000   0.0000000   0.0000000   0.0000000
 AtZNuc=   8.0000000  16.0000000   7.0000000   6.0000000   7.0000000   8.0000000   6.0000000   6.0000000   6.0000000   6.0000000

  Atom        11          12          13          14          15          16          17          18          19          20
 IAtWgt=          12          12          12          12          12          16           1           1           1           1
 AtmWgt=  12.0000000  12.0000000  12.0000000  12.0000000  12.0000000  15.9949146   1.0078250   1.0078250   1.0078250   1.0078250
 NucSpn=           0           0           0           0           0           0           1           1           1           1
 AtZEff=  -0.0000000  -0.0000000  -0.0000000  -0.0000000  -0.0000000  -0.0000000  -0.0000000  -0.0000000  -0.0000000  -0.0000000
 NQMom=    0.0000000   0.0000000   0.0000000   0.0000000   0.0000000   0.0000000   0.0000000   0.0000000   0.0000000   0.0000000
 NMagM=    0.0000000   0.0000000   0.0000000   0.0000000   0.0000000   0.0000000   2.7928460   2.7928460   2.7928460   2.7928460
 AtZNuc=   6.0000000   6.0000000   6.0000000   6.0000000   6.0000000   8.0000000   1.0000000   1.0000000   1.0000000   1.0000000

  Atom        21          22          23          24          25          26          27
 IAtWgt=           1           1           1           1           1           1           1
 AtmWgt=   1.0078250   1.0078250   1.0078250   1.0078250   1.0078250   1.0078250   1.0078250
 NucSpn=           1           1           1           1           1           1           1
 AtZEff=  -0.0000000  -0.0000000  -0.0000000  -0.0000000  -0.0000000  -0.0000000  -0.0000000
 NQMom=    0.0000000   0.0000000   0.0000000   0.0000000   0.0000000   0.0000000   0.0000000
 NMagM=    2.7928460   2.7928460   2.7928460   2.7928460   2.7928460   2.7928460   2.7928460
 AtZNuc=   1.0000000   1.0000000   1.0000000   1.0000000   1.0000000   1.0000000   1.0000000
 Leave Link  101 at Thu Sep 24 04:40:28 2020, MaxMem=  2147483648 cpu:               1.3 elap:               0.3
 (Enter /prod/apps/gaussian/g16b1/l103.exe)

 GradGradGradGradGradGradGradGradGradGradGradGradGradGradGradGradGradGrad
 Berny optimization.
 Initialization pass.
                           ----------------------------
                           !    Initial Parameters    !
                           ! (Angstroms and Degrees)  !
 --------------------------                            --------------------------
 ! Name  Definition              Value          Derivative Info.                !
 --------------------------------------------------------------------------------
 ! R1    R(1,2)                  1.4911         estimate D2E/DX2                !
 ! R2    R(2,3)                  1.6153         estimate D2E/DX2                !
 ! R3    R(2,15)                 1.8076         estimate D2E/DX2                !
 ! R4    R(2,16)                 1.4853         estimate D2E/DX2                !
 ! R5    R(3,4)                  1.3714         estimate D2E/DX2                !
 ! R6    R(3,26)                 1.0003         estimate D2E/DX2                !
 ! R7    R(4,5)                  1.3358         estimate D2E/DX2                !
 ! R8    R(4,14)                 1.4376         estimate D2E/DX2                !
 ! R9    R(5,6)                  1.4236         estimate D2E/DX2                !
 ! R10   R(5,27)                 0.9998         estimate D2E/DX2                !
 ! R11   R(6,7)                  1.3569         estimate D2E/DX2                !
 ! R12   R(7,8)                  1.4636         estimate D2E/DX2                !
 ! R13   R(7,14)                 1.3619         estimate D2E/DX2                !
 ! R14   R(8,9)                  1.4069         estimate D2E/DX2                !
 ! R15   R(8,13)                 1.4064         estimate D2E/DX2                !
 ! R16   R(9,10)                 1.3926         estimate D2E/DX2                !
 ! R17   R(9,17)                 1.0856         estimate D2E/DX2                !
 ! R18   R(10,11)                1.3989         estimate D2E/DX2                !
 ! R19   R(10,18)                1.0864         estimate D2E/DX2                !
 ! R20   R(11,12)                1.3974         estimate D2E/DX2                !
 ! R21   R(11,19)                1.0865         estimate D2E/DX2                !
 ! R22   R(12,13)                1.3938         estimate D2E/DX2                !
 ! R23   R(12,20)                1.0872         estimate D2E/DX2                !
 ! R24   R(13,21)                1.0847         estimate D2E/DX2                !
 ! R25   R(14,22)                1.0796         estimate D2E/DX2                !
 ! R26   R(15,23)                1.0907         estimate D2E/DX2                !
 ! R27   R(15,24)                1.0922         estimate D2E/DX2                !
 ! R28   R(15,25)                1.0919         estimate D2E/DX2                !
 ! A1    A(1,2,3)              114.5488         estimate D2E/DX2                !
 ! A2    A(1,2,15)             106.0777         estimate D2E/DX2                !
 ! A3    A(1,2,16)             114.9167         estimate D2E/DX2                !
 ! A4    A(3,2,15)             108.1762         estimate D2E/DX2                !
 ! A5    A(3,2,16)             106.1655         estimate D2E/DX2                !
 ! A6    A(15,2,16)            106.5295         estimate D2E/DX2                !
 ! A7    A(2,3,4)              120.0531         estimate D2E/DX2                !
 ! A8    A(2,3,26)             119.9854         estimate D2E/DX2                !
 ! A9    A(4,3,26)             119.9616         estimate D2E/DX2                !
 ! A10   A(3,4,5)              126.9919         estimate D2E/DX2                !
 ! A11   A(3,4,14)             122.4059         estimate D2E/DX2                !
 ! A12   A(5,4,14)             110.5975         estimate D2E/DX2                !
 ! A13   A(4,5,6)              105.4322         estimate D2E/DX2                !
 ! A14   A(4,5,27)             127.293          estimate D2E/DX2                !
 ! A15   A(6,5,27)             127.2748         estimate D2E/DX2                !
 ! A16   A(5,6,7)              109.1967         estimate D2E/DX2                !
 ! A17   A(6,7,8)              117.2465         estimate D2E/DX2                !
 ! A18   A(6,7,14)             109.5169         estimate D2E/DX2                !
 ! A19   A(8,7,14)             133.2363         estimate D2E/DX2                !
 ! A20   A(7,8,9)              120.2376         estimate D2E/DX2                !
 ! A21   A(7,8,13)             120.8039         estimate D2E/DX2                !
 ! A22   A(9,8,13)             118.9584         estimate D2E/DX2                !
 ! A23   A(8,9,10)             120.437          estimate D2E/DX2                !
 ! A24   A(8,9,17)             119.8183         estimate D2E/DX2                !
 ! A25   A(10,9,17)            119.7446         estimate D2E/DX2                !
 ! A26   A(9,10,11)            120.2654         estimate D2E/DX2                !
 ! A27   A(9,10,18)            119.6183         estimate D2E/DX2                !
 ! A28   A(11,10,18)           120.1162         estimate D2E/DX2                !
 ! A29   A(10,11,12)           119.6438         estimate D2E/DX2                !
 ! A30   A(10,11,19)           120.1632         estimate D2E/DX2                !
 ! A31   A(12,11,19)           120.1931         estimate D2E/DX2                !
 ! A32   A(11,12,13)           120.3462         estimate D2E/DX2                !
 ! A33   A(11,12,20)           120.0911         estimate D2E/DX2                !
 ! A34   A(13,12,20)           119.5626         estimate D2E/DX2                !
 ! A35   A(8,13,12)            120.3491         estimate D2E/DX2                !
 ! A36   A(8,13,21)            119.6097         estimate D2E/DX2                !
 ! A37   A(12,13,21)           120.0412         estimate D2E/DX2                !
 ! A38   A(4,14,7)             105.2564         estimate D2E/DX2                !
 ! A39   A(4,14,22)            126.1849         estimate D2E/DX2                !
 ! A40   A(7,14,22)            128.5578         estimate D2E/DX2                !
 ! A41   A(2,15,23)            108.7155         estimate D2E/DX2                !
 ! A42   A(2,15,24)            108.6684         estimate D2E/DX2                !
 ! A43   A(2,15,25)            108.0641         estimate D2E/DX2                !
 ! A44   A(23,15,24)           110.5483         estimate D2E/DX2                !
 ! A45   A(23,15,25)           110.4836         estimate D2E/DX2                !
 ! A46   A(24,15,25)           110.2906         estimate D2E/DX2                !
 ! D1    D(1,2,3,4)             52.3298         estimate D2E/DX2                !
 ! D2    D(1,2,3,26)          -127.6828         estimate D2E/DX2                !
 ! D3    D(15,2,3,4)           -65.7315         estimate D2E/DX2                !
 ! D4    D(15,2,3,26)          114.2559         estimate D2E/DX2                !
 ! D5    D(16,2,3,4)          -179.7448         estimate D2E/DX2                !
 ! D6    D(16,2,3,26)            0.2426         estimate D2E/DX2                !
 ! D7    D(1,2,15,23)          -62.589          estimate D2E/DX2                !
 ! D8    D(1,2,15,24)          177.0374         estimate D2E/DX2                !
 ! D9    D(1,2,15,25)           57.3534         estimate D2E/DX2                !
 ! D10   D(3,2,15,23)           60.7585         estimate D2E/DX2                !
 ! D11   D(3,2,15,24)          -59.6151         estimate D2E/DX2                !
 ! D12   D(3,2,15,25)         -179.2991         estimate D2E/DX2                !
 ! D13   D(16,2,15,23)         174.5309         estimate D2E/DX2                !
 ! D14   D(16,2,15,24)          54.1573         estimate D2E/DX2                !
 ! D15   D(16,2,15,25)         -65.5268         estimate D2E/DX2                !
 ! D16   D(2,3,4,5)              3.3157         estimate D2E/DX2                !
 ! D17   D(2,3,4,14)          -177.5459         estimate D2E/DX2                !
 ! D18   D(26,3,4,5)          -176.6717         estimate D2E/DX2                !
 ! D19   D(26,3,4,14)            2.4667         estimate D2E/DX2                !
 ! D20   D(3,4,5,6)            179.0833         estimate D2E/DX2                !
 ! D21   D(3,4,5,27)            -0.899          estimate D2E/DX2                !
 ! D22   D(14,4,5,6)            -0.1396         estimate D2E/DX2                !
 ! D23   D(14,4,5,27)          179.8781         estimate D2E/DX2                !
 ! D24   D(3,4,14,7)          -179.2259         estimate D2E/DX2                !
 ! D25   D(3,4,14,22)            1.0937         estimate D2E/DX2                !
 ! D26   D(5,4,14,7)             0.039          estimate D2E/DX2                !
 ! D27   D(5,4,14,22)         -179.6415         estimate D2E/DX2                !
 ! D28   D(4,5,6,7)              0.1936         estimate D2E/DX2                !
 ! D29   D(27,5,6,7)          -179.8241         estimate D2E/DX2                !
 ! D30   D(5,6,7,8)            179.6386         estimate D2E/DX2                !
 ! D31   D(5,6,7,14)            -0.1753         estimate D2E/DX2                !
 ! D32   D(6,7,8,9)            177.3287         estimate D2E/DX2                !
 ! D33   D(6,7,8,13)            -2.7408         estimate D2E/DX2                !
 ! D34   D(14,7,8,9)            -2.912          estimate D2E/DX2                !
 ! D35   D(14,7,8,13)          177.0185         estimate D2E/DX2                !
 ! D36   D(6,7,14,4)             0.0862         estimate D2E/DX2                !
 ! D37   D(6,7,14,22)          179.7564         estimate D2E/DX2                !
 ! D38   D(8,7,14,4)          -179.6867         estimate D2E/DX2                !
 ! D39   D(8,7,14,22)           -0.0165         estimate D2E/DX2                !
 ! D40   D(7,8,9,10)           179.8423         estimate D2E/DX2                !
 ! D41   D(7,8,9,17)            -0.24           estimate D2E/DX2                !
 ! D42   D(13,8,9,10)           -0.0894         estimate D2E/DX2                !
 ! D43   D(13,8,9,17)          179.8283         estimate D2E/DX2                !
 ! D44   D(7,8,13,12)         -179.8899         estimate D2E/DX2                !
 ! D45   D(7,8,13,21)            0.0291         estimate D2E/DX2                !
 ! D46   D(9,8,13,12)            0.0415         estimate D2E/DX2                !
 ! D47   D(9,8,13,21)          179.9605         estimate D2E/DX2                !
 ! D48   D(8,9,10,11)            0.0841         estimate D2E/DX2                !
 ! D49   D(8,9,10,18)          179.9889         estimate D2E/DX2                !
 ! D50   D(17,9,10,11)        -179.8337         estimate D2E/DX2                !
 ! D51   D(17,9,10,18)           0.0711         estimate D2E/DX2                !
 ! D52   D(9,10,11,12)          -0.0295         estimate D2E/DX2                !
 ! D53   D(9,10,11,19)         179.9612         estimate D2E/DX2                !
 ! D54   D(18,10,11,12)       -179.9339         estimate D2E/DX2                !
 ! D55   D(18,10,11,19)          0.0569         estimate D2E/DX2                !
 ! D56   D(10,11,12,13)         -0.0185         estimate D2E/DX2                !
 ! D57   D(10,11,12,20)       -179.9617         estimate D2E/DX2                !
 ! D58   D(19,11,12,13)        179.9908         estimate D2E/DX2                !
 ! D59   D(19,11,12,20)          0.0476         estimate D2E/DX2                !
 ! D60   D(11,12,13,8)           0.012          estimate D2E/DX2                !
 ! D61   D(11,12,13,21)       -179.9066         estimate D2E/DX2                !
 ! D62   D(20,12,13,8)         179.9555         estimate D2E/DX2                !
 ! D63   D(20,12,13,21)          0.0369         estimate D2E/DX2                !
 --------------------------------------------------------------------------------
 Trust Radius=3.00D-01 FncErr=1.00D-07 GrdErr=1.00D-06 EigMax=2.50D+02 EigMin=1.00D-04
 Number of steps in this run=    147 maximum allowed number of steps=    162.
 GradGradGradGradGradGradGradGradGradGradGradGradGradGradGradGradGradGrad

 Leave Link  103 at Thu Sep 24 04:40:28 2020, MaxMem=  2147483648 cpu:               0.0 elap:               0.0
 (Enter /prod/apps/gaussian/g16b1/l202.exe)
                          Input orientation:                          
 ---------------------------------------------------------------------
 Center     Atomic      Atomic             Coordinates (Angstroms)
 Number     Number       Type             X           Y           Z
 ---------------------------------------------------------------------
      1          8           0       -3.628000   -0.751000    1.423000
      2         16           0       -3.574000    0.093000    0.195000
      3          7           0       -2.199000    0.920000    0.009000
      4          6           0       -0.993000    0.270000    0.070000
      5          7           0       -0.794000   -1.043000    0.214000
      6          8           0        0.619000   -1.216000    0.198000
      7          6           0        1.215000   -0.006000    0.050000
      8          6           0        2.678000    0.021000    0.019000
      9          6           0        3.360000    1.234000   -0.188000
     10          6           0        4.752000    1.265000   -0.215000
     11          6           0        5.487000    0.088000   -0.038000
     12          6           0        4.817000   -1.121000    0.167000
     13          6           0        3.424000   -1.158000    0.196000
     14          6           0        0.262000    0.963000   -0.037000
     15          6           0       -3.742000   -1.043000   -1.201000
     16          8           0       -4.673000    1.084000    0.068000
     17          1           0        2.798000    2.152000   -0.329000
     18          1           0        5.265000    2.209000   -0.376000
     19          1           0        6.573000    0.114000   -0.060000
     20          1           0        5.381000   -2.040000    0.306000
     21          1           0        2.909000   -2.099000    0.357000
     22          1           0        0.394000    2.028000   -0.155000
     23          1           0       -2.894000   -1.729000   -1.198000
     24          1           0       -3.761000   -0.461000   -2.125000
     25          1           0       -4.678000   -1.592000   -1.080000
     26          1           0       -2.227000    1.907000   -0.151000
     27          1           0       -1.490000   -1.754000    0.312000
 ---------------------------------------------------------------------
                    Distance matrix (angstroms):
                    1          2          3          4          5
     1  O    0.000000
     2  S    1.491052   0.000000
     3  N    2.614130   1.615286   0.000000
     4  C    3.133094   2.590080   1.371370   0.000000
     5  N    3.094915   3.003208   2.422688   1.335779   0.000000
     6  O    4.444531   4.392578   3.541093   2.196161   1.423641
     7  C    5.088694   4.792217   3.537591   2.225273   2.266792
     8  C    6.506369   6.254891   4.959176   3.679788   3.636606
     9  C    7.440947   7.037679   5.571345   4.465923   4.754161
    10  C    8.773352   8.418073   6.963160   5.837489   6.022377
    11  C    9.269394   9.063997   7.731043   6.483455   6.386989
    12  C    8.545903   8.478411   7.308550   5.974980   5.611739
    13  C    7.169511   7.108938   5.997598   4.643808   4.219606
    14  C    4.494607   3.940256   2.461805   1.437610   2.280827
    15  C    2.642657   1.807633   2.774584   3.300971   3.270004
    16  O    2.509039   1.485265   2.480132   3.768952   4.426295
    17  H    7.265699   6.716877   5.157720   4.251212   4.837906
    18  H    9.543765   9.106669   7.584263   6.566674   6.901818
    19  H   10.344463  10.150225   8.809221   7.568725   7.462333
    20  H    9.169040   9.206195   8.142862   6.783780   6.255645
    21  H    6.759129   6.845465   5.943663   4.573853   3.853284
    22  H    5.137062   4.428515   2.824572   2.250546   3.313389
    23  H    2.892210   2.392182   2.992837   3.036054   2.621896
    24  H    3.562316   2.392548   2.983448   3.607521   3.822661
    25  H    2.841617   2.384044   3.693441   4.285880   4.130532
    26  H    3.391938   2.285765   1.000276   2.061884   3.299881
    27  H    2.609861   2.787141   2.782942   2.098130   0.999770
                    6          7          8          9         10
     6  O    0.000000
     7  C    1.356916   0.000000
     8  C    2.408670   1.463577   0.000000
     9  C    3.696563   2.489030   1.406891   0.000000
    10  C    4.838142   3.767763   2.429767   1.392607   0.000000
    11  C    5.045150   4.273940   2.810377   2.420732   1.398886
    12  C    4.199189   3.772442   2.429277   2.791935   2.417260
    13  C    2.805600   2.495616   1.406373   2.423472   2.793463
    14  C    2.220521   1.361888   2.593753   3.113494   4.503664
    15  C    4.583170   5.216533   6.620944   7.526573   8.857037
    16  O    5.771669   5.988069   7.427622   8.038478   9.430985
    17  H    4.045886   2.703053   2.162560   1.085564   2.148926
    18  H    5.800467   4.635752   3.411149   2.148254   1.086382
    19  H    6.106192   5.360472   3.896911   3.405019   2.159830
    20  H    4.833972   4.643086   3.411202   3.879118   3.404425
    21  H    2.459486   2.710080   2.159168   3.407244   3.878186
    22  H    3.270897   2.203003   3.045485   3.070616   4.424696
    23  H    3.814860   4.627106   5.965800   6.993710   8.269924
    24  H    5.015053   5.449608   6.803659   7.571898   8.893725
    25  H    5.461947   6.206428   7.610539   8.566877   9.891187
    26  H    4.239652   3.943011   5.257844   5.627510   7.008759
    27  H    2.179523   3.231280   4.539680   5.718448   6.953751
                   11         12         13         14         15
    11  C    0.000000
    12  C    1.397357   0.000000
    13  C    2.421413   1.393793   0.000000
    14  C    5.297759   5.013252   3.814600   0.000000
    15  C    9.370495   8.667986   7.301807   4.627197   0.000000
    16  O   10.209253   9.743302   8.402640   4.937600   2.645988
    17  H    3.402278   3.877487   3.409340   2.816075   7.330758
    18  H    2.159206   3.403594   3.879839   5.166957   9.611565
    19  H    1.086534   2.158770   3.405836   6.367892  10.442210
    20  H    2.158230   1.087188   2.149389   5.944730   9.300225
    21  H    3.403686   2.152452   1.084724   4.066656   6.912185
    22  H    5.451233   5.439009   4.410748   1.079617   5.256582
    23  H    8.653800   7.854452   6.495106   4.307566   1.090738
    24  H    9.496445   8.903423   7.582683   4.751005   1.092182
    25  H   10.355452   9.588111   8.213339   5.658575   1.091851
    26  H    7.926369   7.673842   6.438046   2.664442   3.478538
    27  H    7.224541   6.340344   4.951370   3.251676   2.804674
                   16         17         18         19         20
    16  O    0.000000
    17  H    7.557385   0.000000
    18  H   10.011324   2.468106   0.000000
    19  H   11.288481   4.298422   2.489929   0.000000
    20  H   10.530856   4.964673   4.304948   2.488882   0.000000
    21  H    8.228106   4.307426   4.964563   4.300716   2.473230
    22  H    5.159007   2.413476   4.879369   6.469348   6.452233
    23  H    3.560978   6.943788   9.096857   9.711631   8.416315
    24  H    2.833376   7.285181   9.573744  10.553976   9.590577
    25  H    2.911856   8.394767  10.668011  11.425228  10.163916
    26  H    2.590020   5.034117   7.501459   8.981266   8.583083
    27  H    4.271448   5.835637   7.861853   8.284913   6.876952
                   21         22         23         24         25
    21  H    0.000000
    22  H    4.859990   0.000000
    23  H    6.019114   5.100377   0.000000
    24  H    7.302894   5.228771   1.794113   0.000000
    25  H    7.738513   6.299620   1.793139   1.792226   0.000000
    26  H    6.533345   2.623795   3.842082   3.443437   4.371892
    27  H    4.412737   4.251008   2.062024   3.573270   3.482420
                   26         27
    26  H    0.000000
    27  H    3.763039   0.000000
 Symmetry turned off by external request.
 Stoichiometry    C10H11N2O3S(1+)
 Framework group  C1[X(C10H11N2O3S)]
 Deg. of freedom    75
 Full point group                 C1      NOp   1
 Rotational constants (GHZ):           1.8914142           0.1838351           0.1742448
 Leave Link  202 at Thu Sep 24 04:40:28 2020, MaxMem=  2147483648 cpu:               0.0 elap:               0.0
 (Enter /prod/apps/gaussian/g16b1/l301.exe)
 Standard basis: 6-31G(d) (6D, 7F)
 Ernie: Thresh=  0.10000D-02 Tol=  0.10000D-05 Strict=F.
   266 basis functions,   516 primitive gaussians,   266 cartesian basis functions
    62 alpha electrons       62 beta electrons
       nuclear repulsion energy      1193.7449220517 Hartrees.
 IExCor=  402 DFT=T Ex+Corr=B3LYP ExCW=0 ScaHFX=  0.200000
 ScaDFX=  0.800000  0.720000  1.000000  0.810000 ScalE2=  1.000000  1.000000
 IRadAn=      5 IRanWt=     -1 IRanGd=            0 ICorTp=0 IEmpDi=  4
 NAtoms=   27 NActive=   27 NUniq=   27 SFac= 1.00D+00 NAtFMM=   60 NAOKFM=F Big=F
 Integral buffers will be    131072 words long.
 Raffenetti 2 integral format.
 Two-electron integral symmetry is turned off.
 Using the following non-standard input for PCM:
 MSTModel=DFT cav MSTcharged
 --- end of non-standard input.
 MST model for solvation energy: B3LYP parametrization.
 MST cavity parameters:
 ISph   IAn     Re0     Alpha   Atom Type   QCorr
 ------------------------------------------------
   1      8     1.40     1.25      O          F
   2     16     1.75     1.25      S          F
   3      7     1.50     1.25      NH         F
   4      6     1.50     1.25      C          F
   5      7     1.50     1.15      NH         T
   6      8     1.40     1.25      O          F
   7      6     1.50     1.25      C          F
   8      6     1.50     1.25      C          F
   9      6     1.50     1.25      CH         F
  10      6     1.50     1.25      CH         F
  11      6     1.50     1.25      CH         F
  12      6     1.50     1.25      CH         F
  13      6     1.50     1.25      CH         F
  14      6     1.50     1.25      CH         F
  15      6     1.50     1.25      CH3        F
  16      8     1.40     1.25      O          F
  17      1     1.20     1.25      CH         F
  18      1     1.20     1.25      CH         F
  19      1     1.20     1.25      CH         F
  20      1     1.20     1.25      CH         F
  21      1     1.20     1.25      CH         F
  22      1     1.20     1.25      CH         F
  23      1     1.20     1.25      CH3        F
  24      1     1.20     1.25      CH3        F
  25      1     1.20     1.25      CH3        F
  26      1     0.90     1.25      NH         F
  27      1     0.90     1.15      NH         T
 ------------------------------------------------------------------------------
 Polarizable Continuum Model (PCM)
 =================================
 Model                : PCM.
 Atomic radii         : MST.
 Polarization charges : Total charges.
 Charge compensation  : None.
 Solution method      : On-the-fly selection.
 Cavity type          : Scaled VdW (van der Waals Surface) (Alpha=1.250).
 Cavity algorithm     : GePol (No added spheres)
                        Default sphere list used, NSphG=   27.
                        Lebedev-Laikov grids with approx.  5.0 points / Ang**2.
                        Smoothing algorithm: York/Karplus (Gamma=1.0000).
                        Polarization charges: spherical gaussians, with
                                              point-specific exponents (IZeta= 3).
                        Self-potential: point-specific (ISelfS= 7).
                        Self-field    : sphere-specific E.n sum rule (ISelfD= 2).
 1st derivatives      : Analytical E(r).r(x)/FMM algorithm (CHGder, D1EAlg=3).
                        Cavity 1st derivative terms included.
 Solvent              : Water, Eps=  78.355300 Eps(inf)=   1.777849
 ------------------------------------------------------------------------------
 GePol: Number of generator spheres                  =      27
 GePol: Total number of spheres                      =      27
 GePol: Number of exposed spheres                    =      27 (100.00%)
 GePol: Number of points                             =    2143
 GePol: Average weight of points                     =       0.13
 GePol: Minimum weight of points                     =   0.12D-08
 GePol: Maximum weight of points                     =    0.22001
 GePol: Number of points with low weight             =     131
 GePol: Fraction of low-weight points (<1% of avg)   =       6.11%
 GePol: Cavity surface area                          =    272.593 Ang**2
 GePol: Cavity volume                                =    254.569 Ang**3
 PCM non-electrostatic energy =         0.0018518548 Hartrees.
 Nuclear repulsion after PCM non-electrostatic terms =     1193.7467739065 Hartrees.
 Leave Link  301 at Thu Sep 24 04:40:28 2020, MaxMem=  2147483648 cpu:               0.3 elap:               0.1
 (Enter /prod/apps/gaussian/g16b1/l302.exe)
 NPDir=0 NMtPBC=     1 NCelOv=     1 NCel=       1 NClECP=     1 NCelD=      1
         NCelK=      1 NCelE2=     1 NClLst=     1 CellRange=     0.0.
 One-electron integrals computed using PRISM.
 NBasis=   266 RedAO= T EigKep=  4.60D-04  NBF=   266
 NBsUse=   266 1.00D-06 EigRej= -1.00D+00 NBFU=   266
 Precomputing XC quadrature grid using
 IXCGrd= 4 IRadAn=           5 IRanWt=          -1 IRanGd=           0 AccXCQ= 0.00D+00.
 Generated NRdTot=       0 NPtTot=           0 NUsed=           0 NTot=          32
 NSgBfM=   265   265   265   265   265 MxSgAt=    27 MxSgA2=    27.
 Leave Link  302 at Thu Sep 24 04:40:28 2020, MaxMem=  2147483648 cpu:               1.1 elap:               0.3
 (Enter /prod/apps/gaussian/g16b1/l303.exe)
 DipDrv:  MaxL=1.
 Leave Link  303 at Thu Sep 24 04:40:29 2020, MaxMem=  2147483648 cpu:               0.1 elap:               0.1
 (Enter /prod/apps/gaussian/g16b1/l401.exe)
 ExpMin= 1.17D-01 ExpMax= 2.19D+04 ExpMxC= 3.30D+03 IAcc=3 IRadAn=         5 AccDes= 0.00D+00
 Harris functional with IExCor=  402 and IRadAn=       5 diagonalized for initial guess.
 HarFok:  IExCor=  402 AccDes= 0.00D+00 IRadAn=         5 IDoV= 1 UseB2=F ITyADJ=14
 ICtDFT=  3500011 ScaDFX=  1.000000  1.000000  1.000000  1.000000
 FoFCou: FMM=F IPFlag=           0 FMFlag=      100000 FMFlg1=           0
         NFxFlg=           0 DoJE=T BraDBF=F KetDBF=T FulRan=T
         wScrn=  0.000000 ICntrl=       500 IOpCl=  0 I1Cent=   200000004 NGrid=           0
         NMat0=    1 NMatS0=      1 NMatT0=    0 NMatD0=    1 NMtDS0=    0 NMtDT0=    0
 Symmetry not used in FoFCou.
 Harris En= -1120.75292320721    
 JPrj=0 DoOrth=F DoCkMO=F.
 Leave Link  401 at Thu Sep 24 04:40:30 2020, MaxMem=  2147483648 cpu:               6.2 elap:               1.6
 (Enter /prod/apps/gaussian/g16b1/l502.exe)
 Keep R1 ints in memory in canonical form, NReq=640051412.
 FoFCou: FMM=F IPFlag=           0 FMFlag=           0 FMFlg1=           0
         NFxFlg=           0 DoJE=F BraDBF=F KetDBF=F FulRan=T
         wScrn=  0.000000 ICntrl=       600 IOpCl=  0 I1Cent=           0 NGrid=           0
         NMat0=    1 NMatS0=  35511 NMatT0=    0 NMatD0=    1 NMtDS0=    0 NMtDT0=    0
 Symmetry not used in FoFCou.
 Two-electron integral symmetry not used.
 Closed shell SCF:
 Using DIIS extrapolation, IDIIS=  1040.
 NGot=  2147483648 LenX=  1516804891 LenY=  1516733694
 Requested convergence on RMS density matrix=1.00D-08 within2000 cycles.
 Requested convergence on MAX density matrix=1.00D-06.
 Requested convergence on             energy=1.00D-06.
 No special actions if energy rises.

 Cycle   1  Pass 1  IDiag  1:
 Inv3:  Mode=1 IEnd=    13777347.
 Iteration    1 A*A^-1 deviation from unit magnitude is 3.55D-15 for    196.
 Iteration    1 A*A^-1 deviation from orthogonality  is 2.21D-15 for   1180    592.
 Iteration    1 A^-1*A deviation from unit magnitude is 3.33D-15 for    196.
 Iteration    1 A^-1*A deviation from orthogonality  is 4.15D-14 for   1725   1700.
 E= -1120.25921525303    
 DIIS: error= 3.10D-02 at cycle   1 NSaved=   1.
 NSaved= 1 IEnMin= 1 EnMin= -1120.25921525303     IErMin= 1 ErrMin= 3.10D-02
 ErrMax= 3.10D-02  0.00D+00 EMaxC= 1.00D-01 BMatC= 5.83D-01 BMatP= 5.83D-01
 IDIUse=3 WtCom= 6.90D-01 WtEn= 3.10D-01
 Coeff-Com:  0.100D+01
 Coeff-En:   0.100D+01
 Coeff:      0.100D+01
 Gap=     0.345 Goal=   None    Shift=    0.000
 GapD=    0.345 DampG=1.000 DampE=0.500 DampFc=0.5000 IDamp=-1.
 Damping current iteration by 5.00D-01
 RMSDP=7.63D-03 MaxDP=5.78D-01              OVMax= 3.24D-01

 Cycle   2  Pass 1  IDiag  1:
 E= -1120.36040706300     Delta-E=       -0.101191809966 Rises=F Damp=T
 DIIS: error= 1.62D-02 at cycle   2 NSaved=   2.
 NSaved= 2 IEnMin= 2 EnMin= -1120.36040706300     IErMin= 2 ErrMin= 1.62D-02
 ErrMax= 1.62D-02  0.00D+00 EMaxC= 1.00D-01 BMatC= 1.01D-01 BMatP= 5.83D-01
 IDIUse=3 WtCom= 8.38D-01 WtEn= 1.62D-01
 Coeff-Com:  0.247D+00 0.753D+00
 Coeff-En:   0.401D+00 0.599D+00
 Coeff:      0.272D+00 0.728D+00
 Gap=     0.177 Goal=   None    Shift=    0.000
 RMSDP=2.23D-03 MaxDP=1.22D-01 DE=-1.01D-01 OVMax= 2.54D-01

 Cycle   3  Pass 1  IDiag  1:
 E= -1120.72920561547     Delta-E=       -0.368798552467 Rises=F Damp=F
 DIIS: error= 8.31D-03 at cycle   3 NSaved=   3.
 NSaved= 3 IEnMin= 3 EnMin= -1120.72920561547     IErMin= 3 ErrMin= 8.31D-03
 ErrMax= 8.31D-03  0.00D+00 EMaxC= 1.00D-01 BMatC= 4.27D-02 BMatP= 1.01D-01
 IDIUse=3 WtCom= 9.17D-01 WtEn= 8.31D-02
 Coeff-Com:  0.846D-01 0.398D+00 0.517D+00
 Coeff-En:   0.000D+00 0.000D+00 0.100D+01
 Coeff:      0.775D-01 0.365D+00 0.558D+00
 Gap=     0.175 Goal=   None    Shift=    0.000
 RMSDP=9.89D-04 MaxDP=4.18D-02 DE=-3.69D-01 OVMax= 4.47D-02

 Cycle   4  Pass 1  IDiag  1:
 E= -1120.76108290025     Delta-E=       -0.031877284782 Rises=F Damp=F
 DIIS: error= 3.18D-03 at cycle   4 NSaved=   4.
 NSaved= 4 IEnMin= 4 EnMin= -1120.76108290025     IErMin= 4 ErrMin= 3.18D-03
 ErrMax= 3.18D-03  0.00D+00 EMaxC= 1.00D-01 BMatC= 6.97D-03 BMatP= 4.27D-02
 IDIUse=3 WtCom= 9.68D-01 WtEn= 3.18D-02
 Coeff-Com:  0.570D-02 0.960D-01 0.303D+00 0.595D+00
 Coeff-En:   0.000D+00 0.000D+00 0.121D+00 0.879D+00
 Coeff:      0.552D-02 0.929D-01 0.298D+00 0.604D+00
 Gap=     0.171 Goal=   None    Shift=    0.000
 RMSDP=3.59D-04 MaxDP=1.66D-02 DE=-3.19D-02 OVMax= 2.93D-02

 Cycle   5  Pass 1  IDiag  1:
 E= -1120.76636306976     Delta-E=       -0.005280169512 Rises=F Damp=F
 DIIS: error= 1.19D-03 at cycle   5 NSaved=   5.
 NSaved= 5 IEnMin= 5 EnMin= -1120.76636306976     IErMin= 5 ErrMin= 1.19D-03
 ErrMax= 1.19D-03  0.00D+00 EMaxC= 1.00D-01 BMatC= 9.07D-04 BMatP= 6.97D-03
 IDIUse=3 WtCom= 9.88D-01 WtEn= 1.19D-02
 Coeff-Com: -0.540D-02 0.210D-01 0.125D+00 0.355D+00 0.505D+00
 Coeff-En:   0.000D+00 0.000D+00 0.000D+00 0.637D-01 0.936D+00
 Coeff:     -0.533D-02 0.207D-01 0.123D+00 0.352D+00 0.510D+00
 Gap=     0.172 Goal=   None    Shift=    0.000
 RMSDP=1.26D-04 MaxDP=7.02D-03 DE=-5.28D-03 OVMax= 1.19D-02

 Cycle   6  Pass 1  IDiag  1:
 E= -1120.76709705133     Delta-E=       -0.000733981567 Rises=F Damp=F
 DIIS: error= 2.77D-04 at cycle   6 NSaved=   6.
 NSaved= 6 IEnMin= 6 EnMin= -1120.76709705133     IErMin= 6 ErrMin= 2.77D-04
 ErrMax= 2.77D-04  0.00D+00 EMaxC= 1.00D-01 BMatC= 6.69D-05 BMatP= 9.07D-04
 IDIUse=3 WtCom= 9.97D-01 WtEn= 2.77D-03
 Coeff-Com: -0.336D-02 0.446D-02 0.394D-01 0.132D+00 0.279D+00 0.549D+00
 Coeff-En:   0.000D+00 0.000D+00 0.000D+00 0.000D+00 0.000D+00 0.100D+01
 Coeff:     -0.335D-02 0.445D-02 0.393D-01 0.131D+00 0.278D+00 0.550D+00
 Gap=     0.172 Goal=   None    Shift=    0.000
 RMSDP=3.21D-05 MaxDP=1.59D-03 DE=-7.34D-04 OVMax= 2.13D-03

 Cycle   7  Pass 1  IDiag  1:
 E= -1120.76715296078     Delta-E=       -0.000055909456 Rises=F Damp=F
 DIIS: error= 9.19D-05 at cycle   7 NSaved=   7.
 NSaved= 7 IEnMin= 7 EnMin= -1120.76715296078     IErMin= 7 ErrMin= 9.19D-05
 ErrMax= 9.19D-05  0.00D+00 EMaxC= 1.00D-01 BMatC= 4.12D-06 BMatP= 6.69D-05
 IDIUse=1 WtCom= 1.00D+00 WtEn= 0.00D+00
 Coeff-Com: -0.132D-02 0.686D-03 0.976D-02 0.366D-01 0.954D-01 0.278D+00
 Coeff-Com:  0.581D+00
 Coeff:     -0.132D-02 0.686D-03 0.976D-02 0.366D-01 0.954D-01 0.278D+00
 Coeff:      0.581D+00
 Gap=     0.172 Goal=   None    Shift=    0.000
 RMSDP=7.68D-06 MaxDP=2.98D-04 DE=-5.59D-05 OVMax= 4.34D-04

 Cycle   8  Pass 1  IDiag  1:
 E= -1120.76715600721     Delta-E=       -0.000003046422 Rises=F Damp=F
 DIIS: error= 2.10D-05 at cycle   8 NSaved=   8.
 NSaved= 8 IEnMin= 8 EnMin= -1120.76715600721     IErMin= 8 ErrMin= 2.10D-05
 ErrMax= 2.10D-05  0.00D+00 EMaxC= 1.00D-01 BMatC= 5.26D-07 BMatP= 4.12D-06
 IDIUse=1 WtCom= 1.00D+00 WtEn= 0.00D+00
 Coeff-Com: -0.401D-03-0.125D-03 0.957D-03 0.563D-02 0.217D-01 0.100D+00
 Coeff-Com:  0.317D+00 0.555D+00
 Coeff:     -0.401D-03-0.125D-03 0.957D-03 0.563D-02 0.217D-01 0.100D+00
 Coeff:      0.317D+00 0.555D+00
 Gap=     0.172 Goal=   None    Shift=    0.000
 RMSDP=3.03D-06 MaxDP=1.45D-04 DE=-3.05D-06 OVMax= 1.59D-04

 Cycle   9  Pass 1  IDiag  1:
 E= -1120.76715642014     Delta-E=       -0.000000412936 Rises=F Damp=F
 DIIS: error= 8.70D-06 at cycle   9 NSaved=   9.
 NSaved= 9 IEnMin= 9 EnMin= -1120.76715642014     IErMin= 9 ErrMin= 8.70D-06
 ErrMax= 8.70D-06  0.00D+00 EMaxC= 1.00D-01 BMatC= 5.84D-08 BMatP= 5.26D-07
 IDIUse=1 WtCom= 1.00D+00 WtEn= 0.00D+00
 Coeff-Com: -0.427D-04-0.100D-03-0.734D-03-0.175D-02-0.157D-02 0.172D-01
 Coeff-Com:  0.826D-01 0.290D+00 0.614D+00
 Coeff:     -0.427D-04-0.100D-03-0.734D-03-0.175D-02-0.157D-02 0.172D-01
 Coeff:      0.826D-01 0.290D+00 0.614D+00
 Gap=     0.172 Goal=   None    Shift=    0.000
 RMSDP=9.72D-07 MaxDP=3.85D-05 DE=-4.13D-07 OVMax= 5.70D-05

 Cycle  10  Pass 1  IDiag  1:
 E= -1120.76715646521     Delta-E=       -0.000000045072 Rises=F Damp=F
 DIIS: error= 2.83D-06 at cycle  10 NSaved=  10.
 NSaved=10 IEnMin=10 EnMin= -1120.76715646521     IErMin=10 ErrMin= 2.83D-06
 ErrMax= 2.83D-06  0.00D+00 EMaxC= 1.00D-01 BMatC= 6.54D-09 BMatP= 5.84D-08
 IDIUse=1 WtCom= 1.00D+00 WtEn= 0.00D+00
 Coeff-Com: -0.947D-06-0.453D-04-0.509D-03-0.143D-02-0.261D-02 0.325D-02
 Coeff-Com:  0.260D-01 0.130D+00 0.350D+00 0.495D+00
 Coeff:     -0.947D-06-0.453D-04-0.509D-03-0.143D-02-0.261D-02 0.325D-02
 Coeff:      0.260D-01 0.130D+00 0.350D+00 0.495D+00
 Gap=     0.172 Goal=   None    Shift=    0.000
 RMSDP=3.17D-07 MaxDP=1.24D-05 DE=-4.51D-08 OVMax= 1.62D-05

 Cycle  11  Pass 1  IDiag  1:
 E= -1120.76715647010     Delta-E=       -0.000000004887 Rises=F Damp=F
 DIIS: error= 1.06D-06 at cycle  11 NSaved=  11.
 NSaved=11 IEnMin=11 EnMin= -1120.76715647010     IErMin=11 ErrMin= 1.06D-06
 ErrMax= 1.06D-06  0.00D+00 EMaxC= 1.00D-01 BMatC= 5.84D-10 BMatP= 6.54D-09
 IDIUse=1 WtCom= 1.00D+00 WtEn= 0.00D+00
 Coeff-Com:  0.434D-05-0.114D-05-0.143D-03-0.415D-03-0.113D-02-0.951D-03
 Coeff-Com: -0.814D-03 0.173D-01 0.770D-01 0.244D+00 0.666D+00
 Coeff:      0.434D-05-0.114D-05-0.143D-03-0.415D-03-0.113D-02-0.951D-03
 Coeff:     -0.814D-03 0.173D-01 0.770D-01 0.244D+00 0.666D+00
 Gap=     0.172 Goal=   None    Shift=    0.000
 RMSDP=1.09D-07 MaxDP=4.28D-06 DE=-4.89D-09 OVMax= 6.27D-06

 Cycle  12  Pass 1  IDiag  1:
 E= -1120.76715647053     Delta-E=       -0.000000000429 Rises=F Damp=F
 DIIS: error= 3.85D-07 at cycle  12 NSaved=  12.
 NSaved=12 IEnMin=12 EnMin= -1120.76715647053     IErMin=12 ErrMin= 3.85D-07
 ErrMax= 3.85D-07  0.00D+00 EMaxC= 1.00D-01 BMatC= 1.06D-10 BMatP= 5.84D-10
 IDIUse=1 WtCom= 1.00D+00 WtEn= 0.00D+00
 Coeff-Com:  0.221D-05 0.398D-05-0.370D-04-0.104D-03-0.422D-03-0.858D-03
 Coeff-Com: -0.309D-02-0.274D-02 0.104D-01 0.883D-01 0.388D+00 0.520D+00
 Coeff:      0.221D-05 0.398D-05-0.370D-04-0.104D-03-0.422D-03-0.858D-03
 Coeff:     -0.309D-02-0.274D-02 0.104D-01 0.883D-01 0.388D+00 0.520D+00
 Gap=     0.172 Goal=   None    Shift=    0.000
 RMSDP=3.97D-08 MaxDP=2.13D-06 DE=-4.29D-10 OVMax= 1.67D-06

 Cycle  13  Pass 1  IDiag  1:
 E= -1120.76715647062     Delta-E=       -0.000000000086 Rises=F Damp=F
 DIIS: error= 8.57D-08 at cycle  13 NSaved=  13.
 NSaved=13 IEnMin=13 EnMin= -1120.76715647062     IErMin=13 ErrMin= 8.57D-08
 ErrMax= 8.57D-08  0.00D+00 EMaxC= 1.00D-01 BMatC= 5.88D-12 BMatP= 1.06D-10
 IDIUse=1 WtCom= 1.00D+00 WtEn= 0.00D+00
 Coeff-Com:  0.537D-06 0.188D-05-0.537D-05-0.120D-04-0.999D-04-0.307D-03
 Coeff-Com: -0.139D-02-0.292D-02-0.242D-02 0.164D-01 0.116D+00 0.247D+00
 Coeff-Com:  0.627D+00
 Coeff:      0.537D-06 0.188D-05-0.537D-05-0.120D-04-0.999D-04-0.307D-03
 Coeff:     -0.139D-02-0.292D-02-0.242D-02 0.164D-01 0.116D+00 0.247D+00
 Coeff:      0.627D+00
 Gap=     0.172 Goal=   None    Shift=    0.000
 RMSDP=1.09D-08 MaxDP=6.09D-07 DE=-8.59D-11 OVMax= 7.51D-07

 Cycle  14  Pass 1  IDiag  1:
 E= -1120.76715647063     Delta-E=       -0.000000000015 Rises=F Damp=F
 DIIS: error= 4.31D-08 at cycle  14 NSaved=  14.
 NSaved=14 IEnMin=14 EnMin= -1120.76715647063     IErMin=14 ErrMin= 4.31D-08
 ErrMax= 4.31D-08  0.00D+00 EMaxC= 1.00D-01 BMatC= 1.07D-12 BMatP= 5.88D-12
 IDIUse=1 WtCom= 1.00D+00 WtEn= 0.00D+00
 Coeff-Com:  0.431D-07 0.574D-06 0.205D-05 0.761D-05-0.274D-06-0.550D-04
 Coeff-Com: -0.390D-03-0.131D-02-0.279D-02-0.286D-02 0.135D-01 0.711D-01
 Coeff-Com:  0.362D+00 0.561D+00
 Coeff:      0.431D-07 0.574D-06 0.205D-05 0.761D-05-0.274D-06-0.550D-04
 Coeff:     -0.390D-03-0.131D-02-0.279D-02-0.286D-02 0.135D-01 0.711D-01
 Coeff:      0.362D+00 0.561D+00
 Gap=     0.172 Goal=   None    Shift=    0.000
 RMSDP=4.41D-09 MaxDP=2.02D-07 DE=-1.55D-11 OVMax= 3.33D-07

 Error on total polarization charges =  0.01823
 SCF Done:  E(RB3LYP) =  -1120.76715647     A.U. after   14 cycles
            NFock= 14  Conv=0.44D-08     -V/T= 2.0076
 KE= 1.112324573012D+03 PE=-4.994341014945D+03 EE= 1.567502511555D+03
 Leave Link  502 at Thu Sep 24 04:41:26 2020, MaxMem=  2147483648 cpu:             179.4 elap:              55.7
 (Enter /prod/apps/gaussian/g16b1/l601.exe)
 Copying SCF densities to generalized density rwf, IOpCl= 0 IROHF=0.

 **********************************************************************

            Population analysis using the SCF Density.

 **********************************************************************

 Alpha  occ. eigenvalues --  -89.14984 -19.30232 -19.17329 -19.16267 -14.49581
 Alpha  occ. eigenvalues --  -14.44042 -10.35782 -10.32151 -10.24117 -10.23832
 Alpha  occ. eigenvalues --  -10.23609 -10.21776 -10.21603 -10.21133 -10.20781
 Alpha  occ. eigenvalues --  -10.20739  -8.17562  -6.14144  -6.13941  -6.13791
 Alpha  occ. eigenvalues --   -1.20462  -1.13980  -1.02747  -1.01485  -0.95116
 Alpha  occ. eigenvalues --   -0.88278  -0.85466  -0.79605  -0.78014  -0.76548
 Alpha  occ. eigenvalues --   -0.71602  -0.69768  -0.68113  -0.62795  -0.62498
 Alpha  occ. eigenvalues --   -0.61412  -0.56543  -0.55141  -0.53959  -0.53572
 Alpha  occ. eigenvalues --   -0.51131  -0.50119  -0.48786  -0.48283  -0.46511
 Alpha  occ. eigenvalues --   -0.45419  -0.45371  -0.44395  -0.43938  -0.43333
 Alpha  occ. eigenvalues --   -0.42597  -0.39423  -0.37367  -0.36935  -0.36037
 Alpha  occ. eigenvalues --   -0.34570  -0.33778  -0.32847  -0.32109  -0.30904
 Alpha  occ. eigenvalues --   -0.27067  -0.26434
 Alpha virt. eigenvalues --   -0.09193  -0.02631  -0.02446  -0.01670   0.01835
 Alpha virt. eigenvalues --    0.04330   0.05795   0.07106   0.08948   0.09216
 Alpha virt. eigenvalues --    0.09664   0.10096   0.11431   0.13033   0.14447
 Alpha virt. eigenvalues --    0.14830   0.15391   0.15654   0.16467   0.18232
 Alpha virt. eigenvalues --    0.18745   0.19916   0.23393   0.23519   0.26954
 Alpha virt. eigenvalues --    0.29001   0.29702   0.30729   0.31546   0.34009
 Alpha virt. eigenvalues --    0.36084   0.38305   0.40187   0.41101   0.43187
 Alpha virt. eigenvalues --    0.44833   0.47460   0.48894   0.49031   0.51216
 Alpha virt. eigenvalues --    0.52246   0.52358   0.53463   0.54254   0.54815
 Alpha virt. eigenvalues --    0.56282   0.56618   0.56892   0.57901   0.58189
 Alpha virt. eigenvalues --    0.59976   0.60316   0.60687   0.61186   0.62616
 Alpha virt. eigenvalues --    0.63498   0.65532   0.67206   0.69080   0.70585
 Alpha virt. eigenvalues --    0.73038   0.73993   0.75750   0.76403   0.78660
 Alpha virt. eigenvalues --    0.80200   0.81899   0.82542   0.83492   0.83753
 Alpha virt. eigenvalues --    0.84460   0.84646   0.85445   0.85685   0.87020
 Alpha virt. eigenvalues --    0.87191   0.88610   0.89526   0.90393   0.92053
 Alpha virt. eigenvalues --    0.93244   0.95034   0.95443   0.95709   0.97652
 Alpha virt. eigenvalues --    0.98972   1.00799   1.01444   1.03698   1.04250
 Alpha virt. eigenvalues --    1.08693   1.08936   1.11801   1.14289   1.14620
 Alpha virt. eigenvalues --    1.15441   1.16440   1.17186   1.18784   1.20229
 Alpha virt. eigenvalues --    1.21658   1.22935   1.25498   1.28271   1.29270
 Alpha virt. eigenvalues --    1.30751   1.32775   1.33864   1.38399   1.41226
 Alpha virt. eigenvalues --    1.41930   1.44896   1.45307   1.46470   1.47113
 Alpha virt. eigenvalues --    1.47644   1.49127   1.50158   1.55004   1.56425
 Alpha virt. eigenvalues --    1.62616   1.63263   1.67195   1.69869   1.73179
 Alpha virt. eigenvalues --    1.75708   1.75923   1.78459   1.79070   1.80060
 Alpha virt. eigenvalues --    1.80280   1.82520   1.85097   1.86642   1.87906
 Alpha virt. eigenvalues --    1.89630   1.90610   1.91489   1.92253   1.95913
 Alpha virt. eigenvalues --    1.97076   1.98130   1.99421   2.02528   2.04705
 Alpha virt. eigenvalues --    2.06045   2.07379   2.07859   2.11585   2.11776
 Alpha virt. eigenvalues --    2.13142   2.13847   2.14595   2.16502   2.18690
 Alpha virt. eigenvalues --    2.20865   2.21905   2.22691   2.25158   2.25581
 Alpha virt. eigenvalues --    2.28407   2.28856   2.31247   2.34007   2.41238
 Alpha virt. eigenvalues --    2.42473   2.48252   2.50324   2.51269   2.56231
 Alpha virt. eigenvalues --    2.57131   2.60868   2.63964   2.65313   2.68013
 Alpha virt. eigenvalues --    2.70120   2.72774   2.73147   2.75374   2.79038
 Alpha virt. eigenvalues --    2.85225   2.87119   2.89434   2.97250   3.01912
 Alpha virt. eigenvalues --    3.09264   3.24045   3.40694   3.76244   3.77342
 Alpha virt. eigenvalues --    3.88094   3.97016   4.04443   4.07332   4.09668
 Alpha virt. eigenvalues --    4.10248   4.13050   4.20793   4.22546   4.30407
 Alpha virt. eigenvalues --    4.34663   4.38312   4.54567   4.71921
          Condensed to atoms (all electrons):
               1          2          3          4          5          6
     1  O    8.301477   0.400727  -0.042503   0.000222  -0.001465   0.000031
     2  S    0.400727  13.716531   0.055465  -0.012331  -0.001143   0.000318
     3  N   -0.042503   0.055465   7.369810   0.271655  -0.075929   0.004173
     4  C    0.000222  -0.012331   0.271655   4.395149   0.309115  -0.037207
     5  N   -0.001465  -0.001143  -0.075929   0.309115   6.732083   0.147681
     6  O    0.000031   0.000318   0.004173  -0.037207   0.147681   8.130273
     7  C   -0.000011  -0.000014  -0.000491   0.010580  -0.076571   0.240174
     8  C   -0.000000  -0.000009  -0.000220   0.001302   0.004485  -0.031901
     9  C   -0.000000   0.000000   0.000004   0.000729  -0.000105   0.002948
    10  C    0.000000   0.000000  -0.000000  -0.000008   0.000001  -0.000056
    11  C   -0.000000  -0.000000   0.000000   0.000000  -0.000000   0.000002
    12  C    0.000000  -0.000000  -0.000000   0.000005   0.000001   0.000208
    13  C    0.000000   0.000000  -0.000000  -0.000469   0.000178  -0.007401
    14  C    0.000134  -0.000590  -0.042429   0.452424  -0.038192  -0.075563
    15  C   -0.057301   0.253639  -0.050790  -0.004329  -0.002896   0.000055
    16  O   -0.052196   0.451515  -0.047304   0.001702   0.000014   0.000000
    17  H   -0.000000  -0.000000  -0.000001   0.000096  -0.000006   0.000023
    18  H   -0.000000   0.000000  -0.000000   0.000000  -0.000000   0.000000
    19  H   -0.000000  -0.000000  -0.000000  -0.000000  -0.000000   0.000000
    20  H   -0.000000   0.000000   0.000000  -0.000000  -0.000000  -0.000002
    21  H   -0.000000   0.000000  -0.000000   0.000023  -0.000175   0.006865
    22  H    0.000000  -0.000020  -0.002817  -0.025479   0.003736   0.002732
    23  H   -0.001847  -0.006267  -0.000838  -0.000181   0.004378  -0.000051
    24  H    0.001962  -0.009368   0.001070   0.000327   0.000074  -0.000001
    25  H   -0.000275  -0.017798   0.001907   0.000124   0.000004  -0.000000
    26  H    0.000170  -0.007877   0.297201  -0.010226   0.002040  -0.000015
    27  H    0.008534   0.007682  -0.002796  -0.027670   0.296487  -0.011397
               7          8          9         10         11         12
     1  O   -0.000011  -0.000000  -0.000000   0.000000  -0.000000   0.000000
     2  S   -0.000014  -0.000009   0.000000   0.000000  -0.000000  -0.000000
     3  N   -0.000491  -0.000220   0.000004  -0.000000   0.000000  -0.000000
     4  C    0.010580   0.001302   0.000729  -0.000008   0.000000   0.000005
     5  N   -0.076571   0.004485  -0.000105   0.000001  -0.000000   0.000001
     6  O    0.240174  -0.031901   0.002948  -0.000056   0.000002   0.000208
     7  C    4.654326   0.360712  -0.041367   0.006239   0.000731   0.004791
     8  C    0.360712   4.766861   0.535367  -0.012306  -0.032506  -0.010807
     9  C   -0.041367   0.535367   4.979592   0.522681  -0.038352  -0.040834
    10  C    0.006239  -0.012306   0.522681   4.873691   0.535258  -0.026109
    11  C    0.000731  -0.032506  -0.038352   0.535258   4.859069   0.535310
    12  C    0.004791  -0.010807  -0.040834  -0.026109   0.535310   4.876680
    13  C   -0.039037   0.472686  -0.076189  -0.041844  -0.036713   0.513122
    14  C    0.470197  -0.055995  -0.017079   0.000198   0.000014  -0.000211
    15  C   -0.000005  -0.000000  -0.000000   0.000000   0.000000   0.000000
    16  O    0.000000  -0.000000  -0.000000  -0.000000   0.000000  -0.000000
    17  H   -0.011827  -0.037766   0.358359  -0.037917   0.004361   0.000163
    18  H   -0.000198   0.003157  -0.036126   0.364555  -0.039373   0.004221
    19  H    0.000004   0.000495   0.004651  -0.040164   0.365084  -0.039857
    20  H   -0.000165   0.003125   0.000735   0.004248  -0.039397   0.364861
    21  H   -0.011846  -0.042976   0.004955   0.000198   0.004370  -0.036954
    22  H   -0.021229  -0.003460   0.001309   0.000063  -0.000000   0.000001
    23  H   -0.000014   0.000000   0.000000  -0.000000  -0.000000  -0.000000
    24  H    0.000001   0.000000  -0.000000  -0.000000   0.000000  -0.000000
    25  H   -0.000000   0.000000   0.000000  -0.000000  -0.000000  -0.000000
    26  H    0.000051  -0.000002  -0.000000  -0.000000  -0.000000  -0.000000
    27  H    0.001823   0.000043   0.000000  -0.000000   0.000000  -0.000000
              13         14         15         16         17         18
     1  O    0.000000   0.000134  -0.057301  -0.052196  -0.000000  -0.000000
     2  S    0.000000  -0.000590   0.253639   0.451515  -0.000000   0.000000
     3  N   -0.000000  -0.042429  -0.050790  -0.047304  -0.000001  -0.000000
     4  C   -0.000469   0.452424  -0.004329   0.001702   0.000096   0.000000
     5  N    0.000178  -0.038192  -0.002896   0.000014  -0.000006  -0.000000
     6  O   -0.007401  -0.075563   0.000055   0.000000   0.000023   0.000000
     7  C   -0.039037   0.470197  -0.000005   0.000000  -0.011827  -0.000198
     8  C    0.472686  -0.055995  -0.000000  -0.000000  -0.037766   0.003157
     9  C   -0.076189  -0.017079  -0.000000  -0.000000   0.358359  -0.036126
    10  C   -0.041844   0.000198   0.000000  -0.000000  -0.037917   0.364555
    11  C   -0.036713   0.000014   0.000000   0.000000   0.004361  -0.039373
    12  C    0.513122  -0.000211   0.000000  -0.000000   0.000163   0.004221
    13  C    5.026716   0.010852   0.000000   0.000000   0.005198   0.000763
    14  C    0.010852   5.197492  -0.000119  -0.000068   0.005541  -0.000000
    15  C    0.000000  -0.000119   5.512282  -0.058905  -0.000000  -0.000000
    16  O    0.000000  -0.000068  -0.058905   8.274187  -0.000000   0.000000
    17  H    0.005198   0.005541  -0.000000  -0.000000   0.538419  -0.004769
    18  H    0.000763  -0.000000  -0.000000   0.000000  -0.004769   0.541372
    19  H    0.004549  -0.000000   0.000000   0.000000  -0.000144  -0.004830
    20  H   -0.036321   0.000001  -0.000000   0.000000   0.000013  -0.000155
    21  H    0.363941   0.000175  -0.000000  -0.000000  -0.000132   0.000014
    22  H   -0.000072   0.361944  -0.000003  -0.000001   0.001787  -0.000002
    23  H    0.000000   0.000008   0.326465   0.002001   0.000000   0.000000
    24  H   -0.000000  -0.000010   0.342637  -0.000143  -0.000000   0.000000
    25  H   -0.000000   0.000001   0.366757  -0.000889   0.000000   0.000000
    26  H    0.000000  -0.004595   0.000997   0.001658   0.000000   0.000000
    27  H   -0.000000   0.003410  -0.000339   0.000048   0.000000   0.000000
              19         20         21         22         23         24
     1  O   -0.000000  -0.000000  -0.000000   0.000000  -0.001847   0.001962
     2  S   -0.000000   0.000000   0.000000  -0.000020  -0.006267  -0.009368
     3  N   -0.000000   0.000000  -0.000000  -0.002817  -0.000838   0.001070
     4  C   -0.000000  -0.000000   0.000023  -0.025479  -0.000181   0.000327
     5  N   -0.000000  -0.000000  -0.000175   0.003736   0.004378   0.000074
     6  O    0.000000  -0.000002   0.006865   0.002732  -0.000051  -0.000001
     7  C    0.000004  -0.000165  -0.011846  -0.021229  -0.000014   0.000001
     8  C    0.000495   0.003125  -0.042976  -0.003460   0.000000   0.000000
     9  C    0.004651   0.000735   0.004955   0.001309   0.000000  -0.000000
    10  C   -0.040164   0.004248   0.000198   0.000063  -0.000000  -0.000000
    11  C    0.365084  -0.039397   0.004370  -0.000000  -0.000000   0.000000
    12  C   -0.039857   0.364861  -0.036954   0.000001  -0.000000  -0.000000
    13  C    0.004549  -0.036321   0.363941  -0.000072   0.000000  -0.000000
    14  C   -0.000000   0.000001   0.000175   0.361944   0.000008  -0.000010
    15  C    0.000000  -0.000000  -0.000000  -0.000003   0.326465   0.342637
    16  O    0.000000   0.000000  -0.000000  -0.000001   0.002001  -0.000143
    17  H   -0.000144   0.000013  -0.000132   0.001787   0.000000  -0.000000
    18  H   -0.004830  -0.000155   0.000014  -0.000002   0.000000   0.000000
    19  H    0.543124  -0.004834  -0.000142  -0.000000  -0.000000   0.000000
    20  H   -0.004834   0.542150  -0.004775   0.000000  -0.000000  -0.000000
    21  H   -0.000142  -0.004775   0.536924  -0.000006   0.000000   0.000000
    22  H   -0.000000   0.000000  -0.000006   0.439685   0.000000  -0.000000
    23  H   -0.000000  -0.000000   0.000000   0.000000   0.489009  -0.020988
    24  H    0.000000  -0.000000   0.000000  -0.000000  -0.020988   0.459025
    25  H    0.000000  -0.000000   0.000000   0.000000  -0.017249  -0.016935
    26  H    0.000000   0.000000   0.000000   0.001255  -0.000059  -0.000055
    27  H   -0.000000   0.000000   0.000003  -0.000050   0.002383   0.000085
              25         26         27
     1  O   -0.000275   0.000170   0.008534
     2  S   -0.017798  -0.007877   0.007682
     3  N    0.001907   0.297201  -0.002796
     4  C    0.000124  -0.010226  -0.027670
     5  N    0.000004   0.002040   0.296487
     6  O   -0.000000  -0.000015  -0.011397
     7  C   -0.000000   0.000051   0.001823
     8  C    0.000000  -0.000002   0.000043
     9  C    0.000000  -0.000000   0.000000
    10  C   -0.000000  -0.000000  -0.000000
    11  C   -0.000000  -0.000000   0.000000
    12  C   -0.000000  -0.000000  -0.000000
    13  C   -0.000000   0.000000  -0.000000
    14  C    0.000001  -0.004595   0.003410
    15  C    0.366757   0.000997  -0.000339
    16  O   -0.000889   0.001658   0.000048
    17  H    0.000000   0.000000   0.000000
    18  H    0.000000   0.000000   0.000000
    19  H    0.000000   0.000000  -0.000000
    20  H   -0.000000   0.000000   0.000000
    21  H    0.000000   0.000000   0.000003
    22  H    0.000000   0.001255  -0.000050
    23  H   -0.017249  -0.000059   0.002383
    24  H   -0.016935  -0.000055   0.000085
    25  H    0.426924  -0.000016   0.000012
    26  H   -0.000016   0.240916  -0.000056
    27  H    0.000012  -0.000056   0.244745
 Mulliken charges:
               1
     1  O   -0.557660
     2  S    1.169540
     3  N   -0.735166
     4  C    0.674446
     5  N   -0.303795
     6  O   -0.371889
     7  C    0.453145
     8  C    0.079715
     9  C   -0.161278
    10  C   -0.148732
    11  C   -0.117857
    12  C   -0.144591
    13  C   -0.159959
    14  C   -0.267538
    15  C   -0.628145
    16  O   -0.571620
    17  H    0.178602
    18  H    0.171369
    19  H    0.172066
    20  H    0.170515
    21  H    0.179538
    22  H    0.240627
    23  H    0.223248
    24  H    0.242320
    25  H    0.257434
    26  H    0.478614
    27  H    0.477053
 Sum of Mulliken charges =   1.00000
 Mulliken charges with hydrogens summed into heavy atoms:
               1
     1  O   -0.557660
     2  S    1.169540
     3  N   -0.256553
     4  C    0.674446
     5  N    0.173258
     6  O   -0.371889
     7  C    0.453145
     8  C    0.079715
     9  C    0.017324
    10  C    0.022637
    11  C    0.054208
    12  C    0.025924
    13  C    0.019579
    14  C   -0.026911
    15  C    0.094858
    16  O   -0.571620
 Electronic spatial extent (au):  <R**2>=           5851.0992
 Charge=              1.0000 electrons
 Dipole moment (field-independent basis, Debye):
    X=              3.6639    Y=             -0.5004    Z=             -4.2033  Tot=              5.5985
 Quadrupole moment (field-independent basis, Debye-Ang):
   XX=            -79.2317   YY=            -76.7132   ZZ=           -100.5833
   XY=             10.5687   XZ=             15.7650   YZ=              0.7626
 Traceless Quadrupole moment (field-independent basis, Debye-Ang):
   XX=              6.2777   YY=              8.7963   ZZ=            -15.0739
   XY=             10.5687   XZ=             15.7650   YZ=              0.7626
 Octapole moment (field-independent basis, Debye-Ang**2):
  XXX=            225.9669  YYY=             12.6325  ZZZ=            -22.7900  XYY=             -3.0164
  XXY=            -44.7908  XXZ=            -67.6027  XZZ=            -21.8861  YZZ=              2.4580
  YYZ=             -8.7690  XYZ=            -18.4132
 Hexadecapole moment (field-independent basis, Debye-Ang**3):
 XXXX=          -6233.2339 YYYY=           -516.3440 ZZZZ=           -246.0635 XXXY=            240.5637
 XXXZ=            254.3512 YYYX=             -6.8811 YYYZ=              5.2595 ZZZX=             66.4548
 ZZZY=             23.5619 XXYY=          -1095.1901 XXZZ=          -1229.7479 YYZZ=           -147.7245
 XXYZ=             27.8068 YYXZ=             22.5582 ZZXY=            -13.2508
 N-N= 1.193746773906D+03 E-N=-4.994341008508D+03  KE= 1.112324573012D+03
 No NMR shielding tensors so no spin-rotation constants.
 Leave Link  601 at Thu Sep 24 04:41:26 2020, MaxMem=  2147483648 cpu:               0.4 elap:               0.1
 (Enter /prod/apps/gaussian/g16b1/l701.exe)
 ... and contract with generalized density number  0.
 Compute integral first derivatives.
 D1PCM: PCM CHGder 1st derivatives, ID1Alg=3 FixD1E=F DoIter=F DoCFld=F I1PDM=0.
 GePol: Maximum number of non-zero 1st derivatives   =     180
 Leave Link  701 at Thu Sep 24 04:41:28 2020, MaxMem=  2147483648 cpu:               6.9 elap:               1.7
 (Enter /prod/apps/gaussian/g16b1/l702.exe)
 L702 exits ... SP integral derivatives will be done elsewhere.
 Leave Link  702 at Thu Sep 24 04:41:28 2020, MaxMem=  2147483648 cpu:               0.1 elap:               0.0
 (Enter /prod/apps/gaussian/g16b1/l703.exe)
 Integral derivatives from FoFJK, PRISM(SPDF).
 Compute integral first derivatives, UseDBF=F ICtDFT=           0.
 Calling FoFJK, ICntrl=      2127 FMM=F ISym2X=0 I1Cent= 0 IOpClX= 0 NMat=1 NMatS=1 NMatT=0.
 FoFJK:  IHMeth= 1 ICntrl=    2127 DoSepK=F KAlg= 0 I1Cent=           0 FoldK=F
 IRaf=         0 NMat=       1 IRICut=       1 DoRegI=T DoRafI=F ISym2E= 0 IDoP0=0 IntGTp=1.
 FoFCou: FMM=F IPFlag=           0 FMFlag=      100000 FMFlg1=         800
         NFxFlg=           0 DoJE=F BraDBF=F KetDBF=F FulRan=T
         wScrn=  0.000000 ICntrl=      2127 IOpCl=  0 I1Cent=           0 NGrid=           0
         NMat0=    1 NMatS0=      1 NMatT0=    0 NMatD0=    1 NMtDS0=    0 NMtDT0=    0
 Symmetry not used in FoFCou.
 Leave Link  703 at Thu Sep 24 04:41:37 2020, MaxMem=  2147483648 cpu:              38.5 elap:               9.6
 (Enter /prod/apps/gaussian/g16b1/l716.exe)
 Dipole        = 1.44149640D+00-1.96882174D-01-1.65371838D+00
 -------------------------------------------------------------------
 Center     Atomic                   Forces (Hartrees/Bohr)
 Number     Number              X              Y              Z
 -------------------------------------------------------------------
      1        8           0.022255158    0.014371397   -0.017591693
      2       16          -0.107250603   -0.021115147    0.015010430
      3        7           0.038009233   -0.032046739    0.005053893
      4        6           0.022249560    0.032901162   -0.003226609
      5        7           0.041528767    0.063991710   -0.009173758
      6        8          -0.022197088   -0.033077369    0.004401132
      7        6          -0.002470172   -0.001711961    0.000480540
      8        6          -0.000482168   -0.004232386    0.000544574
      9        6          -0.003270324    0.002929769   -0.000284047
     10        6          -0.000377937    0.000243792   -0.000123805
     11        6          -0.001761957    0.000459863   -0.000015573
     12        6          -0.000882522   -0.001878136    0.000341063
     13        6          -0.000868126   -0.002167054    0.000244486
     14        6          -0.020022520   -0.006227086    0.000597325
     15        6           0.012860001    0.003897660   -0.003471239
     16        8           0.021831660   -0.002559715   -0.000050909
     17        1           0.000689603   -0.000327736   -0.000034015
     18        1          -0.001220712   -0.001276914    0.000224087
     19        1          -0.001616930   -0.000027183    0.000043873
     20        1          -0.001438643    0.001662380   -0.000255950
     21        1           0.000535234    0.000741532   -0.000109643
     22        1          -0.001640132   -0.002088032    0.000360640
     23        1          -0.003104979   -0.001312732   -0.004295359
     24        1           0.000989077   -0.000456438    0.001979044
     25        1           0.001695547    0.002860179    0.004711605
     26        1          -0.001600680    0.020280202   -0.003331583
     27        1           0.007561652   -0.033835019    0.007971493
 -------------------------------------------------------------------
 Cartesian Forces:  Max     0.107250603 RMS     0.018504111
 Leave Link  716 at Thu Sep 24 04:41:37 2020, MaxMem=  2147483648 cpu:               0.1 elap:               0.0
 (Enter /prod/apps/gaussian/g16b1/l103.exe)

 GradGradGradGradGradGradGradGradGradGradGradGradGradGradGradGradGradGrad
 Berny optimization.
 FormGI is forming the generalized inverse of G from B-inverse, IUseBI=4.
 GSVD:  received Info=                   1 from GESDD.
 Internal  Forces:  Max     0.044949827 RMS     0.009657562
 Search for a local minimum.
 Step number   1 out of a maximum of  147
 All quantities printed in internal units (Hartrees-Bohrs-Radians)
 RMS Force = .96576D-02 SwitMx=.10000D-02 MixMth= 1
 Mixed Optimization -- RFO/linear search
 Second derivative matrix not updated -- first step.
 ITU=  0
     Eigenvalues ---    0.00269   0.01248   0.01724   0.01774   0.01876
     Eigenvalues ---    0.01987   0.02020   0.02070   0.02078   0.02082
     Eigenvalues ---    0.02093   0.02113   0.02127   0.02133   0.02149
     Eigenvalues ---    0.02153   0.02243   0.02278   0.02346   0.02417
     Eigenvalues ---    0.05885   0.05962   0.07771   0.09005   0.13358
     Eigenvalues ---    0.16000   0.16000   0.16000   0.16000   0.16000
     Eigenvalues ---    0.16000   0.16000   0.16000   0.16000   0.16000
     Eigenvalues ---    0.16000   0.19172   0.22000   0.22000   0.22000
     Eigenvalues ---    0.23406   0.23474   0.24087   0.24997   0.25000
     Eigenvalues ---    0.25000   0.25000   0.25524   0.34562   0.34600
     Eigenvalues ---    0.34728   0.35140   0.35216   0.35234   0.35330
     Eigenvalues ---    0.35429   0.36041   0.36520   0.37703   0.40608
     Eigenvalues ---    0.41257   0.41757   0.45012   0.45328   0.46154
     Eigenvalues ---    0.46774   0.47640   0.47729   0.48260   0.48372
     Eigenvalues ---    0.50714   0.51800   0.56637   0.79718   0.81771
 RFO step:  Lambda=-4.40259610D-02 EMin= 2.69335424D-03
 Linear search not attempted -- first point.
 Maximum step size (   0.300) exceeded in Quadratic search.
    -- Step size scaled by   0.807
 Iteration  1 RMS(Cart)=  0.09072257 RMS(Int)=  0.00281437
 Iteration  2 RMS(Cart)=  0.00424888 RMS(Int)=  0.00055501
 Iteration  3 RMS(Cart)=  0.00001171 RMS(Int)=  0.00055493
 Iteration  4 RMS(Cart)=  0.00000002 RMS(Int)=  0.00055493
 ITry= 1 IFail=0 DXMaxC= 3.79D-01 DCOld= 1.00D+10 DXMaxT= 3.00D-01 DXLimC= 3.00D+00 Rises=F
 Variable       Old X    -DE/DX   Delta X   Delta X   Delta X     New X
                                 (Linear)    (Quad)   (Total)
    R1        2.81768  -0.02342   0.00000  -0.02247  -0.02247   2.79521
    R2        3.05245   0.04495   0.00000   0.06872   0.06872   3.12117
    R3        3.41593  -0.00345   0.00000  -0.00930  -0.00930   3.40663
    R4        2.80674  -0.01786   0.00000  -0.01673  -0.01673   2.79002
    R5        2.59151   0.00506   0.00000   0.00740   0.00740   2.59892
    R6        1.89025   0.02058   0.00000   0.03191   0.03191   1.92216
    R7        2.52426   0.00058   0.00000  -0.00106  -0.00071   2.52354
    R8        2.71669  -0.02674   0.00000  -0.04800  -0.04801   2.66868
    R9        2.69029  -0.03307   0.00000  -0.05980  -0.05956   2.63073
   R10        1.88929   0.01958   0.00000   0.03031   0.03031   1.91960
   R11        2.56420  -0.00232   0.00000  -0.00236  -0.00258   2.56162
   R12        2.76576  -0.01077   0.00000  -0.02124  -0.02124   2.74452
   R13        2.57360   0.00825   0.00000   0.01406   0.01369   2.58729
   R14        2.65864  -0.00199   0.00000  -0.00327  -0.00326   2.65538
   R15        2.65766  -0.00180   0.00000  -0.00296  -0.00296   2.65470
   R16        2.63165  -0.00332   0.00000  -0.00520  -0.00520   2.62644
   R17        2.05142  -0.00063   0.00000  -0.00128  -0.00128   2.05014
   R18        2.64351  -0.00036   0.00000  -0.00057  -0.00058   2.64294
   R19        2.05296  -0.00172   0.00000  -0.00350  -0.00350   2.04947
   R20        2.64062   0.00010   0.00000   0.00015   0.00014   2.64076
   R21        2.05325  -0.00162   0.00000  -0.00329  -0.00329   2.04996
   R22        2.63389  -0.00400   0.00000  -0.00633  -0.00633   2.62756
   R23        2.05449  -0.00219   0.00000  -0.00446  -0.00446   2.05003
   R24        2.04983  -0.00092   0.00000  -0.00185  -0.00185   2.04798
   R25        2.04018  -0.00230   0.00000  -0.00459  -0.00459   2.03559
   R26        2.06120  -0.00161   0.00000  -0.00331  -0.00331   2.05789
   R27        2.06392  -0.00192   0.00000  -0.00398  -0.00398   2.05995
   R28        2.06330  -0.00238   0.00000  -0.00491  -0.00491   2.05838
    A1        1.99925  -0.01580   0.00000  -0.07833  -0.07805   1.92121
    A2        1.85141   0.01143   0.00000   0.04118   0.03848   1.88989
    A3        2.00567   0.00848   0.00000   0.05792   0.05447   2.06014
    A4        1.88803  -0.00542   0.00000  -0.02941  -0.02931   1.85872
    A5        1.85294  -0.00464   0.00000  -0.02586  -0.02538   1.82756
    A6        1.85929   0.00684   0.00000   0.03846   0.03702   1.89631
    A7        2.09532   0.03529   0.00000   0.10784   0.10781   2.20313
    A8        2.09414  -0.01861   0.00000  -0.05776  -0.05778   2.03636
    A9        2.09372  -0.01667   0.00000  -0.05008  -0.05011   2.04362
   A10        2.21643   0.00603   0.00000   0.01854   0.01835   2.23478
   A11        2.13639   0.00676   0.00000   0.02052   0.02033   2.15672
   A12        1.93029  -0.01278   0.00000  -0.03889  -0.03859   1.89169
   A13        1.84014   0.02677   0.00000   0.07278   0.07323   1.91337
   A14        2.22168   0.01438   0.00000   0.07342   0.07301   2.29469
   A15        2.22136  -0.04115   0.00000  -0.14619  -0.14652   2.07484
   A16        1.90584  -0.02089   0.00000  -0.06137  -0.06131   1.84453
   A17        2.04634  -0.00835   0.00000  -0.02521  -0.02496   2.02137
   A18        1.91143   0.00945   0.00000   0.03051   0.03002   1.94145
   A19        2.32541  -0.00110   0.00000  -0.00531  -0.00507   2.32034
   A20        2.09854  -0.00414   0.00000  -0.01151  -0.01151   2.08703
   A21        2.10843  -0.00124   0.00000  -0.00355  -0.00355   2.10487
   A22        2.07622   0.00538   0.00000   0.01505   0.01507   2.09128
   A23        2.10202  -0.00329   0.00000  -0.00969  -0.00969   2.09234
   A24        2.09122   0.00208   0.00000   0.00657   0.00656   2.09779
   A25        2.08994   0.00121   0.00000   0.00312   0.00312   2.09306
   A26        2.09903  -0.00057   0.00000  -0.00143  -0.00143   2.09760
   A27        2.08773  -0.00019   0.00000  -0.00119  -0.00118   2.08655
   A28        2.09642   0.00077   0.00000   0.00261   0.00261   2.09904
   A29        2.08818   0.00218   0.00000   0.00692   0.00691   2.09509
   A30        2.09724  -0.00111   0.00000  -0.00352  -0.00351   2.09373
   A31        2.09776  -0.00108   0.00000  -0.00340  -0.00340   2.09437
   A32        2.10044  -0.00110   0.00000  -0.00316  -0.00316   2.09728
   A33        2.09599   0.00092   0.00000   0.00301   0.00302   2.09900
   A34        2.08676   0.00019   0.00000   0.00014   0.00015   2.08691
   A35        2.10049  -0.00260   0.00000  -0.00770  -0.00770   2.09279
   A36        2.08758   0.00142   0.00000   0.00433   0.00432   2.09191
   A37        2.09511   0.00118   0.00000   0.00338   0.00337   2.09849
   A38        1.83707  -0.00255   0.00000  -0.00305  -0.00338   1.83369
   A39        2.20234  -0.00012   0.00000  -0.00401  -0.00384   2.19850
   A40        2.24376   0.00268   0.00000   0.00707   0.00724   2.25099
   A41        1.89744   0.00935   0.00000   0.03880   0.03891   1.93635
   A42        1.89662  -0.00114   0.00000  -0.00413  -0.00434   1.89228
   A43        1.88607  -0.00895   0.00000  -0.03758  -0.03750   1.84857
   A44        1.92943  -0.00259   0.00000  -0.00581  -0.00597   1.92346
   A45        1.92830  -0.00035   0.00000  -0.00211  -0.00170   1.92660
   A46        1.92493   0.00362   0.00000   0.01052   0.01023   1.93517
    D1        0.91333  -0.00245   0.00000  -0.05379  -0.05330   0.86002
    D2       -2.22849  -0.00127   0.00000  -0.03948  -0.03903  -2.26751
    D3       -1.14723  -0.00338   0.00000  -0.03708  -0.03769  -1.18492
    D4        1.99414  -0.00219   0.00000  -0.02278  -0.02341   1.97073
    D5       -3.13714  -0.00646   0.00000  -0.05504  -0.05488   3.09117
    D6        0.00423  -0.00528   0.00000  -0.04074  -0.04060  -0.03637
    D7       -1.09238   0.01223   0.00000   0.06921   0.07049  -1.02190
    D8        3.08989   0.01052   0.00000   0.05577   0.05694  -3.13636
    D9        1.00101   0.01197   0.00000   0.06711   0.06804   1.06904
   D10        1.06044  -0.00299   0.00000  -0.01673  -0.01669   1.04375
   D11       -1.04048  -0.00470   0.00000  -0.03016  -0.03024  -1.07072
   D12       -3.12936  -0.00325   0.00000  -0.01883  -0.01914   3.13469
   D13        3.04614  -0.00753   0.00000  -0.04149  -0.04234   3.00379
   D14        0.94522  -0.00925   0.00000  -0.05493  -0.05590   0.88933
   D15       -1.14366  -0.00780   0.00000  -0.04359  -0.04480  -1.18845
   D16        0.05787  -0.00370   0.00000  -0.04693  -0.04717   0.01070
   D17       -3.09876  -0.00259   0.00000  -0.03190  -0.03162  -3.13038
   D18       -3.08350  -0.00488   0.00000  -0.06122  -0.06150   3.13818
   D19        0.04305  -0.00377   0.00000  -0.04619  -0.04595  -0.00290
   D20        3.12559   0.00054   0.00000   0.00698   0.00687   3.13246
   D21       -0.01569  -0.00152   0.00000  -0.01915  -0.02022  -0.03591
   D22       -0.00244  -0.00058   0.00000  -0.00695  -0.00714  -0.00958
   D23        3.13946  -0.00265   0.00000  -0.03308  -0.03424   3.10523
   D24       -3.12808  -0.00036   0.00000  -0.00478  -0.00524  -3.13332
   D25        0.01909  -0.00062   0.00000  -0.00768  -0.00785   0.01124
   D26        0.00068   0.00070   0.00000   0.00841   0.00802   0.00870
   D27       -3.13534   0.00044   0.00000   0.00551   0.00541  -3.12993
   D28        0.00338   0.00019   0.00000   0.00284   0.00318   0.00656
   D29       -3.13852   0.00227   0.00000   0.02902   0.02641  -3.11211
   D30        3.13528   0.00008   0.00000   0.00029   0.00001   3.13530
   D31       -0.00306   0.00028   0.00000   0.00255   0.00218  -0.00088
   D32        3.09497   0.00024   0.00000   0.00314   0.00306   3.09803
   D33       -0.04784   0.00027   0.00000   0.00350   0.00342  -0.04441
   D34       -0.05082  -0.00001   0.00000   0.00029   0.00037  -0.05046
   D35        3.08956   0.00003   0.00000   0.00065   0.00073   3.09028
   D36        0.00150  -0.00057   0.00000  -0.00639  -0.00619  -0.00469
   D37        3.13734  -0.00032   0.00000  -0.00344  -0.00352   3.13382
   D38       -3.13613  -0.00031   0.00000  -0.00360  -0.00350  -3.13962
   D39       -0.00029  -0.00006   0.00000  -0.00066  -0.00083  -0.00112
   D40        3.13884   0.00001   0.00000   0.00011   0.00011   3.13895
   D41       -0.00419  -0.00001   0.00000  -0.00009  -0.00009  -0.00428
   D42       -0.00156  -0.00002   0.00000  -0.00024  -0.00024  -0.00180
   D43        3.13860  -0.00004   0.00000  -0.00044  -0.00044   3.13815
   D44       -3.13967  -0.00001   0.00000  -0.00013  -0.00014  -3.13981
   D45        0.00051  -0.00000   0.00000  -0.00007  -0.00007   0.00044
   D46        0.00072   0.00002   0.00000   0.00021   0.00021   0.00093
   D47        3.14090   0.00002   0.00000   0.00027   0.00028   3.14118
   D48        0.00147  -0.00000   0.00000  -0.00000  -0.00000   0.00147
   D49        3.14140   0.00001   0.00000   0.00017   0.00017   3.14157
   D50       -3.13869   0.00001   0.00000   0.00020   0.00020  -3.13849
[...]
 Alpha virt. eigenvalues --    0.26004   0.26747   0.26957   0.27152   0.27405
 Alpha virt. eigenvalues --    0.28131   0.28513   0.29006   0.29367   0.29715
 Alpha virt. eigenvalues --    0.30096   0.30814   0.31075   0.31614   0.32039
 Alpha virt. eigenvalues --    0.32653   0.33465   0.33560   0.34013   0.34232
 Alpha virt. eigenvalues --    0.34612   0.35257   0.35926   0.36128   0.36751
 Alpha virt. eigenvalues --    0.37658   0.38482   0.39030   0.39380   0.40267
 Alpha virt. eigenvalues --    0.40903   0.41323   0.42028   0.42986   0.43202
 Alpha virt. eigenvalues --    0.43732   0.44200   0.44532   0.45118   0.45998
 Alpha virt. eigenvalues --    0.46333   0.46538   0.47333   0.47811   0.48087
 Alpha virt. eigenvalues --    0.48430   0.48580   0.49524   0.50527   0.50913
 Alpha virt. eigenvalues --    0.51532   0.51927   0.52342   0.52832   0.53596
 Alpha virt. eigenvalues --    0.54139   0.54744   0.55154   0.55455   0.55726
 Alpha virt. eigenvalues --    0.56203   0.56673   0.56959   0.57877   0.58075
 Alpha virt. eigenvalues --    0.58421   0.58674   0.59220   0.59669   0.60279
 Alpha virt. eigenvalues --    0.60735   0.61375   0.61624   0.61928   0.62142
 Alpha virt. eigenvalues --    0.63905   0.64057   0.65057   0.65823   0.65928
 Alpha virt. eigenvalues --    0.66364   0.67290   0.68372   0.69245   0.69671
 Alpha virt. eigenvalues --    0.70596   0.71323   0.71583   0.72776   0.73684
 Alpha virt. eigenvalues --    0.74901   0.75467   0.75863   0.76099   0.76795
 Alpha virt. eigenvalues --    0.77466   0.77877   0.78447   0.79417   0.79543
 Alpha virt. eigenvalues --    0.80118   0.81128   0.81433   0.81797   0.82638
 Alpha virt. eigenvalues --    0.82996   0.83057   0.83627   0.83756   0.84272
 Alpha virt. eigenvalues --    0.84783   0.85383   0.86986   0.87782   0.89048
 Alpha virt. eigenvalues --    0.89731   0.90061   0.90687   0.91690   0.92035
 Alpha virt. eigenvalues --    0.92414   0.93913   0.94139   0.95532   0.96008
 Alpha virt. eigenvalues --    0.96266   0.97952   0.99587   1.00822   1.01045
 Alpha virt. eigenvalues --    1.02837   1.03370   1.04413   1.04782   1.05373
 Alpha virt. eigenvalues --    1.06071   1.07604   1.09112   1.09485   1.10030
 Alpha virt. eigenvalues --    1.10723   1.11443   1.11842   1.15000   1.16248
 Alpha virt. eigenvalues --    1.17364   1.18629   1.19536   1.19679   1.20732
 Alpha virt. eigenvalues --    1.23857   1.25082   1.26783   1.26859   1.28356
 Alpha virt. eigenvalues --    1.28947   1.31674   1.32198   1.32520   1.33126
 Alpha virt. eigenvalues --    1.33798   1.36056   1.37992   1.38705   1.38926
 Alpha virt. eigenvalues --    1.39946   1.40407   1.41161   1.41420   1.42211
 Alpha virt. eigenvalues --    1.42884   1.43742   1.45789   1.46849   1.47467
 Alpha virt. eigenvalues --    1.49636   1.50360   1.50674   1.51814   1.52213
 Alpha virt. eigenvalues --    1.52713   1.53886   1.54375   1.55748   1.57009
 Alpha virt. eigenvalues --    1.58065   1.58751   1.58836   1.59343   1.60589
 Alpha virt. eigenvalues --    1.61417   1.61945   1.63630   1.64120   1.65842
 Alpha virt. eigenvalues --    1.66900   1.67841   1.68528   1.69143   1.69989
 Alpha virt. eigenvalues --    1.71472   1.71972   1.73539   1.74260   1.74432
 Alpha virt. eigenvalues --    1.75223   1.75796   1.76810   1.78178   1.79768
 Alpha virt. eigenvalues --    1.80992   1.81247   1.82927   1.83931   1.84815
 Alpha virt. eigenvalues --    1.86433   1.86619   1.87193   1.87611   1.89117
 Alpha virt. eigenvalues --    1.89537   1.90077   1.92568   1.95404   1.96057
 Alpha virt. eigenvalues --    1.96314   1.97218   1.99462   1.99822   2.00877
 Alpha virt. eigenvalues --    2.01955   2.02203   2.03587   2.04371   2.05952
 Alpha virt. eigenvalues --    2.06976   2.07472   2.08148   2.10426   2.10757
 Alpha virt. eigenvalues --    2.12886   2.14868   2.15556   2.16103   2.16883
 Alpha virt. eigenvalues --    2.17146   2.18616   2.19351   2.19690   2.20528
 Alpha virt. eigenvalues --    2.21756   2.23104   2.24229   2.24487   2.24847
 Alpha virt. eigenvalues --    2.25315   2.27194   2.28648   2.30730   2.33085
 Alpha virt. eigenvalues --    2.34180   2.35453   2.36722   2.37664   2.39292
 Alpha virt. eigenvalues --    2.43829   2.45908   2.47827   2.48884   2.50220
 Alpha virt. eigenvalues --    2.51552   2.54031   2.54745   2.56060   2.59961
 Alpha virt. eigenvalues --    2.62146   2.62905   2.64890   2.66293   2.68114
 Alpha virt. eigenvalues --    2.70683   2.71718   2.72496   2.73524   2.76288
 Alpha virt. eigenvalues --    2.77435   2.80584   2.81861   2.82699   2.84066
 Alpha virt. eigenvalues --    2.85922   2.88842   2.92789   2.96779   2.99964
 Alpha virt. eigenvalues --    3.03387   3.04735   3.05096   3.07899   3.15793
 Alpha virt. eigenvalues --    3.19611   3.23446   3.27601   3.29349   3.31311
 Alpha virt. eigenvalues --    3.38200   3.45766   3.50897   3.56561   3.57211
 Alpha virt. eigenvalues --    3.59346   3.60962   3.61898   3.63726   3.65215
 Alpha virt. eigenvalues --    3.65842   3.68066   3.70803   3.72655   3.73995
 Alpha virt. eigenvalues --    3.74310   3.79217   3.83324   3.87717   3.94045
 Alpha virt. eigenvalues --    4.02788   4.15738   4.47430   4.77174
          Condensed to atoms (all electrons):
               1          2          3          4          5          6
     1  O    9.132110  -0.048010  -0.056559   0.132314  -0.058600  -0.027608
     2  S   -0.048010  13.183173  -0.012302   0.037586   0.069511  -0.035116
     3  N   -0.056559  -0.012302   8.501537  -1.110746   0.080185  -0.048890
     4  C    0.132314   0.037586  -1.110746  13.740599  -0.991695   0.287930
     5  N   -0.058600   0.069511   0.080185  -0.991695   8.368525  -0.979952
     6  O   -0.027608  -0.035116  -0.048890   0.287930  -0.979952  10.483354
     7  C   -0.093257   0.022408   0.517469  -1.415900  -0.826163  -0.034325
     8  C    0.010640   0.011371  -0.145395   0.415466   0.159418   0.319181
     9  C   -0.001495  -0.001496   0.081542  -0.388055   0.294768  -0.142340
    10  C    0.000087   0.001090  -0.023496   0.004393   0.046903   0.019562
    11  C   -0.000061  -0.000301   0.007000  -0.070431   0.006004  -0.035448
    12  C    0.000259  -0.000222  -0.008333   0.221383  -0.068984  -0.042984
    13  C   -0.002422  -0.006201   0.066216  -0.283288  -0.335720  -0.112220
    14  C    0.048552  -0.205505  -0.142902  -5.246587   0.715230  -0.166412
    15  C   -0.012509   0.400320   0.059330  -0.173682   0.051826  -0.000967
    16  O    0.023875   0.062095   0.042064  -0.045453  -0.018169  -0.000014
    17  H   -0.000437  -0.000989   0.012185   0.038140  -0.008992   0.009470
    18  H    0.000016   0.000052  -0.001074   0.004900   0.001010   0.000488
    19  H   -0.000003  -0.000012   0.000240  -0.002810   0.000325  -0.000275
    20  H    0.000016  -0.000019  -0.000582   0.003826  -0.003643   0.004778
    21  H   -0.000759   0.000334   0.007516  -0.012390  -0.046054  -0.131764
    22  H    0.001497   0.014521  -0.079661   0.591918  -0.065426   0.002413
    23  H    0.038815  -0.055825  -0.050214   0.035309  -0.012864  -0.003506
    24  H    0.009419  -0.012331  -0.106970   0.072306  -0.007465   0.000401
    25  H   -0.009997  -0.008280   0.014963  -0.004848   0.012313  -0.000190
    26  H    0.004490  -0.068992   0.264518   0.096545  -0.035162   0.000198
    27  H    0.023639  -0.010825  -0.011029  -0.076760   0.654418  -0.294719
               7          8          9         10         11         12
     1  O   -0.093257   0.010640  -0.001495   0.000087  -0.000061   0.000259
     2  S    0.022408   0.011371  -0.001496   0.001090  -0.000301  -0.000222
     3  N    0.517469  -0.145395   0.081542  -0.023496   0.007000  -0.008333
     4  C   -1.415900   0.415466  -0.388055   0.004393  -0.070431   0.221383
     5  N   -0.826163   0.159418   0.294768   0.046903   0.006004  -0.068984
     6  O   -0.034325   0.319181  -0.142340   0.019562  -0.035448  -0.042984
     7  C   21.197502  -4.532363  -1.110401  -0.714753   0.448153  -0.572894
     8  C   -4.532363  20.484895  -7.115953   1.895049  -3.495402   1.331021
     9  C   -1.110401  -7.115953  22.090655  -6.314790   3.444851  -2.973517
    10  C   -0.714753   1.895049  -6.314790  13.663666  -2.989947   3.276688
    11  C    0.448153  -3.495402   3.444851  -2.989947   8.923944  -2.685197
    12  C   -0.572894   1.331021  -2.973517   3.276688  -2.685197  11.458257
    13  C   -0.554356  -5.183040  -0.513208  -2.907252   2.342414  -3.919861
    14  C   -7.083907  -0.694631  -1.483626   0.557150  -0.274472  -0.064463
    15  C   -0.024434  -0.000697   0.000610   0.000371  -0.000094  -0.000137
    16  O    0.004912  -0.000478   0.000477  -0.000055   0.000009  -0.000002
    17  H   -0.073682   0.864019  -1.205431   0.169426  -0.121574   0.083427
    18  H   -0.045721  -0.137386   0.895383  -0.927742   0.288669  -0.263034
    19  H   -0.011221   0.030058  -0.098176   0.240680  -0.452268   0.339791
    20  H   -0.006232  -0.120384   0.082969  -0.219143   0.266407  -0.711069
    21  H    0.230955   0.282797  -0.098107   0.051681  -0.083643   0.335532
    22  H    0.763795   0.019126  -0.036250   0.076938  -0.032060   0.011381
    23  H    0.005102  -0.001301  -0.000509  -0.000100  -0.000036   0.000409
    24  H   -0.014620   0.000947   0.000045   0.000180  -0.000016  -0.000075
    25  H    0.003526   0.000004  -0.000039   0.000018  -0.000003  -0.000029
    26  H   -0.023533   0.003064  -0.002542  -0.003096   0.000009   0.001479
    27  H    0.103462  -0.014365   0.011809  -0.000017  -0.000133  -0.003996
              13         14         15         16         17         18
     1  O   -0.002422   0.048552  -0.012509   0.023875  -0.000437   0.000016
     2  S   -0.006201  -0.205505   0.400320   0.062095  -0.000989   0.000052
     3  N    0.066216  -0.142902   0.059330   0.042064   0.012185  -0.001074
     4  C   -0.283288  -5.246587  -0.173682  -0.045453   0.038140   0.004900
     5  N   -0.335720   0.715230   0.051826  -0.018169  -0.008992   0.001010
     6  O   -0.112220  -0.166412  -0.000967  -0.000014   0.009470   0.000488
     7  C   -0.554356  -7.083907  -0.024434   0.004912  -0.073682  -0.045721
     8  C   -5.183040  -0.694631  -0.000697  -0.000478   0.864019  -0.137386
     9  C   -0.513208  -1.483626   0.000610   0.000477  -1.205431   0.895383
    10  C   -2.907252   0.557150   0.000371  -0.000055   0.169426  -0.927742
    11  C    2.342414  -0.274472  -0.000094   0.000009  -0.121574   0.288669
    12  C   -3.919861  -0.064463  -0.000137  -0.000002   0.083427  -0.263034
    13  C   18.841072  -1.573655  -0.002177   0.000340  -0.096321   0.115361
    14  C   -1.573655  21.271727   0.078338   0.037361   0.122706   0.045640
    15  C   -0.002177   0.078338   4.660015  -0.043399  -0.000319   0.000025
    16  O    0.000340   0.037361  -0.043399   8.953809   0.000444  -0.000005
    17  H   -0.096321   0.122706  -0.000319   0.000444   1.969339  -0.074483
    18  H    0.115361   0.045640   0.000025  -0.000005  -0.074483   1.627124
    19  H   -0.056795   0.001959  -0.000004   0.000001  -0.016858  -0.054316
    20  H    0.663766   0.001145   0.000010  -0.000001   0.008622  -0.019795
    21  H   -0.771128  -0.030314  -0.000314   0.000050  -0.012457   0.006953
    22  H   -0.021495  -1.558833   0.001519  -0.005162  -0.097444  -0.001357
    23  H    0.000159  -0.023836   0.306741   0.016917   0.000295  -0.000003
    24  H   -0.000775  -0.012113   0.284757   0.030864  -0.000441   0.000010
    25  H   -0.000072  -0.001511   0.335887  -0.006442  -0.000019   0.000001
    26  H   -0.001064  -0.026790  -0.025241  -0.006030  -0.001275  -0.000038
    27  H   -0.018925  -0.139894  -0.004038   0.001970   0.000348  -0.000047
              19         20         21         22         23         24
     1  O   -0.000003   0.000016  -0.000759   0.001497   0.038815   0.009419
     2  S   -0.000012  -0.000019   0.000334   0.014521  -0.055825  -0.012331
     3  N    0.000240  -0.000582   0.007516  -0.079661  -0.050214  -0.106970
     4  C   -0.002810   0.003826  -0.012390   0.591918   0.035309   0.072306
     5  N    0.000325  -0.003643  -0.046054  -0.065426  -0.012864  -0.007465
     6  O   -0.000275   0.004778  -0.131764   0.002413  -0.003506   0.000401
     7  C   -0.011221  -0.006232   0.230955   0.763795   0.005102  -0.014620
     8  C    0.030058  -0.120384   0.282797   0.019126  -0.001301   0.000947
     9  C   -0.098176   0.082969  -0.098107  -0.036250  -0.000509   0.000045
    10  C    0.240680  -0.219143   0.051681   0.076938  -0.000100   0.000180
    11  C   -0.452268   0.266407  -0.083643  -0.032060  -0.000036  -0.000016
    12  C    0.339791  -0.711069   0.335532   0.011381   0.000409  -0.000075
    13  C   -0.056795   0.663766  -0.771128  -0.021495   0.000159  -0.000775
    14  C    0.001959   0.001145  -0.030314  -1.558833  -0.023836  -0.012113
    15  C   -0.000004   0.000010  -0.000314   0.001519   0.306741   0.284757
    16  O    0.000001  -0.000001   0.000050  -0.005162   0.016917   0.030864
    17  H   -0.016858   0.008622  -0.012457  -0.097444   0.000295  -0.000441
    18  H   -0.054316  -0.019795   0.006953  -0.001357  -0.000003   0.000010
    19  H    1.556449  -0.059803  -0.010883   0.000212   0.000001  -0.000002
    20  H   -0.059803   1.618394  -0.088044   0.000953  -0.000006   0.000003
    21  H   -0.010883  -0.088044   2.031712  -0.004264   0.000220  -0.000119
    22  H    0.000212   0.000953  -0.004264   1.942527  -0.000588   0.003230
    23  H    0.000001  -0.000006   0.000220  -0.000588   0.851832  -0.063879
    24  H   -0.000002   0.000003  -0.000119   0.003230  -0.063879   0.848078
    25  H   -0.000000  -0.000002   0.000049   0.000114  -0.074441  -0.089926
    26  H    0.000005   0.000005  -0.000368   0.024364   0.003500   0.008847
    27  H    0.000005   0.000021  -0.000999   0.003231   0.004071  -0.000564
              25         26         27
     1  O   -0.009997   0.004490   0.023639
     2  S   -0.008280  -0.068992  -0.010825
     3  N    0.014963   0.264518  -0.011029
     4  C   -0.004848   0.096545  -0.076760
     5  N    0.012313  -0.035162   0.654418
     6  O   -0.000190   0.000198  -0.294719
     7  C    0.003526  -0.023533   0.103462
     8  C    0.000004   0.003064  -0.014365
     9  C   -0.000039  -0.002542   0.011809
    10  C    0.000018  -0.003096  -0.000017
    11  C   -0.000003   0.000009  -0.000133
    12  C   -0.000029   0.001479  -0.003996
    13  C   -0.000072  -0.001064  -0.018925
    14  C   -0.001511  -0.026790  -0.139894
    15  C    0.335887  -0.025241  -0.004038
    16  O   -0.006442  -0.006030   0.001970
    17  H   -0.000019  -0.001275   0.000348
    18  H    0.000001  -0.000038  -0.000047
    19  H   -0.000000   0.000005   0.000005
    20  H   -0.000002   0.000005   0.000021
    21  H    0.000049  -0.000368  -0.000999
    22  H    0.000114   0.024364   0.003231
    23  H   -0.074441   0.003500   0.004071
    24  H   -0.089926   0.008847  -0.000564
    25  H    0.747841  -0.002582  -0.001219
    26  H   -0.002582   0.833112   0.004386
    27  H   -0.001219   0.004386   0.715289
 Mulliken charges:
               1
     1  O   -1.114008
     2  S    2.663965
     3  N   -0.856611
     4  C    0.140028
     5  N   -0.001549
     6  O   -1.071044
     7  C   -0.159523
     8  C    1.614337
     9  C    0.582828
    10  C    0.096511
    11  C    0.513629
    12  C    0.255171
    13  C    0.330644
    14  C    1.849644
    15  C    0.108261
    16  O   -1.049980
    17  H   -0.567698
    18  H   -0.460628
    19  H   -0.406297
    20  H   -0.422191
    21  H   -0.656192
    22  H   -0.555200
    23  H    0.023735
    24  H    0.050210
    25  H    0.084886
    26  H   -0.047808
    27  H    0.054882
 Sum of Mulliken charges =   1.00000
 Mulliken charges with hydrogens summed into heavy atoms:
               1
     1  O   -1.114008
     2  S    2.663965
     3  N   -0.904419
     4  C    0.140028
     5  N    0.053333
     6  O   -1.071044
     7  C   -0.159523
     8  C    1.614337
     9  C    0.015130
    10  C   -0.364117
    11  C    0.107331
    12  C   -0.167021
    13  C   -0.325548
    14  C    1.294443
    15  C    0.267092
    16  O   -1.049980
 Electronic spatial extent (au):  <R**2>=           5907.0023
 Charge=              1.0000 electrons
 Dipole moment (field-independent basis, Debye):
    X=             -2.2486    Y=              1.6731    Z=              4.3636  Tot=              5.1862
 Quadrupole moment (field-independent basis, Debye-Ang):
   XX=            -46.0958   YY=            -82.7968   ZZ=            -99.9043
   XY=             -0.5751   XZ=             19.7711   YZ=              0.0605
 Traceless Quadrupole moment (field-independent basis, Debye-Ang):
   XX=             30.1698   YY=             -6.5312   ZZ=            -23.6387
   XY=             -0.5751   XZ=             19.7711   YZ=              0.0605
 Octapole moment (field-independent basis, Debye-Ang**2):
  XXX=           -144.9690  YYY=              5.4783  ZZZ=              6.8932  XYY=            -10.8168
  XXY=            -10.4735  XXZ=             86.5130  XZZ=             48.4167  YZZ=             -4.4361
  YYZ=              2.9728  XYZ=             -0.8680
 Hexadecapole moment (field-independent basis, Debye-Ang**3):
 XXXX=          -5333.2517 YYYY=           -516.6897 ZZZZ=           -253.9002 XXXY=           -111.2150
 XXXZ=            367.5944 YYYX=             17.2112 YYYZ=              2.9475 ZZZX=             33.0044
 ZZZY=             -0.5094 XXYY=          -1141.5725 XXZZ=          -1226.3234 YYZZ=           -154.5756
 XXYZ=             13.3408 YYXZ=             15.4833 ZZXY=              1.9141
 N-N= 1.190763974102D+03 E-N=-4.989100656180D+03  KE= 1.114598709638D+03
 Leave Link  601 at Thu Sep 24 05:24:00 2020, MaxMem=   262144000 cpu:               1.9 elap:               1.0
 (Enter /prod/apps/gaussian/g16b1/l9999.exe)
 1\1\GINC-PIRINEUS15\SP\RMP2-FC\Aug-CC-pVDZ\C10H11N2O3S1(1+)\UBAFAR01\2
 4-Sep-2020\0\\#p mp2/aug-cc-pVDZ scf=(MaxCycle=2000,NoVarAcc,NoIncFock
 ) maxdisk=120GB geom=allcheck\\SM41_m1.b.5.pdb.xyz\\1,1\O,0,-3.3133805
 324,-1.2482291605,1.1003439658\S,0,-3.6459781422,-0.1196047557,0.22605
 75908\N,0,-2.1704769017,0.7078911169,-0.0266256996\C,0,-0.9206904336,0
 .1900332232,0.06591377\N,0,-0.629930419,-1.0707906327,0.3877380781\O,0
 ,0.728766237,-1.2512226776,0.4261166431\C,0,1.2840053917,-0.0588452058
 ,0.0849660291\C,0,2.7335695588,-0.000025162,0.0488289521\C,0,3.3691808
 635,1.1938073267,-0.3316378546\C,0,4.7579060832,1.2604937751,-0.354554
 0429\C,0,5.5197236975,0.1433913004,-0.0004748788\C,0,4.8896713256,-1.0
 454336479,0.3765735584\C,0,3.501324095,-1.1216716029,0.4023923114\C,0,
 0.3006312347,0.8663777104,-0.1535302625\C,0,-4.0876115918,-0.721026722
 ,-1.4009422922\O,0,-4.5905699767,0.908207984,0.6512569458\H,0,2.779523
 2878,2.0608032833,-0.6077152775\H,0,5.246128224,2.1826307544,-0.648248
 6116\H,0,6.6026862536,0.1996918457,-0.0184415263\H,0,5.4799258616,-1.9
 121240459,0.651944313\H,0,3.0086439356,-2.0401673958,0.6972043277\H,0,
 0.4113873185,1.8976482679,-0.441370955\H,0,-3.2963822405,-1.3822862572
 ,-1.7526629158\H,0,-4.2132649746,0.136729241,-2.0602025292\H,0,-5.0261
 952136,-1.2655860447,-1.2881486693\H,0,-2.2509156846,1.6800930372,-0.3
 281825417\H,0,-1.1866772571,-1.8557855554,0.7244015716\\Version=ES64L-
 G16RevB.01\State=1-A\HF=-1115.8414034\MP2=-1118.2709746\RMSD=9.526e-09
 \PG=C01 [X(C10H11N2O3S1)]\\@


 ALMOST ALL THE CHEMICAL PROCESSES WHICH OCCUR IN NATURE,
 WHETHER IN ANIMAL OR VEGETABLE ORGANISMS,
 OR IN THE NON-LIVING SURFACE OF THE EARTH ... 
 TAKE PLACE BETWEEN SUBSTANCES IN SOLUTION

                                    -- W. OSTWALD, 1890
 Job cpu time:       0 days  1 hours  9 minutes 13.2 seconds.
 Elapsed time:       0 days  0 hours 19 minutes  0.0 seconds.
 File lengths (MBytes):  RWF=  36947 Int=      0 D2E=      0 Chk=     19 Scr=      1
 Normal termination of Gaussian 16 at Thu Sep 24 05:24:02 2020.
