 Entering Gaussian System, Link 0=g16
 Initial command:
 /prod/apps/gaussian/g16b1/l1.exe "/tmp/ubafar01/1460517/Gau-29627.inp" -scrdir="/tmp/ubafar01/1460517/"
 Entering Link 1 = /prod/apps/gaussian/g16b1/l1.exe PID=     29629.
  
 Copyright (c) 1988-2017, Gaussian, Inc.  All Rights Reserved.
  
 This is part of the Gaussian(R) 16 program.  It is based on
 the Gaussian(R) 09 system (copyright 2009, Gaussian, Inc.),
 the Gaussian(R) 03 system (copyright 2003, Gaussian, Inc.),
 the Gaussian(R) 98 system (copyright 1998, Gaussian, Inc.),
 the Gaussian(R) 94 system (copyright 1995, Gaussian, Inc.),
 the Gaussian 92(TM) system (copyright 1992, Gaussian, Inc.),
 the Gaussian 90(TM) system (copyright 1990, Gaussian, Inc.),
 the Gaussian 88(TM) system (copyright 1988, Gaussian, Inc.),
 the Gaussian 86(TM) system (copyright 1986, Carnegie Mellon
 University), and the Gaussian 82(TM) system (copyright 1983,
 Carnegie Mellon University). Gaussian is a federally registered
 trademark of Gaussian, Inc.
  
 This software contains proprietary and confidential information,
 including trade secrets, belonging to Gaussian, Inc.
  
 This software is provided under written license and may be
 used, copied, transmitted, or stored only in accord with that
 written license.
  
 The following legend is applicable only to US Government
 contracts under FAR:
  
                    RESTRICTED RIGHTS LEGEND
  
 Use, reproduction and disclosure by the US Government is
 subject to restrictions as set forth in subparagraphs (a)
 and (c) of the Commercial Computer Software - Restricted
 Rights clause in FAR 52.227-19.
  
 Gaussian, Inc.
 340 Quinnipiac St., Bldg. 40, Wallingford CT 06492
  
  
 ---------------------------------------------------------------
 Warning -- This program may not be used in any manner that
 competes with the business of Gaussian, Inc. or will provide
 assistance to any competitor of Gaussian, Inc.  The licensee
 of this program is prohibited from giving any competitor of
 Gaussian, Inc. access to this program.  By using this program,
 the user acknowledges that Gaussian, Inc. is engaged in the
 business of creating and licensing software in the field of
 computational chemistry and represents and warrants to the
 licensee that it is not a competitor of Gaussian, Inc. and that
 it will not use this program in any manner prohibited above.
 ---------------------------------------------------------------
  

 Cite this work as:
 Gaussian 16, Revision B.01,
 M. J. Frisch, G. W. Trucks, H. B. Schlegel, G. E. Scuseria, 
 M. A. Robb, J. R. Cheeseman, G. Scalmani, V. Barone, 
 G. A. Petersson, H. Nakatsuji, X. Li, M. Caricato, A. V. Marenich, 
 J. Bloino, B. G. Janesko, R. Gomperts, B. Mennucci, H. P. Hratchian, 
 J. V. Ortiz, A. F. Izmaylov, J. L. Sonnenberg, D. Williams-Young, 
 F. Ding, F. Lipparini, F. Egidi, J. Goings, B. Peng, A. Petrone, 
 T. Henderson, D. Ranasinghe, V. G. Zakrzewski, J. Gao, N. Rega, 
 G. Zheng, W. Liang, M. Hada, M. Ehara, K. Toyota, R. Fukuda, 
 J. Hasegawa, M. Ishida, T. Nakajima, Y. Honda, O. Kitao, H. Nakai, 
 T. Vreven, K. Throssell, J. A. Montgomery, Jr., J. E. Peralta, 
 F. Ogliaro, M. J. Bearpark, J. J. Heyd, E. N. Brothers, K. N. Kudin, 
 V. N. Staroverov, T. A. Keith, R. Kobayashi, J. Normand, 
 K. Raghavachari, A. P. Rendell, J. C. Burant, S. S. Iyengar, 
 J. Tomasi, M. Cossi, J. M. Millam, M. Klene, C. Adamo, R. Cammi, 
 J. W. Ochterski, R. L. Martin, K. Morokuma, O. Farkas, 
 J. B. Foresman, and D. J. Fox, Gaussian, Inc., Wallingford CT, 2016.
 
 ******************************************
 Gaussian 16:  ES64L-G16RevB.01 20-Dec-2017
                22-Sep-2020 
 ******************************************
 %nproc=4
 Will use up to    4 processors via shared memory.
 %Chk=SM41_m0.n.1.pdb.xyz.mst.n.w.chk
 %mem=16GB
 ----------------------------------------------------------------------
 #p b3lyp/6-31G(d) opt freq NoSymm scf=(MaxCycle=2000,NoVarAcc,NoIncFoc
 k) scrf=(iefpcm,read,solvent=water)
 ----------------------------------------------------------------------
 1/18=20,19=15,26=3,38=1,40=2/1,3;
 2/9=110,12=2,15=1,17=6,18=5,40=1/2;
 3/5=1,6=6,7=1,11=2,25=1,30=1,70=2203,71=1,72=1,74=-5/1,2,3;
 4//1;
 5/5=100002,7=2000,38=1,53=1/2;
 6/7=2,8=2,9=2,10=2,28=1/1;
 7/30=1/1,2,3,16;
 1/18=20,19=15,26=3/3(2);
 2/9=110,15=1/2;
 99//99;
 2/9=110,15=1/2;
 3/5=1,6=6,7=1,11=2,25=1,30=1,70=2205,71=1,72=1,74=-5/1,2,3;
 4/5=5,16=3,69=1/1;
 5/5=100002,7=2000,38=1,53=1/2;
 7/30=1/1,2,3,16;
 1/18=20,19=15,26=3/3(-5);
 2/9=110,15=1/2;
 6/7=2,8=2,9=2,10=2,19=2,28=1/1;
 99/9=1/99;
 Leave Link    1 at Tue Sep 22 18:09:10 2020, MaxMem=  2147483648 cpu:               0.1 elap:               0.0
 (Enter /prod/apps/gaussian/g16b1/l101.exe)
 -------------------
 SM41_m0.n.1.pdb.xyz
 -------------------
 Symbolic Z-matrix:
 Charge =  0 Multiplicity = 1
 O                    -2.554    -1.697    -0.005 
 S                    -3.301    -0.45      0.205 
 N                    -2.377     0.799    -0.501 
 C                    -0.997     0.876    -0.263 
 N                    -0.459     2.062    -0.049 
 O                     0.919     1.817     0.037 
 C                     1.154     0.49     -0.108 
 C                     2.542     0.041    -0.041 
 C                     2.84     -1.329    -0.125 
 C                     4.161    -1.762    -0.066 
 C                     5.199    -0.836     0.08 
 C                     4.907     0.527     0.166 
 C                     3.587     0.967     0.106 
 C                    -0.03     -0.163    -0.306 
 C                    -4.736    -0.398    -0.858 
 O                    -3.705    -0.1       1.575 
 H                    -2.843     1.704    -0.391 
 H                     2.038    -2.049    -0.236 
 H                     4.382    -2.821    -0.132 
 H                     6.227    -1.176     0.126 
 H                     5.708     1.25      0.278 
 H                     3.359     2.024     0.171 
 H                    -0.208    -1.211    -0.465 
 H                    -4.425    -0.621    -1.877 
 H                    -5.192     0.59     -0.792 
 H                    -5.425    -1.157    -0.487 
 
 ITRead=  0  0  0  0  0  0  0  0  0  0  0  0  0  0  0  0  0  0  0  0
 ITRead=  0  0  0  0  0  0
 MicOpt= -1 -1 -1 -1 -1 -1 -1 -1 -1 -1 -1 -1 -1 -1 -1 -1 -1 -1 -1 -1
 MicOpt= -1 -1 -1 -1 -1 -1
 NAtoms=     26 NQM=       26 NQMF=       0 NMMI=      0 NMMIF=      0
                NMic=       0 NMicF=      0.
                    Isotopes and Nuclear Properties:
 (Nuclear quadrupole moments (NQMom) in fm**2, nuclear magnetic moments (NMagM)
  in nuclear magnetons)

  Atom         1           2           3           4           5           6           7           8           9          10
 IAtWgt=          16          32          14          12          14          16          12          12          12          12
 AtmWgt=  15.9949146  31.9720718  14.0030740  12.0000000  14.0030740  15.9949146  12.0000000  12.0000000  12.0000000  12.0000000
 NucSpn=           0           0           2           0           2           0           0           0           0           0
 AtZEff=  -0.0000000  -0.0000000  -0.0000000  -0.0000000  -0.0000000  -0.0000000  -0.0000000  -0.0000000  -0.0000000  -0.0000000
 NQMom=    0.0000000   0.0000000   2.0440000   0.0000000   2.0440000   0.0000000   0.0000000   0.0000000   0.0000000   0.0000000
 NMagM=    0.0000000   0.0000000   0.4037610   0.0000000   0.4037610   0.0000000   0.0000000   0.0000000   0.0000000   0.0000000
 AtZNuc=   8.0000000  16.0000000   7.0000000   6.0000000   7.0000000   8.0000000   6.0000000   6.0000000   6.0000000   6.0000000

  Atom        11          12          13          14          15          16          17          18          19          20
 IAtWgt=          12          12          12          12          12          16           1           1           1           1
 AtmWgt=  12.0000000  12.0000000  12.0000000  12.0000000  12.0000000  15.9949146   1.0078250   1.0078250   1.0078250   1.0078250
 NucSpn=           0           0           0           0           0           0           1           1           1           1
 AtZEff=  -0.0000000  -0.0000000  -0.0000000  -0.0000000  -0.0000000  -0.0000000  -0.0000000  -0.0000000  -0.0000000  -0.0000000
 NQMom=    0.0000000   0.0000000   0.0000000   0.0000000   0.0000000   0.0000000   0.0000000   0.0000000   0.0000000   0.0000000
 NMagM=    0.0000000   0.0000000   0.0000000   0.0000000   0.0000000   0.0000000   2.7928460   2.7928460   2.7928460   2.7928460
 AtZNuc=   6.0000000   6.0000000   6.0000000   6.0000000   6.0000000   8.0000000   1.0000000   1.0000000   1.0000000   1.0000000

  Atom        21          22          23          24          25          26
 IAtWgt=           1           1           1           1           1           1
 AtmWgt=   1.0078250   1.0078250   1.0078250   1.0078250   1.0078250   1.0078250
 NucSpn=           1           1           1           1           1           1
 AtZEff=  -0.0000000  -0.0000000  -0.0000000  -0.0000000  -0.0000000  -0.0000000
 NQMom=    0.0000000   0.0000000   0.0000000   0.0000000   0.0000000   0.0000000
 NMagM=    2.7928460   2.7928460   2.7928460   2.7928460   2.7928460   2.7928460
 AtZNuc=   1.0000000   1.0000000   1.0000000   1.0000000   1.0000000   1.0000000
 Leave Link  101 at Tue Sep 22 18:09:10 2020, MaxMem=  2147483648 cpu:               1.4 elap:               0.4
 (Enter /prod/apps/gaussian/g16b1/l103.exe)

 GradGradGradGradGradGradGradGradGradGradGradGradGradGradGradGradGradGrad
 Berny optimization.
 Initialization pass.
                           ----------------------------
                           !    Initial Parameters    !
                           ! (Angstroms and Degrees)  !
 --------------------------                            --------------------------
 ! Name  Definition              Value          Derivative Info.                !
 --------------------------------------------------------------------------------
 ! R1    R(1,2)                  1.4687         estimate D2E/DX2                !
 ! R2    R(2,3)                  1.7065         estimate D2E/DX2                !
 ! R3    R(2,15)                 1.7866         estimate D2E/DX2                !
 ! R4    R(2,16)                 1.4706         estimate D2E/DX2                !
 ! R5    R(3,4)                  1.4025         estimate D2E/DX2                !
 ! R6    R(3,17)                 1.0239         estimate D2E/DX2                !
 ! R7    R(4,5)                  1.3198         estimate D2E/DX2                !
 ! R8    R(4,14)                 1.42           estimate D2E/DX2                !
 ! R9    R(5,6)                  1.4022         estimate D2E/DX2                !
 ! R10   R(6,7)                  1.3554         estimate D2E/DX2                !
 ! R11   R(7,8)                  1.4604         estimate D2E/DX2                !
 ! R12   R(7,14)                 1.3666         estimate D2E/DX2                !
 ! R13   R(8,9)                  1.4045         estimate D2E/DX2                !
 ! R14   R(8,13)                 1.404          estimate D2E/DX2                !
 ! R15   R(9,10)                 1.3914         estimate D2E/DX2                !
 ! R16   R(9,18)                 1.0835         estimate D2E/DX2                !
 ! R17   R(10,11)                1.3987         estimate D2E/DX2                !
 ! R18   R(10,19)                1.0838         estimate D2E/DX2                !
 ! R19   R(11,12)                1.3966         estimate D2E/DX2                !
 ! R20   R(11,20)                1.0837         estimate D2E/DX2                !
 ! R21   R(12,13)                1.3927         estimate D2E/DX2                !
 ! R22   R(12,21)                1.0848         estimate D2E/DX2                !
 ! R23   R(13,22)                1.0833         estimate D2E/DX2                !
 ! R24   R(14,23)                1.0748         estimate D2E/DX2                !
 ! R25   R(15,24)                1.0885         estimate D2E/DX2                !
 ! R26   R(15,25)                1.0902         estimate D2E/DX2                !
 ! R27   R(15,26)                1.0902         estimate D2E/DX2                !
 ! A1    A(1,2,3)              106.6708         estimate D2E/DX2                !
 ! A2    A(1,2,15)             110.3746         estimate D2E/DX2                !
 ! A3    A(1,2,16)             118.3594         estimate D2E/DX2                !
 ! A4    A(3,2,15)              99.6393         estimate D2E/DX2                !
 ! A5    A(3,2,16)             111.0982         estimate D2E/DX2                !
 ! A6    A(15,2,16)            109.0691         estimate D2E/DX2                !
 ! A7    A(2,3,4)              120.182          estimate D2E/DX2                !
 ! A8    A(2,3,17)             110.8578         estimate D2E/DX2                !
 ! A9    A(4,3,17)             112.4008         estimate D2E/DX2                !
 ! A10   A(3,4,5)              118.5522         estimate D2E/DX2                !
 ! A11   A(3,4,14)             128.6636         estimate D2E/DX2                !
 ! A12   A(5,4,14)             112.6329         estimate D2E/DX2                !
 ! A13   A(4,5,6)              104.6864         estimate D2E/DX2                !
 ! A14   A(5,6,7)              109.5648         estimate D2E/DX2                !
 ! A15   A(6,7,8)              117.4446         estimate D2E/DX2                !
 ! A16   A(6,7,14)             109.4575         estimate D2E/DX2                !
 ! A17   A(8,7,14)             133.0954         estimate D2E/DX2                !
 ! A18   A(7,8,9)              119.9212         estimate D2E/DX2                !
 ! A19   A(7,8,13)             120.6278         estimate D2E/DX2                !
 ! A20   A(9,8,13)             119.451          estimate D2E/DX2                !
 ! A21   A(8,9,10)             120.1614         estimate D2E/DX2                !
 ! A22   A(8,9,18)             119.8188         estimate D2E/DX2                !
 ! A23   A(10,9,18)            120.0198         estimate D2E/DX2                !
 ! A24   A(9,10,11)            120.1976         estimate D2E/DX2                !
 ! A25   A(9,10,19)            119.6747         estimate D2E/DX2                !
 ! A26   A(11,10,19)           120.1276         estimate D2E/DX2                !
 ! A27   A(10,11,12)           119.8285         estimate D2E/DX2                !
 ! A28   A(10,11,20)           120.0458         estimate D2E/DX2                !
 ! A29   A(12,11,20)           120.1257         estimate D2E/DX2                !
 ! A30   A(11,12,13)           120.2553         estimate D2E/DX2                !
 ! A31   A(11,12,21)           120.1599         estimate D2E/DX2                !
 ! A32   A(13,12,21)           119.5847         estimate D2E/DX2                !
 ! A33   A(8,13,12)            120.1061         estimate D2E/DX2                !
 ! A34   A(8,13,22)            119.5506         estimate D2E/DX2                !
 ! A35   A(12,13,22)           120.3432         estimate D2E/DX2                !
 ! A36   A(4,14,7)             103.65           estimate D2E/DX2                !
 ! A37   A(4,14,23)            127.2373         estimate D2E/DX2                !
 ! A38   A(7,14,23)            129.1115         estimate D2E/DX2                !
 ! A39   A(2,15,24)            108.7568         estimate D2E/DX2                !
 ! A40   A(2,15,25)            109.0461         estimate D2E/DX2                !
 ! A41   A(2,15,26)            106.5524         estimate D2E/DX2                !
 ! A42   A(24,15,25)           111.2146         estimate D2E/DX2                !
 ! A43   A(24,15,26)           110.8874         estimate D2E/DX2                !
 ! A44   A(25,15,26)           110.244          estimate D2E/DX2                !
 ! D1    D(1,2,3,4)            -46.139          estimate D2E/DX2                !
 ! D2    D(1,2,3,17)           179.9642         estimate D2E/DX2                !
 ! D3    D(15,2,3,4)          -160.9419         estimate D2E/DX2                !
 ! D4    D(15,2,3,17)           65.1613         estimate D2E/DX2                !
 ! D5    D(16,2,3,4)            84.1775         estimate D2E/DX2                !
 ! D6    D(16,2,3,17)          -49.7193         estimate D2E/DX2                !
 ! D7    D(1,2,15,24)          -50.4622         estimate D2E/DX2                !
 ! D8    D(1,2,15,25)         -171.8969         estimate D2E/DX2                !
 ! D9    D(1,2,15,26)           69.1242         estimate D2E/DX2                !
 ! D10   D(3,2,15,24)           61.4681         estimate D2E/DX2                !
 ! D11   D(3,2,15,25)          -59.9665         estimate D2E/DX2                !
 ! D12   D(3,2,15,26)         -178.9455         estimate D2E/DX2                !
 ! D13   D(16,2,15,24)         177.8935         estimate D2E/DX2                !
 ! D14   D(16,2,15,25)          56.4589         estimate D2E/DX2                !
 ! D15   D(16,2,15,26)         -62.5201         estimate D2E/DX2                !
 ! D16   D(2,3,4,5)           -138.7702         estimate D2E/DX2                !
 ! D17   D(2,3,4,14)            46.0606         estimate D2E/DX2                !
 ! D18   D(17,3,4,5)            -5.5165         estimate D2E/DX2                !
 ! D19   D(17,3,4,14)          179.3143         estimate D2E/DX2                !
 ! D20   D(3,4,5,6)           -175.1077         estimate D2E/DX2                !
 ! D21   D(14,4,5,6)             0.807          estimate D2E/DX2                !
 ! D22   D(3,4,14,7)           175.0202         estimate D2E/DX2                !
 ! D23   D(3,4,14,23)           -4.6117         estimate D2E/DX2                !
 ! D24   D(5,4,14,7)            -0.383          estimate D2E/DX2                !
 ! D25   D(5,4,14,23)          179.9851         estimate D2E/DX2                !
 ! D26   D(4,5,6,7)             -0.9409         estimate D2E/DX2                !
 ! D27   D(5,6,7,8)           -179.7596         estimate D2E/DX2                !
 ! D28   D(5,6,7,14)             0.7402         estimate D2E/DX2                !
 ! D29   D(6,7,8,9)            177.1709         estimate D2E/DX2                !
 ! D30   D(6,7,8,13)            -2.8805         estimate D2E/DX2                !
 ! D31   D(14,7,8,9)            -3.4744         estimate D2E/DX2                !
 ! D32   D(14,7,8,13)          176.4742         estimate D2E/DX2                !
 ! D33   D(6,7,14,4)            -0.2366         estimate D2E/DX2                !
 ! D34   D(6,7,14,23)          179.3857         estimate D2E/DX2                !
 ! D35   D(8,7,14,4)          -179.6293         estimate D2E/DX2                !
 ! D36   D(8,7,14,23)           -0.0069         estimate D2E/DX2                !
 ! D37   D(7,8,9,10)           179.7951         estimate D2E/DX2                !
 ! D38   D(7,8,9,18)            -0.2045         estimate D2E/DX2                !
 ! D39   D(13,8,9,10)           -0.1542         estimate D2E/DX2                !
 ! D40   D(13,8,9,18)          179.8463         estimate D2E/DX2                !
 ! D41   D(7,8,13,12)         -179.8711         estimate D2E/DX2                !
 ! D42   D(7,8,13,22)            0.0543         estimate D2E/DX2                !
 ! D43   D(9,8,13,12)            0.0777         estimate D2E/DX2                !
 ! D44   D(9,8,13,22)         -179.9968         estimate D2E/DX2                !
 ! D45   D(8,9,10,11)            0.1318         estimate D2E/DX2                !
 ! D46   D(8,9,10,19)         -179.9748         estimate D2E/DX2                !
 ! D47   D(18,9,10,11)        -179.8687         estimate D2E/DX2                !
 ! D48   D(18,9,10,19)           0.0248         estimate D2E/DX2                !
 ! D49   D(9,10,11,12)          -0.032          estimate D2E/DX2                !
 ! D50   D(9,10,11,20)         179.9802         estimate D2E/DX2                !
 ! D51   D(19,10,11,12)       -179.9249         estimate D2E/DX2                !
 ! D52   D(19,10,11,20)          0.0873         estimate D2E/DX2                !
 ! D53   D(10,11,12,13)         -0.0447         estimate D2E/DX2                !
 ! D54   D(10,11,12,21)       -179.9195         estimate D2E/DX2                !
 ! D55   D(20,11,12,13)        179.9431         estimate D2E/DX2                !
 ! D56   D(20,11,12,21)          0.0682         estimate D2E/DX2                !
 ! D57   D(11,12,13,8)           0.0212         estimate D2E/DX2                !
 ! D58   D(11,12,13,22)       -179.9036         estimate D2E/DX2                !
 ! D59   D(21,12,13,8)         179.8968         estimate D2E/DX2                !
 ! D60   D(21,12,13,22)         -0.028          estimate D2E/DX2                !
 --------------------------------------------------------------------------------
 Trust Radius=3.00D-01 FncErr=1.00D-07 GrdErr=1.00D-06 EigMax=2.50D+02 EigMin=1.00D-04
 Number of steps in this run=    141 maximum allowed number of steps=    156.
 GradGradGradGradGradGradGradGradGradGradGradGradGradGradGradGradGradGrad

 Leave Link  103 at Tue Sep 22 18:09:10 2020, MaxMem=  2147483648 cpu:               0.0 elap:               0.0
 (Enter /prod/apps/gaussian/g16b1/l202.exe)
                          Input orientation:                          
 ---------------------------------------------------------------------
 Center     Atomic      Atomic             Coordinates (Angstroms)
 Number     Number       Type             X           Y           Z
 ---------------------------------------------------------------------
      1          8           0       -2.554000   -1.697000   -0.005000
      2         16           0       -3.301000   -0.450000    0.205000
      3          7           0       -2.377000    0.799000   -0.501000
      4          6           0       -0.997000    0.876000   -0.263000
      5          7           0       -0.459000    2.062000   -0.049000
      6          8           0        0.919000    1.817000    0.037000
      7          6           0        1.154000    0.490000   -0.108000
      8          6           0        2.542000    0.041000   -0.041000
      9          6           0        2.840000   -1.329000   -0.125000
     10          6           0        4.161000   -1.762000   -0.066000
     11          6           0        5.199000   -0.836000    0.080000
     12          6           0        4.907000    0.527000    0.166000
     13          6           0        3.587000    0.967000    0.106000
     14          6           0       -0.030000   -0.163000   -0.306000
     15          6           0       -4.736000   -0.398000   -0.858000
     16          8           0       -3.705000   -0.100000    1.575000
     17          1           0       -2.843000    1.704000   -0.391000
     18          1           0        2.038000   -2.049000   -0.236000
     19          1           0        4.382000   -2.821000   -0.132000
     20          1           0        6.227000   -1.176000    0.126000
     21          1           0        5.708000    1.250000    0.278000
     22          1           0        3.359000    2.024000    0.171000
     23          1           0       -0.208000   -1.211000   -0.465000
     24          1           0       -4.425000   -0.621000   -1.877000
     25          1           0       -5.192000    0.590000   -0.792000
     26          1           0       -5.425000   -1.157000   -0.487000
 ---------------------------------------------------------------------
                    Distance matrix (angstroms):
                    1          2          3          4          5
     1  O    0.000000
     2  S    1.468713   0.000000
     3  N    2.550953   1.706521   0.000000
     4  C    3.018467   2.699207   1.402488   0.000000
     5  N    4.303608   3.801529   2.340555   1.319786   0.000000
     6  O    4.940819   4.793320   3.491330   2.155583   1.402250
     7  C    4.306140   4.563835   3.566215   2.190850   2.253094
     8  C    5.384344   5.868752   4.998272   3.642942   3.618080
     9  C    5.407870   6.212360   5.646844   4.427600   4.731602
    10  C    6.715592   7.581308   7.035154   5.796794   5.997305
    11  C    7.801125   8.509678   7.772166   6.437314   6.358302
    12  C    7.787293   8.266034   7.319531   5.929845   5.585374
    13  C    6.694856   7.032939   5.997163   4.599728   4.194421
    14  C    2.968894   3.323091   2.543989   1.420021   2.280508
    15  C    2.678831   1.786588   2.669296   3.994649   4.999881
    16  O    2.524205   1.470584   2.623273   3.415272   4.224705
    17  H    3.435014   2.281380   1.023856   2.027236   2.434868
    18  H    4.611261   5.590725   5.260566   4.215161   4.813554
    19  H    7.027631   8.047590   7.676239   6.528293   6.876471
    20  H    8.797418   9.555946   8.850004   7.519854   7.430872
    21  H    8.776420   9.168283   8.134953   6.737179   6.228817
    22  H    6.988590   7.104747   5.903720   4.525593   3.824522
    23  H    2.439572   3.254945   2.957356   2.240289   3.308865
    24  H    2.857062   2.372202   2.846767   4.073965   5.125352
    25  H    3.578936   2.377286   2.837708   4.237884   5.011998
    26  H    2.960839   2.343094   3.621662   4.877545   5.934219
                    6          7          8          9         10
     6  O    0.000000
     7  C    1.355426   0.000000
     8  C    2.407154   1.460354   0.000000
     9  C    3.689688   2.480251   1.404550   0.000000
    10  C    4.830157   3.757036   2.423344   1.391406   0.000000
    11  C    5.035738   4.260944   2.800610   2.418668   1.398655
    12  C    4.193434   3.763171   2.423277   2.793189   2.418649
    13  C    2.800979   2.488537   1.403962   2.425487   2.794012
    14  C    2.222307   1.366554   2.593651   3.103098   4.492091
    15  C    6.138915   6.003594   7.336859   7.668104   9.035727
    16  O    5.236574   5.175951   6.454173   6.872952   8.205430
    17  H    3.787954   4.186872   5.646795   6.447196   7.821432
    18  H    4.033937   2.691535   2.158736   1.083478   2.149046
    19  H    5.790680   4.624206   3.403663   2.145665   1.083826
    20  H    6.094328   5.344683   3.884354   3.399732   2.156065
    21  H    4.828467   4.633089   3.403968   3.878024   3.403482
    22  H    2.452428   2.700560   2.155162   3.405816   3.877263
    23  H    3.269697   2.208143   3.051193   3.069174   4.421647
    24  H    6.177829   5.957258   7.235208   7.506730   8.848785
    25  H    6.287853   6.383539   7.789747   8.284955   9.671483
    26  H    7.026065   6.792606   8.068904   8.274712   9.614295
                   11         12         13         14         15
    11  C    0.000000
    12  C    1.396578   0.000000
    13  C    2.418683   1.392695   0.000000
    14  C    5.286243   5.007280   3.811736   0.000000
    15  C    9.988789   9.741235   8.489102   4.744087   0.000000
    16  O    9.058584   8.748997   7.514633   4.128893   2.659183
    17  H    8.446727   7.858631   6.491154   3.377260   2.867044
    18  H    3.400463   3.876666   3.407730   2.799736   6.999983
    19  H    2.157002   3.401990   3.877836   5.153735   9.462343
    20  H    1.083744   2.155043   3.400360   6.353176  11.034533
    21  H    2.156312   1.084838   2.146698   5.938204  10.634074
    22  H    3.401982   2.153448   1.083263   4.061505   8.511989
    23  H    5.447320   5.438936   4.412681   1.074834   4.617164
    24  H    9.823312   9.621745   8.405128   4.689758   1.088490
    25  H   10.524578  10.144532   8.832858   5.239222   1.090154
    26  H   10.643961  10.488684   9.277886   5.488791   1.090157
                   16         17         18         19         20
    16  O    0.000000
    17  H    2.804036   0.000000
    18  H    6.329326   6.158993   0.000000
    19  H    8.701566   8.528970   2.470048   0.000000
    20  H   10.094652   9.530298   4.294286   2.485279   0.000000
    21  H    9.597358   8.589137   4.961501   4.301095   2.485546
    22  H    7.508841   6.235627   4.301165   4.961085   4.297377
    23  H    4.198206   3.930131   2.408153   4.875560   6.462177
    24  H    3.564568   3.180652   6.819269   9.243824  10.852886
    25  H    2.879229   2.630513   7.716629  10.184891  11.591162
    26  H    2.885740   3.855031   7.520308   9.953500  11.668129
                   21         22         23         24         25
    21  H    0.000000
    22  H    2.475546   0.000000
    23  H    6.450397   4.857284   0.000000
    24  H   10.527220   8.472366   4.486082   0.000000
    25  H   10.972260   8.723722   5.309500   1.797786   0.000000
    26  H   11.415891   9.365382   5.217326   1.794268   1.788665
                   26
    26  H    0.000000
 Symmetry turned off by external request.
 Stoichiometry    C10H10N2O3S
 Framework group  C1[X(C10H10N2O3S)]
 Deg. of freedom    72
 Full point group                 C1      NOp   1
 Rotational constants (GHZ):           1.4173027           0.2048129           0.1870449
 Leave Link  202 at Tue Sep 22 18:09:10 2020, MaxMem=  2147483648 cpu:               0.1 elap:               0.0
 (Enter /prod/apps/gaussian/g16b1/l301.exe)
 Standard basis: 6-31G(d) (6D, 7F)
 Ernie: Thresh=  0.10000D-02 Tol=  0.10000D-05 Strict=F.
   264 basis functions,   512 primitive gaussians,   264 cartesian basis functions
    62 alpha electrons       62 beta electrons
       nuclear repulsion energy      1175.7464238644 Hartrees.
 IExCor=  402 DFT=T Ex+Corr=B3LYP ExCW=0 ScaHFX=  0.200000
 ScaDFX=  0.800000  0.720000  1.000000  0.810000 ScalE2=  1.000000  1.000000
 IRadAn=      5 IRanWt=     -1 IRanGd=            0 ICorTp=0 IEmpDi=  4
 NAtoms=   26 NActive=   26 NUniq=   26 SFac= 1.00D+00 NAtFMM=   60 NAOKFM=F Big=F
 Integral buffers will be    131072 words long.
 Raffenetti 2 integral format.
 Two-electron integral symmetry is turned off.
 Using the following non-standard input for PCM:
 MSTModel=DFT cav
 --- end of non-standard input.
 MST model for solvation energy: B3LYP parametrization.
 MST cavity parameters:
 ISph   IAn     Re0     Alpha   Atom Type   QCorr
 ------------------------------------------------
   1      8     1.40     1.25      O          F
   2     16     1.75     1.25      S          F
   3      7     1.50     1.25      NH         F
   4      6     1.50     1.25      C          F
   5      7     1.40     1.25      N          F
   6      8     1.40     1.25      O          F
   7      6     1.50     1.25      C          F
   8      6     1.50     1.25      C          F
   9      6     1.50     1.25      CH         F
  10      6     1.50     1.25      CH         F
  11      6     1.50     1.25      CH         F
  12      6     1.50     1.25      CH         F
  13      6     1.50     1.25      CH         F
  14      6     1.50     1.25      CH         F
  15      6     1.50     1.25      CH3        F
  16      8     1.40     1.25      O          F
  17      1     0.90     1.25      NH         F
  18      1     1.20     1.25      CH         F
  19      1     1.20     1.25      CH         F
  20      1     1.20     1.25      CH         F
  21      1     1.20     1.25      CH         F
  22      1     1.20     1.25      CH         F
  23      1     1.20     1.25      CH         F
  24      1     1.20     1.25      CH3        F
  25      1     1.20     1.25      CH3        F
  26      1     1.20     1.25      CH3        F
 ------------------------------------------------------------------------------
 Polarizable Continuum Model (PCM)
 =================================
 Model                : PCM.
 Atomic radii         : MST.
 Polarization charges : Total charges.
 Charge compensation  : None.
 Solution method      : On-the-fly selection.
 Cavity type          : Scaled VdW (van der Waals Surface) (Alpha=1.250).
 Cavity algorithm     : GePol (No added spheres)
                        Default sphere list used, NSphG=   26.
                        Lebedev-Laikov grids with approx.  5.0 points / Ang**2.
                        Smoothing algorithm: York/Karplus (Gamma=1.0000).
                        Polarization charges: spherical gaussians, with
                                              point-specific exponents (IZeta= 3).
                        Self-potential: point-specific (ISelfS= 7).
                        Self-field    : sphere-specific E.n sum rule (ISelfD= 2).
 1st derivatives      : Analytical E(r).r(x)/FMM algorithm (CHGder, D1EAlg=3).
                        Cavity 1st derivative terms included.
 Solvent              : Water, Eps=  78.355300 Eps(inf)=   1.777849
 ------------------------------------------------------------------------------
 GePol: Number of generator spheres                  =      26
 GePol: Total number of spheres                      =      26
 GePol: Number of exposed spheres                    =      26 (100.00%)
 GePol: Number of points                             =    2092
 GePol: Average weight of points                     =       0.13
 GePol: Minimum weight of points                     =   0.18D-10
 GePol: Maximum weight of points                     =    0.22001
 GePol: Number of points with low weight             =     117
 GePol: Fraction of low-weight points (<1% of avg)   =       5.59%
 GePol: Cavity surface area                          =    272.370 Ang**2
 GePol: Cavity volume                                =    254.306 Ang**3
 PCM non-electrostatic energy =         0.0027966299 Hartrees.
 Nuclear repulsion after PCM non-electrostatic terms =     1175.7492204943 Hartrees.
 Leave Link  301 at Tue Sep 22 18:09:10 2020, MaxMem=  2147483648 cpu:               0.3 elap:               0.1
 (Enter /prod/apps/gaussian/g16b1/l302.exe)
 NPDir=0 NMtPBC=     1 NCelOv=     1 NCel=       1 NClECP=     1 NCelD=      1
         NCelK=      1 NCelE2=     1 NClLst=     1 CellRange=     0.0.
 One-electron integrals computed using PRISM.
 NBasis=   264 RedAO= T EigKep=  4.59D-04  NBF=   264
 NBsUse=   264 1.00D-06 EigRej= -1.00D+00 NBFU=   264
 Precomputing XC quadrature grid using
 IXCGrd= 4 IRadAn=           5 IRanWt=          -1 IRanGd=           0 AccXCQ= 0.00D+00.
 Generated NRdTot=       0 NPtTot=           0 NUsed=           0 NTot=          32
 NSgBfM=   263   263   263   263   263 MxSgAt=    26 MxSgA2=    26.
 Leave Link  302 at Tue Sep 22 18:09:11 2020, MaxMem=  2147483648 cpu:               1.1 elap:               0.3
 (Enter /prod/apps/gaussian/g16b1/l303.exe)
 DipDrv:  MaxL=1.
 Leave Link  303 at Tue Sep 22 18:09:11 2020, MaxMem=  2147483648 cpu:               0.1 elap:               0.1
 (Enter /prod/apps/gaussian/g16b1/l401.exe)
 ExpMin= 1.17D-01 ExpMax= 2.19D+04 ExpMxC= 3.30D+03 IAcc=3 IRadAn=         5 AccDes= 0.00D+00
 Harris functional with IExCor=  402 and IRadAn=       5 diagonalized for initial guess.
 HarFok:  IExCor=  402 AccDes= 0.00D+00 IRadAn=         5 IDoV= 1 UseB2=F ITyADJ=14
 ICtDFT=  3500011 ScaDFX=  1.000000  1.000000  1.000000  1.000000
 FoFCou: FMM=F IPFlag=           0 FMFlag=      100000 FMFlg1=           0
         NFxFlg=           0 DoJE=T BraDBF=F KetDBF=T FulRan=T
         wScrn=  0.000000 ICntrl=       500 IOpCl=  0 I1Cent=   200000004 NGrid=           0
         NMat0=    1 NMatS0=      1 NMatT0=    0 NMatD0=    1 NMtDS0=    0 NMtDT0=    0
 Symmetry not used in FoFCou.
 Harris En= -1120.37084804284    
 JPrj=0 DoOrth=F DoCkMO=F.
 Leave Link  401 at Tue Sep 22 18:09:12 2020, MaxMem=  2147483648 cpu:               5.9 elap:               1.5
 (Enter /prod/apps/gaussian/g16b1/l502.exe)
 Keep R1 ints in memory in canonical form, NReq=621123487.
 FoFCou: FMM=F IPFlag=           0 FMFlag=           0 FMFlg1=           0
         NFxFlg=           0 DoJE=F BraDBF=F KetDBF=F FulRan=T
         wScrn=  0.000000 ICntrl=       600 IOpCl=  0 I1Cent=           0 NGrid=           0
         NMat0=    1 NMatS0=  34980 NMatT0=    0 NMatD0=    1 NMtDS0=    0 NMtDT0=    0
 Symmetry not used in FoFCou.
 Two-electron integral symmetry not used.
 Closed shell SCF:
 Using DIIS extrapolation, IDIIS=  1040.
 NGot=  2147483648 LenX=  1535522690 LenY=  1535452553
 Requested convergence on RMS density matrix=1.00D-08 within2000 cycles.
 Requested convergence on MAX density matrix=1.00D-06.
 Requested convergence on             energy=1.00D-06.
 No special actions if energy rises.

 Cycle   1  Pass 1  IDiag  1:
 Inv3:  Mode=1 IEnd=    13129392.
 Iteration    1 A*A^-1 deviation from unit magnitude is 2.66D-15 for    727.
 Iteration    1 A*A^-1 deviation from orthogonality  is 1.83D-15 for    856    727.
 Iteration    1 A^-1*A deviation from unit magnitude is 2.78D-15 for    930.
 Iteration    1 A^-1*A deviation from orthogonality  is 1.41D-15 for   1122    481.
 E= -1119.87588631351    
 DIIS: error= 4.06D-02 at cycle   1 NSaved=   1.
 NSaved= 1 IEnMin= 1 EnMin= -1119.87588631351     IErMin= 1 ErrMin= 4.06D-02
 ErrMax= 4.06D-02  0.00D+00 EMaxC= 1.00D-01 BMatC= 5.59D-01 BMatP= 5.59D-01
 IDIUse=3 WtCom= 5.94D-01 WtEn= 4.06D-01
 Coeff-Com:  0.100D+01
 Coeff-En:   0.100D+01
 Coeff:      0.100D+01
 Gap=     0.259 Goal=   None    Shift=    0.000
 GapD=    0.259 DampG=1.000 DampE=0.500 DampFc=0.5000 IDamp=-1.
 Damping current iteration by 5.00D-01
 RMSDP=6.71D-03 MaxDP=5.57D-01              OVMax= 1.98D-01

 Cycle   2  Pass 1  IDiag  1:
 E= -1120.02260210476     Delta-E=       -0.146715791248 Rises=F Damp=T
 DIIS: error= 1.29D-02 at cycle   2 NSaved=   2.
 NSaved= 2 IEnMin= 2 EnMin= -1120.02260210476     IErMin= 2 ErrMin= 1.29D-02
 ErrMax= 1.29D-02  0.00D+00 EMaxC= 1.00D-01 BMatC= 6.94D-02 BMatP= 5.59D-01
 IDIUse=3 WtCom= 8.71D-01 WtEn= 1.29D-01
 Coeff-Com:  0.196D+00 0.804D+00
 Coeff-En:   0.317D+00 0.683D+00
 Coeff:      0.212D+00 0.788D+00
 Gap=     0.205 Goal=   None    Shift=    0.000
 RMSDP=1.87D-03 MaxDP=1.16D-01 DE=-1.47D-01 OVMax= 1.73D-01

 Cycle   3  Pass 1  IDiag  1:
 E= -1120.32313490320     Delta-E=       -0.300532798437 Rises=F Damp=F
 DIIS: error= 8.51D-03 at cycle   3 NSaved=   3.
 NSaved= 3 IEnMin= 3 EnMin= -1120.32313490320     IErMin= 3 ErrMin= 8.51D-03
 ErrMax= 8.51D-03  0.00D+00 EMaxC= 1.00D-01 BMatC= 4.02D-02 BMatP= 6.94D-02
 IDIUse=3 WtCom= 9.15D-01 WtEn= 8.51D-02
 Coeff-Com:  0.538D-01 0.432D+00 0.514D+00
 Coeff-En:   0.000D+00 0.000D+00 0.100D+01
 Coeff:      0.492D-01 0.395D+00 0.555D+00
 Gap=     0.184 Goal=   None    Shift=    0.000
 RMSDP=9.35D-04 MaxDP=3.45D-02 DE=-3.01D-01 OVMax= 5.29D-02

 Cycle   4  Pass 1  IDiag  1:
 E= -1120.35296469550     Delta-E=       -0.029829792299 Rises=F Damp=F
 DIIS: error= 3.13D-03 at cycle   4 NSaved=   4.
 NSaved= 4 IEnMin= 4 EnMin= -1120.35296469550     IErMin= 4 ErrMin= 3.13D-03
 ErrMax= 3.13D-03  0.00D+00 EMaxC= 1.00D-01 BMatC= 5.30D-03 BMatP= 4.02D-02
 IDIUse=3 WtCom= 9.69D-01 WtEn= 3.13D-02
 Coeff-Com:  0.526D-03 0.918D-01 0.288D+00 0.619D+00
 Coeff-En:   0.000D+00 0.000D+00 0.900D-01 0.910D+00
 Coeff:      0.509D-03 0.889D-01 0.282D+00 0.628D+00
 Gap=     0.183 Goal=   None    Shift=    0.000
 RMSDP=3.04D-04 MaxDP=1.58D-02 DE=-2.98D-02 OVMax= 1.37D-02

 Cycle   5  Pass 1  IDiag  1:
 E= -1120.35692080795     Delta-E=       -0.003956112458 Rises=F Damp=F
 DIIS: error= 8.83D-04 at cycle   5 NSaved=   5.
 NSaved= 5 IEnMin= 5 EnMin= -1120.35692080795     IErMin= 5 ErrMin= 8.83D-04
 ErrMax= 8.83D-04  0.00D+00 EMaxC= 1.00D-01 BMatC= 5.88D-04 BMatP= 5.30D-03
 IDIUse=3 WtCom= 9.91D-01 WtEn= 8.83D-03
 Coeff-Com: -0.388D-02 0.210D-01 0.119D+00 0.355D+00 0.509D+00
 Coeff-En:   0.000D+00 0.000D+00 0.000D+00 0.305D-01 0.969D+00
 Coeff:     -0.385D-02 0.208D-01 0.118D+00 0.353D+00 0.513D+00
 Gap=     0.183 Goal=   None    Shift=    0.000
 RMSDP=1.12D-04 MaxDP=5.62D-03 DE=-3.96D-03 OVMax= 7.92D-03

 Cycle   6  Pass 1  IDiag  1:
 E= -1120.35737906556     Delta-E=       -0.000458257603 Rises=F Damp=F
 DIIS: error= 3.50D-04 at cycle   6 NSaved=   6.
 NSaved= 6 IEnMin= 6 EnMin= -1120.35737906556     IErMin= 6 ErrMin= 3.50D-04
 ErrMax= 3.50D-04  0.00D+00 EMaxC= 1.00D-01 BMatC= 6.55D-05 BMatP= 5.88D-04
 IDIUse=3 WtCom= 9.97D-01 WtEn= 3.50D-03
 Coeff-Com: -0.228D-02 0.480D-02 0.424D-01 0.147D+00 0.308D+00 0.499D+00
 Coeff-En:   0.000D+00 0.000D+00 0.000D+00 0.000D+00 0.581D-01 0.942D+00
 Coeff:     -0.227D-02 0.478D-02 0.423D-01 0.147D+00 0.308D+00 0.501D+00
 Gap=     0.183 Goal=   None    Shift=    0.000
 RMSDP=3.31D-05 MaxDP=1.53D-03 DE=-4.58D-04 OVMax= 2.25D-03

 Cycle   7  Pass 1  IDiag  1:
 E= -1120.35743484552     Delta-E=       -0.000055779961 Rises=F Damp=F
 DIIS: error= 7.44D-05 at cycle   7 NSaved=   7.
 NSaved= 7 IEnMin= 7 EnMin= -1120.35743484552     IErMin= 7 ErrMin= 7.44D-05
 ErrMax= 7.44D-05  0.00D+00 EMaxC= 1.00D-01 BMatC= 3.64D-06 BMatP= 6.55D-05
 IDIUse=1 WtCom= 1.00D+00 WtEn= 0.00D+00
 Coeff-Com: -0.958D-03 0.643D-03 0.122D-01 0.465D-01 0.117D+00 0.266D+00
 Coeff-Com:  0.558D+00
 Coeff:     -0.958D-03 0.643D-03 0.122D-01 0.465D-01 0.117D+00 0.266D+00
 Coeff:      0.558D+00
 Gap=     0.183 Goal=   None    Shift=    0.000
 RMSDP=7.56D-06 MaxDP=3.12D-04 DE=-5.58D-05 OVMax= 4.30D-04

 Cycle   8  Pass 1  IDiag  1:
 E= -1120.35743773471     Delta-E=       -0.000002889193 Rises=F Damp=F
 DIIS: error= 1.87D-05 at cycle   8 NSaved=   8.
 NSaved= 8 IEnMin= 8 EnMin= -1120.35743773471     IErMin= 8 ErrMin= 1.87D-05
 ErrMax= 1.87D-05  0.00D+00 EMaxC= 1.00D-01 BMatC= 3.23D-07 BMatP= 3.64D-06
 IDIUse=1 WtCom= 1.00D+00 WtEn= 0.00D+00
 Coeff-Com: -0.278D-03-0.103D-03 0.218D-02 0.977D-02 0.316D-01 0.947D-01
 Coeff-Com:  0.286D+00 0.576D+00
 Coeff:     -0.278D-03-0.103D-03 0.218D-02 0.977D-02 0.316D-01 0.947D-01
 Coeff:      0.286D+00 0.576D+00
 Gap=     0.183 Goal=   None    Shift=    0.000
 RMSDP=2.48D-06 MaxDP=1.14D-04 DE=-2.89D-06 OVMax= 1.24D-04

 Cycle   9  Pass 1  IDiag  1:
 E= -1120.35743798706     Delta-E=       -0.000000252350 Rises=F Damp=F
 DIIS: error= 6.77D-06 at cycle   9 NSaved=   9.
 NSaved= 9 IEnMin= 9 EnMin= -1120.35743798706     IErMin= 9 ErrMin= 6.77D-06
 ErrMax= 6.77D-06  0.00D+00 EMaxC= 1.00D-01 BMatC= 3.44D-08 BMatP= 3.23D-07
 IDIUse=1 WtCom= 1.00D+00 WtEn= 0.00D+00
 Coeff-Com: -0.235D-04-0.123D-03-0.459D-03-0.110D-02 0.501D-03 0.135D-01
 Coeff-Com:  0.662D-01 0.290D+00 0.632D+00
 Coeff:     -0.235D-04-0.123D-03-0.459D-03-0.110D-02 0.501D-03 0.135D-01
 Coeff:      0.662D-01 0.290D+00 0.632D+00
 Gap=     0.183 Goal=   None    Shift=    0.000
 RMSDP=7.39D-07 MaxDP=2.45D-05 DE=-2.52D-07 OVMax= 3.83D-05

 Cycle  10  Pass 1  IDiag  1:
 E= -1120.35743801442     Delta-E=       -0.000000027359 Rises=F Damp=F
 DIIS: error= 2.35D-06 at cycle  10 NSaved=  10.
 NSaved=10 IEnMin=10 EnMin= -1120.35743801442     IErMin=10 ErrMin= 2.35D-06
 ErrMax= 2.35D-06  0.00D+00 EMaxC= 1.00D-01 BMatC= 2.36D-09 BMatP= 3.44D-08
 IDIUse=1 WtCom= 1.00D+00 WtEn= 0.00D+00
 Coeff-Com: -0.147D-05-0.493D-04-0.330D-03-0.998D-03-0.125D-02 0.268D-02
 Coeff-Com:  0.200D-01 0.123D+00 0.321D+00 0.536D+00
 Coeff:     -0.147D-05-0.493D-04-0.330D-03-0.998D-03-0.125D-02 0.268D-02
 Coeff:      0.200D-01 0.123D+00 0.321D+00 0.536D+00
 Gap=     0.183 Goal=   None    Shift=    0.000
 RMSDP=2.17D-07 MaxDP=1.32D-05 DE=-2.74D-08 OVMax= 1.52D-05

 Cycle  11  Pass 1  IDiag  1:
 E= -1120.35743801623     Delta-E=       -0.000000001814 Rises=F Damp=F
 DIIS: error= 6.32D-07 at cycle  11 NSaved=  11.
 NSaved=11 IEnMin=11 EnMin= -1120.35743801623     IErMin=11 ErrMin= 6.32D-07
 ErrMax= 6.32D-07  0.00D+00 EMaxC= 1.00D-01 BMatC= 3.41D-10 BMatP= 2.36D-09
 IDIUse=1 WtCom= 1.00D+00 WtEn= 0.00D+00
 Coeff-Com:  0.171D-05-0.471D-05-0.111D-03-0.367D-03-0.799D-03-0.610D-03
 Coeff-Com:  0.198D-03 0.226D-01 0.716D-01 0.294D+00 0.613D+00
 Coeff:      0.171D-05-0.471D-05-0.111D-03-0.367D-03-0.799D-03-0.610D-03
 Coeff:      0.198D-03 0.226D-01 0.716D-01 0.294D+00 0.613D+00
 Gap=     0.183 Goal=   None    Shift=    0.000
 RMSDP=7.55D-08 MaxDP=4.19D-06 DE=-1.81D-09 OVMax= 5.61D-06

 Cycle  12  Pass 1  IDiag  1:
 E= -1120.35743801649     Delta-E=       -0.000000000256 Rises=F Damp=F
 DIIS: error= 3.17D-07 at cycle  12 NSaved=  12.
 NSaved=12 IEnMin=12 EnMin= -1120.35743801649     IErMin=12 ErrMin= 3.17D-07
 ErrMax= 3.17D-07  0.00D+00 EMaxC= 1.00D-01 BMatC= 3.82D-11 BMatP= 3.41D-10
 IDIUse=1 WtCom= 1.00D+00 WtEn= 0.00D+00
 Coeff-Com:  0.101D-05 0.190D-05-0.376D-04-0.127D-03-0.373D-03-0.641D-03
 Coeff-Com: -0.195D-02 0.109D-02 0.891D-02 0.113D+00 0.335D+00 0.545D+00
 Coeff:      0.101D-05 0.190D-05-0.376D-04-0.127D-03-0.373D-03-0.641D-03
 Coeff:     -0.195D-02 0.109D-02 0.891D-02 0.113D+00 0.335D+00 0.545D+00
 Gap=     0.183 Goal=   None    Shift=    0.000
 RMSDP=2.91D-08 MaxDP=1.29D-06 DE=-2.56D-10 OVMax= 2.27D-06

 Cycle  13  Pass 1  IDiag  1:
 E= -1120.35743801653     Delta-E=       -0.000000000043 Rises=F Damp=F
 DIIS: error= 1.39D-07 at cycle  13 NSaved=  13.
 NSaved=13 IEnMin=13 EnMin= -1120.35743801653     IErMin=13 ErrMin= 1.39D-07
 ErrMax= 1.39D-07  0.00D+00 EMaxC= 1.00D-01 BMatC= 4.10D-12 BMatP= 3.82D-11
 IDIUse=1 WtCom= 1.00D+00 WtEn= 0.00D+00
 Coeff-Com:  0.248D-06 0.148D-05-0.758D-05-0.243D-04-0.108D-03-0.262D-03
 Coeff-Com: -0.109D-02-0.197D-02-0.379D-02 0.263D-01 0.103D+00 0.296D+00
 Coeff-Com:  0.582D+00
 Coeff:      0.248D-06 0.148D-05-0.758D-05-0.243D-04-0.108D-03-0.262D-03
 Coeff:     -0.109D-02-0.197D-02-0.379D-02 0.263D-01 0.103D+00 0.296D+00
 Coeff:      0.582D+00
 Gap=     0.183 Goal=   None    Shift=    0.000
 RMSDP=9.82D-09 MaxDP=4.01D-07 DE=-4.27D-11 OVMax= 6.76D-07

 Error on total polarization charges =  0.01969
 SCF Done:  E(RB3LYP) =  -1120.35743802     A.U. after   13 cycles
            NFock= 13  Conv=0.98D-08     -V/T= 2.0073
 KE= 1.112199776531D+03 PE=-4.979133538120D+03 EE= 1.570827103078D+03
 Leave Link  502 at Tue Sep 22 18:09:56 2020, MaxMem=  2147483648 cpu:             143.7 elap:              44.1
 (Enter /prod/apps/gaussian/g16b1/l601.exe)
 Copying SCF densities to generalized density rwf, IOpCl= 0 IROHF=0.

 **********************************************************************

            Population analysis using the SCF Density.

 **********************************************************************

 Alpha  occ. eigenvalues --  -89.13284 -19.24181 -19.16190 -19.16099 -14.39129
 Alpha  occ. eigenvalues --  -14.38475 -10.27838 -10.26993 -10.22842 -10.21640
 Alpha  occ. eigenvalues --  -10.20205 -10.20074 -10.20040 -10.19860 -10.19761
 Alpha  occ. eigenvalues --  -10.19735  -8.15860  -6.12391  -6.12268  -6.12117
 Alpha  occ. eigenvalues --   -1.14752  -1.12782  -1.01641  -0.96451  -0.87547
 Alpha  occ. eigenvalues --   -0.85510  -0.81173  -0.78164  -0.75457  -0.75245
 Alpha  occ. eigenvalues --   -0.66444  -0.64296  -0.61987  -0.59730  -0.59222
 Alpha  occ. eigenvalues --   -0.54814  -0.53704  -0.50492  -0.49760  -0.49153
 Alpha  occ. eigenvalues --   -0.47873  -0.47520  -0.46141  -0.44824  -0.44023
 Alpha  occ. eigenvalues --   -0.43711  -0.43173  -0.42389  -0.40302  -0.38417
 Alpha  occ. eigenvalues --   -0.37274  -0.36221  -0.36083  -0.35024  -0.33456
 Alpha  occ. eigenvalues --   -0.32791  -0.32398  -0.31691  -0.29925  -0.26393
 Alpha  occ. eigenvalues --   -0.25985  -0.23575
 Alpha virt. eigenvalues --   -0.05238  -0.00983   0.01458   0.04718   0.05865
 Alpha virt. eigenvalues --    0.06947   0.08599   0.09424   0.09605   0.10317
 Alpha virt. eigenvalues --    0.11885   0.13124   0.14039   0.15330   0.15500
 Alpha virt. eigenvalues --    0.16796   0.16975   0.17129   0.17861   0.19449
 Alpha virt. eigenvalues --    0.23838   0.24229   0.27312   0.28122   0.30056
 Alpha virt. eigenvalues --    0.31866   0.32756   0.33923   0.36230   0.37547
 Alpha virt. eigenvalues --    0.42074   0.42555   0.43915   0.45676   0.46883
 Alpha virt. eigenvalues --    0.49078   0.50142   0.51911   0.52256   0.53188
 Alpha virt. eigenvalues --    0.53466   0.54951   0.55708   0.57726   0.58169
 Alpha virt. eigenvalues --    0.58725   0.58912   0.60630   0.61152   0.61574
 Alpha virt. eigenvalues --    0.62357   0.63759   0.64452   0.65079   0.66761
 Alpha virt. eigenvalues --    0.67566   0.68936   0.70658   0.71629   0.73632
 Alpha virt. eigenvalues --    0.75681   0.76244   0.77850   0.78979   0.80129
 Alpha virt. eigenvalues --    0.80644   0.81864   0.83097   0.83662   0.84994
 Alpha virt. eigenvalues --    0.85683   0.86515   0.87219   0.88344   0.89091
 Alpha virt. eigenvalues --    0.90132   0.91019   0.92163   0.94150   0.95229
 Alpha virt. eigenvalues --    0.96289   0.97564   0.98048   1.00099   1.01629
 Alpha virt. eigenvalues --    1.03090   1.03286   1.05032   1.08124   1.09625
 Alpha virt. eigenvalues --    1.10555   1.13569   1.15579   1.17341   1.18279
 Alpha virt. eigenvalues --    1.19064   1.20808   1.24258   1.25526   1.26465
 Alpha virt. eigenvalues --    1.26785   1.29638   1.31382   1.35055   1.35790
 Alpha virt. eigenvalues --    1.37400   1.39756   1.41935   1.42677   1.45134
 Alpha virt. eigenvalues --    1.46365   1.47173   1.48257   1.49680   1.50127
 Alpha virt. eigenvalues --    1.52950   1.54090   1.56885   1.61944   1.64464
 Alpha virt. eigenvalues --    1.68396   1.70347   1.72013   1.76562   1.78418
 Alpha virt. eigenvalues --    1.78475   1.79387   1.79810   1.81378   1.83256
 Alpha virt. eigenvalues --    1.83922   1.86316   1.88879   1.90649   1.92479
 Alpha virt. eigenvalues --    1.94734   1.96902   1.97977   2.00214   2.02836
 Alpha virt. eigenvalues --    2.04674   2.05363   2.06620   2.10341   2.10599
 Alpha virt. eigenvalues --    2.12510   2.13331   2.13812   2.14214   2.15722
 Alpha virt. eigenvalues --    2.17628   2.18821   2.21244   2.22343   2.24233
 Alpha virt. eigenvalues --    2.25774   2.27832   2.29216   2.30057   2.31357
 Alpha virt. eigenvalues --    2.32496   2.33768   2.43186   2.50467   2.52245
 Alpha virt. eigenvalues --    2.53906   2.56841   2.57929   2.58835   2.62170
 Alpha virt. eigenvalues --    2.66020   2.66647   2.68737   2.73019   2.73913
 Alpha virt. eigenvalues --    2.74812   2.77449   2.79974   2.82306   2.89810
 Alpha virt. eigenvalues --    2.90439   3.00711   3.04366   3.13392   3.26759
 Alpha virt. eigenvalues --    3.42820   3.77307   3.81770   3.88780   3.96748
 Alpha virt. eigenvalues --    4.01082   4.06954   4.08754   4.10902   4.13635
 Alpha virt. eigenvalues --    4.20293   4.23431   4.31574   4.37662   4.39584
 Alpha virt. eigenvalues --    4.54650   4.73981
          Condensed to atoms (all electrons):
               1          2          3          4          5          6
     1  O    8.270854   0.435485  -0.049086  -0.003915   0.000123  -0.000000
     2  S    0.435485  13.646429   0.111879  -0.013599  -0.002117   0.000087
     3  N   -0.049086   0.111879   7.425960   0.252369  -0.074330   0.005530
     4  C   -0.003915  -0.013599   0.252369   4.475065   0.440196  -0.049902
     5  N    0.000123  -0.002117  -0.074330   0.440196   6.915305   0.130387
     6  O   -0.000000   0.000087   0.005530  -0.049902   0.130387   8.195137
     7  C    0.000529  -0.000353  -0.000503  -0.012225  -0.088465   0.248770
     8  C   -0.000005  -0.000021  -0.000196   0.003392   0.004636  -0.037615
     9  C    0.000003  -0.000002   0.000002   0.000620  -0.000112   0.003102
    10  C   -0.000000  -0.000000   0.000000  -0.000007   0.000002  -0.000061
    11  C   -0.000000   0.000000   0.000000   0.000000  -0.000000   0.000002
    12  C    0.000000  -0.000000  -0.000000   0.000004   0.000001   0.000280
    13  C    0.000000   0.000000  -0.000001  -0.000369   0.000156  -0.006596
    14  C    0.000310  -0.001155  -0.055892   0.455217  -0.050189  -0.086607
    15  C   -0.055612   0.224955  -0.056285   0.002140  -0.000062   0.000000
    16  O   -0.047394   0.452823  -0.055546   0.000601  -0.000061  -0.000000
    17  H    0.001134  -0.003711   0.284364  -0.021483   0.004186  -0.000193
    18  H   -0.000016  -0.000003  -0.000000   0.000083  -0.000006   0.000028
    19  H    0.000000   0.000000  -0.000000  -0.000000  -0.000000   0.000000
    20  H   -0.000000  -0.000000  -0.000000  -0.000000   0.000000   0.000000
    21  H    0.000000  -0.000000   0.000000  -0.000000  -0.000000  -0.000003
    22  H   -0.000000  -0.000000  -0.000000   0.000053  -0.000235   0.009655
    23  H    0.009639   0.001129  -0.001790  -0.028313   0.004996   0.003274
    24  H   -0.000334  -0.005208   0.001128  -0.000162   0.000002  -0.000000
    25  H    0.001513  -0.003821   0.000269  -0.000024  -0.000003   0.000000
    26  H   -0.000489  -0.017551   0.002401  -0.000001   0.000000  -0.000000
               7          8          9         10         11         12
     1  O    0.000529  -0.000005   0.000003  -0.000000  -0.000000   0.000000
     2  S   -0.000353  -0.000021  -0.000002  -0.000000   0.000000  -0.000000
     3  N   -0.000503  -0.000196   0.000002   0.000000   0.000000  -0.000000
     4  C   -0.012225   0.003392   0.000620  -0.000007   0.000000   0.000004
     5  N   -0.088465   0.004636  -0.000112   0.000002  -0.000000   0.000001
     6  O    0.248770  -0.037615   0.003102  -0.000061   0.000002   0.000280
     7  C    4.754906   0.343140  -0.041867   0.006323   0.000837   0.004680
     8  C    0.343140   4.787931   0.535342  -0.011006  -0.033963  -0.009542
     9  C   -0.041867   0.535342   5.015035   0.517535  -0.039894  -0.041336
    10  C    0.006323  -0.011006   0.517535   4.885234   0.538816  -0.026039
    11  C    0.000837  -0.033963  -0.039894   0.538816   4.874951   0.538886
    12  C    0.004680  -0.009542  -0.041336  -0.026039   0.538886   4.891507
    13  C   -0.041611   0.472475  -0.081708  -0.042114  -0.038092   0.505633
    14  C    0.491288  -0.057253  -0.020459   0.000247   0.000015  -0.000231
    15  C   -0.000007  -0.000000  -0.000000  -0.000000   0.000000  -0.000000
    16  O   -0.000025  -0.000000  -0.000000  -0.000000   0.000000  -0.000000
    17  H    0.000268   0.000001   0.000000  -0.000000   0.000000   0.000000
    18  H   -0.012673  -0.036972   0.357430  -0.041663   0.004492   0.000158
    19  H   -0.000201   0.003243  -0.037588   0.363302  -0.040812   0.004388
    20  H    0.000003   0.000477   0.004807  -0.041721   0.364935  -0.041547
    21  H   -0.000171   0.003235   0.000766   0.004398  -0.040864   0.363681
    22  H   -0.012773  -0.042981   0.005315   0.000197   0.004552  -0.040930
    23  H   -0.030767  -0.003293   0.001009   0.000082  -0.000001   0.000001
    24  H    0.000001  -0.000000   0.000000   0.000000  -0.000000   0.000000
    25  H    0.000000   0.000000  -0.000000   0.000000   0.000000  -0.000000
    26  H    0.000000   0.000000  -0.000000  -0.000000   0.000000   0.000000
              13         14         15         16         17         18
     1  O    0.000000   0.000310  -0.055612  -0.047394   0.001134  -0.000016
     2  S    0.000000  -0.001155   0.224955   0.452823  -0.003711  -0.000003
     3  N   -0.000001  -0.055892  -0.056285  -0.055546   0.284364  -0.000000
     4  C   -0.000369   0.455217   0.002140   0.000601  -0.021483   0.000083
     5  N    0.000156  -0.050189  -0.000062  -0.000061   0.004186  -0.000006
     6  O   -0.006596  -0.086607   0.000000  -0.000000  -0.000193   0.000028
     7  C   -0.041611   0.491288  -0.000007  -0.000025   0.000268  -0.012673
     8  C    0.472475  -0.057253  -0.000000  -0.000000   0.000001  -0.036972
     9  C   -0.081708  -0.020459  -0.000000  -0.000000   0.000000   0.357430
    10  C   -0.042114   0.000247  -0.000000  -0.000000  -0.000000  -0.041663
    11  C   -0.038092   0.000015   0.000000   0.000000   0.000000   0.004492
    12  C    0.505633  -0.000231  -0.000000  -0.000000   0.000000   0.000158
    13  C    5.060291   0.011702   0.000000   0.000000  -0.000000   0.005645
    14  C    0.011702   5.223349  -0.000021  -0.000103   0.004147   0.006457
    15  C    0.000000  -0.000021   5.530796  -0.059107  -0.000228  -0.000000
    16  O    0.000000  -0.000103  -0.059107   8.248081  -0.000034  -0.000000
    17  H   -0.000000   0.004147  -0.000228  -0.000034   0.308289  -0.000000
    18  H    0.005645   0.006457  -0.000000  -0.000000  -0.000000   0.554944
    19  H    0.000788  -0.000001  -0.000000   0.000000   0.000000  -0.004862
    20  H    0.004696  -0.000000  -0.000000   0.000000  -0.000000  -0.000154
    21  H   -0.037693   0.000001  -0.000000  -0.000000  -0.000000   0.000015
    22  H    0.362924   0.000234  -0.000000   0.000000  -0.000000  -0.000138
    23  H   -0.000087   0.352555   0.000050   0.000062  -0.000129   0.001797
    24  H   -0.000000   0.000015   0.343238   0.001701   0.000027   0.000000
    25  H   -0.000000  -0.000006   0.342227  -0.000763   0.000190   0.000000
    26  H    0.000000   0.000001   0.360412   0.000141  -0.000021   0.000000
              19         20         21         22         23         24
     1  O    0.000000  -0.000000   0.000000  -0.000000   0.009639  -0.000334
     2  S    0.000000  -0.000000  -0.000000  -0.000000   0.001129  -0.005208
     3  N   -0.000000  -0.000000   0.000000  -0.000000  -0.001790   0.001128
     4  C   -0.000000  -0.000000  -0.000000   0.000053  -0.028313  -0.000162
     5  N   -0.000000   0.000000  -0.000000  -0.000235   0.004996   0.000002
     6  O    0.000000   0.000000  -0.000003   0.009655   0.003274  -0.000000
     7  C   -0.000201   0.000003  -0.000171  -0.012773  -0.030767   0.000001
     8  C    0.003243   0.000477   0.003235  -0.042981  -0.003293  -0.000000
     9  C   -0.037588   0.004807   0.000766   0.005315   0.001009   0.000000
    10  C    0.363302  -0.041721   0.004398   0.000197   0.000082   0.000000
    11  C   -0.040812   0.364935  -0.040864   0.004552  -0.000001  -0.000000
    12  C    0.004388  -0.041547   0.363681  -0.040930   0.000001   0.000000
    13  C    0.000788   0.004696  -0.037693   0.362924  -0.000087  -0.000000
    14  C   -0.000001  -0.000000   0.000001   0.000234   0.352555   0.000015
    15  C   -0.000000  -0.000000  -0.000000  -0.000000   0.000050   0.343238
    16  O    0.000000   0.000000  -0.000000   0.000000   0.000062   0.001701
    17  H    0.000000  -0.000000  -0.000000  -0.000000  -0.000129   0.000027
    18  H   -0.004862  -0.000154   0.000015  -0.000138   0.001797   0.000000
    19  H    0.557400  -0.005118  -0.000162   0.000015  -0.000002  -0.000000
    20  H   -0.005118   0.560376  -0.005113  -0.000151  -0.000000  -0.000000
    21  H   -0.000162  -0.005113   0.557722  -0.004916   0.000000   0.000000
    22  H    0.000015  -0.000151  -0.004916   0.554526  -0.000008  -0.000000
    23  H   -0.000002  -0.000000   0.000000  -0.000008   0.492320  -0.000004
    24  H   -0.000000  -0.000000   0.000000  -0.000000  -0.000004   0.458954
    25  H   -0.000000   0.000000  -0.000000  -0.000000  -0.000002  -0.020331
    26  H    0.000000   0.000000  -0.000000   0.000000   0.000000  -0.016341
              25         26
     1  O    0.001513  -0.000489
     2  S   -0.003821  -0.017551
     3  N    0.000269   0.002401
     4  C   -0.000024  -0.000001
     5  N   -0.000003   0.000000
     6  O    0.000000  -0.000000
     7  C    0.000000   0.000000
     8  C    0.000000   0.000000
     9  C   -0.000000  -0.000000
    10  C    0.000000  -0.000000
    11  C    0.000000   0.000000
    12  C   -0.000000   0.000000
    13  C   -0.000000   0.000000
    14  C   -0.000006   0.000001
    15  C    0.342227   0.360412
    16  O   -0.000763   0.000141
    17  H    0.000190  -0.000021
    18  H    0.000000   0.000000
    19  H   -0.000000   0.000000
    20  H    0.000000   0.000000
    21  H   -0.000000  -0.000000
    22  H   -0.000000   0.000000
    23  H   -0.000002   0.000000
    24  H   -0.020331  -0.016341
    25  H    0.458915  -0.016932
    26  H   -0.016932   0.447134
 Mulliken charges:
               1
     1  O   -0.562739
     2  S    1.174752
     3  N   -0.790274
     4  C    0.500259
     5  N   -0.284409
     6  O   -0.415276
     7  C    0.390893
     8  C    0.078973
     9  C   -0.177999
    10  C   -0.153522
    11  C   -0.133860
    12  C   -0.149594
    13  C   -0.176040
    14  C   -0.273620
    15  C   -0.632496
    16  O   -0.540377
    17  H    0.423193
    18  H    0.165439
    19  H    0.159611
    20  H    0.158511
    21  H    0.159104
    22  H    0.164662
    23  H    0.197482
    24  H    0.237314
    25  H    0.238767
    26  H    0.241246
 Sum of Mulliken charges =  -0.00000
 Mulliken charges with hydrogens summed into heavy atoms:
               1
     1  O   -0.562739
     2  S    1.174752
     3  N   -0.367081
     4  C    0.500259
     5  N   -0.284409
     6  O   -0.415276
     7  C    0.390893
     8  C    0.078973
     9  C   -0.012560
    10  C    0.006090
    11  C    0.024651
    12  C    0.009509
    13  C   -0.011378
    14  C   -0.076138
    15  C    0.084831
    16  O   -0.540377
 Electronic spatial extent (au):  <R**2>=           5522.0137
 Charge=              0.0000 electrons
 Dipole moment (field-independent basis, Debye):
    X=             -1.0654    Y=             -0.6912    Z=             -3.9173  Tot=              4.1180
 Quadrupole moment (field-independent basis, Debye-Ang):
   XX=            -58.6342   YY=           -100.7079   ZZ=           -105.0619
   XY=             -8.7652   XZ=             16.2919   YZ=              0.9959
 Traceless Quadrupole moment (field-independent basis, Debye-Ang):
   XX=             29.5004   YY=            -12.5732   ZZ=            -16.9272
   XY=             -8.7652   XZ=             16.2919   YZ=              0.9959
 Octapole moment (field-independent basis, Debye-Ang**2):
  XXX=            -79.5475  YYY=            -14.9993  ZZZ=             -6.2943  XYY=              4.0173
  XXY=              7.3122  XXZ=            -59.4912  XZZ=            -12.4896  YZZ=              0.5919
  YYZ=             -1.8694  XYZ=              1.1940
 Hexadecapole moment (field-independent basis, Debye-Ang**3):
 XXXX=          -4832.8227 YYYY=           -844.7331 ZZZZ=           -250.1430 XXXY=            -16.6499
 XXXZ=            297.0813 YYYX=            -39.5383 YYYZ=              0.9671 ZZZX=             28.2087
 ZZZY=              3.6728 XXYY=          -1042.0139 XXZZ=          -1174.0453 YYZZ=           -182.1319
 XXYZ=             13.9596 YYXZ=              1.5747 ZZXY=             18.0813
 N-N= 1.175749220494D+03 E-N=-4.979133533757D+03  KE= 1.112199776531D+03
 No NMR shielding tensors so no spin-rotation constants.
 Leave Link  601 at Tue Sep 22 18:09:57 2020, MaxMem=  2147483648 cpu:               0.4 elap:               0.1
 (Enter /prod/apps/gaussian/g16b1/l701.exe)
 ... and contract with generalized density number  0.
 Compute integral first derivatives.
 D1PCM: PCM CHGder 1st derivatives, ID1Alg=3 FixD1E=F DoIter=F DoCFld=F I1PDM=0.
 GePol: Maximum number of non-zero 1st derivatives   =     177
 Leave Link  701 at Tue Sep 22 18:09:58 2020, MaxMem=  2147483648 cpu:               6.3 elap:               1.6
 (Enter /prod/apps/gaussian/g16b1/l702.exe)
 L702 exits ... SP integral derivatives will be done elsewhere.
 Leave Link  702 at Tue Sep 22 18:09:58 2020, MaxMem=  2147483648 cpu:               0.1 elap:               0.0
 (Enter /prod/apps/gaussian/g16b1/l703.exe)
 Integral derivatives from FoFJK, PRISM(SPDF).
 Compute integral first derivatives, UseDBF=F ICtDFT=           0.
 Calling FoFJK, ICntrl=      2127 FMM=F ISym2X=0 I1Cent= 0 IOpClX= 0 NMat=1 NMatS=1 NMatT=0.
 FoFJK:  IHMeth= 1 ICntrl=    2127 DoSepK=F KAlg= 0 I1Cent=           0 FoldK=F
 IRaf=         0 NMat=       1 IRICut=       1 DoRegI=T DoRafI=F ISym2E= 0 IDoP0=0 IntGTp=1.
 FoFCou: FMM=F IPFlag=           0 FMFlag=      100000 FMFlg1=         800
         NFxFlg=           0 DoJE=F BraDBF=F KetDBF=F FulRan=T
         wScrn=  0.000000 ICntrl=      2127 IOpCl=  0 I1Cent=           0 NGrid=           0
         NMat0=    1 NMatS0=      1 NMatT0=    0 NMatD0=    1 NMtDS0=    0 NMtDT0=    0
 Symmetry not used in FoFCou.
 Leave Link  703 at Tue Sep 22 18:10:08 2020, MaxMem=  2147483648 cpu:              37.4 elap:               9.4
 (Enter /prod/apps/gaussian/g16b1/l716.exe)
 Dipole        =-4.19143468D-01-2.71929091D-01-1.54118863D+00
 -------------------------------------------------------------------
 Center     Atomic                   Forces (Hartrees/Bohr)
 Number     Number              X              Y              Z
 -------------------------------------------------------------------
      1        8          -0.000024113   -0.000076273    0.000034288
      2       16           0.001127077    0.000568298   -0.000321610
      3        7           0.000953579    0.000769619    0.000389826
      4        6          -0.001585726   -0.000871499   -0.000314030
      5        7           0.000220674    0.000641729    0.000043824
      6        8           0.000292500   -0.000101014    0.000012793
      7        6           0.001455171   -0.000118419    0.000067961
      8        6          -0.001305479    0.000493083    0.000104772
      9        6           0.000139177    0.000193026   -0.000221282
     10        6           0.000986346    0.001012983    0.000268553
     11        6          -0.001234123   -0.000349821   -0.000155639
     12        6           0.000380340    0.000050291   -0.000044985
     13        6           0.000039916    0.000041315    0.000076072
     14        6          -0.000512106    0.000333635   -0.000147741
     15        6          -0.000778469    0.000275896   -0.000553260
     16        8          -0.000286510   -0.000002641    0.000626480
     17        1           0.000275274   -0.000985868   -0.000018041
     18        1          -0.000433882   -0.000513360    0.000005208
     19        1           0.000176499   -0.000597678   -0.000043207
     20        1           0.000507724   -0.000151745    0.000040820
     21        1           0.000005046   -0.000153143    0.000051734
     22        1          -0.000282016    0.000138279   -0.000023002
     23        1          -0.000035087   -0.000123948    0.000026109
     24        1           0.000132974   -0.000022610    0.000033379
     25        1           0.000054510   -0.000304978   -0.000035721
     26        1          -0.000269294   -0.000145158    0.000096699
 -------------------------------------------------------------------
 Cartesian Forces:  Max     0.001585726 RMS     0.000503590
 Leave Link  716 at Tue Sep 22 18:10:08 2020, MaxMem=  2147483648 cpu:               0.1 elap:               0.1
 (Enter /prod/apps/gaussian/g16b1/l103.exe)

 GradGradGradGradGradGradGradGradGradGradGradGradGradGradGradGradGradGrad
 Berny optimization.
 FormGI is forming the generalized inverse of G from B-inverse, IUseBI=4.
 Internal  Forces:  Max     0.001218570 RMS     0.000278916
 Search for a local minimum.
 Step number   1 out of a maximum of  141
 All quantities printed in internal units (Hartrees-Bohrs-Radians)
 RMS Force = .27892D-03 SwitMx=.10000D-02 MixMth= 2
 Mixed Optimization -- En-DIIS/RFO-DIIS
 Second derivative matrix not updated -- first step.
 ITU=  0
     Eigenvalues ---    0.00548   0.01210   0.01290   0.01659   0.01810
     Eigenvalues ---    0.01864   0.01923   0.02048   0.02074   0.02102
     Eigenvalues ---    0.02115   0.02120   0.02142   0.02144   0.02161
     Eigenvalues ---    0.02165   0.02278   0.02332   0.02565   0.06024
     Eigenvalues ---    0.06303   0.08416   0.09379   0.11762   0.13492
     Eigenvalues ---    0.15999   0.16000   0.16000   0.16000   0.16000
     Eigenvalues ---    0.16000   0.16000   0.16000   0.16000   0.17374
     Eigenvalues ---    0.22000   0.22000   0.22903   0.23478   0.23797
     Eigenvalues ---    0.24930   0.24993   0.24999   0.25000   0.25000
     Eigenvalues ---    0.27202   0.34794   0.34795   0.34988   0.35117
     Eigenvalues ---    0.35416   0.35536   0.35546   0.35577   0.35603
     Eigenvalues ---    0.36626   0.36920   0.39948   0.41458   0.41981
     Eigenvalues ---    0.43684   0.43729   0.45211   0.45303   0.45521
     Eigenvalues ---    0.46287   0.46972   0.48776   0.51859   0.59886
     Eigenvalues ---    0.87306   0.88046
 RFO step:  Lambda=-3.55624380D-05 EMin= 5.47711659D-03
 Linear search not attempted -- first point.
 Iteration  1 RMS(Cart)=  0.00734606 RMS(Int)=  0.00002036
 Iteration  2 RMS(Cart)=  0.00003304 RMS(Int)=  0.00000057
 Iteration  3 RMS(Cart)=  0.00000000 RMS(Int)=  0.00000057
 ITry= 1 IFail=0 DXMaxC= 3.09D-02 DCOld= 1.00D+10 DXMaxT= 3.00D-01 DXLimC= 3.00D+00 Rises=F
 Variable       Old X    -DE/DX   Delta X   Delta X   Delta X     New X
                                 (Linear)    (Quad)   (Total)
    R1        2.77547   0.00005   0.00000   0.00005   0.00005   2.77552
    R2        3.22486  -0.00023   0.00000  -0.00066  -0.00066   3.22420
    R3        3.37616   0.00095   0.00000   0.00349   0.00349   3.37965
    R4        2.77900   0.00066   0.00000   0.00076   0.00076   2.77976
    R5        2.65032  -0.00122   0.00000  -0.00270  -0.00270   2.64762
    R6        1.93481  -0.00100   0.00000  -0.00228  -0.00228   1.93253
    R7        2.49403   0.00070   0.00000   0.00118   0.00117   2.49521
    R8        2.68345  -0.00018   0.00000  -0.00041  -0.00041   2.68304
    R9        2.64987   0.00022   0.00000   0.00052   0.00052   2.65039
   R10        2.56138  -0.00004   0.00000  -0.00012  -0.00012   2.56127
   R11        2.75967  -0.00102   0.00000  -0.00275  -0.00275   2.75692
   R12        2.58241   0.00046   0.00000   0.00084   0.00084   2.58326
   R13        2.65421   0.00046   0.00000   0.00109   0.00109   2.65531
   R14        2.65310   0.00008   0.00000   0.00024   0.00024   2.65335
   R15        2.62938   0.00055   0.00000   0.00117   0.00117   2.63054
   R16        2.04748   0.00066   0.00000   0.00186   0.00186   2.04934
   R17        2.64308  -0.00080   0.00000  -0.00182  -0.00182   2.64126
   R18        2.04813   0.00062   0.00000   0.00175   0.00175   2.04989
   R19        2.63915  -0.00002   0.00000  -0.00011  -0.00011   2.63904
   R20        2.04798   0.00053   0.00000   0.00149   0.00149   2.04947
   R21        2.63181   0.00030   0.00000   0.00063   0.00063   2.63244
   R22        2.05005  -0.00009   0.00000  -0.00026  -0.00026   2.04978
   R23        2.04707   0.00019   0.00000   0.00054   0.00054   2.04761
   R24        2.03114   0.00012   0.00000   0.00033   0.00033   2.03148
   R25        2.05695   0.00001   0.00000   0.00002   0.00002   2.05697
   R26        2.06009  -0.00030   0.00000  -0.00086  -0.00086   2.05923
   R27        2.06010   0.00031   0.00000   0.00088   0.00088   2.06098
    A1        1.86176  -0.00009   0.00000  -0.00012  -0.00012   1.86164
    A2        1.92640  -0.00018   0.00000  -0.00134  -0.00135   1.92506
    A3        2.06576   0.00000   0.00000  -0.00096  -0.00096   2.06480
    A4        1.73903   0.00039   0.00000   0.00217   0.00217   1.74121
    A5        1.93903   0.00005   0.00000   0.00125   0.00125   1.94028
    A6        1.90362  -0.00011   0.00000  -0.00045  -0.00045   1.90317
    A7        2.09757  -0.00003   0.00000  -0.00010  -0.00010   2.09747
    A8        1.93483  -0.00023   0.00000  -0.00170  -0.00170   1.93313
    A9        1.96176   0.00024   0.00000   0.00184   0.00184   1.96360
   A10        2.06913   0.00027   0.00000   0.00102   0.00102   2.07015
   A11        2.24560  -0.00012   0.00000  -0.00055  -0.00055   2.24506
   A12        1.96581  -0.00015   0.00000  -0.00053  -0.00053   1.96528
   A13        1.82712  -0.00002   0.00000   0.00011   0.00011   1.82723
   A14        1.91227   0.00006   0.00000   0.00017   0.00017   1.91244
   A15        2.04980  -0.00029   0.00000  -0.00108  -0.00108   2.04871
   A16        1.91039  -0.00005   0.00000  -0.00037  -0.00037   1.91003
   A17        2.32295   0.00034   0.00000   0.00145   0.00145   2.32441
   A18        2.09302   0.00060   0.00000   0.00226   0.00226   2.09528
   A19        2.10535  -0.00047   0.00000  -0.00202  -0.00202   2.10334
   A20        2.08481  -0.00013   0.00000  -0.00024  -0.00024   2.08457
   A21        2.09721  -0.00016   0.00000  -0.00056  -0.00056   2.09665
   A22        2.09123   0.00017   0.00000   0.00086   0.00086   2.09210
   A23        2.09474  -0.00001   0.00000  -0.00030  -0.00030   2.09444
   A24        2.09784   0.00010   0.00000   0.00033   0.00033   2.09817
   A25        2.08872  -0.00000   0.00000   0.00015   0.00015   2.08887
   A26        2.09662  -0.00010   0.00000  -0.00048  -0.00048   2.09615
   A27        2.09140   0.00021   0.00000   0.00066   0.00066   2.09207
   A28        2.09519  -0.00009   0.00000  -0.00023  -0.00023   2.09496
   A29        2.09659  -0.00012   0.00000  -0.00043  -0.00043   2.09616
   A30        2.09885  -0.00005   0.00000  -0.00038  -0.00038   2.09848
   A31        2.09719  -0.00010   0.00000  -0.00057  -0.00057   2.09662
   A32        2.08715   0.00014   0.00000   0.00094   0.00094   2.08809
   A33        2.09625   0.00001   0.00000   0.00019   0.00019   2.09644
   A34        2.08655  -0.00026   0.00000  -0.00168  -0.00168   2.08487
   A35        2.10039   0.00025   0.00000   0.00149   0.00149   2.10188
   A36        1.80903   0.00016   0.00000   0.00066   0.00066   1.80969
   A37        2.22071  -0.00009   0.00000  -0.00039  -0.00039   2.22032
   A38        2.25342  -0.00007   0.00000  -0.00025  -0.00025   2.25317
   A39        1.89816  -0.00023   0.00000  -0.00148  -0.00148   1.89668
   A40        1.90321   0.00012   0.00000   0.00071   0.00071   1.90392
   A41        1.85969   0.00012   0.00000   0.00077   0.00077   1.86046
   A42        1.94106   0.00005   0.00000   0.00025   0.00025   1.94131
   A43        1.93535   0.00005   0.00000   0.00036   0.00036   1.93571
   A44        1.92412  -0.00010   0.00000  -0.00059  -0.00059   1.92353
    D1       -0.80528   0.00010   0.00000   0.00644   0.00644  -0.79883
    D2        3.14097   0.00002   0.00000   0.00564   0.00564  -3.13658
    D3       -2.80897   0.00017   0.00000   0.00707   0.00707  -2.80190
    D4        1.13728   0.00008   0.00000   0.00626   0.00626   1.14354
    D5        1.46918   0.00008   0.00000   0.00602   0.00602   1.47519
    D6       -0.86777  -0.00000   0.00000   0.00521   0.00521  -0.86256
    D7       -0.88073  -0.00008   0.00000   0.00042   0.00042  -0.88031
    D8       -3.00017  -0.00007   0.00000   0.00060   0.00060  -2.99957
    D9        1.20644  -0.00008   0.00000   0.00048   0.00048   1.20693
   D10        1.07282  -0.00005   0.00000   0.00086   0.00086   1.07368
   D11       -1.04661  -0.00004   0.00000   0.00103   0.00103  -1.04558
   D12       -3.12319  -0.00005   0.00000   0.00092   0.00092  -3.12227
   D13        3.10483   0.00015   0.00000   0.00312   0.00312   3.10795
   D14        0.98539   0.00016   0.00000   0.00329   0.00329   0.98869
   D15       -1.09118   0.00015   0.00000   0.00318   0.00318  -1.08800
   D16       -2.42200   0.00009   0.00000   0.00225   0.00225  -2.41974
   D17        0.80391   0.00011   0.00000   0.00323   0.00323   0.80714
   D18       -0.09628  -0.00003   0.00000   0.00159   0.00159  -0.09470
   D19        3.12962  -0.00001   0.00000   0.00256   0.00256   3.13219
   D20       -3.05621  -0.00003   0.00000  -0.00180  -0.00180  -3.05800
   D21        0.01408  -0.00006   0.00000  -0.00264  -0.00264   0.01145
   D22        3.05468   0.00005   0.00000   0.00170   0.00170   3.05638
   D23       -0.08049  -0.00001   0.00000  -0.00079  -0.00079  -0.08128
   D24       -0.00668   0.00006   0.00000   0.00257   0.00257  -0.00412
   D25        3.14133  -0.00000   0.00000   0.00007   0.00007   3.14140
   D26       -0.01642   0.00004   0.00000   0.00171   0.00171  -0.01472
   D27       -3.13740   0.00000   0.00000  -0.00001  -0.00001  -3.13741
   D28        0.01292  -0.00000   0.00000  -0.00015  -0.00015   0.01276
   D29        3.09222   0.00007   0.00000   0.00570   0.00570   3.09791
   D30       -0.05027   0.00006   0.00000   0.00474   0.00474  -0.04554
   D31       -0.06064   0.00008   0.00000   0.00586   0.00586  -0.05478
   D32        3.08006   0.00006   0.00000   0.00490   0.00490   3.08495
   D33       -0.00413  -0.00003   0.00000  -0.00135  -0.00135  -0.00548
   D34        3.13087   0.00003   0.00000   0.00121   0.00121   3.13208
   D35       -3.13512  -0.00003   0.00000  -0.00150  -0.00150  -3.13662
   D36       -0.00012   0.00003   0.00000   0.00106   0.00106   0.00094
   D37        3.13802   0.00001   0.00000   0.00035   0.00034   3.13836
   D38       -0.00357  -0.00004   0.00000  -0.00210  -0.00210  -0.00567
   D39       -0.00269   0.00003   0.00000   0.00130   0.00130  -0.00139
   D40        3.13891  -0.00002   0.00000  -0.00114  -0.00114   3.13777
   D41       -3.13934   0.00001   0.00000   0.00053   0.00053  -3.13882
   D42        0.00095   0.00001   0.00000   0.00053   0.00053   0.00148
   D43        0.00136  -0.00001   0.00000  -0.00043  -0.00043   0.00093
   D44       -3.14154  -0.00001   0.00000  -0.00043  -0.00043   3.14122
   D45        0.00230  -0.00003   0.00000  -0.00157  -0.00157   0.00073
   D46       -3.14115  -0.00002   0.00000  -0.00075  -0.00075   3.14128
   D47       -3.13930   0.00002   0.00000   0.00088   0.00088  -3.13842
   D48        0.00043   0.00004   0.00000   0.00170   0.00170   0.00213
   D49       -0.00056   0.00002   0.00000   0.00096   0.00096   0.00040
   D50        3.14125   0.00000   0.00000   0.00009   0.00010   3.14134
   D51       -3.14028   0.00000   0.00000   0.00014   0.00014  -3.14014
   D52        0.00152  -0.00002   0.00000  -0.00073  -0.00073   0.00080
   D53       -0.00078  -0.00000   0.00000  -0.00009  -0.00009  -0.00087
   D54       -3.14019  -0.00003   0.00000  -0.00157  -0.00157   3.14143
   D55        3.14060   0.00002   0.00000   0.00077   0.00077   3.14137
   D56        0.00119  -0.00002   0.00000  -0.00070  -0.00070   0.00049
   D57        0.00037  -0.00000   0.00000  -0.00017  -0.00017   0.00020
   D58       -3.13991  -0.00000   0.00000  -0.00017  -0.00017  -3.14008
   D59        3.13979   0.00003   0.00000   0.00130   0.00130   3.14109
   D60       -0.00049   0.00003   0.00000   0.00130   0.00130   0.00081
         Item               Value     Threshold  Converged?
 Maximum Force            0.001219     0.000450     NO 
 RMS     Force            0.000279     0.000300     YES
 Maximum Displacement     0.030868     0.001800     NO 
 RMS     Displacement     0.007352     0.001200     NO 
 Predicted change in Energy=-1.779045D-05
 Lowest energy point so far.  Saving SCF results.
 GradGradGradGradGradGradGradGradGradGradGradGradGradGradGradGradGradGrad

 Leave Link  103 at Tue Sep 22 18:10:08 2020, MaxMem=  2147483648 cpu:               0.1 elap:               0.1
 (Enter /prod/apps/gaussian/g16b1/l202.exe)
                          Input orientation:                          
 ---------------------------------------------------------------------
 Center     Atomic      Atomic             Coordinates (Angstroms)
 Number     Number       Type             X           Y           Z
 ---------------------------------------------------------------------
      1          8           0       -2.551379   -1.689640    0.011335
      2         16           0       -3.300732   -0.442214    0.210337
      3          7           0       -2.375899    0.802840   -0.500688
      4          6           0       -0.996919    0.878378   -0.264715
      5          7           0       -0.455790    2.063945   -0.052377
      6          8           0        0.921870    1.815771    0.034436
      7          6           0        1.154162    0.488348   -0.110472
      8          6           0        2.540269    0.038378   -0.042504
      9          6           0        2.840654   -1.331290   -0.132856
     10          6           0        4.162931   -1.762128   -0.072067
     11          6           0        5.198335   -0.835641    0.079935
     12          6           0        4.904730    0.526587    0.171554
     13          6           0        3.583902    0.965070    0.110936
     14          6           0       -0.031736   -0.161959   -0.309058
     15          6           0       -4.734626   -0.402715   -0.857783
     16          8           0       -3.710487   -0.085200    1.577247
     17          1           0       -2.841560    1.706935   -0.393060
     18          1           0        2.039784   -2.053396   -0.247886
     19          1           0        4.386574   -2.821253   -0.142269
     20          1           0        6.227448   -1.174626    0.127179
     21          1           0        5.704952    1.249255    0.289736
[...]
 Alpha virt. eigenvalues --    0.09253   0.09767   0.09924   0.10432   0.11188
 Alpha virt. eigenvalues --    0.11299   0.11576   0.12241   0.13290   0.13515
 Alpha virt. eigenvalues --    0.13779   0.14049   0.14169   0.14610   0.14742
 Alpha virt. eigenvalues --    0.14872   0.15476   0.15930   0.16023   0.16320
 Alpha virt. eigenvalues --    0.16623   0.17290   0.17714   0.18148   0.18240
 Alpha virt. eigenvalues --    0.18495   0.19118   0.19287   0.19832   0.20467
 Alpha virt. eigenvalues --    0.20645   0.21480   0.21756   0.22228   0.22741
 Alpha virt. eigenvalues --    0.23476   0.24189   0.24358   0.24712   0.25204
 Alpha virt. eigenvalues --    0.25757   0.25967   0.26418   0.26568   0.26949
 Alpha virt. eigenvalues --    0.27833   0.28123   0.28744   0.28950   0.30136
 Alpha virt. eigenvalues --    0.30848   0.31360   0.31624   0.31718   0.32084
 Alpha virt. eigenvalues --    0.32393   0.33121   0.33624   0.34049   0.34344
 Alpha virt. eigenvalues --    0.34653   0.34730   0.35475   0.35946   0.36240
 Alpha virt. eigenvalues --    0.36504   0.37021   0.37138   0.37689   0.37955
 Alpha virt. eigenvalues --    0.38343   0.38468   0.38751   0.39310   0.39845
 Alpha virt. eigenvalues --    0.40155   0.40485   0.40867   0.41771   0.42276
 Alpha virt. eigenvalues --    0.42644   0.43072   0.43381   0.43913   0.44452
 Alpha virt. eigenvalues --    0.45060   0.45738   0.46169   0.46648   0.47325
 Alpha virt. eigenvalues --    0.47906   0.48889   0.49980   0.50536   0.50648
 Alpha virt. eigenvalues --    0.52198   0.52460   0.53424   0.53967   0.54201
 Alpha virt. eigenvalues --    0.55398   0.55755   0.55934   0.56560   0.56781
 Alpha virt. eigenvalues --    0.57314   0.58030   0.58485   0.59133   0.59941
 Alpha virt. eigenvalues --    0.60226   0.60514   0.61569   0.61684   0.62427
 Alpha virt. eigenvalues --    0.63198   0.63609   0.64337   0.64800   0.65120
 Alpha virt. eigenvalues --    0.65313   0.65861   0.66503   0.66966   0.67800
 Alpha virt. eigenvalues --    0.68256   0.68362   0.68507   0.69106   0.69397
 Alpha virt. eigenvalues --    0.70109   0.70482   0.70654   0.71341   0.71706
 Alpha virt. eigenvalues --    0.71820   0.72609   0.73730   0.73778   0.74900
 Alpha virt. eigenvalues --    0.75735   0.76215   0.76997   0.77464   0.78153
 Alpha virt. eigenvalues --    0.78935   0.79800   0.80714   0.81488   0.82566
 Alpha virt. eigenvalues --    0.83334   0.84199   0.84824   0.85334   0.86519
 Alpha virt. eigenvalues --    0.87008   0.88499   0.88671   0.89467   0.90239
 Alpha virt. eigenvalues --    0.90439   0.91623   0.91761   0.92386   0.92672
 Alpha virt. eigenvalues --    0.93075   0.93574   0.94570   0.94856   0.95529
 Alpha virt. eigenvalues --    0.95998   0.96412   0.96823   0.97474   0.98220
 Alpha virt. eigenvalues --    0.99265   0.99507   0.99954   1.00524   1.02387
 Alpha virt. eigenvalues --    1.02590   1.03203   1.04473   1.04830   1.05464
 Alpha virt. eigenvalues --    1.06691   1.07675   1.08599   1.09935   1.10678
 Alpha virt. eigenvalues --    1.11076   1.13064   1.13361   1.14642   1.16051
 Alpha virt. eigenvalues --    1.16532   1.17418   1.17845   1.18212   1.19735
 Alpha virt. eigenvalues --    1.20654   1.21269   1.21873   1.22137   1.23441
 Alpha virt. eigenvalues --    1.24551   1.25386   1.28633   1.29029   1.30577
 Alpha virt. eigenvalues --    1.31163   1.33244   1.34061   1.34965   1.36517
 Alpha virt. eigenvalues --    1.37358   1.38173   1.39983   1.40764   1.41591
 Alpha virt. eigenvalues --    1.42150   1.43001   1.45000   1.45666   1.46952
 Alpha virt. eigenvalues --    1.48759   1.50163   1.50710   1.51784   1.53084
 Alpha virt. eigenvalues --    1.53125   1.54121   1.55272   1.56400   1.57032
 Alpha virt. eigenvalues --    1.57422   1.58059   1.59823   1.60748   1.61685
 Alpha virt. eigenvalues --    1.62212   1.62969   1.63836   1.64780   1.65804
 Alpha virt. eigenvalues --    1.67099   1.67867   1.68287   1.69477   1.69873
 Alpha virt. eigenvalues --    1.70563   1.71429   1.72469   1.73032   1.74287
 Alpha virt. eigenvalues --    1.76051   1.77031   1.78451   1.79586   1.80251
 Alpha virt. eigenvalues --    1.80742   1.81390   1.82648   1.83907   1.84351
 Alpha virt. eigenvalues --    1.85153   1.86201   1.87506   1.88112   1.89409
 Alpha virt. eigenvalues --    1.90179   1.91130   1.92520   1.92908   1.93195
 Alpha virt. eigenvalues --    1.94956   1.95983   1.96479   1.98125   1.98342
 Alpha virt. eigenvalues --    1.98715   1.99366   2.00252   2.01479   2.02291
 Alpha virt. eigenvalues --    2.02967   2.04607   2.06375   2.07119   2.09260
 Alpha virt. eigenvalues --    2.10076   2.11064   2.12654   2.13787   2.14159
 Alpha virt. eigenvalues --    2.15997   2.16606   2.17635   2.18643   2.19436
 Alpha virt. eigenvalues --    2.21023   2.23501   2.24523   2.25368   2.27642
 Alpha virt. eigenvalues --    2.28887   2.29027   2.29326   2.30040   2.31101
 Alpha virt. eigenvalues --    2.32368   2.33056   2.33548   2.34949   2.35889
 Alpha virt. eigenvalues --    2.36610   2.37767   2.38058   2.39607   2.41257
 Alpha virt. eigenvalues --    2.41810   2.43598   2.45516   2.47009   2.48471
 Alpha virt. eigenvalues --    2.50793   2.51801   2.56477   2.57424   2.58976
 Alpha virt. eigenvalues --    2.60608   2.62375   2.64991   2.66401   2.67276
 Alpha virt. eigenvalues --    2.71541   2.72648   2.75183   2.76337   2.78127
 Alpha virt. eigenvalues --    2.80959   2.82336   2.82636   2.83967   2.85155
 Alpha virt. eigenvalues --    2.87580   2.89574   2.91565   2.93404   2.95734
 Alpha virt. eigenvalues --    2.96283   3.00947   3.01916   3.04486   3.06479
 Alpha virt. eigenvalues --    3.09443   3.14018   3.16244   3.17392   3.20182
 Alpha virt. eigenvalues --    3.23367   3.34687   3.35813   3.37665   3.39152
 Alpha virt. eigenvalues --    3.44277   3.47866   3.50281   3.62531   3.64640
 Alpha virt. eigenvalues --    3.71720   3.74086   3.74698   3.75423   3.76839
 Alpha virt. eigenvalues --    3.79360   3.81338   3.81803   3.85044   3.87727
 Alpha virt. eigenvalues --    3.88475   3.89407   3.91709   3.95426   4.00489
 Alpha virt. eigenvalues --    4.05408   4.11947   4.33265   4.60771   4.88917
          Condensed to atoms (all electrons):
               1          2          3          4          5          6
     1  O    9.256531  -0.169638   0.002103   0.129807  -0.000959  -0.000620
     2  S   -0.169638  13.330646   0.007377  -0.052945  -0.058051   0.010277
     3  N    0.002103   0.007377   8.216187  -0.643433  -0.067439  -0.042416
     4  C    0.129807  -0.052945  -0.643433  11.162698  -0.898931   0.633241
     5  N   -0.000959  -0.058051  -0.067439  -0.898931   8.680340  -0.731564
     6  O   -0.000620   0.010277  -0.042416   0.633241  -0.731564  10.102008
     7  C   -0.158826   0.052892   0.335085  -0.738022  -0.237137  -0.839208
     8  C    0.003592   0.011299  -0.079637   0.326129   0.048678   0.617796
     9  C    0.000606  -0.004109   0.044137  -0.446654   0.200164  -0.167250
    10  C    0.006969  -0.001485  -0.010196  -0.073936   0.027715   0.049230
    11  C   -0.000171  -0.000349   0.003954  -0.040775   0.005044  -0.044508
    12  C   -0.000351   0.001493  -0.008323   0.205473  -0.079938  -0.027558
    13  C   -0.012194  -0.003258   0.018034   0.105118  -0.137880  -0.238871
    14  C    0.120321  -0.159333  -0.070747  -3.816769   0.742557  -0.189472
    15  C   -0.032484   0.470857  -0.157004   0.154385  -0.023670   0.002655
    16  O    0.062190  -0.100436   0.038159  -0.011111   0.025410   0.001263
    17  H    0.006966  -0.107735   0.468858  -0.177162  -0.072935  -0.002177
    18  H   -0.008011   0.002437   0.004472   0.045281   0.002936   0.006030
    19  H    0.000420  -0.000128  -0.000619   0.001591   0.000200   0.001566
    20  H   -0.000039  -0.000006   0.000115  -0.001234   0.000315  -0.000293
    21  H    0.000033   0.000041  -0.000262   0.001450  -0.001820   0.005217
    22  H   -0.000819  -0.000068   0.000511   0.028192  -0.033955  -0.097155
    23  H   -0.029875   0.028526  -0.041791   0.217588  -0.071053   0.014244
    24  H    0.021387  -0.055494  -0.016847   0.017538  -0.002029   0.000702
    25  H    0.013623  -0.054245  -0.062947   0.018134  -0.001634   0.000287
    26  H   -0.006637   0.033374   0.034378  -0.023553  -0.000436   0.000092
               7          8          9         10         11         12
     1  O   -0.158826   0.003592   0.000606   0.006969  -0.000171  -0.000351
     2  S    0.052892   0.011299  -0.004109  -0.001485  -0.000349   0.001493
     3  N    0.335085  -0.079637   0.044137  -0.010196   0.003954  -0.008323
     4  C   -0.738022   0.326129  -0.446654  -0.073936  -0.040775   0.205473
     5  N   -0.237137   0.048678   0.200164   0.027715   0.005044  -0.079938
     6  O   -0.839208   0.617796  -0.167250   0.049230  -0.044508  -0.027558
     7  C   20.727562  -5.682369  -0.002111  -0.777153   0.598039  -0.529512
     8  C   -5.682369  19.289760  -7.302265   2.056736  -3.665384   1.529539
     9  C   -0.002111  -7.302265  21.306935  -6.464100   3.509113  -3.347807
    10  C   -0.777153   2.056736  -6.464100  13.799183  -3.136181   3.431365
    11  C    0.598039  -3.665384   3.509113  -3.136181   9.274224  -2.949411
    12  C   -0.529512   1.529539  -3.347807   3.431365  -2.949411  11.508284
    13  C    0.303074  -5.594471   0.049156  -3.098213   2.520309  -3.815489
    14  C   -8.018693   2.156519  -1.535660   0.713959  -0.388825   0.026111
    15  C   -0.036565   0.003255  -0.000450   0.000157  -0.000095   0.000191
    16  O   -0.022531   0.001609   0.000050   0.000207  -0.000002  -0.000104
    17  H   -0.041073  -0.004884   0.002478   0.000125  -0.000099   0.000096
    18  H   -0.121638   0.811913  -1.140274   0.185956  -0.122164   0.088609
    19  H   -0.036366  -0.148688   0.905105  -0.960650   0.306125  -0.259110
    20  H   -0.011839   0.037756  -0.080728   0.282275  -0.558291   0.369888
    21  H   -0.012778  -0.124519   0.083976  -0.224319   0.306461  -0.780741
    22  H    0.260521   0.286031  -0.109858   0.052713  -0.095988   0.356255
    23  H    0.895180  -0.062560  -0.032466   0.068541  -0.031257   0.014569
    24  H    0.007402   0.000033  -0.000614  -0.000367   0.000005   0.000044
    25  H   -0.005105  -0.000964   0.000207   0.000104  -0.000015   0.000017
    26  H    0.008986   0.000002  -0.000505  -0.000141   0.000004   0.000012
              13         14         15         16         17         18
     1  O   -0.012194   0.120321  -0.032484   0.062190   0.006966  -0.008011
     2  S   -0.003258  -0.159333   0.470857  -0.100436  -0.107735   0.002437
     3  N    0.018034  -0.070747  -0.157004   0.038159   0.468858   0.004472
     4  C    0.105118  -3.816769   0.154385  -0.011111  -0.177162   0.045281
     5  N   -0.137880   0.742557  -0.023670   0.025410  -0.072935   0.002936
     6  O   -0.238871  -0.189472   0.002655   0.001263  -0.002177   0.006030
     7  C    0.303074  -8.018693  -0.036565  -0.022531  -0.041073  -0.121638
     8  C   -5.594471   2.156519   0.003255   0.001609  -0.004884   0.811913
     9  C    0.049156  -1.535660  -0.000450   0.000050   0.002478  -1.140274
    10  C   -3.098213   0.713959   0.000157   0.000207   0.000125   0.185956
    11  C    2.520309  -0.388825  -0.000095  -0.000002  -0.000099  -0.122164
    12  C   -3.815489   0.026111   0.000191  -0.000104   0.000096   0.088609
    13  C   18.159498  -2.372110  -0.001585  -0.001332  -0.002387  -0.095675
    14  C   -2.372110  18.242568  -0.056869   0.032742   0.097118   0.106329
    15  C   -0.001585  -0.056869   4.584292  -0.042257  -0.015549  -0.000163
    16  O   -0.001332   0.032742  -0.042257   9.116483   0.025806  -0.000809
    17  H   -0.002387   0.097118  -0.015549   0.025806   0.837246  -0.000328
    18  H   -0.095675   0.106329  -0.000163  -0.000809  -0.000328   1.987045
    19  H    0.106063   0.049514   0.000021   0.000006   0.000024  -0.079536
    20  H   -0.072345   0.001277  -0.000005  -0.000001  -0.000002  -0.017764
    21  H    0.682264   0.007501   0.000011  -0.000000   0.000000   0.009485
    22  H   -0.822013  -0.064746  -0.000291  -0.000024  -0.000509  -0.015088
    23  H    0.028902  -1.371461  -0.005907   0.001958   0.007816  -0.087818
    24  H    0.000227  -0.023313   0.364713   0.003761  -0.003607   0.000833
    25  H   -0.000131   0.001599   0.351222   0.036455   0.009467  -0.000382
    26  H    0.000174  -0.001117   0.312758  -0.008342  -0.003823   0.000550
              19         20         21         22         23         24
     1  O    0.000420  -0.000039   0.000033  -0.000819  -0.029875   0.021387
     2  S   -0.000128  -0.000006   0.000041  -0.000068   0.028526  -0.055494
     3  N   -0.000619   0.000115  -0.000262   0.000511  -0.041791  -0.016847
     4  C    0.001591  -0.001234   0.001450   0.028192   0.217588   0.017538
     5  N    0.000200   0.000315  -0.001820  -0.033955  -0.071053  -0.002029
     6  O    0.001566  -0.000293   0.005217  -0.097155   0.014244   0.000702
     7  C   -0.036366  -0.011839  -0.012778   0.260521   0.895180   0.007402
     8  C   -0.148688   0.037756  -0.124519   0.286031  -0.062560   0.000033
     9  C    0.905105  -0.080728   0.083976  -0.109858  -0.032466  -0.000614
    10  C   -0.960650   0.282275  -0.224319   0.052713   0.068541  -0.000367
    11  C    0.306125  -0.558291   0.306461  -0.095988  -0.031257   0.000005
    12  C   -0.259110   0.369888  -0.780741   0.356255   0.014569   0.000044
    13  C    0.106063  -0.072345   0.682264  -0.822013   0.028902   0.000227
    14  C    0.049514   0.001277   0.007501  -0.064746  -1.371461  -0.023313
    15  C    0.000021  -0.000005   0.000011  -0.000291  -0.005907   0.364713
    16  O    0.000006  -0.000001  -0.000000  -0.000024   0.001958   0.003761
    17  H    0.000024  -0.000002   0.000000  -0.000509   0.007816  -0.003607
    18  H   -0.079536  -0.017764   0.009485  -0.015088  -0.087818   0.000833
    19  H    1.664316  -0.051475  -0.020363   0.006633  -0.001188  -0.000034
    20  H   -0.051475   1.606608  -0.057232  -0.012152   0.000483   0.000001
    21  H   -0.020363  -0.057232   1.651218  -0.086663   0.000805  -0.000001
    22  H    0.006633  -0.012152  -0.086663   2.011342   0.000640  -0.000001
    23  H   -0.001188   0.000483   0.000805   0.000640   2.053860  -0.008747
    24  H   -0.000034   0.000001  -0.000001  -0.000001  -0.008747   0.813780
    25  H    0.000012  -0.000001   0.000002  -0.000034   0.003265  -0.085719
    26  H   -0.000015   0.000000  -0.000000   0.000014  -0.004296  -0.074226
              25         26
     1  O    0.013623  -0.006637
     2  S   -0.054245   0.033374
     3  N   -0.062947   0.034378
     4  C    0.018134  -0.023553
     5  N   -0.001634  -0.000436
     6  O    0.000287   0.000092
     7  C   -0.005105   0.008986
     8  C   -0.000964   0.000002
     9  C    0.000207  -0.000505
    10  C    0.000104  -0.000141
    11  C   -0.000015   0.000004
    12  C    0.000017   0.000012
    13  C   -0.000131   0.000174
    14  C    0.001599  -0.001117
    15  C    0.351222   0.312758
    16  O    0.036455  -0.008342
    17  H    0.009467  -0.003823
    18  H   -0.000382   0.000550
    19  H    0.000012  -0.000015
    20  H   -0.000001   0.000000
    21  H    0.000002  -0.000000
    22  H   -0.000034   0.000014
    23  H    0.003265  -0.004296
    24  H   -0.085719  -0.074226
    25  H    0.891698  -0.096907
    26  H   -0.096907   0.782896
 Mulliken charges:
               1
     1  O   -1.203926
     2  S    2.818059
     3  N   -0.971709
     4  C   -0.122097
     5  N   -0.313927
     6  O   -1.063516
     7  C    0.082187
     8  C    1.485098
     9  C    0.532925
    10  C    0.071506
    11  C    0.510237
    12  C    0.266397
    13  C    0.295135
    14  C    1.770999
    15  C    0.128373
    16  O   -1.159150
    17  H   -0.023731
    18  H   -0.562227
    19  H   -0.483425
    20  H   -0.435312
    21  H   -0.439766
    22  H   -0.663488
    23  H   -0.587958
    24  H    0.040573
    25  H   -0.018010
    26  H    0.046754
 Sum of Mulliken charges =  -0.00000
 Mulliken charges with hydrogens summed into heavy atoms:
               1
     1  O   -1.203926
     2  S    2.818059
     3  N   -0.995440
     4  C   -0.122097
     5  N   -0.313927
     6  O   -1.063516
     7  C    0.082187
     8  C    1.485098
     9  C   -0.029301
    10  C   -0.411919
    11  C    0.074925
    12  C   -0.173369
    13  C   -0.368354
    14  C    1.183041
    15  C    0.197691
    16  O   -1.159150
 Electronic spatial extent (au):  <R**2>=           5539.8870
 Charge=             -0.0000 electrons
 Dipole moment (field-independent basis, Debye):
    X=             -0.5538    Y=             -1.0077    Z=             -3.7359  Tot=              3.9089
 Quadrupole moment (field-independent basis, Debye-Ang):
   XX=            -66.5434   YY=           -103.8068   ZZ=           -109.1143
   XY=             -5.5752   XZ=             16.7841   YZ=              1.3549
 Traceless Quadrupole moment (field-independent basis, Debye-Ang):
   XX=             26.6115   YY=            -10.6520   ZZ=            -15.9595
   XY=             -5.5752   XZ=             16.7841   YZ=              1.3549
 Octapole moment (field-independent basis, Debye-Ang**2):
  XXX=            -71.8514  YYY=            -14.2761  ZZZ=             -5.4600  XYY=              3.1209
  XXY=              1.3793  XXZ=            -58.9065  XZZ=            -18.7388  YZZ=              0.3273
  YYZ=             -1.5923  XYZ=              2.0224
 Hexadecapole moment (field-independent basis, Debye-Ang**3):
 XXXX=          -5188.3107 YYYY=           -872.2547 ZZZZ=           -273.7704 XXXY=             32.7711
 XXXZ=            314.0689 YYYX=            -27.0910 YYYZ=              4.4198 ZZZX=             26.3448
 ZZZY=              2.9986 XXYY=          -1083.7104 XXZZ=          -1235.3341 YYZZ=           -193.7928
 XXYZ=             14.7815 YYXZ=              2.7983 ZZXY=             24.8207
 N-N= 1.175443404462D+03 E-N=-4.976812949969D+03  KE= 1.114154672923D+03
 Leave Link  601 at Tue Sep 22 18:39:26 2020, MaxMem=   262144000 cpu:               0.7 elap:               0.3
 (Enter /prod/apps/gaussian/g16b1/l9999.exe)
 1\1\GINC-PIRINEUS21\SP\RMP2-FC\Aug-CC-pVDZ\C10H10N2O3S1\UBAFAR01\22-Se
 p-2020\0\\#p mp2/aug-cc-pVDZ scf=(MaxCycle=2000,NoVarAcc,NoIncFock) ma
 xdisk=120GB geom=allcheck\\SM41_m0.n.1.pdb.xyz\\0,1\O,0,-2.5447602023,
 -1.6663824002,0.0960740028\S,0,-3.3133647315,-0.4229235995,0.236032253
 \N,0,-2.3789142528,0.8151981049,-0.4726767971\C,0,-0.9989305184,0.8862
 99706,-0.2469860949\N,0,-0.4529448837,2.072146595,-0.0458906989\O,0,0.
 9247834774,1.8211185012,0.0303020624\C,0,1.1527680395,0.4921334709,-0.
 1075764498\C,0,2.5379013724,0.0387123327,-0.0462323957\C,0,2.835892675
 4,-1.3302127457,-0.1524275901\C,0,4.1574919192,-1.7640314561,-0.096213
 6197\C,0,5.1944328173,-0.8413811967,0.0663827093\C,0,4.9035712564,0.52
 04947792,0.1731612711\C,0,3.5836935582,0.9617644715,0.1176060059\C,0,-
 0.0364259969,-0.156385276,-0.2918046511\C,0,-4.7108115496,-0.427955651
 4,-0.8811371927\O,0,-3.7747982108,-0.0313328021,1.5767878922\H,0,-2.84
 17741086,1.7214010179,-0.372625536\H,0,2.0340158887,-2.0496266685,-0.2
 769473406\H,0,4.3789427455,-2.8227042133,-0.1787826709\H,0,6.222978137
 3,-1.1826188364,0.1098466448\H,0,5.7052730525,1.2401110659,0.299450545
 2\H,0,3.3537527894,2.0174490494,0.1991846693\H,0,-0.2198699522,-1.2053
 38096,-0.4384407925\H,0,-4.357806853,-0.6844735363,-1.8783652965\H,0,-
 5.1781865799,0.5563817889,-0.8688689487\H,0,-5.4059098896,-1.180844405
 2,-0.5078519809\\Version=ES64L-G16RevB.01\State=1-A\HF=-1115.4713599\M
 P2=-1117.9239757\RMSD=8.122e-09\PG=C01 [X(C10H10N2O3S1)]\\@


 OPTIMIST - A PESSIMIST WHO LACKS EXPERIENCE
 Job cpu time:       0 days  0 hours 58 minutes 33.6 seconds.
 Elapsed time:       0 days  0 hours 15 minutes 44.3 seconds.
 File lengths (MBytes):  RWF=  35113 Int=      0 D2E=      0 Chk=     19 Scr=      1
 Normal termination of Gaussian 16 at Tue Sep 22 18:39:27 2020.
