 Entering Gaussian System, Link 0=g16
 Initial command:
 /prod/apps/gaussian/g16b1/l1.exe "/tmp/ubafar01/1461129/Gau-105742.inp" -scrdir="/tmp/ubafar01/1461129/"
 Entering Link 1 = /prod/apps/gaussian/g16b1/l1.exe PID=    105744.
  
 Copyright (c) 1988-2017, Gaussian, Inc.  All Rights Reserved.
  
 This is part of the Gaussian(R) 16 program.  It is based on
 the Gaussian(R) 09 system (copyright 2009, Gaussian, Inc.),
 the Gaussian(R) 03 system (copyright 2003, Gaussian, Inc.),
 the Gaussian(R) 98 system (copyright 1998, Gaussian, Inc.),
 the Gaussian(R) 94 system (copyright 1995, Gaussian, Inc.),
 the Gaussian 92(TM) system (copyright 1992, Gaussian, Inc.),
 the Gaussian 90(TM) system (copyright 1990, Gaussian, Inc.),
 the Gaussian 88(TM) system (copyright 1988, Gaussian, Inc.),
 the Gaussian 86(TM) system (copyright 1986, Carnegie Mellon
 University), and the Gaussian 82(TM) system (copyright 1983,
 Carnegie Mellon University). Gaussian is a federally registered
 trademark of Gaussian, Inc.
  
 This software contains proprietary and confidential information,
 including trade secrets, belonging to Gaussian, Inc.
  
 This software is provided under written license and may be
 used, copied, transmitted, or stored only in accord with that
 written license.
  
 The following legend is applicable only to US Government
 contracts under FAR:
  
                    RESTRICTED RIGHTS LEGEND
  
 Use, reproduction and disclosure by the US Government is
 subject to restrictions as set forth in subparagraphs (a)
 and (c) of the Commercial Computer Software - Restricted
 Rights clause in FAR 52.227-19.
  
 Gaussian, Inc.
 340 Quinnipiac St., Bldg. 40, Wallingford CT 06492
  
  
 ---------------------------------------------------------------
 Warning -- This program may not be used in any manner that
 competes with the business of Gaussian, Inc. or will provide
 assistance to any competitor of Gaussian, Inc.  The licensee
 of this program is prohibited from giving any competitor of
 Gaussian, Inc. access to this program.  By using this program,
 the user acknowledges that Gaussian, Inc. is engaged in the
 business of creating and licensing software in the field of
 computational chemistry and represents and warrants to the
 licensee that it is not a competitor of Gaussian, Inc. and that
 it will not use this program in any manner prohibited above.
 ---------------------------------------------------------------
  

 Cite this work as:
 Gaussian 16, Revision B.01,
 M. J. Frisch, G. W. Trucks, H. B. Schlegel, G. E. Scuseria, 
 M. A. Robb, J. R. Cheeseman, G. Scalmani, V. Barone, 
 G. A. Petersson, H. Nakatsuji, X. Li, M. Caricato, A. V. Marenich, 
 J. Bloino, B. G. Janesko, R. Gomperts, B. Mennucci, H. P. Hratchian, 
 J. V. Ortiz, A. F. Izmaylov, J. L. Sonnenberg, D. Williams-Young, 
 F. Ding, F. Lipparini, F. Egidi, J. Goings, B. Peng, A. Petrone, 
 T. Henderson, D. Ranasinghe, V. G. Zakrzewski, J. Gao, N. Rega, 
 G. Zheng, W. Liang, M. Hada, M. Ehara, K. Toyota, R. Fukuda, 
 J. Hasegawa, M. Ishida, T. Nakajima, Y. Honda, O. Kitao, H. Nakai, 
 T. Vreven, K. Throssell, J. A. Montgomery, Jr., J. E. Peralta, 
 F. Ogliaro, M. J. Bearpark, J. J. Heyd, E. N. Brothers, K. N. Kudin, 
 V. N. Staroverov, T. A. Keith, R. Kobayashi, J. Normand, 
 K. Raghavachari, A. P. Rendell, J. C. Burant, S. S. Iyengar, 
 J. Tomasi, M. Cossi, J. M. Millam, M. Klene, C. Adamo, R. Cammi, 
 J. W. Ochterski, R. L. Martin, K. Morokuma, O. Farkas, 
 J. B. Foresman, and D. J. Fox, Gaussian, Inc., Wallingford CT, 2016.
 
 ******************************************
 Gaussian 16:  ES64L-G16RevB.01 20-Dec-2017
                24-Sep-2020 
 ******************************************
 %nproc=4
 Will use up to    4 processors via shared memory.
 %Chk=SM41_m1.a.2.pdb.xyz.mst.a.w.chk
 %mem=16GB
 ----------------------------------------------------------------------
 #p b3lyp/6-31G(d) opt freq NoSymm scf=(MaxCycle=2000,NoVarAcc,NoIncFoc
 k) scrf=(iefpcm,read,solvent=water)
 ----------------------------------------------------------------------
 1/18=20,19=15,26=3,38=1,40=2/1,3;
 2/9=110,12=2,15=1,17=6,18=5,40=1/2;
 3/5=1,6=6,7=1,11=2,25=1,30=1,70=2203,71=1,72=1,74=-5/1,2,3;
 4//1;
 5/5=100002,7=2000,38=1,53=1/2;
 6/7=2,8=2,9=2,10=2,28=1/1;
 7/30=1/1,2,3,16;
 1/18=20,19=15,26=3/3(2);
 2/9=110,15=1/2;
 99//99;
 2/9=110,15=1/2;
 3/5=1,6=6,7=1,11=2,25=1,30=1,70=2205,71=1,72=1,74=-5/1,2,3;
 4/5=5,16=3,69=1/1;
 5/5=100002,7=2000,38=1,53=1/2;
 7/30=1/1,2,3,16;
 1/18=20,19=15,26=3/3(-5);
 2/9=110,15=1/2;
 6/7=2,8=2,9=2,10=2,19=2,28=1/1;
 99/9=1/99;
 Leave Link    1 at Thu Sep 24 04:40:25 2020, MaxMem=  2147483648 cpu:               0.1 elap:               0.0
 (Enter /prod/apps/gaussian/g16b1/l101.exe)
 -------------------
 SM41_m1.a.2.pdb.xyz
 -------------------
 Symbolic Z-matrix:
 Charge = -1 Multiplicity = 1
 O                    -3.632    -0.741     1.42 
 S                    -3.575     0.101     0.19 
 N                    -2.199     0.926     0.004 
 C                    -0.994     0.275     0.068 
 N                    -0.797    -1.038     0.216 
 O                     0.617    -1.212     0.202 
 C                     1.214    -0.004     0.051 
 C                     2.677     0.022     0.02 
 C                     3.36      1.235    -0.177 
 C                     4.753     1.264    -0.204 
 C                     5.486     0.085    -0.036 
 C                     4.815    -1.125     0.159 
 C                     3.421    -1.16      0.188 
 C                     0.262     0.967    -0.04 
 C                    -3.742    -1.037    -1.204 
 O                    -4.673     1.093     0.06 
 H                     2.8       2.156    -0.31 
 H                     5.267     2.208    -0.357 
 H                     6.572     0.11     -0.058 
 H                     5.377    -2.045     0.291 
 H                     2.904    -2.101     0.341 
 H                     0.396     2.031    -0.162 
 H                    -2.895    -1.724    -1.199 
 H                    -3.76     -0.457    -2.129 
 H                    -4.679    -1.586    -1.083 
 
 ITRead=  0  0  0  0  0  0  0  0  0  0  0  0  0  0  0  0  0  0  0  0
 ITRead=  0  0  0  0  0
 MicOpt= -1 -1 -1 -1 -1 -1 -1 -1 -1 -1 -1 -1 -1 -1 -1 -1 -1 -1 -1 -1
 MicOpt= -1 -1 -1 -1 -1
 NAtoms=     25 NQM=       25 NQMF=       0 NMMI=      0 NMMIF=      0
                NMic=       0 NMicF=      0.
                    Isotopes and Nuclear Properties:
 (Nuclear quadrupole moments (NQMom) in fm**2, nuclear magnetic moments (NMagM)
  in nuclear magnetons)

  Atom         1           2           3           4           5           6           7           8           9          10
 IAtWgt=          16          32          14          12          14          16          12          12          12          12
 AtmWgt=  15.9949146  31.9720718  14.0030740  12.0000000  14.0030740  15.9949146  12.0000000  12.0000000  12.0000000  12.0000000
 NucSpn=           0           0           2           0           2           0           0           0           0           0
 AtZEff=  -0.0000000  -0.0000000  -0.0000000  -0.0000000  -0.0000000  -0.0000000  -0.0000000  -0.0000000  -0.0000000  -0.0000000
 NQMom=    0.0000000   0.0000000   2.0440000   0.0000000   2.0440000   0.0000000   0.0000000   0.0000000   0.0000000   0.0000000
 NMagM=    0.0000000   0.0000000   0.4037610   0.0000000   0.4037610   0.0000000   0.0000000   0.0000000   0.0000000   0.0000000
 AtZNuc=   8.0000000  16.0000000   7.0000000   6.0000000   7.0000000   8.0000000   6.0000000   6.0000000   6.0000000   6.0000000

  Atom        11          12          13          14          15          16          17          18          19          20
 IAtWgt=          12          12          12          12          12          16           1           1           1           1
 AtmWgt=  12.0000000  12.0000000  12.0000000  12.0000000  12.0000000  15.9949146   1.0078250   1.0078250   1.0078250   1.0078250
 NucSpn=           0           0           0           0           0           0           1           1           1           1
 AtZEff=  -0.0000000  -0.0000000  -0.0000000  -0.0000000  -0.0000000  -0.0000000  -0.0000000  -0.0000000  -0.0000000  -0.0000000
 NQMom=    0.0000000   0.0000000   0.0000000   0.0000000   0.0000000   0.0000000   0.0000000   0.0000000   0.0000000   0.0000000
 NMagM=    0.0000000   0.0000000   0.0000000   0.0000000   0.0000000   0.0000000   2.7928460   2.7928460   2.7928460   2.7928460
 AtZNuc=   6.0000000   6.0000000   6.0000000   6.0000000   6.0000000   8.0000000   1.0000000   1.0000000   1.0000000   1.0000000

  Atom        21          22          23          24          25
 IAtWgt=           1           1           1           1           1
 AtmWgt=   1.0078250   1.0078250   1.0078250   1.0078250   1.0078250
 NucSpn=           1           1           1           1           1
 AtZEff=  -0.0000000  -0.0000000  -0.0000000  -0.0000000  -0.0000000
 NQMom=    0.0000000   0.0000000   0.0000000   0.0000000   0.0000000
 NMagM=    2.7928460   2.7928460   2.7928460   2.7928460   2.7928460
 AtZNuc=   1.0000000   1.0000000   1.0000000   1.0000000   1.0000000
 Leave Link  101 at Thu Sep 24 04:40:26 2020, MaxMem=  2147483648 cpu:               1.2 elap:               0.3
 (Enter /prod/apps/gaussian/g16b1/l103.exe)

 GradGradGradGradGradGradGradGradGradGradGradGradGradGradGradGradGradGrad
 Berny optimization.
 Initialization pass.
                           ----------------------------
                           !    Initial Parameters    !
                           ! (Angstroms and Degrees)  !
 --------------------------                            --------------------------
 ! Name  Definition              Value          Derivative Info.                !
 --------------------------------------------------------------------------------
 ! R1    R(1,2)                  1.4917         estimate D2E/DX2                !
 ! R2    R(2,3)                  1.6151         estimate D2E/DX2                !
 ! R3    R(2,15)                 1.8073         estimate D2E/DX2                !
 ! R4    R(2,16)                 1.4855         estimate D2E/DX2                !
 ! R5    R(3,4)                  1.3711         estimate D2E/DX2                !
 ! R6    R(4,5)                  1.3359         estimate D2E/DX2                !
 ! R7    R(4,14)                 1.4381         estimate D2E/DX2                !
 ! R8    R(5,6)                  1.4247         estimate D2E/DX2                !
 ! R9    R(6,7)                  1.3559         estimate D2E/DX2                !
 ! R10   R(7,8)                  1.4636         estimate D2E/DX2                !
 ! R11   R(7,14)                 1.3629         estimate D2E/DX2                !
 ! R12   R(8,9)                  1.4059         estimate D2E/DX2                !
 ! R13   R(8,13)                 1.4067         estimate D2E/DX2                !
 ! R14   R(9,10)                 1.3936         estimate D2E/DX2                !
 ! R15   R(9,17)                 1.0861         estimate D2E/DX2                !
 ! R16   R(10,11)                1.3984         estimate D2E/DX2                !
 ! R17   R(10,18)                1.0857         estimate D2E/DX2                !
 ! R18   R(11,12)                1.3973         estimate D2E/DX2                !
 ! R19   R(11,19)                1.0865         estimate D2E/DX2                !
 ! R20   R(12,13)                1.3947         estimate D2E/DX2                !
 ! R21   R(12,20)                1.0861         estimate D2E/DX2                !
 ! R22   R(13,21)                1.0845         estimate D2E/DX2                !
 ! R23   R(14,22)                1.0793         estimate D2E/DX2                !
 ! R24   R(15,23)                1.0906         estimate D2E/DX2                !
 ! R25   R(15,24)                1.0919         estimate D2E/DX2                !
 ! R26   R(15,25)                1.0927         estimate D2E/DX2                !
 ! A1    A(1,2,3)              114.5724         estimate D2E/DX2                !
 ! A2    A(1,2,15)             106.0847         estimate D2E/DX2                !
 ! A3    A(1,2,16)             114.8897         estimate D2E/DX2                !
 ! A4    A(3,2,15)             108.152          estimate D2E/DX2                !
 ! A5    A(3,2,16)             106.1731         estimate D2E/DX2                !
 ! A6    A(15,2,16)            106.5411         estimate D2E/DX2                !
 ! A7    A(2,3,4)              120.0555         estimate D2E/DX2                !
 ! A8    A(3,4,5)              126.972          estimate D2E/DX2                !
 ! A9    A(3,4,14)             122.3848         estimate D2E/DX2                !
 ! A10   A(5,4,14)             110.6384         estimate D2E/DX2                !
 ! A11   A(4,5,6)              105.3846         estimate D2E/DX2                !
 ! A12   A(5,6,7)              109.2243         estimate D2E/DX2                !
 ! A13   A(6,7,8)              117.2784         estimate D2E/DX2                !
 ! A14   A(6,7,14)             109.5498         estimate D2E/DX2                !
 ! A15   A(8,7,14)             133.1716         estimate D2E/DX2                !
 ! A16   A(7,8,9)              120.2587         estimate D2E/DX2                !
 ! A17   A(7,8,13)             120.7457         estimate D2E/DX2                !
 ! A18   A(9,8,13)             118.9955         estimate D2E/DX2                !
 ! A19   A(8,9,10)             120.4156         estimate D2E/DX2                !
 ! A20   A(8,9,17)             119.8885         estimate D2E/DX2                !
 ! A21   A(10,9,17)            119.6959         estimate D2E/DX2                !
 ! A22   A(9,10,11)            120.2704         estimate D2E/DX2                !
 ! A23   A(9,10,18)            119.6078         estimate D2E/DX2                !
 ! A24   A(11,10,18)           120.1217         estimate D2E/DX2                !
 ! A25   A(10,11,12)           119.6798         estimate D2E/DX2                !
 ! A26   A(10,11,19)           120.1383         estimate D2E/DX2                !
 ! A27   A(12,11,19)           120.1819         estimate D2E/DX2                !
 ! A28   A(11,12,13)           120.3048         estimate D2E/DX2                !
 ! A29   A(11,12,20)           120.1323         estimate D2E/DX2                !
 ! A30   A(13,12,20)           119.5628         estimate D2E/DX2                !
 ! A31   A(8,13,12)            120.3338         estimate D2E/DX2                !
 ! A32   A(8,13,21)            119.5892         estimate D2E/DX2                !
 ! A33   A(12,13,21)           120.077          estimate D2E/DX2                !
 ! A34   A(4,14,7)             105.2025         estimate D2E/DX2                !
 ! A35   A(4,14,22)            126.2485         estimate D2E/DX2                !
 ! A36   A(7,14,22)            128.5484         estimate D2E/DX2                !
 ! A37   A(2,15,23)            108.7449         estimate D2E/DX2                !
 ! A38   A(2,15,24)            108.6911         estimate D2E/DX2                !
 ! A39   A(2,15,25)            108.0708         estimate D2E/DX2                !
 ! A40   A(23,15,24)           110.5656         estimate D2E/DX2                !
 ! A41   A(23,15,25)           110.4244         estimate D2E/DX2                !
 ! A42   A(24,15,25)           110.2756         estimate D2E/DX2                !
 ! D1    D(1,2,3,4)             52.3168         estimate D2E/DX2                !
 ! D2    D(15,2,3,4)           -65.7509         estimate D2E/DX2                !
 ! D3    D(16,2,3,4)          -179.7702         estimate D2E/DX2                !
 ! D4    D(1,2,15,23)          -62.6015         estimate D2E/DX2                !
 ! D5    D(1,2,15,24)          176.9731         estimate D2E/DX2                !
 ! D6    D(1,2,15,25)           57.2905         estimate D2E/DX2                !
 ! D7    D(3,2,15,23)           60.7646         estimate D2E/DX2                !
 ! D8    D(3,2,15,24)          -59.6608         estimate D2E/DX2                !
 ! D9    D(3,2,15,25)         -179.3435         estimate D2E/DX2                !
 ! D10   D(16,2,15,23)         174.5401         estimate D2E/DX2                !
 ! D11   D(16,2,15,24)          54.1147         estimate D2E/DX2                !
 ! D12   D(16,2,15,25)         -65.568          estimate D2E/DX2                !
 ! D13   D(2,3,4,5)              3.2717         estimate D2E/DX2                !
 ! D14   D(2,3,4,14)          -177.5945         estimate D2E/DX2                !
 ! D15   D(3,4,5,6)            179.0942         estimate D2E/DX2                !
 ! D16   D(14,4,5,6)            -0.1241         estimate D2E/DX2                !
 ! D17   D(3,4,14,7)          -179.2318         estimate D2E/DX2                !
 ! D18   D(3,4,14,22)            1.0279         estimate D2E/DX2                !
 ! D19   D(5,4,14,7)             0.0287         estimate D2E/DX2                !
 ! D20   D(5,4,14,22)         -179.7117         estimate D2E/DX2                !
 ! D21   D(4,5,6,7)              0.1783         estimate D2E/DX2                !
 ! D22   D(5,6,7,8)            179.7019         estimate D2E/DX2                !
 ! D23   D(5,6,7,14)            -0.1663         estimate D2E/DX2                !
 ! D24   D(6,7,8,9)            177.9482         estimate D2E/DX2                !
 ! D25   D(6,7,8,13)            -2.1499         estimate D2E/DX2                !
 ! D26   D(14,7,8,9)            -2.2221         estimate D2E/DX2                !
 ! D27   D(14,7,8,13)          177.6798         estimate D2E/DX2                !
 ! D28   D(6,7,14,4)             0.0866         estimate D2E/DX2                !
 ! D29   D(6,7,14,22)          179.8188         estimate D2E/DX2                !
 ! D30   D(8,7,14,4)          -179.7528         estimate D2E/DX2                !
 ! D31   D(8,7,14,22)           -0.0206         estimate D2E/DX2                !
 ! D32   D(7,8,9,10)           179.851          estimate D2E/DX2                !
 ! D33   D(7,8,9,17)            -0.2023         estimate D2E/DX2                !
 ! D34   D(13,8,9,10)           -0.0526         estimate D2E/DX2                !
 ! D35   D(13,8,9,17)          179.8941         estimate D2E/DX2                !
 ! D36   D(7,8,13,12)         -179.9007         estimate D2E/DX2                !
 ! D37   D(7,8,13,21)            0.0733         estimate D2E/DX2                !
 ! D38   D(9,8,13,12)            0.0024         estimate D2E/DX2                !
 ! D39   D(9,8,13,21)          179.9764         estimate D2E/DX2                !
 ! D40   D(8,9,10,11)            0.0404         estimate D2E/DX2                !
 ! D41   D(8,9,10,18)         -179.9983         estimate D2E/DX2                !
 ! D42   D(17,9,10,11)        -179.9064         estimate D2E/DX2                !
 ! D43   D(17,9,10,18)           0.0549         estimate D2E/DX2                !
 ! D44   D(9,10,11,12)           0.0226         estimate D2E/DX2                !
 ! D45   D(9,10,11,19)         179.9647         estimate D2E/DX2                !
 ! D46   D(18,10,11,12)       -179.9386         estimate D2E/DX2                !
 ! D47   D(18,10,11,19)          0.0036         estimate D2E/DX2                !
 ! D48   D(10,11,12,13)         -0.0729         estimate D2E/DX2                !
 ! D49   D(10,11,12,20)       -179.9549         estimate D2E/DX2                !
 ! D50   D(19,11,12,13)        179.985          estimate D2E/DX2                !
 ! D51   D(19,11,12,20)          0.1029         estimate D2E/DX2                !
 ! D52   D(11,12,13,8)           0.0604         estimate D2E/DX2                !
 ! D53   D(11,12,13,21)       -179.9135         estimate D2E/DX2                !
 ! D54   D(20,12,13,8)         179.9431         estimate D2E/DX2                !
 ! D55   D(20,12,13,21)         -0.0308         estimate D2E/DX2                !
 --------------------------------------------------------------------------------
 Trust Radius=3.00D-01 FncErr=1.00D-07 GrdErr=1.00D-06 EigMax=2.50D+02 EigMin=1.00D-04
 Number of steps in this run=    133 maximum allowed number of steps=    150.
 GradGradGradGradGradGradGradGradGradGradGradGradGradGradGradGradGradGrad

 Leave Link  103 at Thu Sep 24 04:40:26 2020, MaxMem=  2147483648 cpu:               0.1 elap:               0.0
 (Enter /prod/apps/gaussian/g16b1/l202.exe)
                          Input orientation:                          
 ---------------------------------------------------------------------
 Center     Atomic      Atomic             Coordinates (Angstroms)
 Number     Number       Type             X           Y           Z
 ---------------------------------------------------------------------
      1          8           0       -3.632000   -0.741000    1.420000
      2         16           0       -3.575000    0.101000    0.190000
      3          7           0       -2.199000    0.926000    0.004000
      4          6           0       -0.994000    0.275000    0.068000
      5          7           0       -0.797000   -1.038000    0.216000
      6          8           0        0.617000   -1.212000    0.202000
      7          6           0        1.214000   -0.004000    0.051000
      8          6           0        2.677000    0.022000    0.020000
      9          6           0        3.360000    1.235000   -0.177000
     10          6           0        4.753000    1.264000   -0.204000
     11          6           0        5.486000    0.085000   -0.036000
     12          6           0        4.815000   -1.125000    0.159000
     13          6           0        3.421000   -1.160000    0.188000
     14          6           0        0.262000    0.967000   -0.040000
     15          6           0       -3.742000   -1.037000   -1.204000
     16          8           0       -4.673000    1.093000    0.060000
     17          1           0        2.800000    2.156000   -0.310000
     18          1           0        5.267000    2.208000   -0.357000
     19          1           0        6.572000    0.110000   -0.058000
     20          1           0        5.377000   -2.045000    0.291000
     21          1           0        2.904000   -2.101000    0.341000
     22          1           0        0.396000    2.031000   -0.162000
     23          1           0       -2.895000   -1.724000   -1.199000
     24          1           0       -3.760000   -0.457000   -2.129000
     25          1           0       -4.679000   -1.586000   -1.083000
 ---------------------------------------------------------------------
                    Distance matrix (angstroms):
                    1          2          3          4          5
     1  O    0.000000
     2  S    1.491681   0.000000
     3  N    2.614849   1.615115   0.000000
     4  C    3.133561   2.589734   1.371102   0.000000
     5  N    3.094358   3.002546   2.422363   1.335920   0.000000
     6  O    4.445151   4.392832   3.541201   2.196462   1.424734
     7  C    5.089307   4.792167   3.537750   2.225622   2.267268
     8  C    6.507354   6.254810   4.959118   3.680021   3.637402
     9  C    7.439291   7.036680   5.570523   4.465304   4.754117
    10  C    8.773006   8.418039   6.963319   5.837818   6.023131
    11  C    9.270390   9.063832   7.730984   6.483619   6.387544
    12  C    8.549233   8.479159   7.309365   5.976016   5.612964
    13  C    7.172043   7.108737   5.997470   4.643905   4.219857
    14  C    4.495787   3.940232   2.461735   1.438076   2.281894
    15  C    2.642932   1.807255   2.773713   3.300126   3.269469
    16  O    2.509350   1.485452   2.480262   3.768850   4.425932
    17  H    7.263342   6.716670   5.157664   4.251527   4.839083
    18  H    9.541831   9.106021   7.583865   6.566372   6.901952
    19  H   10.345545  10.150034   8.809094   7.568848   7.462918
    20  H    9.172630   9.206184   8.142787   6.783935   6.256033
    21  H    6.762628   6.844636   5.942803   4.573216   3.852661
    22  H    5.139211   4.429181   2.825351   2.251341   3.314347
    23  H    2.892857   2.392143   2.992344   3.035637   2.621912
    24  H    3.562645   2.392352   2.983136   3.607408   3.823082
    25  H    2.841697   2.384390   3.693523   4.285714   4.130088
                    6          7          8          9         10
     6  O    0.000000
     7  C    1.355903   0.000000
     8  C    2.408211   1.463559   0.000000
     9  C    3.695335   2.488458   1.405940   0.000000
    10  C    4.837552   3.767940   2.429509   1.393563   0.000000
    11  C    5.044404   4.273813   2.810264   2.421210   1.398411
    12  C    4.199122   3.772997   2.430221   2.792762   2.417216
    13  C    2.804517   2.495186   1.406728   2.423421   2.793504
    14  C    2.220952   1.362874   2.594003   3.112587   4.503797
    15  C    4.583486   5.215750   6.619911   7.526959   8.857744
    16  O    5.772113   5.988344   7.427728   8.037750   9.431247
    17  H    4.046116   2.703945   2.162865   1.086062   2.149676
    18  H    5.799257   4.635323   3.410106   2.148436   1.085698
    19  H    6.105515   5.360321   3.896775   3.405397   2.159119
    20  H    4.833157   4.642612   3.411148   3.878880   3.403510
    21  H    2.457643   2.708802   2.159097   3.406634   3.878022
    22  H    3.270839   2.203569   3.045023   3.069061   4.424195
    23  H    3.815637   4.626530   5.965037   6.994654   8.271038
    24  H    5.016145   5.449613   6.803132   7.574138   8.895990
    25  H    5.462483   6.206136   7.610060   8.567637   9.892308
                   11         12         13         14         15
    11  C    0.000000
    12  C    1.397271   0.000000
    13  C    2.421658   1.394741   0.000000
    14  C    5.297935   5.014566   3.815153   0.000000
    15  C    9.369050   8.665319   7.298038   4.626330   0.000000
    16  O   10.209337   9.744304   8.402692   4.937621   2.646008
    17  H    3.402751   3.878807   3.410205   2.815682   7.334320
    18  H    2.158270   3.402859   3.879196   5.166294   9.612987
    19  H    1.086510   2.158556   3.406203   6.367957  10.440667
    20  H    2.157709   1.086125   2.149365   5.945160   9.295550
    21  H    3.404034   2.153514   1.084518   4.066688   6.905682
    22  H    5.450770   5.439755   4.410851   1.079322   5.255610
    23  H    8.652526   7.851564   6.491049   4.307135   1.090598
    24  H    9.495416   8.900101   7.578223   4.750598   1.091947
    25  H   10.354500   9.585986   8.210172   5.658546   1.092708
                   16         17         18         19         20
    16  O    0.000000
    17  H    7.557288   0.000000
    18  H   10.011030   2.467996   0.000000
    19  H   11.288500   4.298558   2.488781   0.000000
    20  H   10.531045   4.964930   4.303488   2.488745   0.000000
    21  H    8.227486   4.307745   4.963714   4.301389   2.474139
    22  H    5.159834   2.411793   4.878114   6.468696   6.452081
    23  H    3.561159   6.948219   9.098782   9.710279   8.411250
    24  H    2.833335   7.291785   9.577523  10.552760   9.584514
    25  H    2.912649   8.398544  10.669790  11.424187  10.159808
                   21         22         23         24         25
    21  H    0.000000
    22  H    4.859681   0.000000
    23  H    6.011832   5.099615   0.000000
    24  H    7.294692   5.227960   1.793994   0.000000
    25  H    7.732716   6.299727   1.793086   1.792573   0.000000
 Symmetry turned off by external request.
 Stoichiometry    C10H9N2O3S(1-)
 Framework group  C1[X(C10H9N2O3S)]
 Deg. of freedom    69
 Full point group                 C1      NOp   1
 Rotational constants (GHZ):           1.9414205           0.1842944           0.1750660
 Leave Link  202 at Thu Sep 24 04:40:26 2020, MaxMem=  2147483648 cpu:               0.0 elap:               0.0
 (Enter /prod/apps/gaussian/g16b1/l301.exe)
 Standard basis: 6-31G(d) (6D, 7F)
 Ernie: Thresh=  0.10000D-02 Tol=  0.10000D-05 Strict=F.
   262 basis functions,   508 primitive gaussians,   262 cartesian basis functions
    62 alpha electrons       62 beta electrons
       nuclear repulsion energy      1151.1597772869 Hartrees.
 IExCor=  402 DFT=T Ex+Corr=B3LYP ExCW=0 ScaHFX=  0.200000
 ScaDFX=  0.800000  0.720000  1.000000  0.810000 ScalE2=  1.000000  1.000000
 IRadAn=      5 IRanWt=     -1 IRanGd=            0 ICorTp=0 IEmpDi=  4
 NAtoms=   25 NActive=   25 NUniq=   25 SFac= 1.00D+00 NAtFMM=   60 NAOKFM=F Big=F
 Integral buffers will be    131072 words long.
 Raffenetti 2 integral format.
 Two-electron integral symmetry is turned off.
 Using the following non-standard input for PCM:
 MSTModel=DFT cav MSTcharged
 --- end of non-standard input.
 MST model for solvation energy: B3LYP parametrization.
 MST cavity parameters:
 ISph   IAn     Re0     Alpha   Atom Type   QCorr
 ------------------------------------------------
   1      8     1.40     1.25      O          F
   2     16     1.75     1.25      S          F
   3      7     1.40     1.15      N          T
   4      6     1.50     1.25      C          F
   5      7     1.40     1.25      N          F
   6      8     1.40     1.25      O          F
   7      6     1.50     1.25      C          F
   8      6     1.50     1.25      C          F
   9      6     1.50     1.25      CH         F
  10      6     1.50     1.25      CH         F
  11      6     1.50     1.25      CH         F
  12      6     1.50     1.25      CH         F
  13      6     1.50     1.25      CH         F
  14      6     1.50     1.25      CH         F
  15      6     1.50     1.25      CH3        F
  16      8     1.40     1.25      O          F
  17      1     1.20     1.25      CH         F
  18      1     1.20     1.25      CH         F
  19      1     1.20     1.25      CH         F
  20      1     1.20     1.25      CH         F
  21      1     1.20     1.25      CH         F
  22      1     1.20     1.25      CH         F
  23      1     1.20     1.25      CH3        F
  24      1     1.20     1.25      CH3        F
  25      1     1.20     1.25      CH3        F
 ------------------------------------------------------------------------------
 Polarizable Continuum Model (PCM)
 =================================
 Model                : PCM.
 Atomic radii         : MST.
 Polarization charges : Total charges.
 Charge compensation  : None.
 Solution method      : On-the-fly selection.
 Cavity type          : Scaled VdW (van der Waals Surface) (Alpha=1.250).
 Cavity algorithm     : GePol (No added spheres)
                        Default sphere list used, NSphG=   25.
                        Lebedev-Laikov grids with approx.  5.0 points / Ang**2.
                        Smoothing algorithm: York/Karplus (Gamma=1.0000).
                        Polarization charges: spherical gaussians, with
                                              point-specific exponents (IZeta= 3).
                        Self-potential: point-specific (ISelfS= 7).
                        Self-field    : sphere-specific E.n sum rule (ISelfD= 2).
 1st derivatives      : Analytical E(r).r(x)/FMM algorithm (CHGder, D1EAlg=3).
                        Cavity 1st derivative terms included.
 Solvent              : Water, Eps=  78.355300 Eps(inf)=   1.777849
 ------------------------------------------------------------------------------
 GePol: Number of generator spheres                  =      25
 GePol: Total number of spheres                      =      25
 GePol: Number of exposed spheres                    =      25 (100.00%)
 GePol: Number of points                             =    2079
 GePol: Average weight of points                     =       0.13
 GePol: Minimum weight of points                     =   0.68D-09
 GePol: Maximum weight of points                     =    0.22001
 GePol: Number of points with low weight             =     137
 GePol: Fraction of low-weight points (<1% of avg)   =       6.59%
 GePol: Cavity surface area                          =    270.563 Ang**2
 GePol: Cavity volume                                =    251.347 Ang**3
 PCM non-electrostatic energy =         0.0036640338 Hartrees.
 Nuclear repulsion after PCM non-electrostatic terms =     1151.1634413207 Hartrees.
 Leave Link  301 at Thu Sep 24 04:40:26 2020, MaxMem=  2147483648 cpu:               0.3 elap:               0.1
 (Enter /prod/apps/gaussian/g16b1/l302.exe)
 NPDir=0 NMtPBC=     1 NCelOv=     1 NCel=       1 NClECP=     1 NCelD=      1
         NCelK=      1 NCelE2=     1 NClLst=     1 CellRange=     0.0.
 One-electron integrals computed using PRISM.
 NBasis=   262 RedAO= T EigKep=  4.61D-04  NBF=   262
 NBsUse=   262 1.00D-06 EigRej= -1.00D+00 NBFU=   262
 Precomputing XC quadrature grid using
 IXCGrd= 4 IRadAn=           5 IRanWt=          -1 IRanGd=           0 AccXCQ= 0.00D+00.
 Generated NRdTot=       0 NPtTot=           0 NUsed=           0 NTot=          32
 NSgBfM=   261   261   261   261   261 MxSgAt=    25 MxSgA2=    25.
 Leave Link  302 at Thu Sep 24 04:40:26 2020, MaxMem=  2147483648 cpu:               1.0 elap:               0.3
 (Enter /prod/apps/gaussian/g16b1/l303.exe)
 DipDrv:  MaxL=1.
 Leave Link  303 at Thu Sep 24 04:40:26 2020, MaxMem=  2147483648 cpu:               0.1 elap:               0.0
 (Enter /prod/apps/gaussian/g16b1/l401.exe)
 ExpMin= 1.17D-01 ExpMax= 2.19D+04 ExpMxC= 3.30D+03 IAcc=3 IRadAn=         5 AccDes= 0.00D+00
 Harris functional with IExCor=  402 and IRadAn=       5 diagonalized for initial guess.
 HarFok:  IExCor=  402 AccDes= 0.00D+00 IRadAn=         5 IDoV= 1 UseB2=F ITyADJ=14
 ICtDFT=  3500011 ScaDFX=  1.000000  1.000000  1.000000  1.000000
 FoFCou: FMM=F IPFlag=           0 FMFlag=      100000 FMFlg1=           0
         NFxFlg=           0 DoJE=T BraDBF=F KetDBF=T FulRan=T
         wScrn=  0.000000 ICntrl=       500 IOpCl=  0 I1Cent=   200000004 NGrid=           0
         NMat0=    1 NMatS0=      1 NMatT0=    0 NMatD0=    1 NMtDS0=    0 NMtDT0=    0
 Symmetry not used in FoFCou.
 Harris En= -1119.96633070204    
 JPrj=0 DoOrth=F DoCkMO=F.
 Leave Link  401 at Thu Sep 24 04:40:27 2020, MaxMem=  2147483648 cpu:               4.9 elap:               1.2
 (Enter /prod/apps/gaussian/g16b1/l502.exe)
 Keep R1 ints in memory in canonical form, NReq=602618509.
 FoFCou: FMM=F IPFlag=           0 FMFlag=           0 FMFlg1=           0
         NFxFlg=           0 DoJE=F BraDBF=F KetDBF=F FulRan=T
         wScrn=  0.000000 ICntrl=       600 IOpCl=  0 I1Cent=           0 NGrid=           0
         NMat0=    1 NMatS0=  34453 NMatT0=    0 NMatD0=    1 NMtDS0=    0 NMtDT0=    0
 Symmetry not used in FoFCou.
 Two-electron integral symmetry not used.
 Closed shell SCF:
 Using DIIS extrapolation, IDIIS=  1040.
 NGot=  2147483648 LenX=  1553820706 LenY=  1553751621
 Requested convergence on RMS density matrix=1.00D-08 within2000 cycles.
 Requested convergence on MAX density matrix=1.00D-06.
 Requested convergence on             energy=1.00D-06.
 No special actions if energy rises.

 Cycle   1  Pass 1  IDiag  1:
 Inv3:  Mode=1 IEnd=    12966723.
 Iteration    1 A*A^-1 deviation from unit magnitude is 3.55D-15 for    747.
 Iteration    1 A*A^-1 deviation from orthogonality  is 2.65D-15 for   1475    366.
 Iteration    1 A^-1*A deviation from unit magnitude is 3.55D-15 for    579.
 Iteration    1 A^-1*A deviation from orthogonality  is 4.60D-14 for   1622   1606.
 E= -1119.38095997463    
 DIIS: error= 3.83D-02 at cycle   1 NSaved=   1.
 NSaved= 1 IEnMin= 1 EnMin= -1119.38095997463     IErMin= 1 ErrMin= 3.83D-02
 ErrMax= 3.83D-02  0.00D+00 EMaxC= 1.00D-01 BMatC= 5.95D-01 BMatP= 5.95D-01
 IDIUse=3 WtCom= 6.17D-01 WtEn= 3.83D-01
 Coeff-Com:  0.100D+01
 Coeff-En:   0.100D+01
 Coeff:      0.100D+01
 Gap=     0.202 Goal=   None    Shift=    0.000
 GapD=    0.202 DampG=1.000 DampE=0.500 DampFc=0.5000 IDamp=-1.
 Damping current iteration by 5.00D-01
 RMSDP=6.88D-03 MaxDP=5.11D-01              OVMax= 2.17D-01

 Cycle   2  Pass 1  IDiag  1:
 E= -1119.55545336768     Delta-E=       -0.174493393051 Rises=F Damp=T
 DIIS: error= 1.10D-02 at cycle   2 NSaved=   2.
 NSaved= 2 IEnMin= 2 EnMin= -1119.55545336768     IErMin= 2 ErrMin= 1.10D-02
 ErrMax= 1.10D-02  0.00D+00 EMaxC= 1.00D-01 BMatC= 6.00D-02 BMatP= 5.95D-01
 IDIUse=3 WtCom= 8.90D-01 WtEn= 1.10D-01
 Coeff-Com:  0.172D+00 0.828D+00
 Coeff-En:   0.279D+00 0.721D+00
 Coeff:      0.184D+00 0.816D+00
 Gap=     0.213 Goal=   None    Shift=    0.000
 RMSDP=1.82D-03 MaxDP=1.15D-01 DE=-1.74D-01 OVMax= 1.60D-01

 Cycle   3  Pass 1  IDiag  1:
 E= -1119.86246497826     Delta-E=       -0.307011610580 Rises=F Damp=F
 DIIS: error= 8.09D-03 at cycle   3 NSaved=   3.
 NSaved= 3 IEnMin= 3 EnMin= -1119.86246497826     IErMin= 3 ErrMin= 8.09D-03
 ErrMax= 8.09D-03  0.00D+00 EMaxC= 1.00D-01 BMatC= 3.12D-02 BMatP= 6.00D-02
 IDIUse=3 WtCom= 9.19D-01 WtEn= 8.09D-02
 Coeff-Com:  0.401D-01 0.418D+00 0.542D+00
 Coeff-En:   0.000D+00 0.000D+00 0.100D+01
 Coeff:      0.368D-01 0.384D+00 0.579D+00
 Gap=     0.170 Goal=   None    Shift=    0.000
 RMSDP=8.90D-04 MaxDP=3.15D-02 DE=-3.07D-01 OVMax= 3.37D-02

 Cycle   4  Pass 1  IDiag  1:
 E= -1119.88617376078     Delta-E=       -0.023708782519 Rises=F Damp=F
 DIIS: error= 3.23D-03 at cycle   4 NSaved=   4.
 NSaved= 4 IEnMin= 4 EnMin= -1119.88617376078     IErMin= 4 ErrMin= 3.23D-03
 ErrMax= 3.23D-03  0.00D+00 EMaxC= 1.00D-01 BMatC= 4.20D-03 BMatP= 3.12D-02
 IDIUse=3 WtCom= 9.68D-01 WtEn= 3.23D-02
 Coeff-Com:  0.138D-03 0.821D-01 0.291D+00 0.627D+00
 Coeff-En:   0.000D+00 0.000D+00 0.797D-01 0.920D+00
 Coeff:      0.134D-03 0.794D-01 0.284D+00 0.636D+00
 Gap=     0.167 Goal=   None    Shift=    0.000
 RMSDP=2.76D-04 MaxDP=1.01D-02 DE=-2.37D-02 OVMax= 1.17D-02

 Cycle   5  Pass 1  IDiag  1:
 E= -1119.88938933854     Delta-E=       -0.003215577766 Rises=F Damp=F
 DIIS: error= 7.06D-04 at cycle   5 NSaved=   5.
 NSaved= 5 IEnMin= 5 EnMin= -1119.88938933854     IErMin= 5 ErrMin= 7.06D-04
 ErrMax= 7.06D-04  0.00D+00 EMaxC= 1.00D-01 BMatC= 3.92D-04 BMatP= 4.20D-03
 IDIUse=3 WtCom= 9.93D-01 WtEn= 7.06D-03
 Coeff-Com: -0.234D-02 0.163D-01 0.110D+00 0.337D+00 0.539D+00
 Coeff-En:   0.000D+00 0.000D+00 0.000D+00 0.000D+00 0.100D+01
 Coeff:     -0.232D-02 0.161D-01 0.109D+00 0.335D+00 0.542D+00
 Gap=     0.169 Goal=   None    Shift=    0.000
 RMSDP=9.12D-05 MaxDP=4.19D-03 DE=-3.22D-03 OVMax= 5.16D-03

 Cycle   6  Pass 1  IDiag  1:
 E= -1119.88969640268     Delta-E=       -0.000307064143 Rises=F Damp=F
 DIIS: error= 2.35D-04 at cycle   6 NSaved=   6.
 NSaved= 6 IEnMin= 6 EnMin= -1119.88969640268     IErMin= 6 ErrMin= 2.35D-04
 ErrMax= 2.35D-04  0.00D+00 EMaxC= 1.00D-01 BMatC= 3.83D-05 BMatP= 3.92D-04
 IDIUse=3 WtCom= 9.98D-01 WtEn= 2.35D-03
 Coeff-Com: -0.141D-02 0.355D-02 0.420D-01 0.145D+00 0.314D+00 0.497D+00
 Coeff-En:   0.000D+00 0.000D+00 0.000D+00 0.000D+00 0.000D+00 0.100D+01
 Coeff:     -0.141D-02 0.354D-02 0.419D-01 0.145D+00 0.313D+00 0.498D+00
 Gap=     0.168 Goal=   None    Shift=    0.000
 RMSDP=2.59D-05 MaxDP=1.27D-03 DE=-3.07D-04 OVMax= 2.05D-03

 Cycle   7  Pass 1  IDiag  1:
 E= -1119.88972661683     Delta-E=       -0.000030214147 Rises=F Damp=F
 DIIS: error= 6.72D-05 at cycle   7 NSaved=   7.
 NSaved= 7 IEnMin= 7 EnMin= -1119.88972661683     IErMin= 7 ErrMin= 6.72D-05
 ErrMax= 6.72D-05  0.00D+00 EMaxC= 1.00D-01 BMatC= 2.55D-06 BMatP= 3.83D-05
 IDIUse=1 WtCom= 1.00D+00 WtEn= 0.00D+00
 Coeff-Com: -0.547D-03 0.238D-03 0.118D-01 0.444D-01 0.118D+00 0.268D+00
 Coeff-Com:  0.558D+00
 Coeff:     -0.547D-03 0.238D-03 0.118D-01 0.444D-01 0.118D+00 0.268D+00
 Coeff:      0.558D+00
 Gap=     0.168 Goal=   None    Shift=    0.000
 RMSDP=7.10D-06 MaxDP=4.19D-04 DE=-3.02D-05 OVMax= 5.50D-04

 Cycle   8  Pass 1  IDiag  1:
 E= -1119.88972864226     Delta-E=       -0.000002025434 Rises=F Damp=F
 DIIS: error= 2.33D-05 at cycle   8 NSaved=   8.
 NSaved= 8 IEnMin= 8 EnMin= -1119.88972864226     IErMin= 8 ErrMin= 2.33D-05
 ErrMax= 2.33D-05  0.00D+00 EMaxC= 1.00D-01 BMatC= 2.91D-07 BMatP= 2.55D-06
 IDIUse=1 WtCom= 1.00D+00 WtEn= 0.00D+00
 Coeff-Com: -0.172D-03-0.180D-03 0.280D-02 0.115D-01 0.382D-01 0.104D+00
 Coeff-Com:  0.308D+00 0.535D+00
 Coeff:     -0.172D-03-0.180D-03 0.280D-02 0.115D-01 0.382D-01 0.104D+00
 Coeff:      0.308D+00 0.535D+00
 Gap=     0.168 Goal=   None    Shift=    0.000
 RMSDP=2.73D-06 MaxDP=1.77D-04 DE=-2.03D-06 OVMax= 2.50D-04

 Cycle   9  Pass 1  IDiag  1:
 E= -1119.88972887882     Delta-E=       -0.000000236553 Rises=F Damp=F
 DIIS: error= 7.77D-06 at cycle   9 NSaved=   9.
 NSaved= 9 IEnMin= 9 EnMin= -1119.88972887882     IErMin= 9 ErrMin= 7.77D-06
 ErrMax= 7.77D-06  0.00D+00 EMaxC= 1.00D-01 BMatC= 3.86D-08 BMatP= 2.91D-07
 IDIUse=1 WtCom= 1.00D+00 WtEn= 0.00D+00
 Coeff-Com: -0.913D-05-0.138D-03-0.382D-03-0.107D-02 0.181D-02 0.131D-01
 Coeff-Com:  0.738D-01 0.305D+00 0.608D+00
 Coeff:     -0.913D-05-0.138D-03-0.382D-03-0.107D-02 0.181D-02 0.131D-01
 Coeff:      0.738D-01 0.305D+00 0.608D+00
 Gap=     0.168 Goal=   None    Shift=    0.000
 RMSDP=8.42D-07 MaxDP=3.84D-05 DE=-2.37D-07 OVMax= 4.65D-05

 Cycle  10  Pass 1  IDiag  1:
 E= -1119.88972891204     Delta-E=       -0.000000033223 Rises=F Damp=F
 DIIS: error= 2.75D-06 at cycle  10 NSaved=  10.
 NSaved=10 IEnMin=10 EnMin= -1119.88972891204     IErMin=10 ErrMin= 2.75D-06
 ErrMax= 2.75D-06  0.00D+00 EMaxC= 1.00D-01 BMatC= 1.48D-09 BMatP= 3.86D-08
 IDIUse=1 WtCom= 1.00D+00 WtEn= 0.00D+00
 Coeff-Com:  0.861D-06-0.488D-04-0.277D-03-0.941D-03-0.587D-03 0.201D-02
 Coeff-Com:  0.217D-01 0.129D+00 0.281D+00 0.568D+00
 Coeff:      0.861D-06-0.488D-04-0.277D-03-0.941D-03-0.587D-03 0.201D-02
 Coeff:      0.217D-01 0.129D+00 0.281D+00 0.568D+00
 Gap=     0.168 Goal=   None    Shift=    0.000
 RMSDP=2.12D-07 MaxDP=7.17D-06 DE=-3.32D-08 OVMax= 1.57D-05

 Cycle  11  Pass 1  IDiag  1:
 E= -1119.88972891315     Delta-E=       -0.000000001110 Rises=F Damp=F
 DIIS: error= 1.12D-06 at cycle  11 NSaved=  11.
 NSaved=11 IEnMin=11 EnMin= -1119.88972891315     IErMin=11 ErrMin= 1.12D-06
 ErrMax= 1.12D-06  0.00D+00 EMaxC= 1.00D-01 BMatC= 3.94D-10 BMatP= 1.48D-09
 IDIUse=1 WtCom= 1.00D+00 WtEn= 0.00D+00
 Coeff-Com:  0.155D-05-0.457D-05-0.116D-03-0.435D-03-0.814D-03-0.140D-02
 Coeff-Com: -0.584D-03 0.261D-01 0.556D-01 0.349D+00 0.573D+00
 Coeff:      0.155D-05-0.457D-05-0.116D-03-0.435D-03-0.814D-03-0.140D-02
 Coeff:     -0.584D-03 0.261D-01 0.556D-01 0.349D+00 0.573D+00
 Gap=     0.168 Goal=   None    Shift=    0.000
 RMSDP=8.03D-08 MaxDP=2.72D-06 DE=-1.11D-09 OVMax= 4.42D-06

 Cycle  12  Pass 1  IDiag  1:
 E= -1119.88972891347     Delta-E=       -0.000000000321 Rises=F Damp=F
 DIIS: error= 2.00D-07 at cycle  12 NSaved=  12.
 NSaved=12 IEnMin=12 EnMin= -1119.88972891347     IErMin=12 ErrMin= 2.00D-07
 ErrMax= 2.00D-07  0.00D+00 EMaxC= 1.00D-01 BMatC= 2.90D-11 BMatP= 3.94D-10
 IDIUse=1 WtCom= 1.00D+00 WtEn= 0.00D+00
 Coeff-Com:  0.498D-06 0.221D-05-0.381D-04-0.146D-03-0.370D-03-0.879D-03
 Coeff-Com: -0.228D-02 0.294D-02 0.189D-02 0.136D+00 0.294D+00 0.569D+00
 Coeff:      0.498D-06 0.221D-05-0.381D-04-0.146D-03-0.370D-03-0.879D-03
 Coeff:     -0.228D-02 0.294D-02 0.189D-02 0.136D+00 0.294D+00 0.569D+00
 Gap=     0.168 Goal=   None    Shift=    0.000
 RMSDP=2.59D-08 MaxDP=9.52D-07 DE=-3.21D-10 OVMax= 1.65D-06

 Cycle  13  Pass 1  IDiag  1:
 E= -1119.88972891351     Delta-E=       -0.000000000036 Rises=F Damp=F
 DIIS: error= 1.32D-07 at cycle  13 NSaved=  13.
 NSaved=13 IEnMin=13 EnMin= -1119.88972891351     IErMin=13 ErrMin= 1.32D-07
 ErrMax= 1.32D-07  0.00D+00 EMaxC= 1.00D-01 BMatC= 3.70D-12 BMatP= 2.90D-11
 IDIUse=1 WtCom= 1.00D+00 WtEn= 0.00D+00
 Coeff-Com:  0.772D-07 0.168D-05-0.714D-05-0.288D-04-0.113D-03-0.333D-03
 Coeff-Com: -0.130D-02-0.160D-02-0.678D-02 0.305D-01 0.817D-01 0.307D+00
 Coeff-Com:  0.591D+00
 Coeff:      0.772D-07 0.168D-05-0.714D-05-0.288D-04-0.113D-03-0.333D-03
 Coeff:     -0.130D-02-0.160D-02-0.678D-02 0.305D-01 0.817D-01 0.307D+00
 Coeff:      0.591D+00
 Gap=     0.168 Goal=   None    Shift=    0.000
 RMSDP=9.60D-09 MaxDP=2.39D-07 DE=-3.64D-11 OVMax= 7.76D-07

 Error on total polarization charges =  0.02216
 SCF Done:  E(RB3LYP) =  -1119.88972891     A.U. after   13 cycles
            NFock= 13  Conv=0.96D-08     -V/T= 2.0073
 KE= 1.111762306847D+03 PE=-4.948926028140D+03 EE= 1.566110551059D+03
 Leave Link  502 at Thu Sep 24 04:41:05 2020, MaxMem=  2147483648 cpu:             119.7 elap:              37.2
 (Enter /prod/apps/gaussian/g16b1/l601.exe)
 Copying SCF densities to generalized density rwf, IOpCl= 0 IROHF=0.

 **********************************************************************

            Population analysis using the SCF Density.

 **********************************************************************

 Alpha  occ. eigenvalues --  -89.08446 -19.21671 -19.11418 -19.11383 -14.35426
 Alpha  occ. eigenvalues --  -14.30080 -10.25324 -10.24745 -10.21133 -10.19822
 Alpha  occ. eigenvalues --  -10.19785 -10.19641 -10.19522 -10.19468 -10.19435
 Alpha  occ. eigenvalues --  -10.18171  -8.10922  -6.07404  -6.07323  -6.07268
 Alpha  occ. eigenvalues --   -1.11533  -1.07594  -0.96268  -0.90650  -0.86396
 Alpha  occ. eigenvalues --   -0.81854  -0.79107  -0.74977  -0.74341  -0.73653
 Alpha  occ. eigenvalues --   -0.63511  -0.62770  -0.60633  -0.58000  -0.54363
 Alpha  occ. eigenvalues --   -0.52432  -0.49007  -0.47345  -0.46504  -0.45884
 Alpha  occ. eigenvalues --   -0.45368  -0.44593  -0.44123  -0.42544  -0.41967
 Alpha  occ. eigenvalues --   -0.41231  -0.40635  -0.38512  -0.37545  -0.35651
 Alpha  occ. eigenvalues --   -0.34533  -0.34136  -0.31942  -0.31376  -0.29704
 Alpha  occ. eigenvalues --   -0.28812  -0.28581  -0.27600  -0.25760  -0.25173
 Alpha  occ. eigenvalues --   -0.22616  -0.20949
 Alpha virt. eigenvalues --   -0.04152  -0.00638   0.03931   0.08583   0.08704
 Alpha virt. eigenvalues --    0.10329   0.11344   0.12063   0.12655   0.13534
 Alpha virt. eigenvalues --    0.13928   0.15487   0.15721   0.17297   0.17397
 Alpha virt. eigenvalues --    0.17793   0.18876   0.19244   0.19656   0.24195
 Alpha virt. eigenvalues --    0.26600   0.27582   0.30302   0.31009   0.32626
 Alpha virt. eigenvalues --    0.33648   0.35008   0.38650   0.39777   0.41947
 Alpha virt. eigenvalues --    0.45118   0.46793   0.47665   0.49144   0.50604
 Alpha virt. eigenvalues --    0.52536   0.53456   0.54003   0.54278   0.54855
 Alpha virt. eigenvalues --    0.56100   0.56842   0.57871   0.58469   0.59168
 Alpha virt. eigenvalues --    0.60215   0.60466   0.61028   0.61964   0.63203
 Alpha virt. eigenvalues --    0.64272   0.65040   0.65820   0.69007   0.70331
 Alpha virt. eigenvalues --    0.71987   0.74557   0.75101   0.77084   0.78333
 Alpha virt. eigenvalues --    0.79644   0.79844   0.81172   0.82993   0.83110
 Alpha virt. eigenvalues --    0.83792   0.84688   0.85186   0.87634   0.88436
 Alpha virt. eigenvalues --    0.89530   0.90490   0.91056   0.91458   0.92265
 Alpha virt. eigenvalues --    0.92695   0.94408   0.95515   0.97957   0.98950
 Alpha virt. eigenvalues --    1.00423   1.01749   1.02331   1.02717   1.05169
 Alpha virt. eigenvalues --    1.06464   1.07701   1.09485   1.11509   1.12511
 Alpha virt. eigenvalues --    1.16467   1.17834   1.18927   1.19855   1.21508
 Alpha virt. eigenvalues --    1.23876   1.24745   1.25661   1.27671   1.31572
 Alpha virt. eigenvalues --    1.32287   1.35695   1.36544   1.38945   1.41423
 Alpha virt. eigenvalues --    1.42746   1.43944   1.45558   1.47591   1.47840
 Alpha virt. eigenvalues --    1.48603   1.50594   1.50704   1.53482   1.56380
 Alpha virt. eigenvalues --    1.60245   1.61462   1.69736   1.72063   1.72504
 Alpha virt. eigenvalues --    1.77920   1.79061   1.79578   1.80506   1.81806
 Alpha virt. eigenvalues --    1.82901   1.83972   1.86912   1.88151   1.88701
 Alpha virt. eigenvalues --    1.90469   1.91990   1.93045   1.95333   1.96632
 Alpha virt. eigenvalues --    1.97426   2.00474   2.01482   2.03575   2.05154
 Alpha virt. eigenvalues --    2.06750   2.11370   2.11893   2.12731   2.13576
 Alpha virt. eigenvalues --    2.14586   2.16059   2.17263   2.18814   2.20875
 Alpha virt. eigenvalues --    2.22901   2.24010   2.26331   2.27004   2.28393
 Alpha virt. eigenvalues --    2.30146   2.30301   2.33262   2.33650   2.34634
 Alpha virt. eigenvalues --    2.50039   2.53164   2.53900   2.54300   2.58433
 Alpha virt. eigenvalues --    2.58682   2.61911   2.64939   2.66384   2.66919
 Alpha virt. eigenvalues --    2.72577   2.73846   2.74634   2.75115   2.79461
 Alpha virt. eigenvalues --    2.83821   2.89032   2.91140   2.93352   3.04344
 Alpha virt. eigenvalues --    3.06460   3.15149   3.28107   3.42842   3.79423
 Alpha virt. eigenvalues --    3.82746   3.93729   4.01782   4.07680   4.09519
 Alpha virt. eigenvalues --    4.11163   4.13413   4.20931   4.25064   4.26868
 Alpha virt. eigenvalues --    4.32077   4.38246   4.41647   4.58223   4.74709
          Condensed to atoms (all electrons):
               1          2          3          4          5          6
     1  O    8.403001   0.408319  -0.056017  -0.003376   0.001399   0.000017
     2  S    0.408319  13.654111   0.251710  -0.018305   0.000557  -0.000140
     3  N   -0.056017   0.251710   7.493743   0.354789  -0.091979   0.005296
     4  C   -0.003376  -0.018305   0.354789   4.460776   0.367829  -0.035748
     5  N    0.001399   0.000557  -0.091979   0.367829   7.101865   0.082701
     6  O    0.000017  -0.000140   0.005296  -0.035748   0.082701   8.269346
     7  C    0.000012   0.000332  -0.000726  -0.014733  -0.071788   0.235353
     8  C    0.000000  -0.000008  -0.000188   0.003079   0.004360  -0.040505
     9  C   -0.000000   0.000000   0.000002   0.000510  -0.000085   0.003099
    10  C    0.000000  -0.000000   0.000000  -0.000006   0.000001  -0.000060
    11  C   -0.000000  -0.000000   0.000000   0.000000  -0.000000   0.000001
    12  C    0.000000  -0.000000  -0.000000   0.000004   0.000000   0.000325
    13  C    0.000000  -0.000000  -0.000001  -0.000331   0.000114  -0.005641
    14  C   -0.000131   0.000375  -0.054505   0.434344  -0.068505  -0.081947
    15  C   -0.060024   0.183761  -0.063346  -0.002636  -0.007667   0.000095
    16  O   -0.053178   0.451254  -0.066398   0.001138  -0.000033   0.000000
    17  H   -0.000000  -0.000000  -0.000001   0.000042  -0.000003   0.000022
    18  H   -0.000000   0.000000  -0.000000  -0.000000  -0.000000   0.000000
    19  H    0.000000  -0.000000  -0.000000  -0.000000   0.000000   0.000000
    20  H    0.000000   0.000000   0.000000  -0.000000   0.000000  -0.000002
    21  H    0.000000  -0.000000  -0.000000   0.000040  -0.000236   0.010579
    22  H    0.000002  -0.000140   0.000083  -0.030815   0.005954   0.003664
    23  H   -0.001191  -0.004745  -0.003562  -0.000569   0.016120  -0.000414
    24  H    0.002106  -0.006753   0.000185   0.000037   0.000209  -0.000002
    25  H   -0.000009  -0.007092   0.002480   0.000167   0.000043   0.000000
               7          8          9         10         11         12
     1  O    0.000012   0.000000  -0.000000   0.000000  -0.000000   0.000000
     2  S    0.000332  -0.000008   0.000000  -0.000000  -0.000000  -0.000000
     3  N   -0.000726  -0.000188   0.000002   0.000000   0.000000  -0.000000
     4  C   -0.014733   0.003079   0.000510  -0.000006   0.000000   0.000004
     5  N   -0.071788   0.004360  -0.000085   0.000001  -0.000000   0.000000
     6  O    0.235353  -0.040505   0.003099  -0.000060   0.000001   0.000325
     7  C    4.753917   0.348825  -0.044198   0.006236   0.000815   0.004544
     8  C    0.348825   4.786801   0.536414  -0.011451  -0.033747  -0.010486
     9  C   -0.044198   0.536414   5.024120   0.516367  -0.040218  -0.041274
    10  C    0.006236  -0.011451   0.516367   4.890175   0.539381  -0.026825
    11  C    0.000815  -0.033747  -0.040218   0.539381   4.880716   0.539032
    12  C    0.004544  -0.010486  -0.041274  -0.026825   0.539032   4.897846
    13  C   -0.042437   0.470386  -0.082418  -0.041963  -0.038225   0.503563
    14  C    0.490853  -0.057374  -0.019737   0.000231   0.000014  -0.000223
    15  C   -0.000012   0.000000  -0.000000   0.000000   0.000000   0.000000
    16  O   -0.000000  -0.000000  -0.000000  -0.000000   0.000000  -0.000000
    17  H   -0.012257  -0.036133   0.356701  -0.042861   0.004518   0.000163
    18  H   -0.000197   0.003196  -0.037600   0.362569  -0.041178   0.004420
    19  H    0.000004   0.000488   0.004736  -0.041757   0.364170  -0.041574
    20  H   -0.000168   0.003221   0.000758   0.004429  -0.041245   0.363059
    21  H   -0.012966  -0.042989   0.005418   0.000203   0.004608  -0.042020
    22  H   -0.031588  -0.003391   0.001230   0.000097  -0.000001   0.000001
    23  H    0.000072  -0.000000   0.000000  -0.000000  -0.000000  -0.000000
    24  H    0.000002   0.000000  -0.000000  -0.000000   0.000000   0.000000
    25  H   -0.000000  -0.000000   0.000000  -0.000000  -0.000000  -0.000000
              13         14         15         16         17         18
     1  O    0.000000  -0.000131  -0.060024  -0.053178  -0.000000  -0.000000
     2  S   -0.000000   0.000375   0.183761   0.451254  -0.000000   0.000000
     3  N   -0.000001  -0.054505  -0.063346  -0.066398  -0.000001  -0.000000
     4  C   -0.000331   0.434344  -0.002636   0.001138   0.000042  -0.000000
     5  N    0.000114  -0.068505  -0.007667  -0.000033  -0.000003  -0.000000
     6  O   -0.005641  -0.081947   0.000095   0.000000   0.000022   0.000000
     7  C   -0.042437   0.490853  -0.000012  -0.000000  -0.012257  -0.000197
     8  C    0.470386  -0.057374   0.000000  -0.000000  -0.036133   0.003196
     9  C   -0.082418  -0.019737  -0.000000  -0.000000   0.356701  -0.037600
    10  C   -0.041963   0.000231   0.000000  -0.000000  -0.042861   0.362569
    11  C   -0.038225   0.000014   0.000000   0.000000   0.004518  -0.041178
    12  C    0.503563  -0.000223   0.000000  -0.000000   0.000163   0.004420
    13  C    5.073502   0.011461   0.000000  -0.000000   0.005765   0.000777
    14  C    0.011461   5.306794  -0.000377  -0.000053   0.005984  -0.000000
    15  C    0.000000  -0.000377   5.638961  -0.063400  -0.000000  -0.000000
    16  O   -0.000000  -0.000053  -0.063400   8.359415  -0.000000  -0.000000
    17  H    0.005765   0.005984  -0.000000  -0.000000   0.560286  -0.004927
    18  H    0.000777  -0.000000  -0.000000  -0.000000  -0.004927   0.562009
    19  H    0.004606  -0.000000   0.000000  -0.000000  -0.000155  -0.005108
    20  H   -0.037818   0.000001  -0.000000   0.000000   0.000015  -0.000165
    21  H    0.362093   0.000234   0.000000  -0.000000  -0.000139   0.000015
    22  H   -0.000122   0.351858   0.000006  -0.000002   0.002068  -0.000002
    23  H   -0.000000   0.000123   0.326439   0.002051   0.000000   0.000000
    24  H    0.000000  -0.000020   0.340706  -0.000008  -0.000000   0.000000
    25  H   -0.000000   0.000004   0.345188  -0.000586  -0.000000   0.000000
              19         20         21         22         23         24
     1  O    0.000000   0.000000   0.000000   0.000002  -0.001191   0.002106
     2  S   -0.000000   0.000000  -0.000000  -0.000140  -0.004745  -0.006753
     3  N   -0.000000   0.000000  -0.000000   0.000083  -0.003562   0.000185
     4  C   -0.000000  -0.000000   0.000040  -0.030815  -0.000569   0.000037
     5  N    0.000000   0.000000  -0.000236   0.005954   0.016120   0.000209
     6  O    0.000000  -0.000002   0.010579   0.003664  -0.000414  -0.000002
     7  C    0.000004  -0.000168  -0.012966  -0.031588   0.000072   0.000002
     8  C    0.000488   0.003221  -0.042989  -0.003391  -0.000000   0.000000
     9  C    0.004736   0.000758   0.005418   0.001230   0.000000  -0.000000
    10  C   -0.041757   0.004429   0.000203   0.000097  -0.000000  -0.000000
    11  C    0.364170  -0.041245   0.004608  -0.000001  -0.000000   0.000000
    12  C   -0.041574   0.363059  -0.042020   0.000001  -0.000000   0.000000
    13  C    0.004606  -0.037818   0.362093  -0.000122  -0.000000   0.000000
    14  C   -0.000000   0.000001   0.000234   0.351858   0.000123  -0.000020
    15  C    0.000000  -0.000000   0.000000   0.000006   0.326439   0.340706
    16  O   -0.000000   0.000000  -0.000000  -0.000002   0.002051  -0.000008
    17  H   -0.000155   0.000015  -0.000139   0.002068   0.000000  -0.000000
    18  H   -0.005108  -0.000165   0.000015  -0.000002   0.000000   0.000000
    19  H    0.564923  -0.005096  -0.000152  -0.000000  -0.000000   0.000000
    20  H   -0.005096   0.562321  -0.004985   0.000000   0.000000   0.000000
    21  H   -0.000152  -0.004985   0.560733  -0.000009  -0.000000   0.000000
    22  H   -0.000000   0.000000  -0.000009   0.536580  -0.000005  -0.000000
    23  H   -0.000000   0.000000  -0.000000  -0.000005   0.506122  -0.022410
    24  H    0.000000   0.000000   0.000000  -0.000000  -0.022410   0.509078
    25  H   -0.000000  -0.000000  -0.000000  -0.000000  -0.022108  -0.022215
              25
     1  O   -0.000009
     2  S   -0.007092
     3  N    0.002480
     4  C    0.000167
     5  N    0.000043
     6  O    0.000000
     7  C   -0.000000
     8  C   -0.000000
     9  C    0.000000
    10  C   -0.000000
    11  C   -0.000000
    12  C   -0.000000
    13  C   -0.000000
    14  C    0.000004
    15  C    0.345188
    16  O   -0.000586
    17  H   -0.000000
    18  H    0.000000
    19  H   -0.000000
    20  H   -0.000000
    21  H   -0.000000
    22  H   -0.000000
    23  H   -0.022108
    24  H   -0.022215
    25  H    0.501434
 Mulliken charges:
               1
     1  O   -0.640930
     2  S    1.086764
     3  N   -0.771565
     4  C    0.483763
     5  N   -0.340856
     6  O   -0.446036
     7  C    0.390105
     8  C    0.079501
     9  C   -0.183824
    10  C   -0.154767
    11  C   -0.138643
    12  C   -0.150556
    13  C   -0.183311
    14  C   -0.319407
    15  C   -0.637694
    16  O   -0.630200
    17  H    0.160913
    18  H    0.156193
    19  H    0.154915
    20  H    0.155676
    21  H    0.159571
    22  H    0.164534
    23  H    0.204077
    24  H    0.199083
    25  H    0.202694
 Sum of Mulliken charges =  -1.00000
 Mulliken charges with hydrogens summed into heavy atoms:
               1
     1  O   -0.640930
     2  S    1.086764
     3  N   -0.771565
     4  C    0.483763
     5  N   -0.340856
     6  O   -0.446036
     7  C    0.390105
     8  C    0.079501
     9  C   -0.022911
    10  C    0.001426
    11  C    0.016273
    12  C    0.005121
    13  C   -0.023739
    14  C   -0.154873
    15  C   -0.031840
    16  O   -0.630200
 Electronic spatial extent (au):  <R**2>=           5872.2231
 Charge=             -1.0000 electrons
 Dipole moment (field-independent basis, Debye):
    X=             16.6591    Y=             -0.6432    Z=             -4.8529  Tot=             17.3635
 Quadrupole moment (field-independent basis, Debye-Ang):
   XX=           -143.1607   YY=           -103.2274   ZZ=           -106.0878
   XY=             14.0448   XZ=             16.2184   YZ=              3.2275
 Traceless Quadrupole moment (field-independent basis, Debye-Ang):
   XX=            -25.6687   YY=             14.2645   ZZ=             11.4042
   XY=             14.0448   XZ=             16.2184   YZ=              3.2275
 Octapole moment (field-independent basis, Debye-Ang**2):
  XXX=            302.3392  YYY=              8.0779  ZZZ=            -22.1031  XYY=             34.8167
  XXY=            -58.0332  XXZ=            -66.4076  XZZ=            -11.3066  YZZ=              4.3644
  YYZ=             -9.2477  XYZ=            -19.6562
 Hexadecapole moment (field-independent basis, Debye-Ang**3):
 XXXX=          -7327.1870 YYYY=           -609.4134 ZZZZ=           -263.1762 XXXY=            267.2385
 XXXZ=            246.3550 YYYX=             10.0677 YYYZ=             11.6131 ZZZX=             61.4901
 ZZZY=             21.7960 XXYY=          -1246.0070 XXZZ=          -1295.5293 YYZZ=           -156.2226
 XXYZ=             32.0344 YYXZ=             19.1701 ZZXY=            -21.0416
 N-N= 1.151163441321D+03 E-N=-4.948926020970D+03  KE= 1.111762306847D+03
 No NMR shielding tensors so no spin-rotation constants.
 Leave Link  601 at Thu Sep 24 04:41:05 2020, MaxMem=  2147483648 cpu:               0.3 elap:               0.1
 (Enter /prod/apps/gaussian/g16b1/l701.exe)
 ... and contract with generalized density number  0.
 Compute integral first derivatives.
 D1PCM: PCM CHGder 1st derivatives, ID1Alg=3 FixD1E=F DoIter=F DoCFld=F I1PDM=0.
 GePol: Maximum number of non-zero 1st derivatives   =     183
 Leave Link  701 at Thu Sep 24 04:41:06 2020, MaxMem=  2147483648 cpu:               5.9 elap:               1.5
 (Enter /prod/apps/gaussian/g16b1/l702.exe)
 L702 exits ... SP integral derivatives will be done elsewhere.
 Leave Link  702 at Thu Sep 24 04:41:06 2020, MaxMem=  2147483648 cpu:               0.1 elap:               0.0
 (Enter /prod/apps/gaussian/g16b1/l703.exe)
 Integral derivatives from FoFJK, PRISM(SPDF).
 Compute integral first derivatives, UseDBF=F ICtDFT=           0.
 Calling FoFJK, ICntrl=      2127 FMM=F ISym2X=0 I1Cent= 0 IOpClX= 0 NMat=1 NMatS=1 NMatT=0.
 FoFJK:  IHMeth= 1 ICntrl=    2127 DoSepK=F KAlg= 0 I1Cent=           0 FoldK=F
 IRaf=         0 NMat=       1 IRICut=       1 DoRegI=T DoRafI=F ISym2E= 0 IDoP0=0 IntGTp=1.
 FoFCou: FMM=F IPFlag=           0 FMFlag=      100000 FMFlg1=         800
         NFxFlg=           0 DoJE=F BraDBF=F KetDBF=F FulRan=T
         wScrn=  0.000000 ICntrl=      2127 IOpCl=  0 I1Cent=           0 NGrid=           0
         NMat0=    1 NMatS0=      1 NMatT0=    0 NMatD0=    1 NMtDS0=    0 NMtDT0=    0
 Symmetry not used in FoFCou.
 Leave Link  703 at Thu Sep 24 04:41:14 2020, MaxMem=  2147483648 cpu:              31.1 elap:               7.8
 (Enter /prod/apps/gaussian/g16b1/l716.exe)
 Dipole        = 6.55419368D+00-2.53067866D-01-1.90928036D+00
 -------------------------------------------------------------------
 Center     Atomic                   Forces (Hartrees/Bohr)
 Number     Number              X              Y              Z
 -------------------------------------------------------------------
      1        8           0.000038852    0.000883150   -0.001317884
      2       16           0.000851840   -0.000874571    0.000467092
      3        7           0.000090695   -0.001397590    0.000177897
      4        6          -0.000978091    0.000356880    0.000026785
      5        7           0.000816561    0.000805654   -0.000401902
      6        8           0.000123964    0.000016845    0.000050928
      7        6          -0.000075966    0.000495732   -0.000160369
      8        6           0.000499425   -0.000970096    0.000203751
      9        6           0.000258203   -0.000009163    0.000057283
     10        6          -0.000466222   -0.000398783    0.000056376
     11        6           0.000156863    0.000074500   -0.000108492
     12        6          -0.000648719    0.000047742    0.000119260
     13        6          -0.000088066    0.000959217   -0.000250173
     14        6           0.000574886   -0.000019757    0.000004924
     15        6          -0.000453917    0.000164859   -0.000240634
     16        8           0.000408422   -0.000286228   -0.000029615
     17        1           0.000052518   -0.000773192    0.000095304
     18        1          -0.000323798   -0.000516755    0.000078366
     19        1          -0.001122632   -0.000021876    0.000044959
     20        1          -0.000396942    0.000687968   -0.000140790
     21        1          -0.000353130    0.000927798   -0.000126857
     22        1           0.000162949   -0.000856359    0.000090376
     23        1          -0.000232250    0.000661725    0.000306420
     24        1           0.000029653   -0.000637013    0.001063470
     25        1           0.001074902    0.000679314   -0.000066474
 -------------------------------------------------------------------
 Cartesian Forces:  Max     0.001397590 RMS     0.000535614
 Leave Link  716 at Thu Sep 24 04:41:14 2020, MaxMem=  2147483648 cpu:               0.1 elap:               0.0
 (Enter /prod/apps/gaussian/g16b1/l103.exe)

 GradGradGradGradGradGradGradGradGradGradGradGradGradGradGradGradGradGrad
 Berny optimization.
 FormGI is forming the generalized inverse of G from B-inverse, IUseBI=4.
 Internal  Forces:  Max     0.002783895 RMS     0.000700929
 Search for a local minimum.
 Step number   1 out of a maximum of  133
 All quantities printed in internal units (Hartrees-Bohrs-Radians)
 RMS Force = .70093D-03 SwitMx=.10000D-02 MixMth= 2
 Mixed Optimization -- En-DIIS/RFO-DIIS
 Second derivative matrix not updated -- first step.
 ITU=  0
     Eigenvalues ---    0.00274   0.01248   0.01776   0.01806   0.01864
     Eigenvalues ---    0.01974   0.02022   0.02074   0.02074   0.02091
     Eigenvalues ---    0.02117   0.02122   0.02132   0.02142   0.02147
     Eigenvalues ---    0.02161   0.02341   0.02419   0.05882   0.05963
     Eigenvalues ---    0.08571   0.09452   0.16000   0.16000   0.16000
     Eigenvalues ---    0.16000   0.16000   0.16000   0.16000   0.16000
     Eigenvalues ---    0.16000   0.16633   0.21110   0.22000   0.22000
     Eigenvalues ---    0.23475   0.23793   0.24998   0.25000   0.25000
     Eigenvalues ---    0.25000   0.25000   0.25000   0.25553   0.34502
     Eigenvalues ---    0.34589   0.34744   0.35219   0.35264   0.35272
     Eigenvalues ---    0.35315   0.35454   0.36076   0.36522   0.37710
     Eigenvalues ---    0.40672   0.41293   0.41721   0.45011   0.45386
     Eigenvalues ---    0.46131   0.46612   0.48403   0.48831   0.50765
     Eigenvalues ---    0.51848   0.56701   0.79499   0.81704
 RFO step:  Lambda=-2.04897556D-04 EMin= 2.74337735D-03
 Linear search not attempted -- first point.
 Iteration  1 RMS(Cart)=  0.02721937 RMS(Int)=  0.00015909
 Iteration  2 RMS(Cart)=  0.00025712 RMS(Int)=  0.00000351
 Iteration  3 RMS(Cart)=  0.00000003 RMS(Int)=  0.00000351
 ITry= 1 IFail=0 DXMaxC= 1.02D-01 DCOld= 1.00D+10 DXMaxT= 3.00D-01 DXLimC= 3.00D+00 Rises=F
 Variable       Old X    -DE/DX   Delta X   Delta X   Delta X     New X
                                 (Linear)    (Quad)   (Total)
    R1        2.81887  -0.00159   0.00000  -0.00200  -0.00200   2.81686
    R2        3.05213  -0.00176   0.00000  -0.00364  -0.00364   3.04849
    R3        3.41522  -0.00140   0.00000  -0.00546  -0.00546   3.40976
    R4        2.80710  -0.00049   0.00000  -0.00060  -0.00060   2.80650
    R5        2.59101  -0.00198   0.00000  -0.00389  -0.00389   2.58712
    R6        2.52452  -0.00069   0.00000  -0.00114  -0.00114   2.52339
    R7        2.71757  -0.00053   0.00000  -0.00127  -0.00127   2.71630
    R8        2.69236  -0.00111   0.00000  -0.00268  -0.00268   2.68967
    R9        2.56229  -0.00075   0.00000  -0.00145  -0.00145   2.56084
   R10        2.76573  -0.00243   0.00000  -0.00666  -0.00666   2.75906
   R11        2.57546  -0.00137   0.00000  -0.00262  -0.00262   2.57284
   R12        2.65684  -0.00146   0.00000  -0.00335  -0.00335   2.65349
   R13        2.65833  -0.00278   0.00000  -0.00639  -0.00639   2.65194
   R14        2.63345  -0.00132   0.00000  -0.00276  -0.00276   2.63069
   R15        2.05236  -0.00070   0.00000  -0.00198  -0.00198   2.05038
   R16        2.64261  -0.00080   0.00000  -0.00160  -0.00161   2.64101
   R17        2.05167  -0.00062   0.00000  -0.00174  -0.00174   2.04993
   R18        2.64046  -0.00071   0.00000  -0.00146  -0.00146   2.63900
   R19        2.05321  -0.00112   0.00000  -0.00319  -0.00319   2.05002
   R20        2.63568  -0.00149   0.00000  -0.00326  -0.00326   2.63242
   R21        2.05248  -0.00080   0.00000  -0.00227  -0.00227   2.05020
   R22        2.04944  -0.00065   0.00000  -0.00184  -0.00184   2.04760
   R23        2.03962  -0.00083   0.00000  -0.00231  -0.00231   2.03731
   R24        2.06093  -0.00060   0.00000  -0.00172  -0.00172   2.05921
   R25        2.06348  -0.00123   0.00000  -0.00357  -0.00357   2.05992
   R26        2.06492  -0.00127   0.00000  -0.00369  -0.00369   2.06123
    A1        1.99966   0.00032   0.00000   0.00041   0.00040   2.00006
    A2        1.85153  -0.00002   0.00000  -0.00079  -0.00079   1.85073
    A3        2.00520  -0.00003   0.00000   0.00125   0.00125   2.00645
    A4        1.88761  -0.00099   0.00000  -0.00468  -0.00468   1.88293
    A5        1.85307   0.00021   0.00000   0.00119   0.00119   1.85426
    A6        1.85949   0.00044   0.00000   0.00233   0.00233   1.86183
    A7        2.09536  -0.00201   0.00000  -0.00805  -0.00805   2.08732
    A8        2.21608  -0.00085   0.00000  -0.00354  -0.00354   2.21254
    A9        2.13602   0.00084   0.00000   0.00322   0.00321   2.13923
   A10        1.93100  -0.00000   0.00000   0.00023   0.00022   1.93122
   A11        1.83931   0.00028   0.00000   0.00131   0.00131   1.84062
   A12        1.90632  -0.00062   0.00000  -0.00264  -0.00264   1.90369
   A13        2.04689  -0.00118   0.00000  -0.00468  -0.00468   2.04221
   A14        1.91201   0.00086   0.00000   0.00335   0.00335   1.91536
   A15        2.32428   0.00032   0.00000   0.00133   0.00133   2.32561
   A16        2.09891   0.00032   0.00000   0.00145   0.00145   2.10036
   A17        2.10741  -0.00123   0.00000  -0.00475  -0.00475   2.10266
   A18        2.07686   0.00091   0.00000   0.00329   0.00329   2.08016
   A19        2.10165  -0.00043   0.00000  -0.00193  -0.00193   2.09972
   A20        2.09245  -0.00015   0.00000  -0.00131  -0.00131   2.09114
   A21        2.08909   0.00058   0.00000   0.00324   0.00324   2.09233
   A22        2.09911  -0.00020   0.00000  -0.00041  -0.00041   2.09871
   A23        2.08755   0.00006   0.00000  -0.00001  -0.00001   2.08754
   A24        2.09652   0.00013   0.00000   0.00042   0.00042   2.09694
   A25        2.08881  -0.00000   0.00000   0.00052   0.00052   2.08933
   A26        2.09681   0.00001   0.00000  -0.00023  -0.00023   2.09658
   A27        2.09757  -0.00000   0.00000  -0.00029  -0.00029   2.09728
   A28        2.09971  -0.00022   0.00000  -0.00087  -0.00087   2.09885
   A29        2.09670   0.00009   0.00000   0.00031   0.00031   2.09701
   A30        2.08677   0.00013   0.00000   0.00056   0.00056   2.08732
   A31        2.10022  -0.00006   0.00000  -0.00061  -0.00061   2.09961
   A32        2.08722  -0.00075   0.00000  -0.00454  -0.00454   2.08268
   A33        2.09574   0.00081   0.00000   0.00516   0.00515   2.10089
   A34        1.83613  -0.00053   0.00000  -0.00224  -0.00224   1.83389
   A35        2.20345   0.00054   0.00000   0.00284   0.00284   2.20629
   A36        2.24359  -0.00001   0.00000  -0.00060  -0.00060   2.24299
   A37        1.89796  -0.00070   0.00000  -0.00478  -0.00478   1.89318
   A38        1.89702   0.00008   0.00000   0.00057   0.00057   1.89758
   A39        1.88619   0.00001   0.00000   0.00041   0.00041   1.88660
   A40        1.92973   0.00022   0.00000   0.00062   0.00061   1.93035
   A41        1.92727   0.00031   0.00000   0.00185   0.00185   1.92912
   A42        1.92467   0.00006   0.00000   0.00121   0.00121   1.92588
    D1        0.91310   0.00012   0.00000   0.01470   0.01470   0.92780
    D2       -1.14757   0.00064   0.00000   0.01868   0.01868  -1.12889
    D3       -3.13758   0.00049   0.00000   0.01759   0.01759  -3.11999
    D4       -1.09260   0.00007   0.00000  -0.00709  -0.00710  -1.09970
    D5        3.08876   0.00017   0.00000  -0.00535  -0.00535   3.08341
    D6        0.99991   0.00005   0.00000  -0.00737  -0.00737   0.99254
    D7        1.06054  -0.00011   0.00000  -0.00969  -0.00969   1.05085
    D8       -1.04128  -0.00001   0.00000  -0.00795  -0.00795  -1.04923
    D9       -3.13013  -0.00013   0.00000  -0.00997  -0.00996  -3.14010
   D10        3.04630  -0.00012   0.00000  -0.00938  -0.00938   3.03692
   D11        0.94448  -0.00002   0.00000  -0.00764  -0.00764   0.93684
   D12       -1.14438  -0.00014   0.00000  -0.00965  -0.00965  -1.15403
   D13        0.05710   0.00032   0.00000   0.01575   0.01575   0.07285
   D14       -3.09961   0.00016   0.00000   0.00752   0.00752  -3.09208
   D15        3.12578  -0.00007   0.00000  -0.00364  -0.00362   3.12217
   D16       -0.00217   0.00007   0.00000   0.00376   0.00376   0.00160
   D17       -3.12819   0.00008   0.00000   0.00409   0.00410  -3.12408
   D18        0.01794   0.00009   0.00000   0.00465   0.00466   0.02260
   D19        0.00050  -0.00006   0.00000  -0.00297  -0.00297  -0.00247
   D20       -3.13656  -0.00005   0.00000  -0.00241  -0.00241  -3.13897
   D21        0.00311  -0.00006   0.00000  -0.00325  -0.00324  -0.00013
   D22        3.13639   0.00000   0.00000   0.00054   0.00054   3.13693
   D23       -0.00290   0.00002   0.00000   0.00145   0.00144  -0.00146
   D24        3.10578   0.00001   0.00000   0.00119   0.00119   3.10697
   D25       -0.03752   0.00003   0.00000   0.00176   0.00175  -0.03577
   D26       -0.03878  -0.00000   0.00000   0.00001   0.00002  -0.03877
   D27        3.10110   0.00001   0.00000   0.00058   0.00058   3.10168
   D28        0.00151   0.00002   0.00000   0.00082   0.00082   0.00233
   D29        3.13843   0.00001   0.00000   0.00025   0.00026   3.13869
   D30       -3.13728   0.00004   0.00000   0.00194   0.00194  -3.13534
   D31       -0.00036   0.00003   0.00000   0.00137   0.00138   0.00102
   D32        3.13899   0.00001   0.00000   0.00076   0.00077   3.13976
   D33       -0.00353  -0.00001   0.00000  -0.00020  -0.00020  -0.00373
   D34       -0.00092   0.00001   0.00000   0.00021   0.00021  -0.00070
   D35        3.13974  -0.00001   0.00000  -0.00075  -0.00075   3.13900
   D36       -3.13986   0.00000   0.00000   0.00018   0.00018  -3.13968
   D37        0.00128  -0.00001   0.00000  -0.00069  -0.00068   0.00059
   D38        0.00004   0.00001   0.00000   0.00074   0.00074   0.00078
   D39        3.14118  -0.00000   0.00000  -0.00013  -0.00013   3.14105
   D40        0.00070  -0.00001   0.00000  -0.00052  -0.00052   0.00019
   D41       -3.14156  -0.00001   0.00000  -0.00041  -0.00041   3.14121
   D42       -3.13996   0.00001   0.00000   0.00044   0.00045  -3.13951
   D43        0.00096   0.00001   0.00000   0.00055   0.00055   0.00151
   D44        0.00039  -0.00000   0.00000  -0.00013  -0.00013   0.00026
   D45        3.14098   0.00002   0.00000   0.00075   0.00075  -3.14146
   D46       -3.14052  -0.00001   0.00000  -0.00024  -0.00024  -3.14076
   D47        0.00006   0.00001   0.00000   0.00065   0.00065   0.00071
   D48       -0.00127   0.00002   0.00000   0.00109   0.00109  -0.00018
   D49       -3.14081  -0.00001   0.00000  -0.00039  -0.00039  -3.14120
   D50        3.14133   0.00000   0.00000   0.00020   0.00020   3.14153
   D51        0.00180  -0.00003   0.00000  -0.00128  -0.00128   0.00052
   D52        0.00105  -0.00003   0.00000  -0.00140  -0.00140  -0.00034
   D53       -3.14008  -0.00001   0.00000  -0.00052  -0.00052  -3.14060
   D54        3.14060   0.00000   0.00000   0.00007   0.00007   3.14067
   D55       -0.00054   0.00002   0.00000   0.00095   0.00095   0.00042
         Item               Value     Threshold  Converged?
 Maximum Force            0.002784     0.000450     NO 
 RMS     Force            0.000701     0.000300     NO 
 Maximum Displacement     0.102498     0.001800     NO 
 RMS     Displacement     0.027251     0.001200     NO 
 Predicted change in Energy=-1.027017D-04
 Lowest energy point so far.  Saving SCF results.
 GradGradGradGradGradGradGradGradGradGradGradGradGradGradGradGradGradGrad

 Leave Link  103 at Thu Sep 24 04:41:14 2020, MaxMem=  2147483648 cpu:               0.1 elap:               0.0
 (Enter /prod/apps/gaussian/g16b1/l202.exe)
                          Input orientation:                          
 ---------------------------------------------------------------------
 Center     Atomic      Atomic             Coordinates (Angstroms)
 Number     Number       Type             X           Y           Z
 ---------------------------------------------------------------------
      1          8           0       -3.620463   -0.721473    1.429662
      2         16           0       -3.567090    0.104068    0.189669
      3          7           0       -2.201508    0.941404   -0.001213
      4          6           0       -0.996952    0.293790    0.061406
      5          7           0       -0.802027   -1.020542    0.194108
      6          8           0        0.610151   -1.197808    0.181762
      7          6           0        1.206972    0.010845    0.042627
      8          6           0        2.666610    0.030324    0.014820
      9          6           0        3.356507    1.239551   -0.168211
     10          6           0        4.748284    1.257548   -0.192416
     11          6           0        5.470519    0.071490   -0.034871
     12          6           0        4.789946   -1.134312    0.146979
     13          6           0        3.397341   -1.157430    0.171829
     14          6           0        0.259318    0.984878   -0.040178
     15          6           0       -3.703661   -1.054506   -1.186846
     16          8           0       -4.676923    1.079157    0.037671
     17          1           0        2.801697    2.163597   -0.293051
     18          1           0        5.269703    2.198056   -0.334902
     19          1           0        6.555052    0.087815   -0.053929
     20          1           0        5.343464   -2.059217    0.270359
     21          1           0        2.867362   -2.091806    0.313722
     22          1           0        0.397521    2.048201   -0.152179
     23          1           0       -2.840760   -1.719606   -1.165216
     24          1           0       -3.729079   -0.489394   -2.118636
     25          1           0       -4.626984   -1.621631   -1.061968
 ---------------------------------------------------------------------
                    Distance matrix (angstroms):
                    1          2          3          4          5
     1  O    0.000000
     2  S    1.490620   0.000000
     3  N    2.612661   1.613191   0.000000
     4  C    3.128209   2.580321   1.369043   0.000000
     5  N    3.091863   2.985020   2.417835   1.335318   0.000000
     6  O    4.436467   4.375419   3.537673   2.195935   1.423314
     7  C    5.075852   4.777235   3.533496   2.222091   2.263356
     8  C    6.488009   6.236588   4.952666   3.673319   3.628761
     9  C    7.421383   7.025212   5.568511   4.460919   4.746863
    10  C    8.751204   8.403687   6.959605   5.831036   6.012074
    11  C    9.242272   9.040457   7.721262   6.472007   6.371012
    12  C    8.517669   8.448400   7.294586   5.961123   5.593328
    13  C    7.142953   7.077782   5.981819   4.629044   4.201658
    14  C    4.486063   3.933199   2.461518   1.437406   2.281019
    15  C    2.638929   1.804367   2.765113   3.271439   3.213669
    16  O    2.509186   1.485137   2.479550   3.762918   4.409992
    17  H    7.248138   6.710896   5.158583   4.248711   4.833517
    18  H    9.522205   9.096641   7.583503   6.561574   6.892397
    19  H   10.314896  10.125086   8.798223   7.555692   7.444232
    20  H    9.137041   9.169749   8.124289   6.766179   6.233115
    21  H    6.724211   6.799958   5.915487   4.548369   3.824439
    22  H    5.130058   4.428843   2.828911   2.251250   3.313006
    23  H    2.887490   2.385174   2.973974   2.992991   2.548114
    24  H    3.557538   2.388872   2.977271   3.581966   3.768095
    25  H    2.834006   2.380758   3.684737   4.255343   4.070545
                    6          7          8          9         10
     6  O    0.000000
     7  C    1.355137   0.000000
     8  C    2.401084   1.460034   0.000000
     9  C    3.688587   2.484890   1.404168   0.000000
    10  C    4.826274   3.761702   2.425363   1.392103   0.000000
    11  C    5.028044   4.264683   2.804651   2.418924   1.397562
    12  C    4.180422   3.762974   2.425365   2.790935   2.416178
    13  C    2.787501   2.485815   1.403346   2.421325   2.791028
    14  C    2.221814   1.361486   2.590223   3.110279   4.499815
    15  C    4.527979   5.173093   6.572763   7.493083   8.818722
    16  O    5.758340   5.980094   7.418090   8.037669   9.429702
[...]
      8          6           0       -2.672035    0.047864    0.002476
      9          6           0       -3.370871    1.263498    0.083401
     10          6           0       -4.763016    1.273932    0.091839
     11          6           0       -5.476701    0.074299    0.020059
     12          6           0       -4.787574   -1.137816   -0.060011
     13          6           0       -3.394713   -1.153388   -0.068856
     14          6           0       -0.269058    1.018118    0.015547
     15          6           0        3.690261   -0.925472    1.329459
     16          8           0        4.668974    1.137292   -0.008007
     17          1           0       -2.822073    2.197774    0.140599
     18          1           0       -5.292030    2.218960    0.154848
     19          1           0       -6.561524    0.085170    0.026577
     20          1           0       -5.335076   -2.072851   -0.116327
     21          1           0       -2.857005   -2.091908   -0.131897
     22          1           0       -0.415719    2.085642    0.051738
     23          1           0        2.825316   -1.588046    1.335628
     24          1           0        3.706043   -0.306439    2.226626
     25          1           0        4.613817   -1.500162    1.249201
 ---------------------------------------------------------------------
 Rotational constants (GHZ):           1.9489711           0.1852357           0.1759073
 Leave Link  202 at Thu Sep 24 05:02:49 2020, MaxMem=   262144000 cpu:               0.0 elap:               0.0
 (Enter /prod/apps/gaussian/g16b1/l301.exe)
 Standard basis: Aug-CC-pVDZ (5D, 7F)
 Ernie: Thresh=  0.10000D-02 Tol=  0.10000D-05 Strict=F.
 Ernie:  40 primitive shells out of 491 were deleted.
 There are   485 symmetry adapted cartesian basis functions of A   symmetry.
 There are   453 symmetry adapted basis functions of A   symmetry.
   453 basis functions,   825 primitive gaussians,   485 cartesian basis functions
    62 alpha electrons       62 beta electrons
       nuclear repulsion energy      1153.3602647199 Hartrees.
 IExCor=    0 DFT=F Ex=HF Corr=None ExCW=0 ScaHFX=  1.000000
 ScaDFX=  1.000000  1.000000  1.000000  1.000000 ScalE2=  1.000000  1.000000
 IRadAn=      5 IRanWt=     -1 IRanGd=            0 ICorTp=0 IEmpDi=  4
 NAtoms=   25 NActive=   25 NUniq=   25 SFac= 1.00D+00 NAtFMM=   60 NAOKFM=F Big=F
 Integral buffers will be    131072 words long.
 Raffenetti 1 integral format.
 Two-electron integral symmetry is turned on.
 Leave Link  301 at Thu Sep 24 05:02:49 2020, MaxMem=   262144000 cpu:               0.2 elap:               0.1
 (Enter /prod/apps/gaussian/g16b1/l302.exe)
 NPDir=0 NMtPBC=     1 NCelOv=     1 NCel=       1 NClECP=     1 NCelD=      1
         NCelK=      1 NCelE2=     1 NClLst=     1 CellRange=     0.0.
 One-electron integrals computed using PRISM.
 One-electron integral symmetry used in STVInt
 NBasis=   453 RedAO= T EigKep=  1.66D-06  NBF=   453
 NBsUse=   453 1.00D-06 EigRej= -1.00D+00 NBFU=   453
 Leave Link  302 at Thu Sep 24 05:02:50 2020, MaxMem=   262144000 cpu:               1.1 elap:               0.3
 (Enter /prod/apps/gaussian/g16b1/l303.exe)
 DipDrv:  MaxL=1.
 Leave Link  303 at Thu Sep 24 05:02:50 2020, MaxMem=   262144000 cpu:               0.3 elap:               0.1
 (Enter /prod/apps/gaussian/g16b1/l401.exe)
 ExpMin= 2.97D-02 ExpMax= 1.11D+05 ExpMxC= 1.07D+03 IAcc=3 IRadAn=         5 AccDes= 0.00D+00
 Harris functional with IExCor=  205 and IRadAn=       5 diagonalized for initial guess.
 HarFok:  IExCor=  205 AccDes= 0.00D+00 IRadAn=         5 IDoV= 1 UseB2=F ITyADJ=14
 ICtDFT=  3500011 ScaDFX=  1.000000  1.000000  1.000000  1.000000
 FoFCou: FMM=F IPFlag=           0 FMFlag=      100000 FMFlg1=           0
         NFxFlg=           0 DoJE=T BraDBF=F KetDBF=T FulRan=T
         wScrn=  0.000000 ICntrl=       500 IOpCl=  0 I1Cent=   200000004 NGrid=           0
         NMat0=    1 NMatS0=      1 NMatT0=    0 NMatD0=    1 NMtDS0=    0 NMtDT0=    0
 Petite list used in FoFCou.
 Harris En= -1115.47419757857    
 JPrj=0 DoOrth=F DoCkMO=F.
 Leave Link  401 at Thu Sep 24 05:02:53 2020, MaxMem=   262144000 cpu:              12.5 elap:               3.6
 (Enter /prod/apps/gaussian/g16b1/l502.exe)
 Integral symmetry usage will be decided dynamically.
 Closed shell SCF:
 Using DIIS extrapolation, IDIIS=  1040.
 NGot=   262144000 LenX=   261666145 LenY=   261430435
 Requested convergence on RMS density matrix=1.00D-08 within2000 cycles.
 Requested convergence on MAX density matrix=1.00D-06.
 Requested convergence on             energy=1.00D-06.
 No special actions if energy rises.

 Cycle   1  Pass 1  IDiag  1:
 FoFJK:  IHMeth= 1 ICntrl=       0 DoSepK=F KAlg= 0 I1Cent=           0 FoldK=F
 IRaf= 910000000 NMat=       1 IRICut=       1 DoRegI=T DoRafI=F ISym2E= 0 IDoP0=0 IntGTp=1.
 FoFCou: FMM=F IPFlag=           0 FMFlag=      100000 FMFlg1=           0
         NFxFlg=           0 DoJE=F BraDBF=F KetDBF=F FulRan=T
         wScrn=  0.000000 ICntrl=         0 IOpCl=  0 I1Cent=           0 NGrid=           0
         NMat0=    1 NMatS0=      1 NMatT0=    0 NMatD0=    1 NMtDS0=    0 NMtDT0=    0
 Symmetry not used in FoFCou.
 E= -1114.25185014039    
 DIIS: error= 2.42D-02 at cycle   1 NSaved=   1.
 NSaved= 1 IEnMin= 1 EnMin= -1114.25185014039     IErMin= 1 ErrMin= 2.42D-02
 ErrMax= 2.42D-02  0.00D+00 EMaxC= 1.00D-01 BMatC= 9.41D-01 BMatP= 9.41D-01
 IDIUse=3 WtCom= 7.58D-01 WtEn= 2.42D-01
 Coeff-Com:  0.100D+01
 Coeff-En:   0.100D+01
 Coeff:      0.100D+01
 Gap=     0.392 Goal=   None    Shift=    0.000
 GapD=    0.392 DampG=1.000 DampE=0.500 DampFc=0.5000 IDamp=-1.
 Damping current iteration by 5.00D-01
 RMSDP=6.64D-02 MaxDP=3.64D+00              OVMax= 1.48D-01

 Cycle   2  Pass 1  IDiag  1:
 E= -1114.60490181163     Delta-E=       -0.353051671247 Rises=F Damp=T
 DIIS: error= 9.21D-03 at cycle   2 NSaved=   2.
 NSaved= 2 IEnMin= 2 EnMin= -1114.60490181163     IErMin= 2 ErrMin= 9.21D-03
 ErrMax= 9.21D-03  0.00D+00 EMaxC= 1.00D-01 BMatC= 1.55D-01 BMatP= 9.41D-01
 IDIUse=3 WtCom= 9.08D-01 WtEn= 9.21D-02
 Coeff-Com: -0.444D+00 0.144D+01
 Coeff-En:   0.000D+00 0.100D+01
 Coeff:     -0.403D+00 0.140D+01
 Gap=     0.285 Goal=   None    Shift=    0.000
 RMSDP=3.13D-02 MaxDP=2.01D+00 DE=-3.53D-01 OVMax= 5.72D-02

 Cycle   3  Pass 1  IDiag  1:
 E= -1114.91960735310     Delta-E=       -0.314705541471 Rises=F Damp=F
 DIIS: error= 2.41D-03 at cycle   3 NSaved=   3.
 NSaved= 3 IEnMin= 3 EnMin= -1114.91960735310     IErMin= 3 ErrMin= 2.41D-03
 ErrMax= 2.41D-03  0.00D+00 EMaxC= 1.00D-01 BMatC= 1.10D-02 BMatP= 1.55D-01
 IDIUse=3 WtCom= 9.76D-01 WtEn= 2.41D-02
 Coeff-Com: -0.160D+00 0.310D+00 0.849D+00
 Coeff-En:   0.000D+00 0.000D+00 0.100D+01
 Coeff:     -0.156D+00 0.303D+00 0.853D+00
 Gap=     0.278 Goal=   None    Shift=    0.000
 RMSDP=1.46D-03 MaxDP=8.17D-02 DE=-3.15D-01 OVMax= 2.79D-02

 Cycle   4  Pass 1  IDiag  1:
 E= -1114.92892835173     Delta-E=       -0.009320998627 Rises=F Damp=F
 DIIS: error= 7.91D-04 at cycle   4 NSaved=   4.
 NSaved= 4 IEnMin= 4 EnMin= -1114.92892835173     IErMin= 4 ErrMin= 7.91D-04
 ErrMax= 7.91D-04  0.00D+00 EMaxC= 1.00D-01 BMatC= 1.03D-03 BMatP= 1.10D-02
 IDIUse=3 WtCom= 9.92D-01 WtEn= 7.91D-03
 Coeff-Com: -0.207D-01 0.129D-01 0.244D+00 0.764D+00
 Coeff-En:   0.000D+00 0.000D+00 0.000D+00 0.100D+01
 Coeff:     -0.206D-01 0.128D-01 0.242D+00 0.765D+00
 Gap=     0.272 Goal=   None    Shift=    0.000
 RMSDP=5.28D-04 MaxDP=2.94D-02 DE=-9.32D-03 OVMax= 5.70D-03

 Cycle   5  Pass 1  IDiag  1:
 E= -1114.93004386315     Delta-E=       -0.001115511415 Rises=F Damp=F
 DIIS: error= 2.33D-04 at cycle   5 NSaved=   5.
 NSaved= 5 IEnMin= 5 EnMin= -1114.93004386315     IErMin= 5 ErrMin= 2.33D-04
 ErrMax= 2.33D-04  0.00D+00 EMaxC= 1.00D-01 BMatC= 6.37D-05 BMatP= 1.03D-03
 IDIUse=3 WtCom= 9.98D-01 WtEn= 2.33D-03
 Coeff-Com:  0.111D-01-0.218D-01-0.560D-01-0.426D-02 0.107D+01
 Coeff-En:   0.000D+00 0.000D+00 0.000D+00 0.000D+00 0.100D+01
 Coeff:      0.110D-01-0.217D-01-0.558D-01-0.425D-02 0.107D+01
 Gap=     0.272 Goal=   None    Shift=    0.000
 RMSDP=1.64D-04 MaxDP=1.23D-02 DE=-1.12D-03 OVMax= 7.30D-03

 Cycle   6  Pass 1  IDiag  1:
 E= -1114.93023954318     Delta-E=       -0.000195680037 Rises=F Damp=F
 DIIS: error= 1.42D-04 at cycle   6 NSaved=   6.
 NSaved= 6 IEnMin= 6 EnMin= -1114.93023954318     IErMin= 6 ErrMin= 1.42D-04
 ErrMax= 1.42D-04  0.00D+00 EMaxC= 1.00D-01 BMatC= 2.54D-05 BMatP= 6.37D-05
 IDIUse=3 WtCom= 9.99D-01 WtEn= 1.42D-03
 Coeff-Com:  0.657D-02-0.906D-02-0.518D-01-0.137D+00 0.328D+00 0.863D+00
 Coeff-En:   0.000D+00 0.000D+00 0.000D+00 0.000D+00 0.000D+00 0.100D+01
 Coeff:      0.656D-02-0.905D-02-0.517D-01-0.136D+00 0.328D+00 0.863D+00
 Gap=     0.273 Goal=   None    Shift=    0.000
 RMSDP=7.70D-05 MaxDP=3.45D-03 DE=-1.96D-04 OVMax= 2.96D-03

 Cycle   7  Pass 1  IDiag  1:
 E= -1114.93029036993     Delta-E=       -0.000050826749 Rises=F Damp=F
 DIIS: error= 4.09D-05 at cycle   7 NSaved=   7.
 NSaved= 7 IEnMin= 7 EnMin= -1114.93029036993     IErMin= 7 ErrMin= 4.09D-05
 ErrMax= 4.09D-05  0.00D+00 EMaxC= 1.00D-01 BMatC= 3.00D-06 BMatP= 2.54D-05
 IDIUse=1 WtCom= 1.00D+00 WtEn= 0.00D+00
 Coeff-Com: -0.879D-03 0.235D-02 0.501D-02-0.255D-01-0.121D+00 0.696D-01
 Coeff-Com:  0.107D+01
 Coeff:     -0.879D-03 0.235D-02 0.501D-02-0.255D-01-0.121D+00 0.696D-01
 Coeff:      0.107D+01
 Gap=     0.273 Goal=   None    Shift=    0.000
 RMSDP=3.25D-05 MaxDP=1.41D-03 DE=-5.08D-05 OVMax= 2.26D-03

 Cycle   8  Pass 1  IDiag  1:
 E= -1114.93030167710     Delta-E=       -0.000011307166 Rises=F Damp=F
 DIIS: error= 2.03D-05 at cycle   8 NSaved=   8.
 NSaved= 8 IEnMin= 8 EnMin= -1114.93030167710     IErMin= 8 ErrMin= 2.03D-05
 ErrMax= 2.03D-05  0.00D+00 EMaxC= 1.00D-01 BMatC= 6.81D-07 BMatP= 3.00D-06
 IDIUse=1 WtCom= 1.00D+00 WtEn= 0.00D+00
 Coeff-Com: -0.129D-02 0.188D-02 0.111D-01 0.205D-01-0.605D-01-0.187D+00
 Coeff-Com:  0.803D-01 0.113D+01
 Coeff:     -0.129D-02 0.188D-02 0.111D-01 0.205D-01-0.605D-01-0.187D+00
 Coeff:      0.803D-01 0.113D+01
 Gap=     0.273 Goal=   None    Shift=    0.000
 RMSDP=1.97D-05 MaxDP=8.44D-04 DE=-1.13D-05 OVMax= 1.12D-03

 Cycle   9  Pass 1  IDiag  1:
 E= -1114.93030409552     Delta-E=       -0.000002418421 Rises=F Damp=F
 DIIS: error= 1.18D-05 at cycle   9 NSaved=   9.
 NSaved= 9 IEnMin= 9 EnMin= -1114.93030409552     IErMin= 9 ErrMin= 1.18D-05
 ErrMax= 1.18D-05  0.00D+00 EMaxC= 1.00D-01 BMatC= 8.55D-08 BMatP= 6.81D-07
 IDIUse=1 WtCom= 1.00D+00 WtEn= 0.00D+00
 Coeff-Com: -0.682D-04-0.682D-04 0.115D-02 0.579D-02 0.109D-01-0.451D-01
 Coeff-Com: -0.136D+00 0.165D+00 0.999D+00
 Coeff:     -0.682D-04-0.682D-04 0.115D-02 0.579D-02 0.109D-01-0.451D-01
 Coeff:     -0.136D+00 0.165D+00 0.999D+00
 Gap=     0.273 Goal=   None    Shift=    0.000
 RMSDP=8.21D-06 MaxDP=3.94D-04 DE=-2.42D-06 OVMax= 3.91D-04

 Cycle  10  Pass 1  IDiag  1:
 E= -1114.93030441388     Delta-E=       -0.000000318361 Rises=F Damp=F
 DIIS: error= 4.52D-06 at cycle  10 NSaved=  10.
 NSaved=10 IEnMin=10 EnMin= -1114.93030441388     IErMin=10 ErrMin= 4.52D-06
 ErrMax= 4.52D-06  0.00D+00 EMaxC= 1.00D-01 BMatC= 1.54D-08 BMatP= 8.55D-08
 IDIUse=1 WtCom= 1.00D+00 WtEn= 0.00D+00
 Coeff-Com:  0.203D-03-0.292D-03-0.178D-02-0.388D-02 0.985D-02 0.327D-01
 Coeff-Com:  0.556D-03-0.203D+00-0.671D-01 0.123D+01
 Coeff:      0.203D-03-0.292D-03-0.178D-02-0.388D-02 0.985D-02 0.327D-01
 Coeff:      0.556D-03-0.203D+00-0.671D-01 0.123D+01
 Gap=     0.273 Goal=   None    Shift=    0.000
 RMSDP=4.27D-06 MaxDP=1.75D-04 DE=-3.18D-07 OVMax= 1.50D-04

 Cycle  11  Pass 1  IDiag  1:
 E= -1114.93030448412     Delta-E=       -0.000000070237 Rises=F Damp=F
 DIIS: error= 3.52D-06 at cycle  11 NSaved=  11.
 NSaved=11 IEnMin=11 EnMin= -1114.93030448412     IErMin=11 ErrMin= 3.52D-06
 ErrMax= 3.52D-06  0.00D+00 EMaxC= 1.00D-01 BMatC= 3.24D-09 BMatP= 1.54D-08
 IDIUse=1 WtCom= 1.00D+00 WtEn= 0.00D+00
 Coeff-Com:  0.502D-04-0.352D-04-0.589D-03-0.200D-02-0.656D-03 0.157D-01
 Coeff-Com:  0.267D-01-0.721D-01-0.203D+00 0.230D+00 0.101D+01
 Coeff:      0.502D-04-0.352D-04-0.589D-03-0.200D-02-0.656D-03 0.157D-01
 Coeff:      0.267D-01-0.721D-01-0.203D+00 0.230D+00 0.101D+01
 Gap=     0.273 Goal=   None    Shift=    0.000
 RMSDP=2.48D-06 MaxDP=1.06D-04 DE=-7.02D-08 OVMax= 7.07D-05

 Cycle  12  Pass 1  IDiag  1:
 E= -1114.93030449779     Delta-E=       -0.000000013672 Rises=F Damp=F
 DIIS: error= 1.06D-06 at cycle  12 NSaved=  12.
 NSaved=12 IEnMin=12 EnMin= -1114.93030449779     IErMin=12 ErrMin= 1.06D-06
 ErrMax= 1.06D-06  0.00D+00 EMaxC= 1.00D-01 BMatC= 5.66D-10 BMatP= 3.24D-09
 IDIUse=1 WtCom= 1.00D+00 WtEn= 0.00D+00
 Coeff-Com: -0.382D-04 0.539D-04 0.335D-03 0.880D-03-0.187D-02-0.630D-02
 Coeff-Com: -0.243D-02 0.424D-01 0.246D-01-0.255D+00-0.322D-01 0.123D+01
 Coeff:     -0.382D-04 0.539D-04 0.335D-03 0.880D-03-0.187D-02-0.630D-02
 Coeff:     -0.243D-02 0.424D-01 0.246D-01-0.255D+00-0.322D-01 0.123D+01
 Gap=     0.273 Goal=   None    Shift=    0.000
 RMSDP=1.28D-06 MaxDP=4.50D-05 DE=-1.37D-08 OVMax= 3.91D-05

 Cycle  13  Pass 1  IDiag  1:
 E= -1114.93030450069     Delta-E=       -0.000000002899 Rises=F Damp=F
 DIIS: error= 6.45D-07 at cycle  13 NSaved=  13.
 NSaved=13 IEnMin=13 EnMin= -1114.93030450069     IErMin=13 ErrMin= 6.45D-07
 ErrMax= 6.45D-07  0.00D+00 EMaxC= 1.00D-01 BMatC= 1.17D-10 BMatP= 5.66D-10
 IDIUse=1 WtCom= 1.00D+00 WtEn= 0.00D+00
 Coeff-Com: -0.139D-04 0.139D-04 0.137D-03 0.465D-03-0.250D-03-0.316D-02
 Coeff-Com: -0.527D-02 0.176D-01 0.378D-01-0.747D-01-0.181D+00 0.196D+00
 Coeff-Com:  0.101D+01
 Coeff:     -0.139D-04 0.139D-04 0.137D-03 0.465D-03-0.250D-03-0.316D-02
 Coeff:     -0.527D-02 0.176D-01 0.378D-01-0.747D-01-0.181D+00 0.196D+00
 Coeff:      0.101D+01
 Gap=     0.273 Goal=   None    Shift=    0.000
 RMSDP=5.02D-07 MaxDP=2.13D-05 DE=-2.90D-09 OVMax= 1.52D-05

 Cycle  14  Pass 1  IDiag  1:
 E= -1114.93030450117     Delta-E=       -0.000000000483 Rises=F Damp=F
 DIIS: error= 1.88D-07 at cycle  14 NSaved=  14.
 NSaved=14 IEnMin=14 EnMin= -1114.93030450117     IErMin=14 ErrMin= 1.88D-07
 ErrMax= 1.88D-07  0.00D+00 EMaxC= 1.00D-01 BMatC= 2.35D-11 BMatP= 1.17D-10
 IDIUse=1 WtCom= 1.00D+00 WtEn= 0.00D+00
 Coeff-Com:  0.760D-05-0.111D-04-0.709D-04-0.168D-03 0.400D-03 0.142D-02
 Coeff-Com: -0.225D-03-0.864D-02-0.404D-03 0.580D-01-0.186D-01-0.275D+00
 Coeff-Com:  0.105D+00 0.114D+01
 Coeff:      0.760D-05-0.111D-04-0.709D-04-0.168D-03 0.400D-03 0.142D-02
 Coeff:     -0.225D-03-0.864D-02-0.404D-03 0.580D-01-0.186D-01-0.275D+00
 Coeff:      0.105D+00 0.114D+01
 Gap=     0.273 Goal=   None    Shift=    0.000
 RMSDP=1.99D-07 MaxDP=6.52D-06 DE=-4.83D-10 OVMax= 6.27D-06

 Cycle  15  Pass 1  IDiag  1:
 E= -1114.93030450124     Delta-E=       -0.000000000066 Rises=F Damp=F
 DIIS: error= 7.23D-08 at cycle  15 NSaved=  15.
 NSaved=15 IEnMin=15 EnMin= -1114.93030450124     IErMin=15 ErrMin= 7.23D-08
 ErrMax= 7.23D-08  0.00D+00 EMaxC= 1.00D-01 BMatC= 2.73D-12 BMatP= 2.35D-11
 IDIUse=1 WtCom= 1.00D+00 WtEn= 0.00D+00
 Coeff-Com:  0.221D-05-0.218D-05-0.255D-04-0.780D-04 0.568D-04 0.614D-03
 Coeff-Com:  0.625D-03-0.325D-02-0.553D-02 0.139D-01 0.244D-01-0.433D-01
 Coeff-Com: -0.145D+00 0.607D-01 0.110D+01
 Coeff:      0.221D-05-0.218D-05-0.255D-04-0.780D-04 0.568D-04 0.614D-03
 Coeff:      0.625D-03-0.325D-02-0.553D-02 0.139D-01 0.244D-01-0.433D-01
 Coeff:     -0.145D+00 0.607D-01 0.110D+01
 Gap=     0.273 Goal=   None    Shift=    0.000
 RMSDP=7.75D-08 MaxDP=2.77D-06 DE=-6.64D-11 OVMax= 2.28D-06

 Cycle  16  Pass 1  IDiag  1:
 E= -1114.93030450128     Delta-E=       -0.000000000044 Rises=F Damp=F
 DIIS: error= 2.56D-08 at cycle  16 NSaved=  16.
 NSaved=16 IEnMin=16 EnMin= -1114.93030450128     IErMin=16 ErrMin= 2.56D-08
 ErrMax= 2.56D-08  0.00D+00 EMaxC= 1.00D-01 BMatC= 5.49D-13 BMatP= 2.73D-12
 IDIUse=1 WtCom= 1.00D+00 WtEn= 0.00D+00
 Coeff-Com: -0.765D-06 0.130D-05 0.572D-05 0.102D-04-0.493D-04-0.848D-04
 Coeff-Com:  0.149D-03 0.699D-03-0.865D-03-0.584D-02 0.783D-02 0.328D-01
 Coeff-Com: -0.457D-01-0.160D+00 0.249D+00 0.922D+00
 Coeff:     -0.765D-06 0.130D-05 0.572D-05 0.102D-04-0.493D-04-0.848D-04
 Coeff:      0.149D-03 0.699D-03-0.865D-03-0.584D-02 0.783D-02 0.328D-01
 Coeff:     -0.457D-01-0.160D+00 0.249D+00 0.922D+00
 Gap=     0.273 Goal=   None    Shift=    0.000
 RMSDP=2.24D-08 MaxDP=8.38D-07 DE=-4.41D-11 OVMax= 5.46D-07

 Cycle  17  Pass 1  IDiag  1:
 E= -1114.93030450125     Delta-E=        0.000000000029 Rises=F Damp=F
 DIIS: error= 1.10D-08 at cycle  17 NSaved=  17.
 NSaved=17 IEnMin=16 EnMin= -1114.93030450128     IErMin=17 ErrMin= 1.10D-08
 ErrMax= 1.10D-08  0.00D+00 EMaxC= 1.00D-01 BMatC= 7.26D-14 BMatP= 5.49D-13
 IDIUse=1 WtCom= 1.00D+00 WtEn= 0.00D+00
 Coeff-Com: -0.477D-06 0.553D-06 0.515D-05 0.150D-04-0.166D-04-0.118D-03
 Coeff-Com: -0.101D-03 0.641D-03 0.875D-03-0.328D-02-0.365D-02 0.110D-01
 Coeff-Com:  0.217D-01-0.313D-01-0.149D+00 0.616D-01 0.109D+01
 Coeff:     -0.477D-06 0.553D-06 0.515D-05 0.150D-04-0.166D-04-0.118D-03
 Coeff:     -0.101D-03 0.641D-03 0.875D-03-0.328D-02-0.365D-02 0.110D-01
 Coeff:      0.217D-01-0.313D-01-0.149D+00 0.616D-01 0.109D+01
 Gap=     0.273 Goal=   None    Shift=    0.000
 RMSDP=1.41D-08 MaxDP=6.35D-07 DE= 2.91D-11 OVMax= 2.80D-07

 Cycle  18  Pass 1  IDiag  1:
 E= -1114.93030450126     Delta-E=       -0.000000000005 Rises=F Damp=F
 DIIS: error= 3.85D-09 at cycle  18 NSaved=  18.
 NSaved=18 IEnMin=16 EnMin= -1114.93030450128     IErMin=18 ErrMin= 3.85D-09
 ErrMax= 3.85D-09  0.00D+00 EMaxC= 1.00D-01 BMatC= 1.61D-14 BMatP= 7.26D-14
 IDIUse=1 WtCom= 1.00D+00 WtEn= 0.00D+00
 Coeff-Com:  0.970D-07-0.203D-06-0.362D-06 0.170D-06 0.711D-05-0.301D-06
 Coeff-Com: -0.360D-04-0.411D-04 0.294D-03 0.626D-03-0.177D-02-0.428D-02
 Coeff-Com:  0.114D-01 0.214D-01-0.585D-01-0.165D+00 0.158D+00 0.104D+01
 Coeff:      0.970D-07-0.203D-06-0.362D-06 0.170D-06 0.711D-05-0.301D-06
 Coeff:     -0.360D-04-0.411D-04 0.294D-03 0.626D-03-0.177D-02-0.428D-02
 Coeff:      0.114D-01 0.214D-01-0.585D-01-0.165D+00 0.158D+00 0.104D+01
 Gap=     0.273 Goal=   None    Shift=    0.000
 RMSDP=4.61D-09 MaxDP=1.87D-07 DE=-4.55D-12 OVMax= 1.08D-07

 SCF Done:  E(RHF) =  -1114.93030450     A.U. after   18 cycles
            NFock= 18  Conv=0.46D-08     -V/T= 2.0011
 KE= 1.113730773055D+03 PE=-4.950294319353D+03 EE= 1.568272977078D+03
 Leave Link  502 at Thu Sep 24 05:09:06 2020, MaxMem=   262144000 cpu:            1492.2 elap:             373.1
 (Enter /prod/apps/gaussian/g16b1/l801.exe)
 ExpMin= 2.97D-02 ExpMax= 1.11D+05 ExpMxC= 1.07D+03 IAcc=3 IRadAn=         5 AccDes= 0.00D+00
 HarFok:  IExCor=  205 AccDes= 0.00D+00 IRadAn=         5 IDoV=-2 UseB2=F ITyADJ=14
 ICtDFT= 12500011 ScaDFX=  1.000000  1.000000  1.000000  1.000000
 Largest valence mixing into a core orbital is  3.64D-04
 Largest core mixing into a valence orbital is  9.17D-05
 Range of M.O.s used for correlation:    21   453
 NBasis=   453 NAE=    62 NBE=    62 NFC=    20 NFV=     0
 NROrb=    433 NOA=    42 NOB=    42 NVA=   391 NVB=   391

 **** Warning!!: The largest alpha MO coefficient is  0.11265937D+03

 Leave Link  801 at Thu Sep 24 05:09:07 2020, MaxMem=   262144000 cpu:               0.7 elap:               0.2
 (Enter /prod/apps/gaussian/g16b1/l906.exe)
 FulOut=F Deriv=F AODrv=F NAtomX=    25
   MMem=           7  MDisk=          42 MDiskD=          42
  W3Min=     7964670 MinDsk=     8470657 NBas6D=         485
 NBas2D=      118536    NTT=      117855    LW2=     2000000
    MDV=   260712455 MDiskM=        7408 NBas2p=      104189
 Disk-based method using OVN memory for 42 occupieds at a time.
 Estimated scratch disk usage=  4472944014 words.
 IMap=   1   2   3   4   5   6   7   8   9  10  11  12  13  14  15  16  17  18  19  20
 IMap=  21  22  23  24  25  26  27  28  29  30  31  32  33  34  35  36  37  38  39  40
 IMap=  41  42
 Actual    scratch disk usage=  4287550862 words.
 JobTyp=1 Pass  1:  I=   1 to  42 NPSUse=  4 ParTrn=T ParDer=T DoDerP=F.
Erroneous write. Write -1 instead of 487716032.
fd = 4
orig len = 2076278392 left = 487716032
g_write
