 Entering Gaussian System, Link 0=g16
 Initial command:
 /prod/apps/gaussian/g16b1/l1.exe "/tmp/ubafar01/1461132/Gau-225801.inp" -scrdir="/tmp/ubafar01/1461132/"
 Entering Link 1 = /prod/apps/gaussian/g16b1/l1.exe PID=    225803.
  
 Copyright (c) 1988-2017, Gaussian, Inc.  All Rights Reserved.
  
 This is part of the Gaussian(R) 16 program.  It is based on
 the Gaussian(R) 09 system (copyright 2009, Gaussian, Inc.),
 the Gaussian(R) 03 system (copyright 2003, Gaussian, Inc.),
 the Gaussian(R) 98 system (copyright 1998, Gaussian, Inc.),
 the Gaussian(R) 94 system (copyright 1995, Gaussian, Inc.),
 the Gaussian 92(TM) system (copyright 1992, Gaussian, Inc.),
 the Gaussian 90(TM) system (copyright 1990, Gaussian, Inc.),
 the Gaussian 88(TM) system (copyright 1988, Gaussian, Inc.),
 the Gaussian 86(TM) system (copyright 1986, Carnegie Mellon
 University), and the Gaussian 82(TM) system (copyright 1983,
 Carnegie Mellon University). Gaussian is a federally registered
 trademark of Gaussian, Inc.
  
 This software contains proprietary and confidential information,
 including trade secrets, belonging to Gaussian, Inc.
  
 This software is provided under written license and may be
 used, copied, transmitted, or stored only in accord with that
 written license.
  
 The following legend is applicable only to US Government
 contracts under FAR:
  
                    RESTRICTED RIGHTS LEGEND
  
 Use, reproduction and disclosure by the US Government is
 subject to restrictions as set forth in subparagraphs (a)
 and (c) of the Commercial Computer Software - Restricted
 Rights clause in FAR 52.227-19.
  
 Gaussian, Inc.
 340 Quinnipiac St., Bldg. 40, Wallingford CT 06492
  
  
 ---------------------------------------------------------------
 Warning -- This program may not be used in any manner that
 competes with the business of Gaussian, Inc. or will provide
 assistance to any competitor of Gaussian, Inc.  The licensee
 of this program is prohibited from giving any competitor of
 Gaussian, Inc. access to this program.  By using this program,
 the user acknowledges that Gaussian, Inc. is engaged in the
 business of creating and licensing software in the field of
 computational chemistry and represents and warrants to the
 licensee that it is not a competitor of Gaussian, Inc. and that
 it will not use this program in any manner prohibited above.
 ---------------------------------------------------------------
  

 Cite this work as:
 Gaussian 16, Revision B.01,
 M. J. Frisch, G. W. Trucks, H. B. Schlegel, G. E. Scuseria, 
 M. A. Robb, J. R. Cheeseman, G. Scalmani, V. Barone, 
 G. A. Petersson, H. Nakatsuji, X. Li, M. Caricato, A. V. Marenich, 
 J. Bloino, B. G. Janesko, R. Gomperts, B. Mennucci, H. P. Hratchian, 
 J. V. Ortiz, A. F. Izmaylov, J. L. Sonnenberg, D. Williams-Young, 
 F. Ding, F. Lipparini, F. Egidi, J. Goings, B. Peng, A. Petrone, 
 T. Henderson, D. Ranasinghe, V. G. Zakrzewski, J. Gao, N. Rega, 
 G. Zheng, W. Liang, M. Hada, M. Ehara, K. Toyota, R. Fukuda, 
 J. Hasegawa, M. Ishida, T. Nakajima, Y. Honda, O. Kitao, H. Nakai, 
 T. Vreven, K. Throssell, J. A. Montgomery, Jr., J. E. Peralta, 
 F. Ogliaro, M. J. Bearpark, J. J. Heyd, E. N. Brothers, K. N. Kudin, 
 V. N. Staroverov, T. A. Keith, R. Kobayashi, J. Normand, 
 K. Raghavachari, A. P. Rendell, J. C. Burant, S. S. Iyengar, 
 J. Tomasi, M. Cossi, J. M. Millam, M. Klene, C. Adamo, R. Cammi, 
 J. W. Ochterski, R. L. Martin, K. Morokuma, O. Farkas, 
 J. B. Foresman, and D. J. Fox, Gaussian, Inc., Wallingford CT, 2016.
 
 ******************************************
 Gaussian 16:  ES64L-G16RevB.01 20-Dec-2017
                24-Sep-2020 
 ******************************************
 %nproc=4
 Will use up to    4 processors via shared memory.
 %Chk=SM41_m1.a.6.pdb.xyz.mst.a.w.chk
 %mem=16GB
 ----------------------------------------------------------------------
 #p b3lyp/6-31G(d) opt freq NoSymm scf=(MaxCycle=2000,NoVarAcc,NoIncFoc
 k) scrf=(iefpcm,read,solvent=water)
 ----------------------------------------------------------------------
 1/18=20,19=15,26=3,38=1,40=2/1,3;
 2/9=110,12=2,15=1,17=6,18=5,40=1/2;
 3/5=1,6=6,7=1,11=2,25=1,30=1,70=2203,71=1,72=1,74=-5/1,2,3;
 4//1;
 5/5=100002,7=2000,38=1,53=1/2;
 6/7=2,8=2,9=2,10=2,28=1/1;
 7/30=1/1,2,3,16;
 1/18=20,19=15,26=3/3(2);
 2/9=110,15=1/2;
 99//99;
 2/9=110,15=1/2;
 3/5=1,6=6,7=1,11=2,25=1,30=1,70=2205,71=1,72=1,74=-5/1,2,3;
 4/5=5,16=3,69=1/1;
 5/5=100002,7=2000,38=1,53=1/2;
 7/30=1/1,2,3,16;
 1/18=20,19=15,26=3/3(-5);
 2/9=110,15=1/2;
 6/7=2,8=2,9=2,10=2,19=2,28=1/1;
 99/9=1/99;
 Leave Link    1 at Thu Sep 24 04:40:25 2020, MaxMem=  2147483648 cpu:               0.1 elap:               0.0
 (Enter /prod/apps/gaussian/g16b1/l101.exe)
 -------------------
 SM41_m1.a.6.pdb.xyz
 -------------------
 Symbolic Z-matrix:
 Charge = -1 Multiplicity = 1
 O                    -4.695    -0.009    -0.442 
 S                    -3.276    -0.305    -0.125 
 N                    -2.458     1.061    -0.345 
 C                    -1.086     1.053    -0.253 
 N                    -0.463     2.236    -0.266 
 O                     0.922     1.939    -0.184 
 C                     1.089     0.598    -0.115 
 C                     2.46      0.094    -0.021 
 C                     3.551     0.981     0.025 
 C                     4.853     0.491     0.115 
 C                     5.088    -0.886     0.16 
 C                     4.008    -1.773     0.115 
 C                     2.705    -1.29      0.025 
 C                    -0.127    -0.019    -0.156 
 C                    -3.217    -0.7       1.639 
 O                    -2.706    -1.495    -0.822 
 H                     3.374     2.05     -0.009 
 H                     5.686     1.187     0.15 
 H                     6.103    -1.265     0.229 
 H                     4.182    -2.845     0.149 
 H                     1.874    -1.987    -0.01 
 H                    -0.34     -1.075    -0.146 
 H                    -3.654     0.129     2.199 
 H                    -2.177    -0.85      1.939 
 H                    -3.789    -1.615     1.806 
 
 ITRead=  0  0  0  0  0  0  0  0  0  0  0  0  0  0  0  0  0  0  0  0
 ITRead=  0  0  0  0  0
 MicOpt= -1 -1 -1 -1 -1 -1 -1 -1 -1 -1 -1 -1 -1 -1 -1 -1 -1 -1 -1 -1
 MicOpt= -1 -1 -1 -1 -1
 NAtoms=     25 NQM=       25 NQMF=       0 NMMI=      0 NMMIF=      0
                NMic=       0 NMicF=      0.
                    Isotopes and Nuclear Properties:
 (Nuclear quadrupole moments (NQMom) in fm**2, nuclear magnetic moments (NMagM)
  in nuclear magnetons)

  Atom         1           2           3           4           5           6           7           8           9          10
 IAtWgt=          16          32          14          12          14          16          12          12          12          12
 AtmWgt=  15.9949146  31.9720718  14.0030740  12.0000000  14.0030740  15.9949146  12.0000000  12.0000000  12.0000000  12.0000000
 NucSpn=           0           0           2           0           2           0           0           0           0           0
 AtZEff=  -0.0000000  -0.0000000  -0.0000000  -0.0000000  -0.0000000  -0.0000000  -0.0000000  -0.0000000  -0.0000000  -0.0000000
 NQMom=    0.0000000   0.0000000   2.0440000   0.0000000   2.0440000   0.0000000   0.0000000   0.0000000   0.0000000   0.0000000
 NMagM=    0.0000000   0.0000000   0.4037610   0.0000000   0.4037610   0.0000000   0.0000000   0.0000000   0.0000000   0.0000000
 AtZNuc=   8.0000000  16.0000000   7.0000000   6.0000000   7.0000000   8.0000000   6.0000000   6.0000000   6.0000000   6.0000000

  Atom        11          12          13          14          15          16          17          18          19          20
 IAtWgt=          12          12          12          12          12          16           1           1           1           1
 AtmWgt=  12.0000000  12.0000000  12.0000000  12.0000000  12.0000000  15.9949146   1.0078250   1.0078250   1.0078250   1.0078250
 NucSpn=           0           0           0           0           0           0           1           1           1           1
 AtZEff=  -0.0000000  -0.0000000  -0.0000000  -0.0000000  -0.0000000  -0.0000000  -0.0000000  -0.0000000  -0.0000000  -0.0000000
 NQMom=    0.0000000   0.0000000   0.0000000   0.0000000   0.0000000   0.0000000   0.0000000   0.0000000   0.0000000   0.0000000
 NMagM=    0.0000000   0.0000000   0.0000000   0.0000000   0.0000000   0.0000000   2.7928460   2.7928460   2.7928460   2.7928460
 AtZNuc=   6.0000000   6.0000000   6.0000000   6.0000000   6.0000000   8.0000000   1.0000000   1.0000000   1.0000000   1.0000000

  Atom        21          22          23          24          25
 IAtWgt=           1           1           1           1           1
 AtmWgt=   1.0078250   1.0078250   1.0078250   1.0078250   1.0078250
 NucSpn=           1           1           1           1           1
 AtZEff=  -0.0000000  -0.0000000  -0.0000000  -0.0000000  -0.0000000
 NQMom=    0.0000000   0.0000000   0.0000000   0.0000000   0.0000000
 NMagM=    2.7928460   2.7928460   2.7928460   2.7928460   2.7928460
 AtZNuc=   1.0000000   1.0000000   1.0000000   1.0000000   1.0000000
 Leave Link  101 at Thu Sep 24 04:40:26 2020, MaxMem=  2147483648 cpu:               2.1 elap:               0.5
 (Enter /prod/apps/gaussian/g16b1/l103.exe)

 GradGradGradGradGradGradGradGradGradGradGradGradGradGradGradGradGradGrad
 Berny optimization.
 Initialization pass.
                           ----------------------------
                           !    Initial Parameters    !
                           ! (Angstroms and Degrees)  !
 --------------------------                            --------------------------
 ! Name  Definition              Value          Derivative Info.                !
 --------------------------------------------------------------------------------
 ! R1    R(1,2)                  1.4838         estimate D2E/DX2                !
 ! R2    R(2,3)                  1.6073         estimate D2E/DX2                !
 ! R3    R(2,15)                 1.8086         estimate D2E/DX2                !
 ! R4    R(2,16)                 1.4922         estimate D2E/DX2                !
 ! R5    R(3,4)                  1.3751         estimate D2E/DX2                !
 ! R6    R(4,5)                  1.3371         estimate D2E/DX2                !
 ! R7    R(4,14)                 1.4416         estimate D2E/DX2                !
 ! R8    R(5,6)                  1.4189         estimate D2E/DX2                !
 ! R9    R(6,7)                  1.3531         estimate D2E/DX2                !
 ! R10   R(7,8)                  1.4637         estimate D2E/DX2                !
 ! R11   R(7,14)                 1.3642         estimate D2E/DX2                !
 ! R12   R(8,9)                  1.4068         estimate D2E/DX2                !
 ! R13   R(8,13)                 1.4063         estimate D2E/DX2                !
 ! R14   R(9,10)                 1.3941         estimate D2E/DX2                !
 ! R15   R(9,17)                 1.0841         estimate D2E/DX2                !
 ! R16   R(10,11)                1.3976         estimate D2E/DX2                !
 ! R17   R(10,18)                1.0861         estimate D2E/DX2                !
 ! R18   R(11,12)                1.3983         estimate D2E/DX2                !
 ! R19   R(11,19)                1.0856         estimate D2E/DX2                !
 ! R20   R(12,13)                1.3926         estimate D2E/DX2                !
 ! R21   R(12,20)                1.0866         estimate D2E/DX2                !
 ! R22   R(13,21)                1.0852         estimate D2E/DX2                !
 ! R23   R(14,22)                1.0773         estimate D2E/DX2                !
 ! R24   R(15,23)                1.0917         estimate D2E/DX2                !
 ! R25   R(15,24)                1.0927         estimate D2E/DX2                !
 ! R26   R(15,25)                1.0919         estimate D2E/DX2                !
 ! A1    A(1,2,3)              106.7333         estimate D2E/DX2                !
 ! A2    A(1,2,15)             106.4471         estimate D2E/DX2                !
 ! A3    A(1,2,16)             115.1245         estimate D2E/DX2                !
 ! A4    A(3,2,15)             107.6078         estimate D2E/DX2                !
 ! A5    A(3,2,16)             114.7967         estimate D2E/DX2                !
 ! A6    A(15,2,16)            105.6006         estimate D2E/DX2                !
 ! A7    A(2,3,4)              119.5821         estimate D2E/DX2                !
 ! A8    A(3,4,5)              117.3284         estimate D2E/DX2                !
 ! A9    A(3,4,14)             132.2641         estimate D2E/DX2                !
 ! A10   A(5,4,14)             110.4027         estimate D2E/DX2                !
 ! A11   A(4,5,6)              105.6082         estimate D2E/DX2                !
 ! A12   A(5,6,7)              109.3215         estimate D2E/DX2                !
 ! A13   A(6,7,8)              117.3947         estimate D2E/DX2                !
 ! A14   A(6,7,14)             109.6751         estimate D2E/DX2                !
 ! A15   A(8,7,14)             132.9296         estimate D2E/DX2                !
 ! A16   A(7,8,9)              120.7557         estimate D2E/DX2                !
 ! A17   A(7,8,13)             120.2754         estimate D2E/DX2                !
 ! A18   A(9,8,13)             118.9688         estimate D2E/DX2                !
 ! A19   A(8,9,10)             120.3173         estimate D2E/DX2                !
 ! A20   A(8,9,17)             119.609          estimate D2E/DX2                !
 ! A21   A(10,9,17)            120.0737         estimate D2E/DX2                !
 ! A22   A(9,10,11)            120.3591         estimate D2E/DX2                !
 ! A23   A(9,10,18)            119.5491         estimate D2E/DX2                !
 ! A24   A(11,10,18)           120.0917         estimate D2E/DX2                !
 ! A25   A(10,11,12)           119.6091         estimate D2E/DX2                !
 ! A26   A(10,11,19)           120.2115         estimate D2E/DX2                !
 ! A27   A(12,11,19)           120.1794         estimate D2E/DX2                !
 ! A28   A(11,12,13)           120.3158         estimate D2E/DX2                !
 ! A29   A(11,12,20)           120.0764         estimate D2E/DX2                !
 ! A30   A(13,12,20)           119.6078         estimate D2E/DX2                !
 ! A31   A(8,13,12)            120.4298         estimate D2E/DX2                !
 ! A32   A(8,13,21)            119.845          estimate D2E/DX2                !
 ! A33   A(12,13,21)           119.7252         estimate D2E/DX2                !
 ! A34   A(4,14,7)             104.9906         estimate D2E/DX2                !
 ! A35   A(4,14,22)            126.7265         estimate D2E/DX2                !
 ! A36   A(7,14,22)            128.2644         estimate D2E/DX2                !
 ! A37   A(2,15,23)            108.7475         estimate D2E/DX2                !
 ! A38   A(2,15,24)            109.1951         estimate D2E/DX2                !
 ! A39   A(2,15,25)            108.366          estimate D2E/DX2                !
 ! A40   A(23,15,24)           110.144          estimate D2E/DX2                !
 ! A41   A(23,15,25)           110.3761         estimate D2E/DX2                !
 ! A42   A(24,15,25)           109.971          estimate D2E/DX2                !
 ! D1    D(1,2,3,4)           -173.5097         estimate D2E/DX2                !
 ! D2    D(15,2,3,4)            72.5617         estimate D2E/DX2                !
 ! D3    D(16,2,3,4)           -44.6595         estimate D2E/DX2                !
 ! D4    D(1,2,15,23)          -55.4008         estimate D2E/DX2                !
 ! D5    D(1,2,15,24)         -175.6157         estimate D2E/DX2                !
 ! D6    D(1,2,15,25)           64.6062         estimate D2E/DX2                !
 ! D7    D(3,2,15,23)           58.7191         estimate D2E/DX2                !
 ! D8    D(3,2,15,24)          -61.4958         estimate D2E/DX2                !
 ! D9    D(3,2,15,25)          178.7261         estimate D2E/DX2                !
 ! D10   D(16,2,15,23)        -178.2249         estimate D2E/DX2                !
 ! D11   D(16,2,15,24)          61.5602         estimate D2E/DX2                !
 ! D12   D(16,2,15,25)         -58.2179         estimate D2E/DX2                !
 ! D13   D(2,3,4,5)           -171.3228         estimate D2E/DX2                !
 ! D14   D(2,3,4,14)             9.5621         estimate D2E/DX2                !
 ! D15   D(3,4,5,6)           -178.9883         estimate D2E/DX2                !
 ! D16   D(14,4,5,6)             0.313          estimate D2E/DX2                !
 ! D17   D(3,4,14,7)           179.0717         estimate D2E/DX2                !
 ! D18   D(3,4,14,22)            0.538          estimate D2E/DX2                !
 ! D19   D(5,4,14,7)            -0.0894         estimate D2E/DX2                !
 ! D20   D(5,4,14,22)         -178.6232         estimate D2E/DX2                !
 ! D21   D(4,5,6,7)             -0.4326         estimate D2E/DX2                !
 ! D22   D(5,6,7,8)           -179.8541         estimate D2E/DX2                !
 ! D23   D(5,6,7,14)             0.3899         estimate D2E/DX2                !
 ! D24   D(6,7,8,9)              1.3773         estimate D2E/DX2                !
 ! D25   D(6,7,8,13)          -178.6353         estimate D2E/DX2                !
 ! D26   D(14,7,8,9)          -178.9363         estimate D2E/DX2                !
 ! D27   D(14,7,8,13)            1.051          estimate D2E/DX2                !
 ! D28   D(6,7,14,4)            -0.1892         estimate D2E/DX2                !
 ! D29   D(6,7,14,22)          178.314          estimate D2E/DX2                !
 ! D30   D(8,7,14,4)          -179.8934         estimate D2E/DX2                !
 ! D31   D(8,7,14,22)           -1.3902         estimate D2E/DX2                !
 ! D32   D(7,8,9,10)           179.9774         estimate D2E/DX2                !
 ! D33   D(7,8,9,17)             0.0355         estimate D2E/DX2                !
 ! D34   D(13,8,9,10)           -0.0102         estimate D2E/DX2                !
 ! D35   D(13,8,9,17)         -179.9521         estimate D2E/DX2                !
 ! D36   D(7,8,13,12)         -179.9728         estimate D2E/DX2                !
 ! D37   D(7,8,13,21)            0.0394         estimate D2E/DX2                !
 ! D38   D(9,8,13,12)            0.0148         estimate D2E/DX2                !
 ! D39   D(9,8,13,21)         -179.973          estimate D2E/DX2                !
 ! D40   D(8,9,10,11)            0.0215         estimate D2E/DX2                !
 ! D41   D(8,9,10,18)         -179.9816         estimate D2E/DX2                !
 ! D42   D(17,9,10,11)         179.9632         estimate D2E/DX2                !
 ! D43   D(17,9,10,18)          -0.04           estimate D2E/DX2                !
 ! D44   D(9,10,11,12)          -0.0371         estimate D2E/DX2                !
 ! D45   D(9,10,11,19)         179.9333         estimate D2E/DX2                !
 ! D46   D(18,10,11,12)        179.9661         estimate D2E/DX2                !
 ! D47   D(18,10,11,19)         -0.0635         estimate D2E/DX2                !
 ! D48   D(10,11,12,13)          0.0418         estimate D2E/DX2                !
 ! D49   D(10,11,12,20)        179.9699         estimate D2E/DX2                !
 ! D50   D(19,11,12,13)       -179.9287         estimate D2E/DX2                !
 ! D51   D(19,11,12,20)         -0.0005         estimate D2E/DX2                !
 ! D52   D(11,12,13,8)          -0.0308         estimate D2E/DX2                !
 ! D53   D(11,12,13,21)        179.957          estimate D2E/DX2                !
 ! D54   D(20,12,13,8)        -179.9593         estimate D2E/DX2                !
 ! D55   D(20,12,13,21)          0.0285         estimate D2E/DX2                !
 --------------------------------------------------------------------------------
 Trust Radius=3.00D-01 FncErr=1.00D-07 GrdErr=1.00D-06 EigMax=2.50D+02 EigMin=1.00D-04
 Number of steps in this run=    133 maximum allowed number of steps=    150.
 GradGradGradGradGradGradGradGradGradGradGradGradGradGradGradGradGradGrad

 Leave Link  103 at Thu Sep 24 04:40:26 2020, MaxMem=  2147483648 cpu:               0.0 elap:               0.0
 (Enter /prod/apps/gaussian/g16b1/l202.exe)
                          Input orientation:                          
 ---------------------------------------------------------------------
 Center     Atomic      Atomic             Coordinates (Angstroms)
 Number     Number       Type             X           Y           Z
 ---------------------------------------------------------------------
      1          8           0       -4.695000   -0.009000   -0.442000
      2         16           0       -3.276000   -0.305000   -0.125000
      3          7           0       -2.458000    1.061000   -0.345000
      4          6           0       -1.086000    1.053000   -0.253000
      5          7           0       -0.463000    2.236000   -0.266000
      6          8           0        0.922000    1.939000   -0.184000
      7          6           0        1.089000    0.598000   -0.115000
      8          6           0        2.460000    0.094000   -0.021000
      9          6           0        3.551000    0.981000    0.025000
     10          6           0        4.853000    0.491000    0.115000
     11          6           0        5.088000   -0.886000    0.160000
     12          6           0        4.008000   -1.773000    0.115000
     13          6           0        2.705000   -1.290000    0.025000
     14          6           0       -0.127000   -0.019000   -0.156000
     15          6           0       -3.217000   -0.700000    1.639000
     16          8           0       -2.706000   -1.495000   -0.822000
     17          1           0        3.374000    2.050000   -0.009000
     18          1           0        5.686000    1.187000    0.150000
     19          1           0        6.103000   -1.265000    0.229000
     20          1           0        4.182000   -2.845000    0.149000
     21          1           0        1.874000   -1.987000   -0.010000
     22          1           0       -0.340000   -1.075000   -0.146000
     23          1           0       -3.654000    0.129000    2.199000
     24          1           0       -2.177000   -0.850000    1.939000
     25          1           0       -3.789000   -1.615000    1.806000
 ---------------------------------------------------------------------
                    Distance matrix (angstroms):
                    1          2          3          4          5
     1  O    0.000000
     2  S    1.483801   0.000000
     3  N    2.481628   1.607321   0.000000
     4  C    3.766755   2.580048   1.375104   0.000000
     5  N    4.793832   3.793354   2.316655   1.337082   0.000000
     6  O    5.950795   4.760485   3.495884   2.195865   1.418858
     7  C    5.824949   4.457436   3.584477   2.226363   2.261537
     8  C    7.168115   5.750801   5.022628   3.680709   3.632096
     9  C    8.318335   6.948685   6.020912   4.645884   4.215673
    10  C    9.577294   8.171405   7.347600   5.976871   5.608034
    11  C    9.840662   8.388998   7.809478   6.484487   6.382943
    12  C    8.897424   7.434331   7.074766   5.836997   6.017232
    13  C    7.524563   6.063422   5.685127   4.465268   4.749061
    14  C    4.576955   3.162113   2.575982   1.441622   2.282547
    15  C    2.644338   1.808646   2.759250   3.345719   4.453497
    16  O    2.511716   1.492250   2.611928   3.072534   4.388684
    17  H    8.338809   7.055635   5.924799   4.576587   3.850093
    18  H   10.466424   9.089507   8.160002   6.785304   6.251692
    19  H   10.891491   9.434647   8.889908   7.568829   7.457505
    20  H    9.337736   7.883428   7.719487   6.565655   6.896725
    21  H    6.873927   5.418934   5.307424   4.249970   4.833305
    22  H    4.493328   3.035364   3.014634   2.257509   3.315456
    23  H    2.842113   2.394205   2.961583   3.668883   4.549523
    24  H    3.566057   2.401025   2.991244   3.101057   4.162117
    25  H    2.907503   2.389148   3.682301   4.320175   5.494148
                    6          7          8          9         10
     6  O    0.000000
     7  C    1.353119   0.000000
     8  C    2.407496   1.463726   0.000000
     9  C    2.805902   2.495543   1.406828   0.000000
    10  C    4.199865   3.772538   2.429517   1.394060   0.000000
    11  C    5.045247   4.274328   2.810613   2.422041   1.397633
    12  C    4.836501   3.767639   2.429092   2.793110   2.416551
    13  C    3.694484   2.489096   1.406271   2.423460   2.791767
    14  C    2.221475   1.364194   2.592983   3.815815   5.013376
    15  C    5.236313   4.827314   5.967777   7.157973   8.298552
    16  O    5.036048   4.391187   5.463889   6.782185   7.871508
    17  H    2.460742   2.709385   2.159045   1.084088   2.152510
    18  H    4.834538   4.642150   3.410420   2.148554   1.086062
    19  H    6.105649   5.359972   3.896258   3.405706   2.158479
    20  H    5.798719   4.635795   3.410558   3.879667   3.402983
    21  H    4.043520   2.703604   2.161962   3.409190   3.876925
    22  H    3.267764   2.200439   3.036805   4.404118   5.430260
    23  H    5.467592   5.298170   6.504661   7.573916   8.766022
    24  H    4.678616   4.120968   5.121963   6.310780   7.385537
    25  H    6.227723   5.690562   6.731167   7.986662   9.054219
                   11         12         13         14         15
    11  C    0.000000
    12  C    1.398283   0.000000
    13  C    2.420771   1.392551   0.000000
    14  C    5.296015   4.499798   3.109409   0.000000
    15  C    8.437717   7.461537   6.166294   3.637841   0.000000
    16  O    7.879190   6.784766   5.480726   3.045221   2.636222
    17  H    3.403888   3.877198   3.406511   4.069321   7.329371
    18  H    2.157553   3.402721   3.877823   5.944665   9.221784
    19  H    1.085646   2.158723   3.404210   6.365033   9.442972
    20  H    2.158388   1.086562   2.148239   5.162052   7.846421
    21  H    3.401602   2.148343   1.085170   2.810399   5.503985
    22  H    5.439903   4.411398   3.057367   1.077314   3.406461
    23  H    9.033842   8.164980   6.868531   4.243543   1.091701
    24  H    7.479730   6.514072   5.262216   3.046652   1.092749
    25  H    9.057698   7.979828   6.741633   4.450495   1.091924
                   16         17         18         19         20
    16  O    0.000000
    17  H    7.084800   0.000000
    18  H    8.863609   2.472932   0.000000
    19  H    8.874457   4.300385   2.488460   0.000000
    20  H    7.085893   4.963754   4.303376   2.488582   0.000000
    21  H    4.677372   4.306666   4.962985   4.296841   2.467450
    22  H    2.496264   4.855738   6.443364   6.456700   4.865019
    23  H    3.558444   7.613034   9.620466  10.051029   8.628446
    24  H    2.884265   6.558834   8.317251   8.464911   6.900797
    25  H    2.844938   8.248334  10.018441  10.023028   8.233796
                   21         22         23         24         25
    21  H    0.000000
    22  H    2.398340   0.000000
    23  H    6.317905   4.234529   0.000000
    24  H    4.637022   2.787906   1.790969   0.000000
    25  H    5.958675   3.999688   1.792822   1.789262   0.000000
 Symmetry turned off by external request.
 Stoichiometry    C10H9N2O3S(1-)
 Framework group  C1[X(C10H9N2O3S)]
 Deg. of freedom    69
 Full point group                 C1      NOp   1
 Rotational constants (GHZ):           1.3489722           0.2140290           0.1932714
 Leave Link  202 at Thu Sep 24 04:40:26 2020, MaxMem=  2147483648 cpu:               0.0 elap:               0.0
 (Enter /prod/apps/gaussian/g16b1/l301.exe)
 Standard basis: 6-31G(d) (6D, 7F)
 Ernie: Thresh=  0.10000D-02 Tol=  0.10000D-05 Strict=F.
   262 basis functions,   508 primitive gaussians,   262 cartesian basis functions
    62 alpha electrons       62 beta electrons
       nuclear repulsion energy      1162.2507682337 Hartrees.
 IExCor=  402 DFT=T Ex+Corr=B3LYP ExCW=0 ScaHFX=  0.200000
 ScaDFX=  0.800000  0.720000  1.000000  0.810000 ScalE2=  1.000000  1.000000
 IRadAn=      5 IRanWt=     -1 IRanGd=            0 ICorTp=0 IEmpDi=  4
 NAtoms=   25 NActive=   25 NUniq=   25 SFac= 1.00D+00 NAtFMM=   60 NAOKFM=F Big=F
 Integral buffers will be    131072 words long.
 Raffenetti 2 integral format.
 Two-electron integral symmetry is turned off.
 Using the following non-standard input for PCM:
 MSTModel=DFT cav MSTcharged
 --- end of non-standard input.
 MST model for solvation energy: B3LYP parametrization.
 MST cavity parameters:
 ISph   IAn     Re0     Alpha   Atom Type   QCorr
 ------------------------------------------------
   1      8     1.40     1.25      O          F
   2     16     1.75     1.25      S          F
   3      7     1.40     1.15      N          T
   4      6     1.50     1.25      C          F
   5      7     1.40     1.25      N          F
   6      8     1.40     1.25      O          F
   7      6     1.50     1.25      C          F
   8      6     1.50     1.25      C          F
   9      6     1.50     1.25      CH         F
  10      6     1.50     1.25      CH         F
  11      6     1.50     1.25      CH         F
  12      6     1.50     1.25      CH         F
  13      6     1.50     1.25      CH         F
  14      6     1.50     1.25      CH         F
  15      6     1.50     1.25      CH3        F
  16      8     1.40     1.25      O          F
  17      1     1.20     1.25      CH         F
  18      1     1.20     1.25      CH         F
  19      1     1.20     1.25      CH         F
  20      1     1.20     1.25      CH         F
  21      1     1.20     1.25      CH         F
  22      1     1.20     1.25      CH         F
  23      1     1.20     1.25      CH3        F
  24      1     1.20     1.25      CH3        F
  25      1     1.20     1.25      CH3        F
 ------------------------------------------------------------------------------
 Polarizable Continuum Model (PCM)
 =================================
 Model                : PCM.
 Atomic radii         : MST.
 Polarization charges : Total charges.
 Charge compensation  : None.
 Solution method      : On-the-fly selection.
 Cavity type          : Scaled VdW (van der Waals Surface) (Alpha=1.250).
 Cavity algorithm     : GePol (No added spheres)
                        Default sphere list used, NSphG=   25.
                        Lebedev-Laikov grids with approx.  5.0 points / Ang**2.
                        Smoothing algorithm: York/Karplus (Gamma=1.0000).
                        Polarization charges: spherical gaussians, with
                                              point-specific exponents (IZeta= 3).
                        Self-potential: point-specific (ISelfS= 7).
                        Self-field    : sphere-specific E.n sum rule (ISelfD= 2).
 1st derivatives      : Analytical E(r).r(x)/FMM algorithm (CHGder, D1EAlg=3).
                        Cavity 1st derivative terms included.
 Solvent              : Water, Eps=  78.355300 Eps(inf)=   1.777849
 ------------------------------------------------------------------------------
 GePol: Number of generator spheres                  =      25
 GePol: Total number of spheres                      =      25
 GePol: Number of exposed spheres                    =      25 (100.00%)
 GePol: Number of points                             =    2038
 GePol: Average weight of points                     =       0.13
 GePol: Minimum weight of points                     =   0.32D-08
 GePol: Maximum weight of points                     =    0.22001
 GePol: Number of points with low weight             =     135
 GePol: Fraction of low-weight points (<1% of avg)   =       6.62%
 GePol: Cavity surface area                          =    268.301 Ang**2
 GePol: Cavity volume                                =    251.485 Ang**3
 PCM non-electrostatic energy =         0.0036567157 Hartrees.
 Nuclear repulsion after PCM non-electrostatic terms =     1162.2544249494 Hartrees.
 Leave Link  301 at Thu Sep 24 04:40:26 2020, MaxMem=  2147483648 cpu:               0.3 elap:               0.1
 (Enter /prod/apps/gaussian/g16b1/l302.exe)
 NPDir=0 NMtPBC=     1 NCelOv=     1 NCel=       1 NClECP=     1 NCelD=      1
         NCelK=      1 NCelE2=     1 NClLst=     1 CellRange=     0.0.
 One-electron integrals computed using PRISM.
 NBasis=   262 RedAO= T EigKep=  4.59D-04  NBF=   262
 NBsUse=   262 1.00D-06 EigRej= -1.00D+00 NBFU=   262
 Precomputing XC quadrature grid using
 IXCGrd= 4 IRadAn=           5 IRanWt=          -1 IRanGd=           0 AccXCQ= 0.00D+00.
 Generated NRdTot=       0 NPtTot=           0 NUsed=           0 NTot=          32
 NSgBfM=   261   261   261   261   261 MxSgAt=    25 MxSgA2=    25.
 Leave Link  302 at Thu Sep 24 04:40:26 2020, MaxMem=  2147483648 cpu:               1.2 elap:               0.3
 (Enter /prod/apps/gaussian/g16b1/l303.exe)
 DipDrv:  MaxL=1.
 Leave Link  303 at Thu Sep 24 04:40:26 2020, MaxMem=  2147483648 cpu:               0.1 elap:               0.0
 (Enter /prod/apps/gaussian/g16b1/l401.exe)
 ExpMin= 1.17D-01 ExpMax= 2.19D+04 ExpMxC= 3.30D+03 IAcc=3 IRadAn=         5 AccDes= 0.00D+00
 Harris functional with IExCor=  402 and IRadAn=       5 diagonalized for initial guess.
 HarFok:  IExCor=  402 AccDes= 0.00D+00 IRadAn=         5 IDoV= 1 UseB2=F ITyADJ=14
 ICtDFT=  3500011 ScaDFX=  1.000000  1.000000  1.000000  1.000000
 FoFCou: FMM=F IPFlag=           0 FMFlag=      100000 FMFlg1=           0
         NFxFlg=           0 DoJE=T BraDBF=F KetDBF=T FulRan=T
         wScrn=  0.000000 ICntrl=       500 IOpCl=  0 I1Cent=   200000004 NGrid=           0
         NMat0=    1 NMatS0=      1 NMatT0=    0 NMatD0=    1 NMtDS0=    0 NMtDT0=    0
 Symmetry not used in FoFCou.
 Harris En= -1119.96184516055    
 JPrj=0 DoOrth=F DoCkMO=F.
 Leave Link  401 at Thu Sep 24 04:40:28 2020, MaxMem=  2147483648 cpu:               5.6 elap:               1.4
 (Enter /prod/apps/gaussian/g16b1/l502.exe)
 Keep R1 ints in memory in canonical form, NReq=602618509.
 FoFCou: FMM=F IPFlag=           0 FMFlag=           0 FMFlg1=           0
         NFxFlg=           0 DoJE=F BraDBF=F KetDBF=F FulRan=T
         wScrn=  0.000000 ICntrl=       600 IOpCl=  0 I1Cent=           0 NGrid=           0
         NMat0=    1 NMatS0=  34453 NMatT0=    0 NMatD0=    1 NMtDS0=    0 NMtDT0=    0
 Symmetry not used in FoFCou.
 Two-electron integral symmetry not used.
 Closed shell SCF:
 Using DIIS extrapolation, IDIIS=  1040.
 NGot=  2147483648 LenX=  1553820706 LenY=  1553751621
 Requested convergence on RMS density matrix=1.00D-08 within2000 cycles.
 Requested convergence on MAX density matrix=1.00D-06.
 Requested convergence on             energy=1.00D-06.
 No special actions if energy rises.

 Cycle   1  Pass 1  IDiag  1:
 Inv3:  Mode=1 IEnd=    12460332.
 Iteration    1 A*A^-1 deviation from unit magnitude is 3.33D-15 for    765.
 Iteration    1 A*A^-1 deviation from orthogonality  is 1.67D-15 for   1866   1280.
 Iteration    1 A^-1*A deviation from unit magnitude is 2.89D-15 for    243.
 Iteration    1 A^-1*A deviation from orthogonality  is 1.67D-15 for   1861   1320.
 E= -1119.38396940405    
 DIIS: error= 3.73D-02 at cycle   1 NSaved=   1.
 NSaved= 1 IEnMin= 1 EnMin= -1119.38396940405     IErMin= 1 ErrMin= 3.73D-02
 ErrMax= 3.73D-02  0.00D+00 EMaxC= 1.00D-01 BMatC= 5.90D-01 BMatP= 5.90D-01
 IDIUse=3 WtCom= 6.27D-01 WtEn= 3.73D-01
 Coeff-Com:  0.100D+01
 Coeff-En:   0.100D+01
 Coeff:      0.100D+01
 Gap=     0.197 Goal=   None    Shift=    0.000
 GapD=    0.197 DampG=1.000 DampE=0.500 DampFc=0.5000 IDamp=-1.
 Damping current iteration by 5.00D-01
 RMSDP=6.83D-03 MaxDP=5.02D-01              OVMax= 2.21D-01

 Cycle   2  Pass 1  IDiag  1:
 E= -1119.56145949681     Delta-E=       -0.177490092763 Rises=F Damp=T
 DIIS: error= 1.02D-02 at cycle   2 NSaved=   2.
 NSaved= 2 IEnMin= 2 EnMin= -1119.56145949681     IErMin= 2 ErrMin= 1.02D-02
 ErrMax= 1.02D-02  0.00D+00 EMaxC= 1.00D-01 BMatC= 5.69D-02 BMatP= 5.90D-01
 IDIUse=3 WtCom= 8.98D-01 WtEn= 1.02D-01
 Coeff-Com:  0.166D+00 0.834D+00
 Coeff-En:   0.268D+00 0.732D+00
 Coeff:      0.176D+00 0.824D+00
 Gap=     0.223 Goal=   None    Shift=    0.000
 RMSDP=1.76D-03 MaxDP=1.13D-01 DE=-1.77D-01 OVMax= 1.63D-01

 Cycle   3  Pass 1  IDiag  1:
 E= -1119.86150313685     Delta-E=       -0.300043640039 Rises=F Damp=F
 DIIS: error= 8.23D-03 at cycle   3 NSaved=   3.
 NSaved= 3 IEnMin= 3 EnMin= -1119.86150313685     IErMin= 3 ErrMin= 8.23D-03
 ErrMax= 8.23D-03  0.00D+00 EMaxC= 1.00D-01 BMatC= 3.11D-02 BMatP= 5.69D-02
 IDIUse=3 WtCom= 9.18D-01 WtEn= 8.23D-02
 Coeff-Com:  0.377D-01 0.424D+00 0.539D+00
 Coeff-En:   0.000D+00 0.000D+00 0.100D+01
 Coeff:      0.346D-01 0.389D+00 0.577D+00
 Gap=     0.167 Goal=   None    Shift=    0.000
 RMSDP=8.77D-04 MaxDP=3.20D-02 DE=-3.00D-01 OVMax= 3.57D-02

 Cycle   4  Pass 1  IDiag  1:
 E= -1119.88436044951     Delta-E=       -0.022857312665 Rises=F Damp=F
 DIIS: error= 3.04D-03 at cycle   4 NSaved=   4.
 NSaved= 4 IEnMin= 4 EnMin= -1119.88436044951     IErMin= 4 ErrMin= 3.04D-03
 ErrMax= 3.04D-03  0.00D+00 EMaxC= 1.00D-01 BMatC= 4.77D-03 BMatP= 3.11D-02
 IDIUse=3 WtCom= 9.70D-01 WtEn= 3.04D-02
 Coeff-Com:  0.716D-05 0.902D-01 0.303D+00 0.607D+00
 Coeff-En:   0.000D+00 0.000D+00 0.105D+00 0.895D+00
 Coeff:      0.694D-05 0.875D-01 0.297D+00 0.616D+00
 Gap=     0.165 Goal=   None    Shift=    0.000
 RMSDP=2.96D-04 MaxDP=1.17D-02 DE=-2.29D-02 OVMax= 1.69D-02

 Cycle   5  Pass 1  IDiag  1:
 E= -1119.88788682447     Delta-E=       -0.003526374960 Rises=F Damp=F
 DIIS: error= 9.05D-04 at cycle   5 NSaved=   5.
 NSaved= 5 IEnMin= 5 EnMin= -1119.88788682447     IErMin= 5 ErrMin= 9.05D-04
 ErrMax= 9.05D-04  0.00D+00 EMaxC= 1.00D-01 BMatC= 5.39D-04 BMatP= 4.77D-03
 IDIUse=3 WtCom= 9.91D-01 WtEn= 9.05D-03
 Coeff-Com: -0.259D-02 0.197D-01 0.124D+00 0.350D+00 0.509D+00
 Coeff-En:   0.000D+00 0.000D+00 0.000D+00 0.295D-01 0.971D+00
 Coeff:     -0.257D-02 0.195D-01 0.123D+00 0.347D+00 0.513D+00
 Gap=     0.166 Goal=   None    Shift=    0.000
 RMSDP=1.04D-04 MaxDP=5.76D-03 DE=-3.53D-03 OVMax= 9.56D-03

 Cycle   6  Pass 1  IDiag  1:
 E= -1119.88830249523     Delta-E=       -0.000415670751 Rises=F Damp=F
 DIIS: error= 3.09D-04 at cycle   6 NSaved=   6.
 NSaved= 6 IEnMin= 6 EnMin= -1119.88830249523     IErMin= 6 ErrMin= 3.09D-04
 ErrMax= 3.09D-04  0.00D+00 EMaxC= 1.00D-01 BMatC= 5.10D-05 BMatP= 5.39D-04
 IDIUse=3 WtCom= 9.97D-01 WtEn= 3.09D-03
 Coeff-Com: -0.148D-02 0.410D-02 0.456D-01 0.147D+00 0.301D+00 0.504D+00
 Coeff-En:   0.000D+00 0.000D+00 0.000D+00 0.000D+00 0.262D-01 0.974D+00
 Coeff:     -0.147D-02 0.409D-02 0.455D-01 0.147D+00 0.300D+00 0.505D+00
 Gap=     0.166 Goal=   None    Shift=    0.000
 RMSDP=3.02D-05 MaxDP=1.78D-03 DE=-4.16D-04 OVMax= 3.14D-03

 Cycle   7  Pass 1  IDiag  1:
 E= -1119.88834533562     Delta-E=       -0.000042840393 Rises=F Damp=F
 DIIS: error= 8.20D-05 at cycle   7 NSaved=   7.
 NSaved= 7 IEnMin= 7 EnMin= -1119.88834533562     IErMin= 7 ErrMin= 8.20D-05
 ErrMax= 8.20D-05  0.00D+00 EMaxC= 1.00D-01 BMatC= 2.93D-06 BMatP= 5.10D-05
 IDIUse=1 WtCom= 1.00D+00 WtEn= 0.00D+00
 Coeff-Com: -0.600D-03 0.365D-03 0.134D-01 0.470D-01 0.114D+00 0.269D+00
 Coeff-Com:  0.558D+00
 Coeff:     -0.600D-03 0.365D-03 0.134D-01 0.470D-01 0.114D+00 0.269D+00
 Coeff:      0.558D+00
 Gap=     0.166 Goal=   None    Shift=    0.000
 RMSDP=7.56D-06 MaxDP=4.20D-04 DE=-4.28D-05 OVMax= 6.46D-04

 Cycle   8  Pass 1  IDiag  1:
 E= -1119.88834772653     Delta-E=       -0.000002390912 Rises=F Damp=F
 DIIS: error= 2.48D-05 at cycle   8 NSaved=   8.
 NSaved= 8 IEnMin= 8 EnMin= -1119.88834772653     IErMin= 8 ErrMin= 2.48D-05
 ErrMax= 2.48D-05  0.00D+00 EMaxC= 1.00D-01 BMatC= 3.26D-07 BMatP= 2.93D-06
 IDIUse=1 WtCom= 1.00D+00 WtEn= 0.00D+00
 Coeff-Com: -0.182D-03-0.169D-03 0.311D-02 0.120D-01 0.351D-01 0.105D+00
 Coeff-Com:  0.304D+00 0.542D+00
 Coeff:     -0.182D-03-0.169D-03 0.311D-02 0.120D-01 0.351D-01 0.105D+00
 Coeff:      0.304D+00 0.542D+00
 Gap=     0.166 Goal=   None    Shift=    0.000
 RMSDP=2.81D-06 MaxDP=1.35D-04 DE=-2.39D-06 OVMax= 2.58D-04

 Cycle   9  Pass 1  IDiag  1:
 E= -1119.88834799759     Delta-E=       -0.000000271055 Rises=F Damp=F
 DIIS: error= 9.54D-06 at cycle   9 NSaved=   9.
 NSaved= 9 IEnMin= 9 EnMin= -1119.88834799759     IErMin= 9 ErrMin= 9.54D-06
 ErrMax= 9.54D-06  0.00D+00 EMaxC= 1.00D-01 BMatC= 3.63D-08 BMatP= 3.26D-07
 IDIUse=1 WtCom= 1.00D+00 WtEn= 0.00D+00
 Coeff-Com: -0.108D-04-0.144D-03-0.356D-03-0.826D-03 0.118D-02 0.146D-01
 Coeff-Com:  0.656D-01 0.288D+00 0.632D+00
 Coeff:     -0.108D-04-0.144D-03-0.356D-03-0.826D-03 0.118D-02 0.146D-01
 Coeff:      0.656D-01 0.288D+00 0.632D+00
 Gap=     0.166 Goal=   None    Shift=    0.000
 RMSDP=7.87D-07 MaxDP=3.11D-05 DE=-2.71D-07 OVMax= 4.22D-05

 Cycle  10  Pass 1  IDiag  1:
 E= -1119.88834802773     Delta-E=       -0.000000030143 Rises=F Damp=F
 DIIS: error= 2.48D-06 at cycle  10 NSaved=  10.
 NSaved=10 IEnMin=10 EnMin= -1119.88834802773     IErMin=10 ErrMin= 2.48D-06
 ErrMax= 2.48D-06  0.00D+00 EMaxC= 1.00D-01 BMatC= 1.77D-09 BMatP= 3.63D-08
 IDIUse=1 WtCom= 1.00D+00 WtEn= 0.00D+00
 Coeff-Com:  0.972D-06-0.528D-04-0.293D-03-0.890D-03-0.872D-03 0.316D-02
 Coeff-Com:  0.187D-01 0.125D+00 0.304D+00 0.551D+00
 Coeff:      0.972D-06-0.528D-04-0.293D-03-0.890D-03-0.872D-03 0.316D-02
 Coeff:      0.187D-01 0.125D+00 0.304D+00 0.551D+00
 Gap=     0.166 Goal=   None    Shift=    0.000
 RMSDP=2.19D-07 MaxDP=9.10D-06 DE=-3.01D-08 OVMax= 1.61D-05

 Cycle  11  Pass 1  IDiag  1:
 E= -1119.88834802901     Delta-E=       -0.000000001285 Rises=F Damp=F
 DIIS: error= 1.03D-06 at cycle  11 NSaved=  11.
 NSaved=11 IEnMin=11 EnMin= -1119.88834802901     IErMin=11 ErrMin= 1.03D-06
 ErrMax= 1.03D-06  0.00D+00 EMaxC= 1.00D-01 BMatC= 4.58D-10 BMatP= 1.77D-09
 IDIUse=1 WtCom= 1.00D+00 WtEn= 0.00D+00
 Coeff-Com:  0.159D-05-0.637D-05-0.126D-03-0.425D-03-0.843D-03-0.775D-03
 Coeff-Com: -0.113D-02 0.277D-01 0.680D-01 0.347D+00 0.561D+00
 Coeff:      0.159D-05-0.637D-05-0.126D-03-0.425D-03-0.843D-03-0.775D-03
 Coeff:     -0.113D-02 0.277D-01 0.680D-01 0.347D+00 0.561D+00
 Gap=     0.166 Goal=   None    Shift=    0.000
 RMSDP=8.37D-08 MaxDP=3.59D-06 DE=-1.28D-09 OVMax= 4.65D-06

 Cycle  12  Pass 1  IDiag  1:
 E= -1119.88834802937     Delta-E=       -0.000000000352 Rises=F Damp=F
 DIIS: error= 2.76D-07 at cycle  12 NSaved=  12.
 NSaved=12 IEnMin=12 EnMin= -1119.88834802937     IErMin=12 ErrMin= 2.76D-07
 ErrMax= 2.76D-07  0.00D+00 EMaxC= 1.00D-01 BMatC= 3.32D-11 BMatP= 4.58D-10
 IDIUse=1 WtCom= 1.00D+00 WtEn= 0.00D+00
 Coeff-Com:  0.550D-06 0.205D-05-0.419D-04-0.144D-03-0.380D-03-0.692D-03
 Coeff-Com: -0.262D-02 0.292D-02 0.374D-02 0.133D+00 0.289D+00 0.576D+00
 Coeff:      0.550D-06 0.205D-05-0.419D-04-0.144D-03-0.380D-03-0.692D-03
 Coeff:     -0.262D-02 0.292D-02 0.374D-02 0.133D+00 0.289D+00 0.576D+00
 Gap=     0.166 Goal=   None    Shift=    0.000
 RMSDP=2.69D-08 MaxDP=9.21D-07 DE=-3.52D-10 OVMax= 1.68D-06

 Cycle  13  Pass 1  IDiag  1:
 E= -1119.88834802940     Delta-E=       -0.000000000032 Rises=F Damp=F
 DIIS: error= 1.62D-07 at cycle  13 NSaved=  13.
 NSaved=13 IEnMin=13 EnMin= -1119.88834802940     IErMin=13 ErrMin= 1.62D-07
 ErrMax= 1.62D-07  0.00D+00 EMaxC= 1.00D-01 BMatC= 2.98D-12 BMatP= 3.32D-11
 IDIUse=1 WtCom= 1.00D+00 WtEn= 0.00D+00
 Coeff-Com:  0.685D-07 0.160D-05-0.763D-05-0.266D-04-0.104D-03-0.254D-03
 Coeff-Com: -0.125D-02-0.135D-02-0.590D-02 0.276D-01 0.739D-01 0.277D+00
 Coeff-Com:  0.630D+00
 Coeff:      0.685D-07 0.160D-05-0.763D-05-0.266D-04-0.104D-03-0.254D-03
 Coeff:     -0.125D-02-0.135D-02-0.590D-02 0.276D-01 0.739D-01 0.277D+00
 Coeff:      0.630D+00
 Gap=     0.166 Goal=   None    Shift=    0.000
 RMSDP=8.77D-09 MaxDP=3.11D-07 DE=-3.23D-11 OVMax= 9.31D-07

 Error on total polarization charges =  0.02277
 SCF Done:  E(RB3LYP) =  -1119.88834803     A.U. after   13 cycles
            NFock= 13  Conv=0.88D-08     -V/T= 2.0073
 KE= 1.111774977084D+03 PE=-4.970619815045D+03 EE= 1.576702064982D+03
 Leave Link  502 at Thu Sep 24 04:41:12 2020, MaxMem=  2147483648 cpu:             142.4 elap:              44.1
 (Enter /prod/apps/gaussian/g16b1/l601.exe)
 Copying SCF densities to generalized density rwf, IOpCl= 0 IROHF=0.

 **********************************************************************

            Population analysis using the SCF Density.

 **********************************************************************

 Alpha  occ. eigenvalues --  -89.08631 -19.21834 -19.11620 -19.11529 -14.35297
 Alpha  occ. eigenvalues --  -14.30013 -10.25326 -10.24781 -10.21123 -10.20051
 Alpha  occ. eigenvalues --  -10.19760 -10.19629 -10.19514 -10.19461 -10.19427
 Alpha  occ. eigenvalues --  -10.18133  -8.11088  -6.07580  -6.07491  -6.07429
 Alpha  occ. eigenvalues --   -1.11807  -1.07828  -0.96518  -0.90629  -0.86421
 Alpha  occ. eigenvalues --   -0.82257  -0.79028  -0.75009  -0.74013  -0.73927
 Alpha  occ. eigenvalues --   -0.63789  -0.62409  -0.60470  -0.57592  -0.54542
 Alpha  occ. eigenvalues --   -0.52286  -0.49554  -0.47018  -0.46608  -0.46208
 Alpha  occ. eigenvalues --   -0.45483  -0.44852  -0.44276  -0.42663  -0.42224
 Alpha  occ. eigenvalues --   -0.41709  -0.40780  -0.38037  -0.37559  -0.35860
 Alpha  occ. eigenvalues --   -0.34543  -0.33761  -0.32372  -0.31228  -0.29700
 Alpha  occ. eigenvalues --   -0.28785  -0.28736  -0.27804  -0.25774  -0.25203
 Alpha  occ. eigenvalues --   -0.22795  -0.20776
 Alpha virt. eigenvalues --   -0.04190  -0.00619   0.03953   0.08021   0.08761
 Alpha virt. eigenvalues --    0.10343   0.11162   0.11702   0.13307   0.13676
 Alpha virt. eigenvalues --    0.14541   0.15527   0.15808   0.16862   0.17463
 Alpha virt. eigenvalues --    0.17754   0.18885   0.19547   0.19890   0.24528
 Alpha virt. eigenvalues --    0.25909   0.28464   0.30251   0.31415   0.31808
 Alpha virt. eigenvalues --    0.33665   0.35528   0.38360   0.39098   0.41626
 Alpha virt. eigenvalues --    0.44628   0.46860   0.48535   0.49577   0.50639
 Alpha virt. eigenvalues --    0.52766   0.53136   0.53935   0.55474   0.56041
 Alpha virt. eigenvalues --    0.56440   0.56968   0.58220   0.58686   0.59228
 Alpha virt. eigenvalues --    0.60880   0.61525   0.61657   0.62336   0.63479
 Alpha virt. eigenvalues --    0.64031   0.65079   0.65767   0.69054   0.70318
 Alpha virt. eigenvalues --    0.72113   0.74162   0.74648   0.77002   0.77436
 Alpha virt. eigenvalues --    0.78916   0.79371   0.80225   0.81402   0.83155
 Alpha virt. eigenvalues --    0.83577   0.83944   0.85086   0.86116   0.88817
 Alpha virt. eigenvalues --    0.89077   0.89906   0.90280   0.90675   0.91876
 Alpha virt. eigenvalues --    0.92545   0.94873   0.95242   0.96729   0.98914
 Alpha virt. eigenvalues --    1.00000   1.00938   1.01958   1.03311   1.04811
 Alpha virt. eigenvalues --    1.05757   1.09881   1.11056   1.12083   1.16162
 Alpha virt. eigenvalues --    1.17146   1.17978   1.18754   1.20955   1.23147
 Alpha virt. eigenvalues --    1.24196   1.24894   1.26957   1.28116   1.31393
 Alpha virt. eigenvalues --    1.31736   1.37182   1.37965   1.39530   1.41149
 Alpha virt. eigenvalues --    1.42798   1.43064   1.44685   1.47160   1.47776
 Alpha virt. eigenvalues --    1.48579   1.49405   1.50603   1.52757   1.56079
 Alpha virt. eigenvalues --    1.57523   1.62516   1.69113   1.70736   1.74541
 Alpha virt. eigenvalues --    1.77176   1.79531   1.80057   1.80331   1.81579
 Alpha virt. eigenvalues --    1.83187   1.83558   1.84876   1.86917   1.88846
 Alpha virt. eigenvalues --    1.89165   1.92270   1.93850   1.95605   1.97034
 Alpha virt. eigenvalues --    1.98525   1.99602   2.03071   2.03492   2.05513
 Alpha virt. eigenvalues --    2.06771   2.11523   2.11750   2.13000   2.13547
 Alpha virt. eigenvalues --    2.14375   2.16021   2.16550   2.19385   2.22156
 Alpha virt. eigenvalues --    2.23364   2.24555   2.26442   2.27195   2.29115
 Alpha virt. eigenvalues --    2.30066   2.30413   2.32992   2.33967   2.37799
 Alpha virt. eigenvalues --    2.44231   2.52880   2.54693   2.55588   2.57291
 Alpha virt. eigenvalues --    2.58470   2.62098   2.64866   2.66376   2.67245
 Alpha virt. eigenvalues --    2.71326   2.72460   2.74546   2.75181   2.78312
 Alpha virt. eigenvalues --    2.81820   2.86300   2.91842   2.92004   3.05128
 Alpha virt. eigenvalues --    3.06384   3.14639   3.28716   3.42880   3.77933
 Alpha virt. eigenvalues --    3.82078   3.87815   4.00445   4.07200   4.09224
 Alpha virt. eigenvalues --    4.11188   4.13872   4.17820   4.23809   4.26291
 Alpha virt. eigenvalues --    4.32021   4.38936   4.42154   4.56490   4.74688
          Condensed to atoms (all electrons):
               1          2          3          4          5          6
     1  O    8.353981   0.451966  -0.067779   0.001333  -0.000014   0.000000
     2  S    0.451966  13.651531   0.266863  -0.011676  -0.002743  -0.000012
     3  N   -0.067779   0.266863   7.465696   0.371911  -0.079816   0.004516
     4  C    0.001333  -0.011676   0.371911   4.483567   0.393108  -0.045516
     5  N   -0.000014  -0.002743  -0.079816   0.393108   7.075520   0.111109
     6  O    0.000000  -0.000012   0.004516  -0.045516   0.111109   8.229142
     7  C   -0.000001   0.001513   0.001261  -0.014117  -0.080622   0.249916
     8  C   -0.000000  -0.000058  -0.000144   0.002495   0.003732  -0.039705
     9  C   -0.000000   0.000000  -0.000000  -0.000258   0.000099  -0.005607
    10  C   -0.000000   0.000000  -0.000000   0.000003   0.000000   0.000320
    11  C   -0.000000  -0.000000   0.000000   0.000000  -0.000000   0.000001
    12  C   -0.000000  -0.000000   0.000000  -0.000006   0.000001  -0.000060
    13  C    0.000000   0.000003   0.000001   0.000512  -0.000084   0.003088
    14  C   -0.000065  -0.005945  -0.082263   0.423154  -0.081104  -0.086571
    15  C   -0.063038   0.198040  -0.067707  -0.004188  -0.000205   0.000007
    16  O   -0.050960   0.378808  -0.054367  -0.008383  -0.000023   0.000000
    17  H   -0.000000  -0.000000  -0.000000   0.000057  -0.000243   0.010402
    18  H    0.000000   0.000000   0.000000  -0.000000   0.000000  -0.000003
    19  H   -0.000000  -0.000000  -0.000000  -0.000000   0.000000   0.000000
    20  H    0.000000   0.000000  -0.000000  -0.000000  -0.000000   0.000000
    21  H   -0.000000  -0.000007   0.000001   0.000103  -0.000004   0.000023
    22  H    0.000043   0.002716  -0.002962  -0.034345   0.005043   0.003620
    23  H   -0.000016  -0.008008   0.000029   0.000096   0.000002  -0.000000
    24  H    0.001965  -0.007412  -0.002616   0.000487   0.000056  -0.000012
    25  H   -0.000561  -0.006741   0.002707   0.000141  -0.000000  -0.000000
               7          8          9         10         11         12
     1  O   -0.000001  -0.000000  -0.000000  -0.000000  -0.000000  -0.000000
     2  S    0.001513  -0.000058   0.000000   0.000000  -0.000000  -0.000000
     3  N    0.001261  -0.000144  -0.000000  -0.000000   0.000000   0.000000
     4  C   -0.014117   0.002495  -0.000258   0.000003   0.000000  -0.000006
     5  N   -0.080622   0.003732   0.000099   0.000000  -0.000000   0.000001
     6  O    0.249916  -0.039705  -0.005607   0.000320   0.000001  -0.000060
     7  C    4.773079   0.346469  -0.040679   0.004530   0.000781   0.006211
     8  C    0.346469   4.787694   0.468797  -0.010222  -0.033944  -0.011269
     9  C   -0.040679   0.468797   5.073647   0.503745  -0.038151  -0.042139
    10  C    0.004530  -0.010222   0.503745   4.897866   0.538827  -0.026695
    11  C    0.000781  -0.033944  -0.038151   0.538827   4.881105   0.539279
    12  C    0.006211  -0.011269  -0.042139  -0.026695   0.539279   4.890431
    13  C   -0.043541   0.536634  -0.083044  -0.041315  -0.040102   0.516268
    14  C    0.479680  -0.056954   0.011750  -0.000229   0.000014   0.000242
    15  C   -0.000279   0.000002   0.000000  -0.000000  -0.000000  -0.000000
    16  O    0.000535  -0.000005  -0.000000   0.000000  -0.000000  -0.000000
    17  H   -0.012555  -0.043122   0.362297  -0.042125   0.004615   0.000200
    18  H   -0.000164   0.003242  -0.037880   0.363091  -0.041302   0.004442
    19  H    0.000004   0.000490   0.004610  -0.041533   0.364305  -0.041811
    20  H   -0.000194   0.003218   0.000780   0.004416  -0.041216   0.362447
    21  H   -0.012635  -0.036235   0.005776   0.000157   0.004539  -0.042929
    22  H   -0.031218  -0.003864  -0.000133   0.000002  -0.000001   0.000095
    23  H    0.000003  -0.000000  -0.000000   0.000000  -0.000000   0.000000
    24  H    0.000021  -0.000000  -0.000000   0.000000   0.000000  -0.000000
    25  H    0.000001   0.000000  -0.000000   0.000000   0.000000   0.000000
              13         14         15         16         17         18
     1  O    0.000000  -0.000065  -0.063038  -0.050960  -0.000000   0.000000
     2  S    0.000003  -0.005945   0.198040   0.378808  -0.000000   0.000000
     3  N    0.000001  -0.082263  -0.067707  -0.054367  -0.000000   0.000000
     4  C    0.000512   0.423154  -0.004188  -0.008383   0.000057  -0.000000
     5  N   -0.000084  -0.081104  -0.000205  -0.000023  -0.000243   0.000000
     6  O    0.003088  -0.086571   0.000007   0.000000   0.010402  -0.000003
     7  C   -0.043541   0.479680  -0.000279   0.000535  -0.012555  -0.000164
     8  C    0.536634  -0.056954   0.000002  -0.000005  -0.043122   0.003242
     9  C   -0.083044   0.011750   0.000000  -0.000000   0.362297  -0.037880
    10  C   -0.041315  -0.000229  -0.000000   0.000000  -0.042125   0.363091
    11  C   -0.040102   0.000014  -0.000000  -0.000000   0.004615  -0.041302
    12  C    0.516268   0.000242  -0.000000  -0.000000   0.000200   0.004442
    13  C    5.026621  -0.020944  -0.000000   0.000003   0.005407   0.000757
    14  C   -0.020944   5.368425  -0.000814   0.001586   0.000234   0.000001
    15  C   -0.000000  -0.000814   5.603539  -0.060803   0.000000  -0.000000
    16  O    0.000003   0.001586  -0.060803   8.422975  -0.000000   0.000000
    17  H    0.005407   0.000234   0.000000  -0.000000   0.560634  -0.005022
    18  H    0.000757   0.000001  -0.000000   0.000000  -0.005022   0.562555
    19  H    0.004740  -0.000000   0.000000  -0.000000  -0.000152  -0.005099
    20  H   -0.037586  -0.000000  -0.000000   0.000000   0.000015  -0.000165
    21  H    0.356350   0.006869  -0.000001  -0.000019  -0.000140   0.000015
    22  H    0.001429   0.346544  -0.000288   0.014477  -0.000009   0.000000
    23  H    0.000000   0.000126   0.342749   0.002176  -0.000000   0.000000
    24  H   -0.000002   0.004171   0.338509  -0.001200  -0.000000  -0.000000
    25  H   -0.000000  -0.000071   0.344150   0.000107   0.000000   0.000000
              19         20         21         22         23         24
     1  O   -0.000000   0.000000  -0.000000   0.000043  -0.000016   0.001965
     2  S   -0.000000   0.000000  -0.000007   0.002716  -0.008008  -0.007412
     3  N   -0.000000  -0.000000   0.000001  -0.002962   0.000029  -0.002616
     4  C   -0.000000  -0.000000   0.000103  -0.034345   0.000096   0.000487
     5  N    0.000000  -0.000000  -0.000004   0.005043   0.000002   0.000056
     6  O    0.000000   0.000000   0.000023   0.003620  -0.000000  -0.000012
     7  C    0.000004  -0.000194  -0.012635  -0.031218   0.000003   0.000021
     8  C    0.000490   0.003218  -0.036235  -0.003864  -0.000000  -0.000000
     9  C    0.004610   0.000780   0.005776  -0.000133  -0.000000  -0.000000
    10  C   -0.041533   0.004416   0.000157   0.000002   0.000000   0.000000
    11  C    0.364305  -0.041216   0.004539  -0.000001  -0.000000   0.000000
    12  C   -0.041811   0.362447  -0.042929   0.000095   0.000000  -0.000000
    13  C    0.004740  -0.037586   0.356350   0.001429   0.000000  -0.000002
    14  C   -0.000000  -0.000000   0.006869   0.346544   0.000126   0.004171
    15  C    0.000000  -0.000000  -0.000001  -0.000288   0.342749   0.338509
    16  O   -0.000000   0.000000  -0.000019   0.014477   0.002176  -0.001200
    17  H   -0.000152   0.000015  -0.000140  -0.000009  -0.000000  -0.000000
    18  H   -0.005099  -0.000165   0.000015   0.000000   0.000000  -0.000000
    19  H    0.564713  -0.005109  -0.000156  -0.000000  -0.000000   0.000000
    20  H   -0.005109   0.562243  -0.004951  -0.000002  -0.000000   0.000000
    21  H   -0.000156  -0.004951   0.560297   0.001815  -0.000000   0.000001
    22  H   -0.000000  -0.000002   0.001815   0.520716   0.000033   0.000420
    23  H   -0.000000  -0.000000  -0.000000   0.000033   0.507458  -0.023526
    24  H    0.000000   0.000000   0.000001   0.000420  -0.023526   0.512813
    25  H    0.000000   0.000000   0.000000  -0.000008  -0.022428  -0.024095
              25
     1  O   -0.000561
     2  S   -0.006741
     3  N    0.002707
     4  C    0.000141
     5  N   -0.000000
     6  O   -0.000000
     7  C    0.000001
     8  C    0.000000
     9  C   -0.000000
    10  C    0.000000
    11  C    0.000000
    12  C    0.000000
    13  C   -0.000000
    14  C   -0.000071
    15  C    0.344150
    16  O    0.000107
    17  H    0.000000
    18  H    0.000000
    19  H    0.000000
    20  H    0.000000
    21  H    0.000000
    22  H   -0.000008
    23  H   -0.022428
    24  H   -0.024095
    25  H    0.502950
 Mulliken charges:
               1
     1  O   -0.626854
     2  S    1.091165
     3  N   -0.755329
     4  C    0.441525
     5  N   -0.343814
     6  O   -0.434660
     7  C    0.372001
     8  C    0.082750
     9  C   -0.183610
    10  C   -0.150839
    11  C   -0.138751
    12  C   -0.154708
    13  C   -0.185194
    14  C   -0.307834
    15  C   -0.629671
    16  O   -0.644906
    17  H    0.159508
    18  H    0.155532
    19  H    0.154998
    20  H    0.156105
    21  H    0.161131
    22  H    0.175879
    23  H    0.201306
    24  H    0.200421
    25  H    0.203848
 Sum of Mulliken charges =  -1.00000
 Mulliken charges with hydrogens summed into heavy atoms:
               1
     1  O   -0.626854
     2  S    1.091165
     3  N   -0.755329
     4  C    0.441525
     5  N   -0.343814
     6  O   -0.434660
     7  C    0.372001
     8  C    0.082750
     9  C   -0.024102
    10  C    0.004693
    11  C    0.016247
    12  C    0.001398
    13  C   -0.024064
    14  C   -0.131956
    15  C   -0.024096
    16  O   -0.644906
 Electronic spatial extent (au):  <R**2>=           5350.0195
 Charge=             -1.0000 electrons
 Dipole moment (field-independent basis, Debye):
    X=             15.0877    Y=             -5.8065    Z=              5.7108  Tot=             17.1455
 Quadrupole moment (field-independent basis, Debye-Ang):
   XX=           -141.7003   YY=           -114.4156   ZZ=           -102.3599
   XY=              1.9099   XZ=            -16.5964   YZ=             -1.9703
 Traceless Quadrupole moment (field-independent basis, Debye-Ang):
   XX=            -22.2084   YY=              5.0764   ZZ=             17.1320
   XY=              1.9099   XZ=            -16.5964   YZ=             -1.9703
 Octapole moment (field-independent basis, Debye-Ang**2):
  XXX=            280.6396  YYY=            -59.4423  ZZZ=              9.9914  XYY=             31.3626
  XXY=            -20.5803  XXZ=             66.4562  XZZ=            -25.2643  YZZ=             -4.4852
  YYZ=             13.5269  XYZ=              7.6275
 Hexadecapole moment (field-independent basis, Debye-Ang**3):
 XXXX=          -6453.3539 YYYY=           -962.6116 ZZZZ=           -274.6160 XXXY=             50.3889
 XXXZ=           -219.3048 YYYX=             31.4396 YYYZ=             37.5649 ZZZX=            -47.1225
 ZZZY=             35.7637 XXYY=          -1105.7209 XXZZ=          -1077.3988 YYZZ=           -203.5228
 XXYZ=            -18.5157 YYXZ=            -30.4500 ZZXY=             20.3401
 N-N= 1.162254424949D+03 E-N=-4.970619808631D+03  KE= 1.111774977084D+03
 No NMR shielding tensors so no spin-rotation constants.
 Leave Link  601 at Thu Sep 24 04:41:12 2020, MaxMem=  2147483648 cpu:               0.4 elap:               0.1
 (Enter /prod/apps/gaussian/g16b1/l701.exe)
 ... and contract with generalized density number  0.
 Compute integral first derivatives.
 D1PCM: PCM CHGder 1st derivatives, ID1Alg=3 FixD1E=F DoIter=F DoCFld=F I1PDM=0.
 GePol: Maximum number of non-zero 1st derivatives   =     175
 Leave Link  701 at Thu Sep 24 04:41:14 2020, MaxMem=  2147483648 cpu:               6.3 elap:               1.6
 (Enter /prod/apps/gaussian/g16b1/l702.exe)
 L702 exits ... SP integral derivatives will be done elsewhere.
 Leave Link  702 at Thu Sep 24 04:41:14 2020, MaxMem=  2147483648 cpu:               0.1 elap:               0.0
 (Enter /prod/apps/gaussian/g16b1/l703.exe)
 Integral derivatives from FoFJK, PRISM(SPDF).
 Compute integral first derivatives, UseDBF=F ICtDFT=           0.
 Calling FoFJK, ICntrl=      2127 FMM=F ISym2X=0 I1Cent= 0 IOpClX= 0 NMat=1 NMatS=1 NMatT=0.
 FoFJK:  IHMeth= 1 ICntrl=    2127 DoSepK=F KAlg= 0 I1Cent=           0 FoldK=F
 IRaf=         0 NMat=       1 IRICut=       1 DoRegI=T DoRafI=F ISym2E= 0 IDoP0=0 IntGTp=1.
 FoFCou: FMM=F IPFlag=           0 FMFlag=      100000 FMFlg1=         800
         NFxFlg=           0 DoJE=F BraDBF=F KetDBF=F FulRan=T
         wScrn=  0.000000 ICntrl=      2127 IOpCl=  0 I1Cent=           0 NGrid=           0
         NMat0=    1 NMatS0=      1 NMatT0=    0 NMatD0=    1 NMtDS0=    0 NMtDT0=    0
 Symmetry not used in FoFCou.
 Leave Link  703 at Thu Sep 24 04:41:23 2020, MaxMem=  2147483648 cpu:              37.3 elap:               9.3
 (Enter /prod/apps/gaussian/g16b1/l716.exe)
 Dipole        = 5.93595538D+00-2.28444255D+00 2.24679375D+00
 -------------------------------------------------------------------
 Center     Atomic                   Forces (Hartrees/Bohr)
 Number     Number              X              Y              Z
 -------------------------------------------------------------------
      1        8          -0.000033060    0.000006842    0.000050939
      2       16           0.001479469   -0.000064702    0.000537532
      3        7           0.000315668   -0.000706274    0.000216029
      4        6           0.000051146   -0.000688836   -0.000008276
      5        7           0.000419944   -0.000885728    0.000047140
      6        8           0.000203542    0.000107669    0.000049386
      7        6          -0.000009413   -0.001348046   -0.000008826
      8        6           0.000860370    0.000666388    0.000017028
      9        6          -0.000704845   -0.000754086    0.000008326
     10        6           0.000154718   -0.000197698   -0.000031394
     11        6          -0.000598326    0.000543283   -0.000050523
     12        6           0.000735487   -0.000652154   -0.000011536
     13        6          -0.000543070    0.000558753    0.000053715
     14        6          -0.000657300    0.000886133   -0.000037684
     15        6           0.000569249    0.000302575    0.000331853
     16        8           0.000526065    0.000772556    0.000675764
     17        1          -0.000655831   -0.000787143   -0.000043141
     18        1          -0.000568622   -0.000514265   -0.000025370
     19        1          -0.000549282    0.000234662   -0.000003931
     20        1          -0.000259620    0.001164824   -0.000026187
     21        1          -0.000053628    0.000556343   -0.000022157
     22        1          -0.000139383    0.000781384   -0.000190720
     23        1           0.000356570   -0.000798650   -0.000722875
     24        1          -0.001190294    0.000193885   -0.000494908
     25        1           0.000290448    0.000622286   -0.000310182
 -------------------------------------------------------------------
 Cartesian Forces:  Max     0.001479469 RMS     0.000541854
 Leave Link  716 at Thu Sep 24 04:41:23 2020, MaxMem=  2147483648 cpu:               0.1 elap:               0.0
 (Enter /prod/apps/gaussian/g16b1/l103.exe)

 GradGradGradGradGradGradGradGradGradGradGradGradGradGradGradGradGradGrad
 Berny optimization.
 FormGI is forming the generalized inverse of G from B-inverse, IUseBI=4.
 GSVD:  received Info=                   1 from GESDD.
 Internal  Forces:  Max     0.005470687 RMS     0.000873764
 Search for a local minimum.
 Step number   1 out of a maximum of  133
 All quantities printed in internal units (Hartrees-Bohrs-Radians)
 RMS Force = .87376D-03 SwitMx=.10000D-02 MixMth= 2
 Mixed Optimization -- En-DIIS/RFO-DIIS
 Second derivative matrix not updated -- first step.
 ITU=  0
     Eigenvalues ---    0.00256   0.01246   0.01761   0.01774   0.01866
     Eigenvalues ---    0.01916   0.02021   0.02021   0.02077   0.02095
     Eigenvalues ---    0.02116   0.02126   0.02131   0.02135   0.02146
     Eigenvalues ---    0.02155   0.02334   0.02522   0.05826   0.05897
     Eigenvalues ---    0.08730   0.09515   0.15991   0.16000   0.16000
     Eigenvalues ---    0.16000   0.16000   0.16000   0.16000   0.16000
     Eigenvalues ---    0.16000   0.16464   0.21038   0.22000   0.22000
     Eigenvalues ---    0.23474   0.23797   0.24998   0.25000   0.25000
     Eigenvalues ---    0.25000   0.25000   0.25000   0.25447   0.34497
     Eigenvalues ---    0.34591   0.34617   0.35213   0.35272   0.35321
     Eigenvalues ---    0.35377   0.35505   0.36321   0.36502   0.37462
     Eigenvalues ---    0.41258   0.41272   0.41758   0.45017   0.45360
     Eigenvalues ---    0.46155   0.46760   0.48772   0.49828   0.50008
     Eigenvalues ---    0.52111   0.56551   0.79302   0.82301
 RFO step:  Lambda=-3.55442388D-04 EMin= 2.55925466D-03
 Linear search not attempted -- first point.
 Iteration  1 RMS(Cart)=  0.03213974 RMS(Int)=  0.00042354
 Iteration  2 RMS(Cart)=  0.00053127 RMS(Int)=  0.00000322
 Iteration  3 RMS(Cart)=  0.00000016 RMS(Int)=  0.00000322
 ITry= 1 IFail=0 DXMaxC= 1.77D-01 DCOld= 1.00D+10 DXMaxT= 3.00D-01 DXLimC= 3.00D+00 Rises=F
 Variable       Old X    -DE/DX   Delta X   Delta X   Delta X     New X
                                 (Linear)    (Quad)   (Total)
    R1        2.80398   0.00002   0.00000   0.00003   0.00003   2.80401
    R2        3.03740  -0.00188   0.00000  -0.00378  -0.00378   3.03362
    R3        3.41785  -0.00124   0.00000  -0.00488  -0.00488   3.41297
    R4        2.81994  -0.00073   0.00000  -0.00092  -0.00092   2.81902
    R5        2.59857  -0.00232   0.00000  -0.00464  -0.00464   2.59393
    R6        2.52672  -0.00061   0.00000  -0.00105  -0.00105   2.52567
    R7        2.72427  -0.00243   0.00000  -0.00640  -0.00640   2.71787
    R8        2.68125  -0.00040   0.00000  -0.00070  -0.00070   2.68055
    R9        2.55702  -0.00013   0.00000  -0.00014  -0.00014   2.55688
   R10        2.76604  -0.00233   0.00000  -0.00638  -0.00638   2.75966
   R11        2.57795  -0.00172   0.00000  -0.00341  -0.00341   2.57455
   R12        2.65852  -0.00258   0.00000  -0.00594  -0.00594   2.65258
   R13        2.65747  -0.00162   0.00000  -0.00368  -0.00368   2.65379
   R14        2.63439  -0.00088   0.00000  -0.00196  -0.00196   2.63243
   R15        2.04863  -0.00067   0.00000  -0.00188  -0.00188   2.04675
   R16        2.64114  -0.00097   0.00000  -0.00204  -0.00204   2.63910
   R17        2.05236  -0.00077   0.00000  -0.00217  -0.00217   2.05019
   R18        2.64237  -0.00062   0.00000  -0.00121  -0.00121   2.64116
   R19        2.05157  -0.00060   0.00000  -0.00168  -0.00168   2.04989
   R20        2.63154  -0.00035   0.00000  -0.00066  -0.00066   2.63088
   R21        2.05330  -0.00119   0.00000  -0.00338  -0.00338   2.04993
   R22        2.05068  -0.00031   0.00000  -0.00089  -0.00089   2.04979
   R23        2.03583  -0.00074   0.00000  -0.00204  -0.00204   2.03379
   R24        2.06301  -0.00112   0.00000  -0.00324  -0.00324   2.05977
   R25        2.06500  -0.00130   0.00000  -0.00375  -0.00375   2.06124
   R26        2.06344  -0.00072   0.00000  -0.00207  -0.00207   2.06136
    A1        1.86285   0.00030   0.00000   0.00288   0.00288   1.86573
    A2        1.85785  -0.00017   0.00000   0.00056   0.00056   1.85842
    A3        2.00930   0.00045   0.00000   0.00407   0.00408   2.01338
    A4        1.87811   0.00009   0.00000  -0.00079  -0.00080   1.87731
    A5        2.00358  -0.00053   0.00000  -0.00500  -0.00501   1.99857
    A6        1.84308  -0.00015   0.00000  -0.00177  -0.00178   1.84130
    A7        2.08710  -0.00547   0.00000  -0.02185  -0.02185   2.06525
    A8        2.04777   0.00205   0.00000   0.00835   0.00835   2.05612
    A9        2.30844  -0.00270   0.00000  -0.01063  -0.01064   2.29781
   A10        1.92689   0.00065   0.00000   0.00224   0.00224   1.92913
   A11        1.84321  -0.00042   0.00000  -0.00123  -0.00123   1.84198
   A12        1.90802  -0.00065   0.00000  -0.00188  -0.00188   1.90614
   A13        2.04892  -0.00043   0.00000  -0.00167  -0.00167   2.04725
   A14        1.91419   0.00036   0.00000   0.00136   0.00136   1.91556
   A15        2.32006   0.00007   0.00000   0.00031   0.00031   2.32036
   A16        2.10758  -0.00073   0.00000  -0.00274  -0.00274   2.10484
   A17        2.09920  -0.00024   0.00000  -0.00081  -0.00081   2.09839
   A18        2.07640   0.00097   0.00000   0.00356   0.00356   2.07996
   A19        2.09993  -0.00002   0.00000  -0.00051  -0.00051   2.09942
   A20        2.08757  -0.00078   0.00000  -0.00470  -0.00470   2.08287
   A21        2.09568   0.00081   0.00000   0.00522   0.00521   2.10090
   A22        2.10066  -0.00031   0.00000  -0.00137  -0.00137   2.09929
   A23        2.08653   0.00019   0.00000   0.00089   0.00089   2.08742
   A24        2.09600   0.00012   0.00000   0.00048   0.00048   2.09648
   A25        2.08757   0.00021   0.00000   0.00146   0.00146   2.08903
   A26        2.09809  -0.00013   0.00000  -0.00089  -0.00089   2.09720
   A27        2.09753  -0.00008   0.00000  -0.00057  -0.00057   2.09696
   A28        2.09991  -0.00036   0.00000  -0.00108  -0.00108   2.09883
   A29        2.09573   0.00025   0.00000   0.00099   0.00099   2.09672
   A30        2.08755   0.00011   0.00000   0.00008   0.00009   2.08763
   A31        2.10190  -0.00048   0.00000  -0.00206  -0.00206   2.09984
   A32        2.09169  -0.00023   0.00000  -0.00193  -0.00193   2.08976
   A33        2.08960   0.00072   0.00000   0.00399   0.00399   2.09359
   A34        1.83243   0.00006   0.00000  -0.00048  -0.00048   1.83195
   A35        2.21179  -0.00034   0.00000  -0.00173  -0.00173   2.21007
   A36        2.23864   0.00028   0.00000   0.00211   0.00211   2.24074
   A37        1.89800  -0.00017   0.00000  -0.00108  -0.00108   1.89692
   A38        1.90581  -0.00012   0.00000  -0.00052  -0.00052   1.90530
   A39        1.89134  -0.00028   0.00000  -0.00192  -0.00192   1.88942
   A40        1.92237   0.00019   0.00000   0.00157   0.00157   1.92394
   A41        1.92643   0.00016   0.00000   0.00056   0.00056   1.92698
   A42        1.91936   0.00020   0.00000   0.00129   0.00129   1.92065
    D1       -3.02832   0.00036   0.00000   0.01915   0.01915  -3.00917
    D2        1.26644   0.00036   0.00000   0.01748   0.01749   1.28393
    D3       -0.77945   0.00081   0.00000   0.02321   0.02320  -0.75625
    D4       -0.96693   0.00006   0.00000   0.00142   0.00141  -0.96551
    D5       -3.06507   0.00001   0.00000   0.00047   0.00047  -3.06460
    D6        1.12759  -0.00000   0.00000   0.00034   0.00034   1.12793
    D7        1.02484   0.00036   0.00000   0.00463   0.00462   1.02947
    D8       -1.07330   0.00031   0.00000   0.00368   0.00368  -1.06963
    D9        3.11936   0.00030   0.00000   0.00355   0.00355   3.12291
   D10       -3.11061  -0.00030   0.00000  -0.00269  -0.00269  -3.11330
   D11        1.07443  -0.00036   0.00000  -0.00364  -0.00364   1.07079
   D12       -1.01609  -0.00036   0.00000  -0.00376  -0.00376  -1.01986
   D13       -2.99015   0.00027   0.00000   0.01315   0.01315  -2.97700
   D14        0.16689   0.00034   0.00000   0.01671   0.01671   0.18360
   D15       -3.12393   0.00004   0.00000   0.00057   0.00059  -3.12334
   D16        0.00546  -0.00005   0.00000  -0.00237  -0.00238   0.00309
   D17        3.12539  -0.00003   0.00000  -0.00195  -0.00194   3.12346
   D18        0.00939   0.00004   0.00000   0.00174   0.00174   0.01113
   D19       -0.00156   0.00003   0.00000   0.00137   0.00138  -0.00019
   D20       -3.11756   0.00009   0.00000   0.00506   0.00505  -3.11251
   D21       -0.00755   0.00006   0.00000   0.00257   0.00257  -0.00498
   D22       -3.13905  -0.00005   0.00000  -0.00232  -0.00232  -3.14137
   D23        0.00680  -0.00004   0.00000  -0.00176  -0.00177   0.00504
   D24        0.02404  -0.00001   0.00000  -0.00064  -0.00064   0.02339
   D25       -3.11777  -0.00000   0.00000  -0.00039  -0.00039  -3.11816
   D26       -3.12303  -0.00002   0.00000  -0.00136  -0.00136  -3.12439
   D27        0.01834  -0.00001   0.00000  -0.00110  -0.00110   0.01724
   D28       -0.00330   0.00001   0.00000   0.00029   0.00029  -0.00301
   D29        3.11217  -0.00008   0.00000  -0.00355  -0.00355   3.10861
   D30       -3.13973   0.00002   0.00000   0.00097   0.00098  -3.13876
   D31       -0.02426  -0.00006   0.00000  -0.00287  -0.00287  -0.02713
   D32        3.14120   0.00001   0.00000   0.00068   0.00068  -3.14131
   D33        0.00062   0.00000   0.00000   0.00014   0.00014   0.00076
   D34       -0.00018   0.00001   0.00000   0.00042   0.00042   0.00025
   D35       -3.14076  -0.00000   0.00000  -0.00011  -0.00011  -3.14087
   D36       -3.14112  -0.00002   0.00000  -0.00104  -0.00104   3.14103
   D37        0.00069   0.00000   0.00000  -0.00002  -0.00002   0.00067
   D38        0.00026  -0.00002   0.00000  -0.00079  -0.00079  -0.00053
   D39       -3.14112   0.00000   0.00000   0.00024   0.00023  -3.14089
   D40        0.00038  -0.00001   0.00000  -0.00026  -0.00025   0.00012
   D41       -3.14127   0.00000   0.00000   0.00011   0.00011  -3.14116
   D42        3.14095   0.00001   0.00000   0.00028   0.00028   3.14123
   D43       -0.00070   0.00001   0.00000   0.00064   0.00065  -0.00005
   D44       -0.00065   0.00001   0.00000   0.00044   0.00044  -0.00021
   D45        3.14043   0.00002   0.00000   0.00074   0.00074   3.14117
   D46        3.14100   0.00000   0.00000   0.00007   0.00007   3.14107
   D47       -0.00111   0.00001   0.00000   0.00037   0.00037  -0.00073
   D48        0.00073  -0.00002   0.00000  -0.00080  -0.00080  -0.00007
   D49        3.14107   0.00000   0.00000   0.00001   0.00001   3.14107
   D50       -3.14035  -0.00002   0.00000  -0.00110  -0.00110  -3.14145
   D51       -0.00001  -0.00001   0.00000  -0.00030  -0.00030  -0.00031
   D52       -0.00054   0.00002   0.00000   0.00098   0.00098   0.00044
   D53        3.14084  -0.00000   0.00000  -0.00004  -0.00004   3.14080
   D54       -3.14088   0.00000   0.00000   0.00018   0.00018  -3.14070
   D55        0.00050  -0.00002   0.00000  -0.00084  -0.00084  -0.00035
         Item               Value     Threshold  Converged?
 Maximum Force            0.005471     0.000450     NO 
 RMS     Force            0.000874     0.000300     NO 
 Maximum Displacement     0.176895     0.001800     NO 
 RMS     Displacement     0.032086     0.001200     NO 
 Predicted change in Energy=-1.782332D-04
 Lowest energy point so far.  Saving SCF results.
 GradGradGradGradGradGradGradGradGradGradGradGradGradGradGradGradGradGrad

 Leave Link  103 at Thu Sep 24 04:41:23 2020, MaxMem=  2147483648 cpu:               0.1 elap:               0.0
 (Enter /prod/apps/gaussian/g16b1/l202.exe)
                          Input orientation:                          
 ---------------------------------------------------------------------
 Center     Atomic      Atomic             Coordinates (Angstroms)
 Number     Number       Type             X           Y           Z
 ---------------------------------------------------------------------
      1          8           0       -4.659540   -0.076095   -0.468597
      2         16           0       -3.237204   -0.320282   -0.123571
      3          7           0       -2.456906    1.063570   -0.354095
      4          6           0       -1.087807    1.063663   -0.255447
      5          7           0       -0.462687    2.244986   -0.256878
      6          8           0        0.920579    1.943005   -0.170349
      7          6           0        1.080609    0.600649   -0.113753
      8          6           0        2.446448    0.092313   -0.020535
      9          6           0        3.535461    0.976147    0.036215
     10          6           0        4.835706    0.484173    0.124725
     11          6           0        5.066930   -0.892711    0.157613
     12          6           0        3.986612   -1.777679    0.101538
     13          6           0        2.685170   -1.291157    0.013365
     14          6           0       -0.135857   -0.010652   -0.165078
     15          6           0       -3.193956   -0.682180    1.645335
     16          8           0       -2.612391   -1.501070   -0.787422
     17          1           0        3.354405    2.043700    0.010941
     18          1           0        5.669146    1.177362    0.168338
     19          1           0        6.080264   -1.273695    0.226162
     20          1           0        4.158030   -2.848541    0.126100
     21          1           0        1.850390   -1.982374   -0.030615
     22          1           0       -0.354596   -1.064415   -0.169124
     23          1           0       -3.667258    0.140230    2.181704
     24          1           0       -2.156314   -0.792212    1.963071
     25          1           0       -3.738233   -1.611735    1.817356
 ---------------------------------------------------------------------
                    Distance matrix (angstroms):
                    1          2          3          4          5
     1  O    0.000000
     2  S    1.483816   0.000000
     3  N    2.482649   1.605321   0.000000
     4  C    3.755231   2.559805   1.372648   0.000000
     5  N    4.800606   3.781047   2.319936   1.336526   0.000000
     6  O    5.941671   4.734112   3.494935   2.194106   1.418487
     7  C    5.790787   4.414943   3.575761   2.221820   2.259666
     8  C    7.122092   5.699540   5.009739   3.672828   3.626697
     9  C    8.277687   6.897482   6.005701   4.633286   4.204884
    10  C    9.530249   8.116692   7.331245   5.963921   5.596343
    11  C    9.780758   8.328588   7.790827   6.471384   6.371312
    12  C    8.830425   7.372802   7.056856   5.826696   6.008873
    13  C    7.460123   6.002988   5.667514   4.455647   4.741977
    14  C    4.534326   3.117041   2.564556   1.438237   2.281041
    15  C    2.642722   1.806064   2.754742   3.331185   4.432442
    16  O    2.514562   1.491761   2.605634   3.030711   4.351510
    17  H    8.303421   7.003985   5.904679   4.556828   3.831766
    18  H   10.423943   9.036106   8.143623   6.771184   6.238590
    19  H   10.828681   9.372647   8.870331   7.554894   7.444773
    20  H    9.262271   7.819458   7.700167   6.555129   6.887795
    21  H    6.797420   5.353018   5.285377   4.238147   4.824116
    22  H    4.427077   2.977455   2.997039   2.252501   3.312328
    23  H    2.838224   2.389835   2.957666   3.666878   4.543782
    24  H    3.562580   2.396898   2.983881   3.083472   4.125666
    25  H    2.903890   2.384550   3.676175   4.298723   5.468633
                    6          7          8          9         10
     6  O    0.000000
     7  C    1.353045   0.000000
     8  C    2.403286   1.460347   0.000000
     9  C    2.795549   2.487929   1.403686   0.000000
    10  C    4.188493   3.764465   2.425532   1.393021   0.000000
    11  C    5.033991   4.265504   2.805162   2.419249   1.396552
    12  C    4.828868   3.761336   2.425670   2.791301   2.416086
    13  C    3.688812   2.483889   1.404324   2.421608   2.790878
    14  C    2.221004   1.362392   2.588397   3.806950   5.004526
    15  C    5.207465   4.797076   5.932041   7.115080   8.255186
[...]
 Alpha  occ. eigenvalues --   -0.98607  -0.96101  -0.94231  -0.90839  -0.87823
 Alpha  occ. eigenvalues --   -0.77067  -0.75574  -0.70558  -0.67630  -0.63904
 Alpha  occ. eigenvalues --   -0.60899  -0.57620  -0.55223  -0.54526  -0.52035
 Alpha  occ. eigenvalues --   -0.51522  -0.51059  -0.50719  -0.49682  -0.48309
 Alpha  occ. eigenvalues --   -0.46146  -0.44637  -0.43463  -0.42947  -0.42614
 Alpha  occ. eigenvalues --   -0.41038  -0.35920  -0.34178  -0.32826  -0.32343
 Alpha  occ. eigenvalues --   -0.30373  -0.29539  -0.29265  -0.26358  -0.25458
 Alpha  occ. eigenvalues --   -0.20755  -0.18300
 Alpha virt. eigenvalues --    0.08865   0.09999   0.11057   0.12414   0.13452
 Alpha virt. eigenvalues --    0.14122   0.14626   0.15251   0.16325   0.17786
 Alpha virt. eigenvalues --    0.18016   0.18146   0.18259   0.19579   0.20250
 Alpha virt. eigenvalues --    0.20459   0.21033   0.21170   0.21847   0.22117
 Alpha virt. eigenvalues --    0.22558   0.22726   0.23046   0.23443   0.23557
 Alpha virt. eigenvalues --    0.24817   0.25304   0.25679   0.25930   0.26362
 Alpha virt. eigenvalues --    0.26610   0.26959   0.27578   0.28666   0.29006
 Alpha virt. eigenvalues --    0.29264   0.29519   0.30030   0.30692   0.31622
 Alpha virt. eigenvalues --    0.31914   0.32351   0.33300   0.34335   0.34726
 Alpha virt. eigenvalues --    0.35514   0.36032   0.36279   0.36713   0.37250
 Alpha virt. eigenvalues --    0.38069   0.38426   0.38993   0.39109   0.39456
 Alpha virt. eigenvalues --    0.40072   0.40436   0.40725   0.42102   0.42554
 Alpha virt. eigenvalues --    0.42866   0.43292   0.43654   0.44229   0.44330
 Alpha virt. eigenvalues --    0.44547   0.45309   0.45513   0.45667   0.45828
 Alpha virt. eigenvalues --    0.46272   0.46653   0.46905   0.47485   0.47678
 Alpha virt. eigenvalues --    0.47927   0.48772   0.49362   0.49600   0.49977
 Alpha virt. eigenvalues --    0.50472   0.51225   0.51417   0.51856   0.52378
 Alpha virt. eigenvalues --    0.52523   0.53017   0.53154   0.54319   0.54568
 Alpha virt. eigenvalues --    0.54928   0.55690   0.56685   0.56974   0.57638
 Alpha virt. eigenvalues --    0.58224   0.58761   0.59242   0.59402   0.60222
 Alpha virt. eigenvalues --    0.61808   0.62663   0.63359   0.63654   0.64679
 Alpha virt. eigenvalues --    0.65573   0.65964   0.66573   0.67261   0.67336
 Alpha virt. eigenvalues --    0.67786   0.68592   0.68743   0.69213   0.69901
 Alpha virt. eigenvalues --    0.70940   0.70958   0.72113   0.72580   0.73333
 Alpha virt. eigenvalues --    0.73974   0.74330   0.74760   0.75256   0.75965
 Alpha virt. eigenvalues --    0.76289   0.76750   0.76829   0.77515   0.78344
 Alpha virt. eigenvalues --    0.78483   0.78838   0.79212   0.79289   0.80620
 Alpha virt. eigenvalues --    0.81202   0.81867   0.82070   0.82534   0.83369
 Alpha virt. eigenvalues --    0.84222   0.84612   0.85303   0.85611   0.86885
 Alpha virt. eigenvalues --    0.87447   0.88091   0.88796   0.89404   0.90015
 Alpha virt. eigenvalues --    0.91871   0.92582   0.93600   0.94065   0.94250
 Alpha virt. eigenvalues --    0.95764   0.96473   0.97532   0.98099   0.98797
 Alpha virt. eigenvalues --    0.99502   1.00120   1.00177   1.00697   1.01174
 Alpha virt. eigenvalues --    1.02126   1.02923   1.03275   1.03539   1.04582
 Alpha virt. eigenvalues --    1.05154   1.05738   1.06829   1.07159   1.07819
 Alpha virt. eigenvalues --    1.08266   1.08923   1.09507   1.10203   1.11049
 Alpha virt. eigenvalues --    1.11979   1.12628   1.13126   1.13756   1.14663
 Alpha virt. eigenvalues --    1.15329   1.16248   1.17068   1.18485   1.19180
 Alpha virt. eigenvalues --    1.19557   1.20627   1.22404   1.23561   1.24318
 Alpha virt. eigenvalues --    1.25774   1.26080   1.26678   1.27387   1.28735
 Alpha virt. eigenvalues --    1.29204   1.30271   1.30555   1.31081   1.31689
 Alpha virt. eigenvalues --    1.32930   1.33912   1.34563   1.35620   1.37666
 Alpha virt. eigenvalues --    1.39082   1.40831   1.42317   1.43684   1.44062
 Alpha virt. eigenvalues --    1.45283   1.46821   1.47727   1.49394   1.50568
 Alpha virt. eigenvalues --    1.51941   1.53474   1.54661   1.55100   1.56146
 Alpha virt. eigenvalues --    1.57800   1.58190   1.59887   1.60788   1.60911
 Alpha virt. eigenvalues --    1.62121   1.62705   1.63022   1.63836   1.64697
 Alpha virt. eigenvalues --    1.65937   1.66452   1.68051   1.68388   1.69949
 Alpha virt. eigenvalues --    1.70396   1.71405   1.71814   1.72117   1.73182
 Alpha virt. eigenvalues --    1.73612   1.75322   1.76468   1.77654   1.78073
 Alpha virt. eigenvalues --    1.79626   1.80406   1.81081   1.81199   1.82858
 Alpha virt. eigenvalues --    1.83862   1.84735   1.85326   1.86820   1.88011
 Alpha virt. eigenvalues --    1.89342   1.90656   1.91089   1.92068   1.93278
 Alpha virt. eigenvalues --    1.93746   1.95018   1.95185   1.96969   1.98947
 Alpha virt. eigenvalues --    1.99106   1.99693   2.01112   2.01980   2.02331
 Alpha virt. eigenvalues --    2.02724   2.04279   2.05032   2.06355   2.06420
 Alpha virt. eigenvalues --    2.07379   2.08105   2.10033   2.10723   2.11483
 Alpha virt. eigenvalues --    2.12621   2.13006   2.15104   2.15680   2.16986
 Alpha virt. eigenvalues --    2.17385   2.18864   2.19168   2.19417   2.21975
 Alpha virt. eigenvalues --    2.22083   2.23582   2.25003   2.26882   2.28120
 Alpha virt. eigenvalues --    2.29811   2.30482   2.33213   2.33464   2.33998
 Alpha virt. eigenvalues --    2.35359   2.36678   2.36822   2.39019   2.39549
 Alpha virt. eigenvalues --    2.40541   2.41828   2.42900   2.45142   2.45550
 Alpha virt. eigenvalues --    2.46300   2.47135   2.47826   2.48411   2.50530
 Alpha virt. eigenvalues --    2.51184   2.53141   2.53922   2.56368   2.56945
 Alpha virt. eigenvalues --    2.58010   2.61007   2.62795   2.66249   2.67781
 Alpha virt. eigenvalues --    2.71238   2.71631   2.74535   2.76806   2.78596
 Alpha virt. eigenvalues --    2.79672   2.84045   2.86388   2.86796   2.88049
 Alpha virt. eigenvalues --    2.88937   2.90980   2.92512   2.94844   2.96860
 Alpha virt. eigenvalues --    2.98192   2.99426   3.00280   3.04124   3.07052
 Alpha virt. eigenvalues --    3.08963   3.11356   3.14410   3.15399   3.15926
 Alpha virt. eigenvalues --    3.18779   3.20462   3.24301   3.25532   3.28619
 Alpha virt. eigenvalues --    3.33813   3.35974   3.40904   3.46126   3.48011
 Alpha virt. eigenvalues --    3.49581   3.55075   3.60125   3.64657   3.67137
 Alpha virt. eigenvalues --    3.73901   3.85306   3.90384   3.90900   3.92180
 Alpha virt. eigenvalues --    3.94366   3.95705   3.97256   3.98005   3.99618
 Alpha virt. eigenvalues --    4.02204   4.02393   4.03843   4.08920   4.10124
 Alpha virt. eigenvalues --    4.15417   4.17694   4.27004   4.39033   4.70235
 Alpha virt. eigenvalues --    4.98571
          Condensed to atoms (all electrons):
               1          2          3          4          5          6
     1  O    9.370238  -0.239848  -0.003197   0.047494   0.002186   0.001656
     2  S   -0.239848  14.186064  -0.108559  -0.424618   0.027938  -0.017390
     3  N   -0.003197  -0.108559   8.765914  -0.594624  -0.068445  -0.074862
     4  C    0.047494  -0.424618  -0.594624  10.986374  -0.677560   0.746085
     5  N    0.002186   0.027938  -0.068445  -0.677560   8.640195  -0.784034
     6  O    0.001656  -0.017390  -0.074862   0.746085  -0.784034  10.248558
     7  C    0.005633  -0.106355  -0.019648  -0.913409  -0.282464  -1.072410
     8  C    0.002615  -0.065771  -0.055112   0.380455   0.065071   0.796758
     9  C    0.001053  -0.022708  -0.005811   0.115914  -0.176477  -0.286037
    10  C    0.000116  -0.005271  -0.008165   0.217446  -0.088094  -0.006403
    11  C   -0.000025   0.001230   0.002519  -0.047917   0.003634  -0.060540
    12  C   -0.000308   0.010299   0.001052  -0.107301   0.035063   0.046889
    13  C   -0.001603   0.034941   0.039162  -0.551181   0.203474  -0.267948
    14  C    0.029911   0.123100   0.384855  -3.630724   0.649502  -0.108720
    15  C   -0.056299   0.350910   0.040311  -0.001028  -0.004215   0.004851
    16  O    0.006339  -0.351205   0.076822   0.070998   0.001383  -0.001201
    17  H   -0.000024   0.000450  -0.001165   0.029756  -0.026616  -0.092648
    18  H    0.000003  -0.000135  -0.000260   0.002329  -0.002058   0.005940
    19  H   -0.000000   0.000022   0.000049  -0.000735   0.000259  -0.000404
    20  H    0.000006   0.000081  -0.000133   0.001498   0.000303   0.001726
    21  H    0.000243  -0.010345  -0.000154   0.027397   0.005236   0.007456
    22  H    0.002524  -0.014479  -0.127858   0.326378  -0.102374   0.045272
    23  H    0.021002  -0.040680   0.001437   0.024395  -0.006047   0.001008
    24  H    0.018642  -0.083461   0.005699   0.013203  -0.004992   0.001617
    25  H    0.018176  -0.045643  -0.001302  -0.009846   0.001125   0.000177
               7          8          9         10         11         12
     1  O    0.005633   0.002615   0.001053   0.000116  -0.000025  -0.000308
     2  S   -0.106355  -0.065771  -0.022708  -0.005271   0.001230   0.010299
     3  N   -0.019648  -0.055112  -0.005811  -0.008165   0.002519   0.001052
     4  C   -0.913409   0.380455   0.115914   0.217446  -0.047917  -0.107301
     5  N   -0.282464   0.065071  -0.176477  -0.088094   0.003634   0.035063
     6  O   -1.072410   0.796758  -0.286037  -0.006403  -0.060540   0.046889
     7  C   22.079658  -6.800668   0.509872  -0.786095   0.820823  -0.746707
     8  C   -6.800668  21.605170  -6.296910   1.742349  -4.140670   1.817329
     9  C    0.509872  -6.296910  18.985949  -4.346159   2.821093  -3.361795
    10  C   -0.786095   1.742349  -4.346159  12.181306  -3.151119   3.645878
    11  C    0.820823  -4.140670   2.821093  -3.151119   9.793672  -3.287341
    12  C   -0.746707   1.817329  -3.361795   3.645878  -3.287341  14.039788
    13  C    0.462703  -7.916359   0.676492  -3.613124   3.560328  -6.195603
    14  C   -8.149833   2.562295  -2.735790   0.127560  -0.508327   0.626370
    15  C   -0.045367   0.016606  -0.002761   0.002313  -0.001554   0.000553
    16  O   -0.021604   0.009798   0.002229   0.000662  -0.000739  -0.003261
    17  H    0.303967   0.237386  -0.873939   0.384036  -0.081707   0.049812
    18  H   -0.019090  -0.110434   0.710299  -0.812188   0.290865  -0.221449
    19  H   -0.016236   0.068114  -0.115316   0.406263  -0.652220   0.333163
    20  H   -0.030416  -0.163819   0.105179  -0.266498   0.315622  -1.022147
    21  H   -0.264198   0.819221  -0.086180   0.100237  -0.134817   0.246071
    22  H    0.764597   0.043811   0.026979   0.017961  -0.032551   0.067263
    23  H    0.006856   0.000970   0.000382   0.000275  -0.000170  -0.000354
    24  H    0.012504  -0.001854   0.004458   0.001413  -0.000377  -0.004942
    25  H   -0.032590   0.004424  -0.001469   0.000033   0.000021   0.001249
              13         14         15         16         17         18
     1  O   -0.001603   0.029911  -0.056299   0.006339  -0.000024   0.000003
     2  S    0.034941   0.123100   0.350910  -0.351205   0.000450  -0.000135
     3  N    0.039162   0.384855   0.040311   0.076822  -0.001165  -0.000260
     4  C   -0.551181  -3.630724  -0.001028   0.070998   0.029756   0.002329
     5  N    0.203474   0.649502  -0.004215   0.001383  -0.026616  -0.002058
     6  O   -0.267948  -0.108720   0.004851  -0.001201  -0.092648   0.005940
     7  C    0.462703  -8.149833  -0.045367  -0.021604   0.303967  -0.019090
     8  C   -7.916359   2.562295   0.016606   0.009798   0.237386  -0.110434
     9  C    0.676492  -2.735790  -0.002761   0.002229  -0.873939   0.710299
    10  C   -3.613124   0.127560   0.002313   0.000662   0.384036  -0.812188
    11  C    3.560328  -0.508327  -0.001554  -0.000739  -0.081707   0.290865
    12  C   -6.195603   0.626370   0.000553  -0.003261   0.049812  -0.221449
    13  C   21.376416  -1.977175  -0.015687  -0.016712  -0.087002   0.075423
    14  C   -1.977175  18.472746   0.012787   0.004265  -0.084619   0.012011
    15  C   -0.015687   0.012787   4.637125   0.009154  -0.000785   0.000081
    16  O   -0.016712   0.004265   0.009154   9.466317  -0.000463   0.000012
    17  H   -0.087002  -0.084619  -0.000785  -0.000463   2.018476  -0.089402
    18  H    0.075423   0.012011   0.000081   0.000012  -0.089402   1.677730
    19  H   -0.080054   0.003504  -0.000048  -0.000017  -0.014258  -0.054134
    20  H    0.969324   0.043554   0.000125   0.000168   0.007391  -0.020881
    21  H   -1.168069   0.192657   0.002599  -0.002849  -0.017869   0.009986
    22  H   -0.020712  -1.614074  -0.022158  -0.009221   0.001870   0.000960
    23  H   -0.002944  -0.042909   0.335966   0.019469  -0.000145   0.000007
    24  H   -0.004613  -0.042316   0.377021   0.027592   0.000325  -0.000011
    25  H    0.002435   0.067438   0.306889   0.011524  -0.000057   0.000007
              19         20         21         22         23         24
     1  O   -0.000000   0.000006   0.000243   0.002524   0.021002   0.018642
     2  S    0.000022   0.000081  -0.010345  -0.014479  -0.040680  -0.083461
     3  N    0.000049  -0.000133  -0.000154  -0.127858   0.001437   0.005699
     4  C   -0.000735   0.001498   0.027397   0.326378   0.024395   0.013203
     5  N    0.000259   0.000303   0.005236  -0.102374  -0.006047  -0.004992
     6  O   -0.000404   0.001726   0.007456   0.045272   0.001008   0.001617
     7  C   -0.016236  -0.030416  -0.264198   0.764597   0.006856   0.012504
     8  C    0.068114  -0.163819   0.819221   0.043811   0.000970  -0.001854
     9  C   -0.115316   0.105179  -0.086180   0.026979   0.000382   0.004458
    10  C    0.406263  -0.266498   0.100237   0.017961   0.000275   0.001413
    11  C   -0.652220   0.315622  -0.134817  -0.032551  -0.000170  -0.000377
    12  C    0.333163  -1.022147   0.246071   0.067263  -0.000354  -0.004942
    13  C   -0.080054   0.969324  -1.168069  -0.020712  -0.002944  -0.004613
    14  C    0.003504   0.043554   0.192657  -1.614074  -0.042909  -0.042316
    15  C   -0.000048   0.000125   0.002599  -0.022158   0.335966   0.377021
    16  O   -0.000017   0.000168  -0.002849  -0.009221   0.019469   0.027592
    17  H   -0.014258   0.007391  -0.017869   0.001870  -0.000145   0.000325
    18  H   -0.054134  -0.020881   0.009986   0.000960   0.000007  -0.000011
    19  H    1.645250  -0.047357  -0.020466   0.000936  -0.000004   0.000016
    20  H   -0.047357   1.688236  -0.079048  -0.000917  -0.000002  -0.000143
    21  H   -0.020466  -0.079048   2.036659  -0.112412   0.000703   0.002149
    22  H    0.000936  -0.000917  -0.112412   2.510634  -0.003349  -0.025555
    23  H   -0.000004  -0.000002   0.000703  -0.003349   0.858750  -0.065279
    24  H    0.000016  -0.000143   0.002149  -0.025555  -0.065279   0.938787
    25  H   -0.000003   0.000040  -0.000114  -0.001692  -0.110419  -0.107375
              25
     1  O    0.018176
     2  S   -0.045643
     3  N   -0.001302
     4  C   -0.009846
     5  N    0.001125
     6  O    0.000177
     7  C   -0.032590
     8  C    0.004424
     9  C   -0.001469
    10  C    0.000033
    11  C    0.000021
    12  C    0.001249
    13  C    0.002435
    14  C    0.067438
    15  C    0.306889
    16  O    0.011524
    17  H   -0.000057
    18  H    0.000007
    19  H   -0.000003
    20  H    0.000040
    21  H   -0.000114
    22  H   -0.001692
    23  H   -0.110419
    24  H   -0.107375
    25  H    0.931515
 Mulliken charges:
               1
     1  O   -1.226533
     2  S    2.801431
     3  N   -1.248527
     4  C   -0.030778
     5  N   -0.411992
     6  O   -1.135395
     7  C    0.340477
     8  C    1.379226
     9  C    0.351452
    10  C    0.255268
    11  C    0.490267
    12  C    0.030429
    13  C    0.518089
    14  C    1.581933
    15  C    0.052610
    16  O   -1.299461
    17  H   -0.662770
    18  H   -0.455610
    19  H   -0.456326
    20  H   -0.501891
    21  H   -0.554094
    22  H   -0.721833
    23  H    0.001082
    24  H   -0.062509
    25  H   -0.034544
 Sum of Mulliken charges =  -1.00000
 Mulliken charges with hydrogens summed into heavy atoms:
               1
     1  O   -1.226533
     2  S    2.801431
     3  N   -1.248527
     4  C   -0.030778
     5  N   -0.411992
     6  O   -1.135395
     7  C    0.340477
     8  C    1.379226
     9  C   -0.311319
    10  C   -0.200342
    11  C    0.033941
    12  C   -0.471462
    13  C   -0.036005
    14  C    0.860100
    15  C   -0.043361
    16  O   -1.299461
 Electronic spatial extent (au):  <R**2>=           5334.1672
 Charge=             -1.0000 electrons
 Dipole moment (field-independent basis, Debye):
    X=             12.2163    Y=             -4.4057    Z=              3.9940  Tot=             13.5867
 Quadrupole moment (field-independent basis, Debye-Ang):
   XX=           -155.6204   YY=           -118.6427   ZZ=           -108.5782
   XY=              1.8580   XZ=            -14.1762   YZ=             -3.3405
 Traceless Quadrupole moment (field-independent basis, Debye-Ang):
   XX=            -28.0066   YY=              8.9711   ZZ=             19.0356
   XY=              1.8580   XZ=            -14.1762   YZ=             -3.3405
 Octapole moment (field-independent basis, Debye-Ang**2):
  XXX=            218.6592  YYY=            -36.4269  ZZZ=              1.3644  XYY=             25.1853
  XXY=              1.1151  XXZ=             53.5038  XZZ=            -26.6421  YZZ=              4.3683
  YYZ=              5.3449  XYZ=             13.6545
 Hexadecapole moment (field-independent basis, Debye-Ang**3):
 XXXX=          -7068.2595 YYYY=          -1015.1831 ZZZZ=           -303.8439 XXXY=             57.1673
 XXXZ=           -174.0200 YYYX=             23.7937 YYYZ=             -2.5141 ZZZX=             -5.5275
 ZZZY=              1.6156 XXYY=          -1174.2870 XXZZ=          -1151.2369 YYZZ=           -222.0699
 XXYZ=            -20.1358 YYXZ=            -21.7003 ZZXY=             12.3390
 N-N= 1.164507103714D+03 E-N=-4.972266080152D+03  KE= 1.113735237485D+03
 Leave Link  601 at Thu Sep 24 05:37:07 2020, MaxMem=   262144000 cpu:               0.7 elap:               0.3
 (Enter /prod/apps/gaussian/g16b1/l9999.exe)
 1\1\GINC-PIRINEUS7\SP\RMP2-FC\Aug-CC-pVDZ\C10H9N2O3S1(1-)\UBAFAR01\24-
 Sep-2020\0\\#p mp2/aug-cc-pVDZ scf=(MaxCycle=2000,NoVarAcc,NoIncFock) 
 maxdisk=120GB geom=allcheck\\SM41_m1.a.6.pdb.xyz\\-1,1\O,0,-4.66722940
 54,-0.0560053753,-0.4776740874\S,0,-3.2505476575,-0.3191307459,-0.1229
 64705\N,0,-2.4521218426,1.0563983633,-0.3459160433\C,0,-1.0815992587,1
 .0553537618,-0.2466358982\N,0,-0.4592641566,2.2379824503,-0.2411272969
 \O,0,0.9249871498,1.9398189757,-0.1593204121\C,0,1.0896155068,0.597225
 3103,-0.1086255002\C,0,2.4575872234,0.0921667903,-0.0196616963\C,0,3.5
 457109856,0.9781401667,0.0286086251\C,0,4.8472752221,0.4883787507,0.11
 26284363\C,0,5.0801082994,-0.8881820443,0.1492791121\C,0,4.0011428116,
 -1.7754719962,0.1017515891\C,0,2.6984359086,-1.2912208705,0.0181107384
 \C,0,-0.1255500968,-0.0166847839,-0.161171053\C,0,-3.2254793737,-0.681
 7179643,1.6456339321\O,0,-2.6411420841,-1.5095217414,-0.7836707336\H,0
 ,3.3614896393,2.0450962158,0.0000261355\H,0,5.6804765607,1.1822702642,
 0.1495935143\H,0,6.0943993387,-1.2675664691,0.2142485214\H,0,4.1749702
 489,-2.8459085902,0.1295249519\H,0,1.8637027991,-1.982860768,-0.018947
 1192\H,0,-0.3434369878,-1.0702837917,-0.1698641031\H,0,-3.6892205844,0
 .1478604023,2.1793714248\H,0,-2.1916743365,-0.8085854202,1.9697652783\
 H,0,-3.7856359099,-1.6025508903,1.814036389\\Version=ES64L-G16RevB.01\
 State=1-A\HF=-1114.9314829\MP2=-1117.3959129\RMSD=6.317e-09\PG=C01 [X(
 C10H9N2O3S1)]\\@


 MY GROUP MEETINGS AREN'T VERY STRUCTURED.
     -- PROF. M. S. GORDON, OCT. 5, 1984
 Job cpu time:       0 days  1 hours  1 minutes 11.5 seconds.
 Elapsed time:       0 days  0 hours 16 minutes 27.8 seconds.
 File lengths (MBytes):  RWF=  33578 Int=      0 D2E=      0 Chk=     17 Scr=      1
 Normal termination of Gaussian 16 at Thu Sep 24 05:37:08 2020.
