 Entering Gaussian System, Link 0=g16
 Initial command:
 /prod/apps/gaussian/g16b1/l1.exe "/tmp/ubafar01/1461134/Gau-225895.inp" -scrdir="/tmp/ubafar01/1461134/"
 Entering Link 1 = /prod/apps/gaussian/g16b1/l1.exe PID=    225896.
  
 Copyright (c) 1988-2017, Gaussian, Inc.  All Rights Reserved.
  
 This is part of the Gaussian(R) 16 program.  It is based on
 the Gaussian(R) 09 system (copyright 2009, Gaussian, Inc.),
 the Gaussian(R) 03 system (copyright 2003, Gaussian, Inc.),
 the Gaussian(R) 98 system (copyright 1998, Gaussian, Inc.),
 the Gaussian(R) 94 system (copyright 1995, Gaussian, Inc.),
 the Gaussian 92(TM) system (copyright 1992, Gaussian, Inc.),
 the Gaussian 90(TM) system (copyright 1990, Gaussian, Inc.),
 the Gaussian 88(TM) system (copyright 1988, Gaussian, Inc.),
 the Gaussian 86(TM) system (copyright 1986, Carnegie Mellon
 University), and the Gaussian 82(TM) system (copyright 1983,
 Carnegie Mellon University). Gaussian is a federally registered
 trademark of Gaussian, Inc.
  
 This software contains proprietary and confidential information,
 including trade secrets, belonging to Gaussian, Inc.
  
 This software is provided under written license and may be
 used, copied, transmitted, or stored only in accord with that
 written license.
  
 The following legend is applicable only to US Government
 contracts under FAR:
  
                    RESTRICTED RIGHTS LEGEND
  
 Use, reproduction and disclosure by the US Government is
 subject to restrictions as set forth in subparagraphs (a)
 and (c) of the Commercial Computer Software - Restricted
 Rights clause in FAR 52.227-19.
  
 Gaussian, Inc.
 340 Quinnipiac St., Bldg. 40, Wallingford CT 06492
  
  
 ---------------------------------------------------------------
 Warning -- This program may not be used in any manner that
 competes with the business of Gaussian, Inc. or will provide
 assistance to any competitor of Gaussian, Inc.  The licensee
 of this program is prohibited from giving any competitor of
 Gaussian, Inc. access to this program.  By using this program,
 the user acknowledges that Gaussian, Inc. is engaged in the
 business of creating and licensing software in the field of
 computational chemistry and represents and warrants to the
 licensee that it is not a competitor of Gaussian, Inc. and that
 it will not use this program in any manner prohibited above.
 ---------------------------------------------------------------
  

 Cite this work as:
 Gaussian 16, Revision B.01,
 M. J. Frisch, G. W. Trucks, H. B. Schlegel, G. E. Scuseria, 
 M. A. Robb, J. R. Cheeseman, G. Scalmani, V. Barone, 
 G. A. Petersson, H. Nakatsuji, X. Li, M. Caricato, A. V. Marenich, 
 J. Bloino, B. G. Janesko, R. Gomperts, B. Mennucci, H. P. Hratchian, 
 J. V. Ortiz, A. F. Izmaylov, J. L. Sonnenberg, D. Williams-Young, 
 F. Ding, F. Lipparini, F. Egidi, J. Goings, B. Peng, A. Petrone, 
 T. Henderson, D. Ranasinghe, V. G. Zakrzewski, J. Gao, N. Rega, 
 G. Zheng, W. Liang, M. Hada, M. Ehara, K. Toyota, R. Fukuda, 
 J. Hasegawa, M. Ishida, T. Nakajima, Y. Honda, O. Kitao, H. Nakai, 
 T. Vreven, K. Throssell, J. A. Montgomery, Jr., J. E. Peralta, 
 F. Ogliaro, M. J. Bearpark, J. J. Heyd, E. N. Brothers, K. N. Kudin, 
 V. N. Staroverov, T. A. Keith, R. Kobayashi, J. Normand, 
 K. Raghavachari, A. P. Rendell, J. C. Burant, S. S. Iyengar, 
 J. Tomasi, M. Cossi, J. M. Millam, M. Klene, C. Adamo, R. Cammi, 
 J. W. Ochterski, R. L. Martin, K. Morokuma, O. Farkas, 
 J. B. Foresman, and D. J. Fox, Gaussian, Inc., Wallingford CT, 2016.
 
 ******************************************
 Gaussian 16:  ES64L-G16RevB.01 20-Dec-2017
                24-Sep-2020 
 ******************************************
 %nproc=4
 Will use up to    4 processors via shared memory.
 %Chk=SM41_m1.a.8.pdb.xyz.mst.a.w.chk
 %mem=16GB
 ----------------------------------------------------------------------
 #p b3lyp/6-31G(d) opt freq NoSymm scf=(MaxCycle=2000,NoVarAcc,NoIncFoc
 k) scrf=(iefpcm,read,solvent=water)
 ----------------------------------------------------------------------
 1/18=20,19=15,26=3,38=1,40=2/1,3;
 2/9=110,12=2,15=1,17=6,18=5,40=1/2;
 3/5=1,6=6,7=1,11=2,25=1,30=1,70=2203,71=1,72=1,74=-5/1,2,3;
 4//1;
 5/5=100002,7=2000,38=1,53=1/2;
 6/7=2,8=2,9=2,10=2,28=1/1;
 7/30=1/1,2,3,16;
 1/18=20,19=15,26=3/3(2);
 2/9=110,15=1/2;
 99//99;
 2/9=110,15=1/2;
 3/5=1,6=6,7=1,11=2,25=1,30=1,70=2205,71=1,72=1,74=-5/1,2,3;
 4/5=5,16=3,69=1/1;
 5/5=100002,7=2000,38=1,53=1/2;
 7/30=1/1,2,3,16;
 1/18=20,19=15,26=3/3(-5);
 2/9=110,15=1/2;
 6/7=2,8=2,9=2,10=2,19=2,28=1/1;
 99/9=1/99;
 Leave Link    1 at Thu Sep 24 04:40:28 2020, MaxMem=  2147483648 cpu:               0.1 elap:               0.0
 (Enter /prod/apps/gaussian/g16b1/l101.exe)
 -------------------
 SM41_m1.a.8.pdb.xyz
 -------------------
 Symbolic Z-matrix:
 Charge = -1 Multiplicity = 1
 O                     2.719    -1.463    -1.096 
 S                     3.309    -0.413    -0.215 
 N                     2.507     0.98     -0.196 
 C                     1.136     0.973    -0.097 
 N                     0.527     2.151     0.077 
 O                    -0.86      1.861     0.124 
 C                    -1.043     0.526    -0.012 
 C                    -2.42      0.03      0.014 
 C                    -3.502     0.914     0.171 
 C                    -4.81      0.431     0.194 
 C                    -5.058    -0.937     0.06 
 C                    -3.988    -1.823    -0.097 
 C                    -2.679    -1.346    -0.12 
 C                     0.165    -0.09     -0.157 
 C                     3.257    -1.096     1.459 
 O                     4.73     -0.084    -0.49 
 H                    -3.314     1.978     0.276 
 H                    -5.636     1.126     0.317 
 H                    -6.078    -1.311     0.078 
 H                    -4.172    -2.889    -0.202 
 H                    -1.855    -2.042    -0.242 
 H                     0.363    -1.137    -0.312 
 H                     2.218    -1.282     1.74 
 H                     3.71     -0.378     2.145 
 H                     3.819    -2.033     1.465 
 
 ITRead=  0  0  0  0  0  0  0  0  0  0  0  0  0  0  0  0  0  0  0  0
 ITRead=  0  0  0  0  0
 MicOpt= -1 -1 -1 -1 -1 -1 -1 -1 -1 -1 -1 -1 -1 -1 -1 -1 -1 -1 -1 -1
 MicOpt= -1 -1 -1 -1 -1
 NAtoms=     25 NQM=       25 NQMF=       0 NMMI=      0 NMMIF=      0
                NMic=       0 NMicF=      0.
                    Isotopes and Nuclear Properties:
 (Nuclear quadrupole moments (NQMom) in fm**2, nuclear magnetic moments (NMagM)
  in nuclear magnetons)

  Atom         1           2           3           4           5           6           7           8           9          10
 IAtWgt=          16          32          14          12          14          16          12          12          12          12
 AtmWgt=  15.9949146  31.9720718  14.0030740  12.0000000  14.0030740  15.9949146  12.0000000  12.0000000  12.0000000  12.0000000
 NucSpn=           0           0           2           0           2           0           0           0           0           0
 AtZEff=  -0.0000000  -0.0000000  -0.0000000  -0.0000000  -0.0000000  -0.0000000  -0.0000000  -0.0000000  -0.0000000  -0.0000000
 NQMom=    0.0000000   0.0000000   2.0440000   0.0000000   2.0440000   0.0000000   0.0000000   0.0000000   0.0000000   0.0000000
 NMagM=    0.0000000   0.0000000   0.4037610   0.0000000   0.4037610   0.0000000   0.0000000   0.0000000   0.0000000   0.0000000
 AtZNuc=   8.0000000  16.0000000   7.0000000   6.0000000   7.0000000   8.0000000   6.0000000   6.0000000   6.0000000   6.0000000

  Atom        11          12          13          14          15          16          17          18          19          20
 IAtWgt=          12          12          12          12          12          16           1           1           1           1
 AtmWgt=  12.0000000  12.0000000  12.0000000  12.0000000  12.0000000  15.9949146   1.0078250   1.0078250   1.0078250   1.0078250
 NucSpn=           0           0           0           0           0           0           1           1           1           1
 AtZEff=  -0.0000000  -0.0000000  -0.0000000  -0.0000000  -0.0000000  -0.0000000  -0.0000000  -0.0000000  -0.0000000  -0.0000000
 NQMom=    0.0000000   0.0000000   0.0000000   0.0000000   0.0000000   0.0000000   0.0000000   0.0000000   0.0000000   0.0000000
 NMagM=    0.0000000   0.0000000   0.0000000   0.0000000   0.0000000   0.0000000   2.7928460   2.7928460   2.7928460   2.7928460
 AtZNuc=   6.0000000   6.0000000   6.0000000   6.0000000   6.0000000   8.0000000   1.0000000   1.0000000   1.0000000   1.0000000

  Atom        21          22          23          24          25
 IAtWgt=           1           1           1           1           1
 AtmWgt=   1.0078250   1.0078250   1.0078250   1.0078250   1.0078250
 NucSpn=           1           1           1           1           1
 AtZEff=  -0.0000000  -0.0000000  -0.0000000  -0.0000000  -0.0000000
 NQMom=    0.0000000   0.0000000   0.0000000   0.0000000   0.0000000
 NMagM=    2.7928460   2.7928460   2.7928460   2.7928460   2.7928460
 AtZNuc=   1.0000000   1.0000000   1.0000000   1.0000000   1.0000000
 Leave Link  101 at Thu Sep 24 04:40:28 2020, MaxMem=  2147483648 cpu:               1.2 elap:               0.3
 (Enter /prod/apps/gaussian/g16b1/l103.exe)

 GradGradGradGradGradGradGradGradGradGradGradGradGradGradGradGradGradGrad
 Berny optimization.
 Initialization pass.
                           ----------------------------
                           !    Initial Parameters    !
                           ! (Angstroms and Degrees)  !
 --------------------------                            --------------------------
 ! Name  Definition              Value          Derivative Info.                !
 --------------------------------------------------------------------------------
 ! R1    R(1,2)                  1.4922         estimate D2E/DX2                !
 ! R2    R(2,3)                  1.6075         estimate D2E/DX2                !
 ! R3    R(2,15)                 1.8087         estimate D2E/DX2                !
 ! R4    R(2,16)                 1.4843         estimate D2E/DX2                !
 ! R5    R(3,4)                  1.3746         estimate D2E/DX2                !
 ! R6    R(4,5)                  1.3375         estimate D2E/DX2                !
 ! R7    R(4,14)                 1.441          estimate D2E/DX2                !
 ! R8    R(5,6)                  1.4178         estimate D2E/DX2                !
 ! R9    R(6,7)                  1.3543         estimate D2E/DX2                !
 ! R10   R(7,8)                  1.4638         estimate D2E/DX2                !
 ! R11   R(7,14)                 1.3637         estimate D2E/DX2                !
 ! R12   R(8,9)                  1.406          estimate D2E/DX2                !
 ! R13   R(8,13)                 1.4066         estimate D2E/DX2                !
 ! R14   R(9,10)                 1.3945         estimate D2E/DX2                !
 ! R15   R(9,17)                 1.0856         estimate D2E/DX2                !
 ! R16   R(10,11)                1.3967         estimate D2E/DX2                !
 ! R17   R(10,18)                1.0865         estimate D2E/DX2                !
 ! R18   R(11,12)                1.3981         estimate D2E/DX2                !
 ! R19   R(11,19)                1.0866         estimate D2E/DX2                !
 ! R20   R(12,13)                1.3934         estimate D2E/DX2                !
 ! R21   R(12,20)                1.0868         estimate D2E/DX2                !
 ! R22   R(13,21)                1.0855         estimate D2E/DX2                !
 ! R23   R(14,22)                1.0768         estimate D2E/DX2                !
 ! R24   R(15,23)                1.0923         estimate D2E/DX2                !
 ! R25   R(15,24)                1.0915         estimate D2E/DX2                !
 ! R26   R(15,25)                1.0926         estimate D2E/DX2                !
 ! A1    A(1,2,3)              114.8013         estimate D2E/DX2                !
 ! A2    A(1,2,15)             105.6251         estimate D2E/DX2                !
 ! A3    A(1,2,16)             115.1573         estimate D2E/DX2                !
 ! A4    A(3,2,15)             107.5746         estimate D2E/DX2                !
 ! A5    A(3,2,16)             106.7235         estimate D2E/DX2                !
 ! A6    A(15,2,16)            106.4213         estimate D2E/DX2                !
 ! A7    A(2,3,4)              119.6072         estimate D2E/DX2                !
 ! A8    A(3,4,5)              117.3246         estimate D2E/DX2                !
 ! A9    A(3,4,14)             132.2873         estimate D2E/DX2                !
 ! A10   A(5,4,14)             110.3849         estimate D2E/DX2                !
 ! A11   A(4,5,6)              105.641          estimate D2E/DX2                !
 ! A12   A(5,6,7)              109.2984         estimate D2E/DX2                !
 ! A13   A(6,7,8)              117.3434         estimate D2E/DX2                !
 ! A14   A(6,7,14)             109.6481         estimate D2E/DX2                !
 ! A15   A(8,7,14)             133.0077         estimate D2E/DX2                !
 ! A16   A(7,8,9)              120.8541         estimate D2E/DX2                !
 ! A17   A(7,8,13)             120.1983         estimate D2E/DX2                !
 ! A18   A(9,8,13)             118.9475         estimate D2E/DX2                !
 ! A19   A(8,9,10)             120.3905         estimate D2E/DX2                !
 ! A20   A(8,9,17)             119.5886         estimate D2E/DX2                !
 ! A21   A(10,9,17)            120.0208         estimate D2E/DX2                !
 ! A22   A(9,10,11)            120.2774         estimate D2E/DX2                !
 ! A23   A(9,10,18)            119.5641         estimate D2E/DX2                !
 ! A24   A(11,10,18)           120.1584         estimate D2E/DX2                !
 ! A25   A(10,11,12)           119.708          estimate D2E/DX2                !
 ! A26   A(10,11,19)           120.1467         estimate D2E/DX2                !
 ! A27   A(12,11,19)           120.1453         estimate D2E/DX2                !
 ! A28   A(11,12,13)           120.2586         estimate D2E/DX2                !
 ! A29   A(11,12,20)           120.1895         estimate D2E/DX2                !
 ! A30   A(13,12,20)           119.552          estimate D2E/DX2                !
 ! A31   A(8,13,12)            120.418          estimate D2E/DX2                !
 ! A32   A(8,13,21)            119.88           estimate D2E/DX2                !
 ! A33   A(12,13,21)           119.702          estimate D2E/DX2                !
 ! A34   A(4,14,7)             105.0259         estimate D2E/DX2                !
 ! A35   A(4,14,22)            126.8257         estimate D2E/DX2                !
 ! A36   A(7,14,22)            128.1269         estimate D2E/DX2                !
 ! A37   A(2,15,23)            109.2535         estimate D2E/DX2                !
 ! A38   A(2,15,24)            108.7449         estimate D2E/DX2                !
 ! A39   A(2,15,25)            108.3079         estimate D2E/DX2                !
 ! A40   A(23,15,24)           110.1889         estimate D2E/DX2                !
 ! A41   A(23,15,25)           109.9878         estimate D2E/DX2                !
 ! A42   A(24,15,25)           110.316          estimate D2E/DX2                !
 ! D1    D(1,2,3,4)             44.5285         estimate D2E/DX2                !
 ! D2    D(15,2,3,4)           -72.7034         estimate D2E/DX2                !
 ! D3    D(16,2,3,4)           173.4179         estimate D2E/DX2                !
 ! D4    D(1,2,15,23)          -61.5701         estimate D2E/DX2                !
 ! D5    D(1,2,15,24)          178.1271         estimate D2E/DX2                !
 ! D6    D(1,2,15,25)           58.2279         estimate D2E/DX2                !
 ! D7    D(3,2,15,23)           61.4872         estimate D2E/DX2                !
 ! D8    D(3,2,15,24)          -58.8156         estimate D2E/DX2                !
 ! D9    D(3,2,15,25)         -178.7148         estimate D2E/DX2                !
 ! D10   D(16,2,15,23)         175.568          estimate D2E/DX2                !
 ! D11   D(16,2,15,24)          55.2652         estimate D2E/DX2                !
 ! D12   D(16,2,15,25)         -64.634          estimate D2E/DX2                !
 ! D13   D(2,3,4,5)            172.1429         estimate D2E/DX2                !
 ! D14   D(2,3,4,14)            -8.584          estimate D2E/DX2                !
 ! D15   D(3,4,5,6)            179.0842         estimate D2E/DX2                !
 ! D16   D(14,4,5,6)            -0.3422         estimate D2E/DX2                !
 ! D17   D(3,4,14,7)          -179.1928         estimate D2E/DX2                !
 ! D18   D(3,4,14,22)           -0.7779         estimate D2E/DX2                !
 ! D19   D(5,4,14,7)             0.1183         estimate D2E/DX2                !
 ! D20   D(5,4,14,22)          178.5333         estimate D2E/DX2                !
 ! D21   D(4,5,6,7)              0.4512         estimate D2E/DX2                !
 ! D22   D(5,6,7,8)            179.9056         estimate D2E/DX2                !
 ! D23   D(5,6,7,14)            -0.3904         estimate D2E/DX2                !
 ! D24   D(6,7,8,9)              0.16           estimate D2E/DX2                !
 ! D25   D(6,7,8,13)          -179.9036         estimate D2E/DX2                !
 ! D26   D(14,7,8,9)          -179.4588         estimate D2E/DX2                !
 ! D27   D(14,7,8,13)            0.4777         estimate D2E/DX2                !
 ! D28   D(6,7,14,4)             0.1727         estimate D2E/DX2                !
 ! D29   D(6,7,14,22)         -178.2145         estimate D2E/DX2                !
 ! D30   D(8,7,14,4)           179.8131         estimate D2E/DX2                !
 ! D31   D(8,7,14,22)            1.426          estimate D2E/DX2                !
 ! D32   D(7,8,9,10)           179.9798         estimate D2E/DX2                !
 ! D33   D(7,8,9,17)            -0.1042         estimate D2E/DX2                !
 ! D34   D(13,8,9,10)            0.0426         estimate D2E/DX2                !
 ! D35   D(13,8,9,17)          179.9586         estimate D2E/DX2                !
 ! D36   D(7,8,13,12)         -179.9469         estimate D2E/DX2                !
 ! D37   D(7,8,13,21)            0.064          estimate D2E/DX2                !
 ! D38   D(9,8,13,12)           -0.0093         estimate D2E/DX2                !
 ! D39   D(9,8,13,21)         -179.9984         estimate D2E/DX2                !
 ! D40   D(8,9,10,11)           -0.0543         estimate D2E/DX2                !
 ! D41   D(8,9,10,18)          179.941          estimate D2E/DX2                !
 ! D42   D(17,9,10,11)        -179.97           estimate D2E/DX2                !
 ! D43   D(17,9,10,18)           0.0254         estimate D2E/DX2                !
 ! D44   D(9,10,11,12)           0.0321         estimate D2E/DX2                !
 ! D45   D(9,10,11,19)        -179.9865         estimate D2E/DX2                !
 ! D46   D(18,10,11,12)       -179.9633         estimate D2E/DX2                !
 ! D47   D(18,10,11,19)          0.0181         estimate D2E/DX2                !
 ! D48   D(10,11,12,13)          0.0013         estimate D2E/DX2                !
 ! D49   D(10,11,12,20)       -179.9967         estimate D2E/DX2                !
 ! D50   D(19,11,12,13)       -179.9801         estimate D2E/DX2                !
 ! D51   D(19,11,12,20)          0.0218         estimate D2E/DX2                !
 ! D52   D(11,12,13,8)          -0.0125         estimate D2E/DX2                !
 ! D53   D(11,12,13,21)        179.9766         estimate D2E/DX2                !
 ! D54   D(20,12,13,8)         179.9855         estimate D2E/DX2                !
 ! D55   D(20,12,13,21)         -0.0254         estimate D2E/DX2                !
 --------------------------------------------------------------------------------
 Trust Radius=3.00D-01 FncErr=1.00D-07 GrdErr=1.00D-06 EigMax=2.50D+02 EigMin=1.00D-04
 Number of steps in this run=    133 maximum allowed number of steps=    150.
 GradGradGradGradGradGradGradGradGradGradGradGradGradGradGradGradGradGrad

 Leave Link  103 at Thu Sep 24 04:40:28 2020, MaxMem=  2147483648 cpu:               0.1 elap:               0.0
 (Enter /prod/apps/gaussian/g16b1/l202.exe)
                          Input orientation:                          
 ---------------------------------------------------------------------
 Center     Atomic      Atomic             Coordinates (Angstroms)
 Number     Number       Type             X           Y           Z
 ---------------------------------------------------------------------
      1          8           0        2.719000   -1.463000   -1.096000
      2         16           0        3.309000   -0.413000   -0.215000
      3          7           0        2.507000    0.980000   -0.196000
      4          6           0        1.136000    0.973000   -0.097000
      5          7           0        0.527000    2.151000    0.077000
      6          8           0       -0.860000    1.861000    0.124000
      7          6           0       -1.043000    0.526000   -0.012000
      8          6           0       -2.420000    0.030000    0.014000
      9          6           0       -3.502000    0.914000    0.171000
     10          6           0       -4.810000    0.431000    0.194000
     11          6           0       -5.058000   -0.937000    0.060000
     12          6           0       -3.988000   -1.823000   -0.097000
     13          6           0       -2.679000   -1.346000   -0.120000
     14          6           0        0.165000   -0.090000   -0.157000
     15          6           0        3.257000   -1.096000    1.459000
     16          8           0        4.730000   -0.084000   -0.490000
     17          1           0       -3.314000    1.978000    0.276000
     18          1           0       -5.636000    1.126000    0.317000
     19          1           0       -6.078000   -1.311000    0.078000
     20          1           0       -4.172000   -2.889000   -0.202000
     21          1           0       -1.855000   -2.042000   -0.242000
     22          1           0        0.363000   -1.137000   -0.312000
     23          1           0        2.218000   -1.282000    1.740000
     24          1           0        3.710000   -0.378000    2.145000
     25          1           0        3.819000   -2.033000    1.465000
 ---------------------------------------------------------------------
                    Distance matrix (angstroms):
                    1          2          3          4          5
     1  O    0.000000
     2  S    1.492234   0.000000
     3  N    2.612124   1.607487   0.000000
     4  C    3.072131   2.580087   1.374588   0.000000
     5  N    4.386546   3.794586   2.316500   1.337476   0.000000
     6  O    5.034542   4.760941   3.495032   2.195769   1.417772
     7  C    4.391335   4.456774   3.583639   2.226000   2.261293
     8  C    5.465388   5.750664   5.022144   3.680585   3.631449
     9  C    6.779105   6.949795   6.020559   4.646111   4.215667
    10  C    7.870018   8.172991   7.347924   5.977739   5.608534
    11  C    7.880022   8.387901   7.808306   6.483701   6.381869
    12  C    6.790541   7.432916   7.074718   5.837208   6.017323
    13  C    5.486772   6.060995   5.684246   4.464585   4.748290
    14  C    3.047912   3.161080   2.575148   1.440975   2.282078
    15  C    2.636695   1.808720   2.758859   3.346720   4.461595
    16  O    2.512568   1.484287   2.481987   3.766767   4.793946
    17  H    7.079545   7.058477   5.924764   4.577298   3.850040
    18  H    8.860334   9.092006   8.160449   6.786368   6.252263
    19  H    8.876294   9.434406   8.889656   7.568955   7.457310
    20  H    7.093560   7.880108   7.718694   6.565130   6.896379
    21  H    4.688927   5.414911   5.306755   4.249392   4.832901
    22  H    2.504330   3.035210   3.015275   2.257400   3.314990
    23  H    2.885595   2.401555   2.991364   3.103275   4.172594
    24  H    3.558565   2.394081   2.961698   3.671136   4.561135
    25  H    2.844929   2.388912   3.682178   4.321385   5.501787
                    6          7          8          9         10
     6  O    0.000000
     7  C    1.354330   0.000000
     8  C    2.407958   1.463838   0.000000
     9  C    2.806988   2.496140   1.405998   0.000000
    10  C    4.201464   3.773824   2.430083   1.394519   0.000000
    11  C    5.045404   4.273848   2.810027   2.420673   1.396740
    12  C    4.837880   3.768030   2.429929   2.792703   2.416791
    13  C    3.695016   2.488482   1.406561   2.422728   2.792398
    14  C    2.221708   1.363725   2.593427   3.816083   5.014506
    15  C    5.241733   4.825425   5.965252   7.168202   8.307132
    16  O    5.950472   5.824784   7.168648   8.318579   9.578344
    17  H    2.461485   2.710847   2.159302   1.085571   2.153590
    18  H    4.836078   4.643694   3.411111   2.149469   1.086476
    19  H    6.106654   5.360401   3.896581   3.405151   2.157740
    20  H    5.799838   4.635619   3.411264   3.879541   3.403860
    21  H    4.044427   2.703122   2.162856   3.408976   3.877867
    22  H    3.267083   2.198273   3.035334   4.402058   5.429050
    23  H    4.686575   4.119768   5.119713   6.324759   7.397112
    24  H    5.475624   5.297252   6.502655   7.588075   8.777886
    25  H    6.233342   5.689381   6.729524   7.997267   9.063464
                   11         12         13         14         15
    11  C    0.000000
    12  C    1.398050   0.000000
    13  C    2.420604   1.393391   0.000000
    14  C    5.295680   4.500478   3.109219   0.000000
    15  C    8.433369   7.445783   6.147507   3.630972   0.000000
    16  O    9.840480   8.898432   7.524814   4.577133   2.644329
    17  H    3.403736   3.878274   3.407201   4.070326   7.350307
    18  H    2.157800   3.403513   3.878866   5.946001   9.237256
    19  H    1.086554   2.158905   3.404942   6.365620   9.439047
    20  H    2.159617   1.086847   2.148633   5.161976   7.820730
    21  H    3.401682   2.149110   1.085484   2.810325   5.469996
    22  H    5.437428   4.409991   3.055210   1.076772   3.393134
    23  H    7.475400   6.494743   5.238731   3.038796   1.092281
    24  H    9.029813   8.147011   6.847377   4.236646   1.091480
    25  H    9.054080   7.964496   6.723704   4.444980   1.092634
                   16         17         18         19         20
    16  O    0.000000
    17  H    8.339337   0.000000
    18  H   10.467536   2.473716   0.000000
    19  H   10.892246   4.300747   2.488263   0.000000
    20  H    9.337911   4.965112   4.304983   2.490245   0.000000
    21  H    6.874409   4.307831   4.964339   4.297731   2.467286
    22  H    4.495685   4.854822   6.442423   6.455142   4.862903
    23  H    3.566265   6.585888   8.337188   8.460892   6.869200
    24  H    2.840785   7.640712   9.641126  10.047284   8.598805
    25  H    2.906982   8.269313  10.034650  10.019764   8.207783
                   21         22         23         24         25
    21  H    0.000000
    22  H    2.396549   0.000000
    23  H    4.592957   2.769974   0.000000
    24  H    6.279800   4.220822   1.790895   0.000000
    25  H    5.925218   3.988042   1.789644   1.792570   0.000000
 Symmetry turned off by external request.
 Stoichiometry    C10H9N2O3S(1-)
 Framework group  C1[X(C10H9N2O3S)]
 Deg. of freedom    69
 Full point group                 C1      NOp   1
 Rotational constants (GHZ):           1.3487279           0.2140874           0.1932383
 Leave Link  202 at Thu Sep 24 04:40:28 2020, MaxMem=  2147483648 cpu:               0.0 elap:               0.0
 (Enter /prod/apps/gaussian/g16b1/l301.exe)
 Standard basis: 6-31G(d) (6D, 7F)
 Ernie: Thresh=  0.10000D-02 Tol=  0.10000D-05 Strict=F.
   262 basis functions,   508 primitive gaussians,   262 cartesian basis functions
    62 alpha electrons       62 beta electrons
       nuclear repulsion energy      1162.2336013377 Hartrees.
 IExCor=  402 DFT=T Ex+Corr=B3LYP ExCW=0 ScaHFX=  0.200000
 ScaDFX=  0.800000  0.720000  1.000000  0.810000 ScalE2=  1.000000  1.000000
 IRadAn=      5 IRanWt=     -1 IRanGd=            0 ICorTp=0 IEmpDi=  4
 NAtoms=   25 NActive=   25 NUniq=   25 SFac= 1.00D+00 NAtFMM=   60 NAOKFM=F Big=F
 Integral buffers will be    131072 words long.
 Raffenetti 2 integral format.
 Two-electron integral symmetry is turned off.
 Using the following non-standard input for PCM:
 MSTModel=DFT cav MSTcharged
 --- end of non-standard input.
 MST model for solvation energy: B3LYP parametrization.
 MST cavity parameters:
 ISph   IAn     Re0     Alpha   Atom Type   QCorr
 ------------------------------------------------
   1      8     1.40     1.25      O          F
   2     16     1.75     1.25      S          F
   3      7     1.40     1.15      N          T
   4      6     1.50     1.25      C          F
   5      7     1.40     1.25      N          F
   6      8     1.40     1.25      O          F
   7      6     1.50     1.25      C          F
   8      6     1.50     1.25      C          F
   9      6     1.50     1.25      CH         F
  10      6     1.50     1.25      CH         F
  11      6     1.50     1.25      CH         F
  12      6     1.50     1.25      CH         F
  13      6     1.50     1.25      CH         F
  14      6     1.50     1.25      CH         F
  15      6     1.50     1.25      CH3        F
  16      8     1.40     1.25      O          F
  17      1     1.20     1.25      CH         F
  18      1     1.20     1.25      CH         F
  19      1     1.20     1.25      CH         F
  20      1     1.20     1.25      CH         F
  21      1     1.20     1.25      CH         F
  22      1     1.20     1.25      CH         F
  23      1     1.20     1.25      CH3        F
  24      1     1.20     1.25      CH3        F
  25      1     1.20     1.25      CH3        F
 ------------------------------------------------------------------------------
 Polarizable Continuum Model (PCM)
 =================================
 Model                : PCM.
 Atomic radii         : MST.
 Polarization charges : Total charges.
 Charge compensation  : None.
 Solution method      : On-the-fly selection.
 Cavity type          : Scaled VdW (van der Waals Surface) (Alpha=1.250).
 Cavity algorithm     : GePol (No added spheres)
                        Default sphere list used, NSphG=   25.
                        Lebedev-Laikov grids with approx.  5.0 points / Ang**2.
                        Smoothing algorithm: York/Karplus (Gamma=1.0000).
                        Polarization charges: spherical gaussians, with
                                              point-specific exponents (IZeta= 3).
                        Self-potential: point-specific (ISelfS= 7).
                        Self-field    : sphere-specific E.n sum rule (ISelfD= 2).
 1st derivatives      : Analytical E(r).r(x)/FMM algorithm (CHGder, D1EAlg=3).
                        Cavity 1st derivative terms included.
 Solvent              : Water, Eps=  78.355300 Eps(inf)=   1.777849
 ------------------------------------------------------------------------------
 GePol: Number of generator spheres                  =      25
 GePol: Total number of spheres                      =      25
 GePol: Number of exposed spheres                    =      25 (100.00%)
 GePol: Number of points                             =    2050
 GePol: Average weight of points                     =       0.13
 GePol: Minimum weight of points                     =   0.11D-10
 GePol: Maximum weight of points                     =    0.22001
 GePol: Number of points with low weight             =     139
 GePol: Fraction of low-weight points (<1% of avg)   =       6.78%
 GePol: Cavity surface area                          =    268.113 Ang**2
 GePol: Cavity volume                                =    251.174 Ang**3
 PCM non-electrostatic energy =         0.0036579390 Hartrees.
 Nuclear repulsion after PCM non-electrostatic terms =     1162.2372592767 Hartrees.
 Leave Link  301 at Thu Sep 24 04:40:28 2020, MaxMem=  2147483648 cpu:               0.3 elap:               0.1
 (Enter /prod/apps/gaussian/g16b1/l302.exe)
 NPDir=0 NMtPBC=     1 NCelOv=     1 NCel=       1 NClECP=     1 NCelD=      1
         NCelK=      1 NCelE2=     1 NClLst=     1 CellRange=     0.0.
 One-electron integrals computed using PRISM.
 NBasis=   262 RedAO= T EigKep=  4.59D-04  NBF=   262
 NBsUse=   262 1.00D-06 EigRej= -1.00D+00 NBFU=   262
 Precomputing XC quadrature grid using
 IXCGrd= 4 IRadAn=           5 IRanWt=          -1 IRanGd=           0 AccXCQ= 0.00D+00.
 Generated NRdTot=       0 NPtTot=           0 NUsed=           0 NTot=          32
 NSgBfM=   261   261   261   261   261 MxSgAt=    25 MxSgA2=    25.
 Leave Link  302 at Thu Sep 24 04:40:29 2020, MaxMem=  2147483648 cpu:               1.1 elap:               0.3
 (Enter /prod/apps/gaussian/g16b1/l303.exe)
 DipDrv:  MaxL=1.
 Leave Link  303 at Thu Sep 24 04:40:29 2020, MaxMem=  2147483648 cpu:               0.1 elap:               0.0
 (Enter /prod/apps/gaussian/g16b1/l401.exe)
 ExpMin= 1.17D-01 ExpMax= 2.19D+04 ExpMxC= 3.30D+03 IAcc=3 IRadAn=         5 AccDes= 0.00D+00
 Harris functional with IExCor=  402 and IRadAn=       5 diagonalized for initial guess.
 HarFok:  IExCor=  402 AccDes= 0.00D+00 IRadAn=         5 IDoV= 1 UseB2=F ITyADJ=14
 ICtDFT=  3500011 ScaDFX=  1.000000  1.000000  1.000000  1.000000
 FoFCou: FMM=F IPFlag=           0 FMFlag=      100000 FMFlg1=           0
         NFxFlg=           0 DoJE=T BraDBF=F KetDBF=T FulRan=T
         wScrn=  0.000000 ICntrl=       500 IOpCl=  0 I1Cent=   200000004 NGrid=           0
         NMat0=    1 NMatS0=      1 NMatT0=    0 NMatD0=    1 NMtDS0=    0 NMtDT0=    0
 Symmetry not used in FoFCou.
 Harris En= -1119.96178944564    
 JPrj=0 DoOrth=F DoCkMO=F.
 Leave Link  401 at Thu Sep 24 04:40:30 2020, MaxMem=  2147483648 cpu:               5.5 elap:               1.4
 (Enter /prod/apps/gaussian/g16b1/l502.exe)
 Keep R1 ints in memory in canonical form, NReq=602618509.
 FoFCou: FMM=F IPFlag=           0 FMFlag=           0 FMFlg1=           0
         NFxFlg=           0 DoJE=F BraDBF=F KetDBF=F FulRan=T
         wScrn=  0.000000 ICntrl=       600 IOpCl=  0 I1Cent=           0 NGrid=           0
         NMat0=    1 NMatS0=  34453 NMatT0=    0 NMatD0=    1 NMtDS0=    0 NMtDT0=    0
 Symmetry not used in FoFCou.
 Two-electron integral symmetry not used.
 Closed shell SCF:
 Using DIIS extrapolation, IDIIS=  1040.
 NGot=  2147483648 LenX=  1553820706 LenY=  1553751621
 Requested convergence on RMS density matrix=1.00D-08 within2000 cycles.
 Requested convergence on MAX density matrix=1.00D-06.
 Requested convergence on             energy=1.00D-06.
 No special actions if energy rises.

 Cycle   1  Pass 1  IDiag  1:
 Inv3:  Mode=1 IEnd=    12607500.
 Iteration    1 A*A^-1 deviation from unit magnitude is 3.11D-15 for    190.
 Iteration    1 A*A^-1 deviation from orthogonality  is 4.36D-15 for   1337    773.
 Iteration    1 A^-1*A deviation from unit magnitude is 3.44D-15 for   1664.
 Iteration    1 A^-1*A deviation from orthogonality  is 1.75D-15 for   1449    328.
 E= -1119.38381458750    
 DIIS: error= 3.99D-02 at cycle   1 NSaved=   1.
 NSaved= 1 IEnMin= 1 EnMin= -1119.38381458750     IErMin= 1 ErrMin= 3.99D-02
 ErrMax= 3.99D-02  0.00D+00 EMaxC= 1.00D-01 BMatC= 5.90D-01 BMatP= 5.90D-01
 IDIUse=3 WtCom= 6.01D-01 WtEn= 3.99D-01
 Coeff-Com:  0.100D+01
 Coeff-En:   0.100D+01
 Coeff:      0.100D+01
 Gap=     0.197 Goal=   None    Shift=    0.000
 GapD=    0.197 DampG=1.000 DampE=0.500 DampFc=0.5000 IDamp=-1.
 Damping current iteration by 5.00D-01
 RMSDP=6.83D-03 MaxDP=5.03D-01              OVMax= 2.21D-01

 Cycle   2  Pass 1  IDiag  1:
 E= -1119.56124505343     Delta-E=       -0.177430465928 Rises=F Damp=T
 DIIS: error= 9.54D-03 at cycle   2 NSaved=   2.
 NSaved= 2 IEnMin= 2 EnMin= -1119.56124505343     IErMin= 2 ErrMin= 9.54D-03
 ErrMax= 9.54D-03  0.00D+00 EMaxC= 1.00D-01 BMatC= 5.70D-02 BMatP= 5.90D-01
 IDIUse=3 WtCom= 9.05D-01 WtEn= 9.54D-02
 Coeff-Com:  0.166D+00 0.834D+00
 Coeff-En:   0.268D+00 0.732D+00
 Coeff:      0.176D+00 0.824D+00
 Gap=     0.223 Goal=   None    Shift=    0.000
 RMSDP=1.76D-03 MaxDP=1.14D-01 DE=-1.77D-01 OVMax= 1.63D-01

 Cycle   3  Pass 1  IDiag  1:
 E= -1119.86134739904     Delta-E=       -0.300102345616 Rises=F Damp=F
 DIIS: error= 9.35D-03 at cycle   3 NSaved=   3.
 NSaved= 3 IEnMin= 3 EnMin= -1119.86134739904     IErMin= 3 ErrMin= 9.35D-03
 ErrMax= 9.35D-03  0.00D+00 EMaxC= 1.00D-01 BMatC= 3.13D-02 BMatP= 5.70D-02
 IDIUse=3 WtCom= 9.06D-01 WtEn= 9.35D-02
 Coeff-Com:  0.374D-01 0.424D+00 0.538D+00
 Coeff-En:   0.000D+00 0.000D+00 0.100D+01
 Coeff:      0.339D-01 0.385D+00 0.581D+00
 Gap=     0.167 Goal=   None    Shift=    0.000
 RMSDP=8.88D-04 MaxDP=3.29D-02 DE=-3.00D-01 OVMax= 3.65D-02

 Cycle   4  Pass 1  IDiag  1:
 E= -1119.88405796123     Delta-E=       -0.022710562193 Rises=F Damp=F
 DIIS: error= 4.09D-03 at cycle   4 NSaved=   4.
 NSaved= 4 IEnMin= 4 EnMin= -1119.88405796123     IErMin= 4 ErrMin= 4.09D-03
 ErrMax= 4.09D-03  0.00D+00 EMaxC= 1.00D-01 BMatC= 5.11D-03 BMatP= 3.13D-02
 IDIUse=3 WtCom= 9.59D-01 WtEn= 4.09D-02
 Coeff-Com:  0.458D-03 0.892D-01 0.309D+00 0.602D+00
 Coeff-En:   0.000D+00 0.000D+00 0.118D+00 0.882D+00
 Coeff:      0.439D-03 0.855D-01 0.301D+00 0.613D+00
 Gap=     0.165 Goal=   None    Shift=    0.000
 RMSDP=3.06D-04 MaxDP=1.23D-02 DE=-2.27D-02 OVMax= 1.70D-02

 Cycle   5  Pass 1  IDiag  1:
 E= -1119.88784409941     Delta-E=       -0.003786138176 Rises=F Damp=F
 DIIS: error= 8.36D-04 at cycle   5 NSaved=   5.
 NSaved= 5 IEnMin= 5 EnMin= -1119.88784409941     IErMin= 5 ErrMin= 8.36D-04
 ErrMax= 8.36D-04  0.00D+00 EMaxC= 1.00D-01 BMatC= 5.54D-04 BMatP= 5.11D-03
 IDIUse=3 WtCom= 9.92D-01 WtEn= 8.36D-03
 Coeff-Com: -0.231D-02 0.190D-01 0.127D+00 0.349D+00 0.507D+00
 Coeff-En:   0.000D+00 0.000D+00 0.000D+00 0.255D-01 0.974D+00
 Coeff:     -0.229D-02 0.189D-01 0.126D+00 0.346D+00 0.511D+00
 Gap=     0.166 Goal=   None    Shift=    0.000
 RMSDP=1.05D-04 MaxDP=5.73D-03 DE=-3.79D-03 OVMax= 9.62D-03

 Cycle   6  Pass 1  IDiag  1:
 E= -1119.88827177584     Delta-E=       -0.000427676427 Rises=F Damp=F
 DIIS: error= 2.86D-04 at cycle   6 NSaved=   6.
 NSaved= 6 IEnMin= 6 EnMin= -1119.88827177584     IErMin= 6 ErrMin= 2.86D-04
 ErrMax= 2.86D-04  0.00D+00 EMaxC= 1.00D-01 BMatC= 5.09D-05 BMatP= 5.54D-04
 IDIUse=3 WtCom= 9.97D-01 WtEn= 2.86D-03
 Coeff-Com: -0.135D-02 0.382D-02 0.467D-01 0.147D+00 0.299D+00 0.504D+00
 Coeff-En:   0.000D+00 0.000D+00 0.000D+00 0.000D+00 0.218D-01 0.978D+00
 Coeff:     -0.135D-02 0.381D-02 0.466D-01 0.147D+00 0.299D+00 0.505D+00
 Gap=     0.166 Goal=   None    Shift=    0.000
 RMSDP=3.02D-05 MaxDP=1.77D-03 DE=-4.28D-04 OVMax= 3.14D-03

 Cycle   7  Pass 1  IDiag  1:
 E= -1119.88831451783     Delta-E=       -0.000042741991 Rises=F Damp=F
 DIIS: error= 7.25D-05 at cycle   7 NSaved=   7.
 NSaved= 7 IEnMin= 7 EnMin= -1119.88831451783     IErMin= 7 ErrMin= 7.25D-05
 ErrMax= 7.25D-05  0.00D+00 EMaxC= 1.00D-01 BMatC= 2.94D-06 BMatP= 5.09D-05
 IDIUse=1 WtCom= 1.00D+00 WtEn= 0.00D+00
 Coeff-Com: -0.557D-03 0.272D-03 0.138D-01 0.471D-01 0.113D+00 0.269D+00
 Coeff-Com:  0.557D+00
 Coeff:     -0.557D-03 0.272D-03 0.138D-01 0.471D-01 0.113D+00 0.269D+00
 Coeff:      0.557D+00
 Gap=     0.166 Goal=   None    Shift=    0.000
 RMSDP=7.59D-06 MaxDP=4.20D-04 DE=-4.27D-05 OVMax= 6.52D-04

 Cycle   8  Pass 1  IDiag  1:
 E= -1119.88831691495     Delta-E=       -0.000002397124 Rises=F Damp=F
 DIIS: error= 2.29D-05 at cycle   8 NSaved=   8.
 NSaved= 8 IEnMin= 8 EnMin= -1119.88831691495     IErMin= 8 ErrMin= 2.29D-05
 ErrMax= 2.29D-05  0.00D+00 EMaxC= 1.00D-01 BMatC= 3.31D-07 BMatP= 2.94D-06
 IDIUse=1 WtCom= 1.00D+00 WtEn= 0.00D+00
 Coeff-Com: -0.169D-03-0.196D-03 0.319D-02 0.120D-01 0.349D-01 0.105D+00
 Coeff-Com:  0.305D+00 0.541D+00
 Coeff:     -0.169D-03-0.196D-03 0.319D-02 0.120D-01 0.349D-01 0.105D+00
 Coeff:      0.305D+00 0.541D+00
 Gap=     0.166 Goal=   None    Shift=    0.000
 RMSDP=2.82D-06 MaxDP=1.35D-04 DE=-2.40D-06 OVMax= 2.61D-04

 Cycle   9  Pass 1  IDiag  1:
 E= -1119.88831719001     Delta-E=       -0.000000275059 Rises=F Damp=F
 DIIS: error= 8.52D-06 at cycle   9 NSaved=   9.
 NSaved= 9 IEnMin= 9 EnMin= -1119.88831719001     IErMin= 9 ErrMin= 8.52D-06
 ErrMax= 8.52D-06  0.00D+00 EMaxC= 1.00D-01 BMatC= 3.66D-08 BMatP= 3.31D-07
 IDIUse=1 WtCom= 1.00D+00 WtEn= 0.00D+00
 Coeff-Com: -0.109D-04-0.144D-03-0.360D-03-0.808D-03 0.121D-02 0.147D-01
 Coeff-Com:  0.662D-01 0.288D+00 0.631D+00
 Coeff:     -0.109D-04-0.144D-03-0.360D-03-0.808D-03 0.121D-02 0.147D-01
 Coeff:      0.662D-01 0.288D+00 0.631D+00
 Gap=     0.166 Goal=   None    Shift=    0.000
 RMSDP=7.88D-07 MaxDP=3.14D-05 DE=-2.75D-07 OVMax= 4.20D-05

 Cycle  10  Pass 1  IDiag  1:
 E= -1119.88831722029     Delta-E=       -0.000000030280 Rises=F Damp=F
 DIIS: error= 1.78D-06 at cycle  10 NSaved=  10.
 NSaved=10 IEnMin=10 EnMin= -1119.88831722029     IErMin=10 ErrMin= 1.78D-06
 ErrMax= 1.78D-06  0.00D+00 EMaxC= 1.00D-01 BMatC= 1.79D-09 BMatP= 3.66D-08
 IDIUse=1 WtCom= 1.00D+00 WtEn= 0.00D+00
 Coeff-Com:  0.488D-06-0.518D-04-0.300D-03-0.890D-03-0.862D-03 0.321D-02
 Coeff-Com:  0.189D-01 0.125D+00 0.305D+00 0.550D+00
 Coeff:      0.488D-06-0.518D-04-0.300D-03-0.890D-03-0.862D-03 0.321D-02
 Coeff:      0.189D-01 0.125D+00 0.305D+00 0.550D+00
 Gap=     0.166 Goal=   None    Shift=    0.000
 RMSDP=2.20D-07 MaxDP=9.08D-06 DE=-3.03D-08 OVMax= 1.61D-05

 Cycle  11  Pass 1  IDiag  1:
 E= -1119.88831722161     Delta-E=       -0.000000001314 Rises=F Damp=F
 DIIS: error= 9.50D-07 at cycle  11 NSaved=  11.
 NSaved=11 IEnMin=11 EnMin= -1119.88831722161     IErMin=11 ErrMin= 9.50D-07
 ErrMax= 9.50D-07  0.00D+00 EMaxC= 1.00D-01 BMatC= 4.61D-10 BMatP= 1.79D-09
 IDIUse=1 WtCom= 1.00D+00 WtEn= 0.00D+00
 Coeff-Com:  0.126D-05-0.565D-05-0.130D-03-0.426D-03-0.839D-03-0.765D-03
 Coeff-Com: -0.109D-02 0.277D-01 0.680D-01 0.346D+00 0.561D+00
 Coeff:      0.126D-05-0.565D-05-0.130D-03-0.426D-03-0.839D-03-0.765D-03
 Coeff:     -0.109D-02 0.277D-01 0.680D-01 0.346D+00 0.561D+00
 Gap=     0.166 Goal=   None    Shift=    0.000
 RMSDP=8.39D-08 MaxDP=3.59D-06 DE=-1.31D-09 OVMax= 4.62D-06

 Cycle  12  Pass 1  IDiag  1:
 E= -1119.88831722197     Delta-E=       -0.000000000364 Rises=F Damp=F
 DIIS: error= 3.20D-07 at cycle  12 NSaved=  12.
 NSaved=12 IEnMin=12 EnMin= -1119.88831722197     IErMin=12 ErrMin= 3.20D-07
 ErrMax= 3.20D-07  0.00D+00 EMaxC= 1.00D-01 BMatC= 3.35D-11 BMatP= 4.61D-10
 IDIUse=1 WtCom= 1.00D+00 WtEn= 0.00D+00
 Coeff-Com:  0.410D-06 0.236D-05-0.429D-04-0.144D-03-0.378D-03-0.691D-03
 Coeff-Com: -0.263D-02 0.291D-02 0.359D-02 0.133D+00 0.289D+00 0.576D+00
 Coeff:      0.410D-06 0.236D-05-0.429D-04-0.144D-03-0.378D-03-0.691D-03
 Coeff:     -0.263D-02 0.291D-02 0.359D-02 0.133D+00 0.289D+00 0.576D+00
 Gap=     0.166 Goal=   None    Shift=    0.000
 RMSDP=2.69D-08 MaxDP=9.06D-07 DE=-3.64D-10 OVMax= 1.67D-06

 Cycle  13  Pass 1  IDiag  1:
 E= -1119.88831722200     Delta-E=       -0.000000000028 Rises=F Damp=F
 DIIS: error= 1.50D-07 at cycle  13 NSaved=  13.
 NSaved=13 IEnMin=13 EnMin= -1119.88831722200     IErMin=13 ErrMin= 1.50D-07
 ErrMax= 1.50D-07  0.00D+00 EMaxC= 1.00D-01 BMatC= 2.99D-12 BMatP= 3.35D-11
 IDIUse=1 WtCom= 1.00D+00 WtEn= 0.00D+00
 Coeff-Com:  0.328D-07 0.166D-05-0.775D-05-0.265D-04-0.104D-03-0.254D-03
 Coeff-Com: -0.126D-02-0.135D-02-0.596D-02 0.275D-01 0.736D-01 0.277D+00
 Coeff-Com:  0.631D+00
 Coeff:      0.328D-07 0.166D-05-0.775D-05-0.265D-04-0.104D-03-0.254D-03
 Coeff:     -0.126D-02-0.135D-02-0.596D-02 0.275D-01 0.736D-01 0.277D+00
 Coeff:      0.631D+00
 Gap=     0.166 Goal=   None    Shift=    0.000
 RMSDP=8.80D-09 MaxDP=3.11D-07 DE=-2.82D-11 OVMax= 9.38D-07

 Error on total polarization charges =  0.02283
 SCF Done:  E(RB3LYP) =  -1119.88831722     A.U. after   13 cycles
            NFock= 13  Conv=0.88D-08     -V/T= 2.0073
 KE= 1.111771577729D+03 PE=-4.970580583397D+03 EE= 1.576683429169D+03
 Leave Link  502 at Thu Sep 24 04:41:10 2020, MaxMem=  2147483648 cpu:             130.6 elap:              40.1
 (Enter /prod/apps/gaussian/g16b1/l601.exe)
 Copying SCF densities to generalized density rwf, IOpCl= 0 IROHF=0.

 **********************************************************************

            Population analysis using the SCF Density.

 **********************************************************************

 Alpha  occ. eigenvalues --  -89.08636 -19.21831 -19.11636 -19.11530 -14.35282
 Alpha  occ. eigenvalues --  -14.30008 -10.25323 -10.24774 -10.21127 -10.20055
 Alpha  occ. eigenvalues --  -10.19774 -10.19643 -10.19519 -10.19471 -10.19432
 Alpha  occ. eigenvalues --  -10.18135  -8.11092  -6.07584  -6.07495  -6.07433
 Alpha  occ. eigenvalues --   -1.11801  -1.07818  -0.96517  -0.90626  -0.86427
 Alpha  occ. eigenvalues --   -0.82235  -0.79050  -0.74998  -0.74029  -0.73928
 Alpha  occ. eigenvalues --   -0.63788  -0.62406  -0.60475  -0.57597  -0.54546
 Alpha  occ. eigenvalues --   -0.52289  -0.49555  -0.47004  -0.46603  -0.46216
 Alpha  occ. eigenvalues --   -0.45481  -0.44861  -0.44281  -0.42654  -0.42226
 Alpha  occ. eigenvalues --   -0.41704  -0.40791  -0.38046  -0.37565  -0.35833
 Alpha  occ. eigenvalues --   -0.34561  -0.33774  -0.32349  -0.31233  -0.29687
 Alpha  occ. eigenvalues --   -0.28803  -0.28729  -0.27808  -0.25767  -0.25213
 Alpha  occ. eigenvalues --   -0.22812  -0.20749
 Alpha virt. eigenvalues --   -0.04183  -0.00636   0.03963   0.08049   0.08746
 Alpha virt. eigenvalues --    0.10332   0.11146   0.11703   0.13291   0.13662
 Alpha virt. eigenvalues --    0.14542   0.15527   0.15818   0.16834   0.17448
 Alpha virt. eigenvalues --    0.17773   0.18872   0.19553   0.19854   0.24524
 Alpha virt. eigenvalues --    0.25899   0.28491   0.30274   0.31388   0.31846
 Alpha virt. eigenvalues --    0.33665   0.35504   0.38346   0.39074   0.41621
 Alpha virt. eigenvalues --    0.44630   0.46886   0.48548   0.49626   0.50635
 Alpha virt. eigenvalues --    0.52749   0.53175   0.53936   0.55463   0.56005
 Alpha virt. eigenvalues --    0.56444   0.56971   0.58184   0.58697   0.59228
 Alpha virt. eigenvalues --    0.60877   0.61500   0.61658   0.62364   0.63479
 Alpha virt. eigenvalues --    0.64018   0.65070   0.65771   0.69066   0.70331
 Alpha virt. eigenvalues --    0.72118   0.74147   0.74649   0.77014   0.77418
 Alpha virt. eigenvalues --    0.78952   0.79360   0.80248   0.81391   0.83143
 Alpha virt. eigenvalues --    0.83533   0.83912   0.85059   0.86111   0.88798
 Alpha virt. eigenvalues --    0.89098   0.89971   0.90276   0.90642   0.91839
 Alpha virt. eigenvalues --    0.92552   0.94864   0.95265   0.96728   0.98912
 Alpha virt. eigenvalues --    0.99952   1.00940   1.01957   1.03282   1.04803
 Alpha virt. eigenvalues --    1.05751   1.09912   1.11073   1.12042   1.16121
 Alpha virt. eigenvalues --    1.17135   1.17991   1.18758   1.20910   1.23169
 Alpha virt. eigenvalues --    1.24128   1.24865   1.27048   1.28109   1.31438
 Alpha virt. eigenvalues --    1.31690   1.37187   1.37944   1.39483   1.41151
 Alpha virt. eigenvalues --    1.42778   1.43139   1.44673   1.47104   1.47766
 Alpha virt. eigenvalues --    1.48625   1.49417   1.50606   1.52798   1.56036
 Alpha virt. eigenvalues --    1.57444   1.62510   1.69135   1.70728   1.74544
 Alpha virt. eigenvalues --    1.77183   1.79517   1.80084   1.80349   1.81601
 Alpha virt. eigenvalues --    1.83201   1.83582   1.84910   1.86903   1.88843
 Alpha virt. eigenvalues --    1.89157   1.92204   1.93834   1.95531   1.96994
 Alpha virt. eigenvalues --    1.98527   1.99663   2.03007   2.03493   2.05522
 Alpha virt. eigenvalues --    2.06791   2.11539   2.11693   2.12990   2.13522
 Alpha virt. eigenvalues --    2.14403   2.16067   2.16554   2.19363   2.22144
 Alpha virt. eigenvalues --    2.23462   2.24571   2.26465   2.27213   2.29092
 Alpha virt. eigenvalues --    2.30066   2.30365   2.33000   2.33945   2.37812
 Alpha virt. eigenvalues --    2.44237   2.52874   2.54699   2.55545   2.57328
 Alpha virt. eigenvalues --    2.58443   2.62115   2.64857   2.66370   2.67265
 Alpha virt. eigenvalues --    2.71337   2.72430   2.74587   2.75141   2.78287
 Alpha virt. eigenvalues --    2.81785   2.86318   2.91839   2.91965   3.05172
 Alpha virt. eigenvalues --    3.06408   3.14694   3.28719   3.42864   3.77932
 Alpha virt. eigenvalues --    3.82146   3.87821   4.00444   4.07211   4.09237
 Alpha virt. eigenvalues --    4.11156   4.13882   4.18003   4.23816   4.26289
 Alpha virt. eigenvalues --    4.32013   4.38912   4.42182   4.56469   4.74666
          Condensed to atoms (all electrons):
               1          2          3          4          5          6
     1  O    8.422991   0.378687  -0.054375  -0.008268  -0.000024   0.000000
     2  S    0.378687  13.651243   0.266362  -0.011548  -0.002728  -0.000012
     3  N   -0.054375   0.266362   7.465266   0.372761  -0.079862   0.004517
     4  C   -0.008268  -0.011548   0.372761   4.482918   0.393105  -0.045679
     5  N   -0.000024  -0.002728  -0.079862   0.393105   7.076062   0.110998
     6  O    0.000000  -0.000012   0.004517  -0.045679   0.110998   8.229533
     7  C    0.000525   0.001513   0.001265  -0.014160  -0.080572   0.249671
     8  C   -0.000005  -0.000058  -0.000144   0.002481   0.003746  -0.039649
     9  C   -0.000000   0.000000  -0.000000  -0.000255   0.000099  -0.005590
    10  C    0.000000   0.000000  -0.000000   0.000003   0.000000   0.000318
    11  C   -0.000000  -0.000000   0.000000   0.000000  -0.000000   0.000001
    12  C   -0.000000  -0.000000   0.000000  -0.000006   0.000001  -0.000060
    13  C    0.000003   0.000003   0.000001   0.000511  -0.000084   0.003089
    14  C    0.001654  -0.005937  -0.082554   0.423079  -0.081335  -0.086488
    15  C   -0.060679   0.198156  -0.067548  -0.004346  -0.000207   0.000007
    16  O   -0.050827   0.451811  -0.067750   0.001326  -0.000014   0.000000
    17  H   -0.000000  -0.000000  -0.000000   0.000057  -0.000242   0.010358
    18  H    0.000000   0.000000   0.000000  -0.000000   0.000000  -0.000003
    19  H   -0.000000  -0.000000  -0.000000  -0.000000   0.000000   0.000000
    20  H    0.000000   0.000000  -0.000000  -0.000000  -0.000000   0.000000
    21  H   -0.000018  -0.000006   0.000001   0.000105  -0.000004   0.000023
    22  H    0.014232   0.002732  -0.002989  -0.034395   0.005037   0.003631
    23  H   -0.001223  -0.007394  -0.002621   0.000451   0.000052  -0.000012
    24  H    0.002173  -0.008009   0.000021   0.000095   0.000002  -0.000000
    25  H    0.000115  -0.006788   0.002709   0.000143  -0.000000  -0.000000
               7          8          9         10         11         12
     1  O    0.000525  -0.000005  -0.000000   0.000000  -0.000000  -0.000000
     2  S    0.001513  -0.000058   0.000000   0.000000  -0.000000  -0.000000
     3  N    0.001265  -0.000144  -0.000000  -0.000000   0.000000   0.000000
     4  C   -0.014160   0.002481  -0.000255   0.000003   0.000000  -0.000006
     5  N   -0.080572   0.003746   0.000099   0.000000  -0.000000   0.000001
     6  O    0.249671  -0.039649  -0.005590   0.000318   0.000001  -0.000060
     7  C    4.773067   0.346327  -0.040695   0.004521   0.000780   0.006196
     8  C    0.346327   4.787228   0.469050  -0.010396  -0.033903  -0.011460
     9  C   -0.040695   0.469050   5.074561   0.503646  -0.038195  -0.042143
    10  C    0.004521  -0.010396   0.503646   4.897289   0.539234  -0.026834
    11  C    0.000780  -0.033903  -0.038195   0.539234   4.880893   0.539329
    12  C    0.006196  -0.011460  -0.042143  -0.026834   0.539329   4.890491
    13  C   -0.043477   0.536406  -0.083070  -0.041271  -0.040066   0.516159
    14  C    0.480231  -0.056979   0.011769  -0.000227   0.000014   0.000244
    15  C   -0.000273   0.000002   0.000000  -0.000000  -0.000000  -0.000000
    16  O   -0.000001  -0.000000  -0.000000  -0.000000  -0.000000  -0.000000
    17  H   -0.012504  -0.043072   0.362057  -0.042024   0.004614   0.000206
    18  H   -0.000163   0.003230  -0.037771   0.363131  -0.041242   0.004430
    19  H    0.000004   0.000494   0.004624  -0.041574   0.364144  -0.041808
    20  H   -0.000194   0.003208   0.000777   0.004397  -0.041089   0.362473
    21  H   -0.012623  -0.036225   0.005770   0.000163   0.004532  -0.042808
    22  H   -0.031068  -0.003895  -0.000136   0.000002  -0.000001   0.000096
    23  H    0.000017  -0.000000  -0.000000   0.000000   0.000000  -0.000000
    24  H    0.000003  -0.000000  -0.000000   0.000000  -0.000000   0.000000
    25  H    0.000001   0.000000  -0.000000   0.000000   0.000000   0.000000
              13         14         15         16         17         18
     1  O    0.000003   0.001654  -0.060679  -0.050827  -0.000000   0.000000
     2  S    0.000003  -0.005937   0.198156   0.451811  -0.000000   0.000000
     3  N    0.000001  -0.082554  -0.067548  -0.067750  -0.000000   0.000000
     4  C    0.000511   0.423079  -0.004346   0.001326   0.000057  -0.000000
     5  N   -0.000084  -0.081335  -0.000207  -0.000014  -0.000242   0.000000
     6  O    0.003089  -0.086488   0.000007   0.000000   0.010358  -0.000003
     7  C   -0.043477   0.480231  -0.000273  -0.000001  -0.012504  -0.000163
     8  C    0.536406  -0.056979   0.000002  -0.000000  -0.043072   0.003230
     9  C   -0.083070   0.011769   0.000000  -0.000000   0.362057  -0.037771
    10  C   -0.041271  -0.000227  -0.000000  -0.000000  -0.042024   0.363131
    11  C   -0.040066   0.000014  -0.000000  -0.000000   0.004614  -0.041242
    12  C    0.516159   0.000244  -0.000000  -0.000000   0.000206   0.004430
    13  C    5.027587  -0.020972  -0.000000   0.000000   0.005395   0.000751
    14  C   -0.020972   5.368134  -0.000761  -0.000064   0.000231   0.000001
    15  C   -0.000000  -0.000761   5.603684  -0.063022   0.000000  -0.000000
    16  O    0.000000  -0.000064  -0.063022   8.354288  -0.000000   0.000000
    17  H    0.005395   0.000231   0.000000  -0.000000   0.560717  -0.005006
    18  H    0.000751   0.000001  -0.000000   0.000000  -0.005006   0.562135
    19  H    0.004737  -0.000000   0.000000  -0.000000  -0.000153  -0.005112
    20  H   -0.037568  -0.000000  -0.000000   0.000000   0.000015  -0.000164
    21  H    0.356255   0.006851  -0.000001  -0.000000  -0.000140   0.000015
    22  H    0.001458   0.346590  -0.000323   0.000042  -0.000009   0.000000
    23  H   -0.000003   0.004206   0.338452   0.001968  -0.000000  -0.000000
    24  H    0.000000   0.000126   0.342856  -0.000018  -0.000000   0.000000
    25  H   -0.000000  -0.000072   0.344008  -0.000558   0.000000   0.000000
              19         20         21         22         23         24
     1  O   -0.000000   0.000000  -0.000018   0.014232  -0.001223   0.002173
     2  S   -0.000000   0.000000  -0.000006   0.002732  -0.007394  -0.008009
     3  N   -0.000000  -0.000000   0.000001  -0.002989  -0.002621   0.000021
     4  C   -0.000000  -0.000000   0.000105  -0.034395   0.000451   0.000095
     5  N    0.000000  -0.000000  -0.000004   0.005037   0.000052   0.000002
     6  O    0.000000   0.000000   0.000023   0.003631  -0.000012  -0.000000
     7  C    0.000004  -0.000194  -0.012623  -0.031068   0.000017   0.000003
     8  C    0.000494   0.003208  -0.036225  -0.003895  -0.000000  -0.000000
     9  C    0.004624   0.000777   0.005770  -0.000136  -0.000000  -0.000000
    10  C   -0.041574   0.004397   0.000163   0.000002   0.000000   0.000000
    11  C    0.364144  -0.041089   0.004532  -0.000001   0.000000  -0.000000
    12  C   -0.041808   0.362473  -0.042808   0.000096  -0.000000   0.000000
    13  C    0.004737  -0.037568   0.356255   0.001458  -0.000003   0.000000
    14  C   -0.000000  -0.000000   0.006851   0.346590   0.004206   0.000126
    15  C    0.000000  -0.000000  -0.000001  -0.000323   0.338452   0.342856
    16  O   -0.000000   0.000000  -0.000000   0.000042   0.001968  -0.000018
    17  H   -0.000153   0.000015  -0.000140  -0.000009  -0.000000  -0.000000
    18  H   -0.005112  -0.000164   0.000015   0.000000  -0.000000   0.000000
    19  H    0.565074  -0.005104  -0.000155  -0.000000   0.000000  -0.000000
    20  H   -0.005104   0.561938  -0.004930  -0.000002  -0.000000  -0.000000
    21  H   -0.000155  -0.004930   0.560222   0.001815   0.000002  -0.000000
    22  H   -0.000000  -0.000002   0.001815   0.520718   0.000442   0.000036
    23  H    0.000000  -0.000000   0.000002   0.000442   0.512754  -0.023513
    24  H   -0.000000  -0.000000  -0.000000   0.000036  -0.023513   0.507241
    25  H    0.000000   0.000000   0.000000  -0.000007  -0.024066  -0.022463
              25
     1  O    0.000115
     2  S   -0.006788
     3  N    0.002709
     4  C    0.000143
     5  N   -0.000000
     6  O   -0.000000
     7  C    0.000001
     8  C    0.000000
     9  C   -0.000000
    10  C    0.000000
    11  C    0.000000
    12  C    0.000000
    13  C   -0.000000
    14  C   -0.000072
    15  C    0.344008
    16  O   -0.000558
    17  H    0.000000
    18  H    0.000000
    19  H    0.000000
    20  H    0.000000
    21  H    0.000000
    22  H   -0.000007
    23  H   -0.024066
    24  H   -0.022463
    25  H    0.503331
 Mulliken charges:
               1
     1  O   -0.644960
     2  S    1.091975
     3  N   -0.755061
     4  C    0.441622
     5  N   -0.344031
     6  O   -0.434655
     7  C    0.371609
     8  C    0.083616
     9  C   -0.184499
    10  C   -0.150376
    11  C   -0.139045
    12  C   -0.154505
    13  C   -0.185843
    14  C   -0.307740
    15  C   -0.630003
    16  O   -0.627182
    17  H    0.159499
    18  H    0.155769
    19  H    0.154830
    20  H    0.156244
    21  H    0.161157
    22  H    0.175995
    23  H    0.200487
    24  H    0.201450
    25  H    0.203646
 Sum of Mulliken charges =  -1.00000
 Mulliken charges with hydrogens summed into heavy atoms:
               1
     1  O   -0.644960
     2  S    1.091975
     3  N   -0.755061
     4  C    0.441622
     5  N   -0.344031
     6  O   -0.434655
     7  C    0.371609
     8  C    0.083616
     9  C   -0.025000
    10  C    0.005393
    11  C    0.015784
    12  C    0.001739
    13  C   -0.024686
    14  C   -0.131744
    15  C   -0.024419
    16  O   -0.627182
 Electronic spatial extent (au):  <R**2>=           5349.2272
 Charge=             -1.0000 electrons
 Dipole moment (field-independent basis, Debye):
    X=            -15.2979    Y=             -6.0606    Z=              4.9053  Tot=             17.1703
 Quadrupole moment (field-independent basis, Debye-Ang):
   XX=           -142.6709   YY=           -112.0851   ZZ=           -103.8303
   XY=             -3.1950   XZ=             16.7576   YZ=             -4.5964
 Traceless Quadrupole moment (field-independent basis, Debye-Ang):
   XX=            -23.1421   YY=              7.4437   ZZ=             15.6985
   XY=             -3.1950   XZ=             16.7576   YZ=             -4.5964
 Octapole moment (field-independent basis, Debye-Ang**2):
  XXX=           -296.3747  YYY=            -31.2077  ZZZ=             10.1175  XYY=            -31.1583
  XXY=            -15.5434  XXZ=             66.6355  XZZ=             16.0739  YZZ=              7.1379
  YYZ=              7.3476  XYZ=            -17.4634
 Hexadecapole moment (field-independent basis, Debye-Ang**3):
 XXXX=          -6492.1028 YYYY=           -950.9897 ZZZZ=           -268.7166 XXXY=            -27.3210
 XXXZ=            252.6044 YYYX=            -12.9587 YYYZ=            -19.3675 ZZZX=             67.6388
 ZZZY=            -15.7928 XXYY=          -1094.7444 XXZZ=          -1088.5792 YYZZ=           -204.8936
 XXYZ=            -33.4136 YYXZ=             42.4309 ZZXY=             -7.8325
 N-N= 1.162237259277D+03 E-N=-4.970580577043D+03  KE= 1.111771577729D+03
 No NMR shielding tensors so no spin-rotation constants.
 Leave Link  601 at Thu Sep 24 04:41:10 2020, MaxMem=  2147483648 cpu:               0.4 elap:               0.1
 (Enter /prod/apps/gaussian/g16b1/l701.exe)
 ... and contract with generalized density number  0.
 Compute integral first derivatives.
 D1PCM: PCM CHGder 1st derivatives, ID1Alg=3 FixD1E=F DoIter=F DoCFld=F I1PDM=0.
 GePol: Maximum number of non-zero 1st derivatives   =     176
 Leave Link  701 at Thu Sep 24 04:41:12 2020, MaxMem=  2147483648 cpu:               6.3 elap:               1.6
 (Enter /prod/apps/gaussian/g16b1/l702.exe)
 L702 exits ... SP integral derivatives will be done elsewhere.
 Leave Link  702 at Thu Sep 24 04:41:12 2020, MaxMem=  2147483648 cpu:               0.1 elap:               0.0
 (Enter /prod/apps/gaussian/g16b1/l703.exe)
 Integral derivatives from FoFJK, PRISM(SPDF).
 Compute integral first derivatives, UseDBF=F ICtDFT=           0.
 Calling FoFJK, ICntrl=      2127 FMM=F ISym2X=0 I1Cent= 0 IOpClX= 0 NMat=1 NMatS=1 NMatT=0.
 FoFJK:  IHMeth= 1 ICntrl=    2127 DoSepK=F KAlg= 0 I1Cent=           0 FoldK=F
 IRaf=         0 NMat=       1 IRICut=       1 DoRegI=T DoRafI=F ISym2E= 0 IDoP0=0 IntGTp=1.
 FoFCou: FMM=F IPFlag=           0 FMFlag=      100000 FMFlg1=         800
         NFxFlg=           0 DoJE=F BraDBF=F KetDBF=F FulRan=T
         wScrn=  0.000000 ICntrl=      2127 IOpCl=  0 I1Cent=           0 NGrid=           0
         NMat0=    1 NMatS0=      1 NMatT0=    0 NMatD0=    1 NMtDS0=    0 NMtDT0=    0
 Symmetry not used in FoFCou.
 Leave Link  703 at Thu Sep 24 04:41:21 2020, MaxMem=  2147483648 cpu:              34.8 elap:               8.7
 (Enter /prod/apps/gaussian/g16b1/l716.exe)
 Dipole        =-6.01865479D+00-2.38444069D+00 1.92990917D+00
 -------------------------------------------------------------------
 Center     Atomic                   Forces (Hartrees/Bohr)
 Number     Number              X              Y              Z
 -------------------------------------------------------------------
      1        8          -0.000634658    0.000655201    0.000818909
      2       16          -0.000336793   -0.000133259    0.000019409
      3        7          -0.000567789   -0.000005321    0.000015853
      4        6          -0.000643773   -0.000306700    0.000123225
      5        7           0.000381309   -0.001134334   -0.000217453
      6        8          -0.000698577   -0.001069908    0.000012150
      7        6          -0.000446196    0.000000618   -0.000069222
      8        6          -0.000075473   -0.000337338   -0.000110782
      9        6           0.000446224    0.000880773    0.000205583
     10        6           0.000357595    0.000599375    0.000050652
     11        6          -0.000817750   -0.000476313    0.000006042
     12        6           0.000644726   -0.000500126   -0.000100341
     13        6          -0.000214872    0.000494494    0.000060427
     14        6           0.000335083    0.000929034    0.000113933
     15        6           0.000092396   -0.000264163    0.000203602
     16        8          -0.000721608   -0.000258342    0.000238942
     17        1           0.000503691   -0.001763653   -0.000258898
     18        1           0.000832724   -0.000749355   -0.000152911
     19        1           0.001204645    0.000402003   -0.000027137
     20        1           0.000177965    0.001413218    0.000143394
     21        1          -0.000137541    0.000815230    0.000095456
     22        1           0.000340836    0.000337389   -0.000186580
     23        1           0.000941965    0.000187405   -0.000291698
     24        1          -0.000416813   -0.000615797   -0.000684128
     25        1          -0.000547317    0.000899872   -0.000008426
 -------------------------------------------------------------------
 Cartesian Forces:  Max     0.001763653 RMS     0.000560020
 Leave Link  716 at Thu Sep 24 04:41:21 2020, MaxMem=  2147483648 cpu:               0.1 elap:               0.0
 (Enter /prod/apps/gaussian/g16b1/l103.exe)

 GradGradGradGradGradGradGradGradGradGradGradGradGradGradGradGradGradGrad
 Berny optimization.
 FormGI is forming the generalized inverse of G from B-inverse, IUseBI=4.
 Internal  Forces:  Max     0.005740773 RMS     0.000931475
 Search for a local minimum.
 Step number   1 out of a maximum of  133
 All quantities printed in internal units (Hartrees-Bohrs-Radians)
 RMS Force = .93147D-03 SwitMx=.10000D-02 MixMth= 2
 Mixed Optimization -- En-DIIS/RFO-DIIS
 Second derivative matrix not updated -- first step.
 ITU=  0
     Eigenvalues ---    0.00255   0.01244   0.01766   0.01776   0.01869
     Eigenvalues ---    0.01917   0.02024   0.02028   0.02078   0.02092
     Eigenvalues ---    0.02123   0.02125   0.02135   0.02136   0.02147
     Eigenvalues ---    0.02151   0.02335   0.02520   0.05818   0.05904
     Eigenvalues ---    0.08733   0.09518   0.15989   0.16000   0.16000
     Eigenvalues ---    0.16000   0.16000   0.16000   0.16000   0.16000
     Eigenvalues ---    0.16000   0.16458   0.21033   0.22000   0.22000
     Eigenvalues ---    0.23474   0.23796   0.24998   0.25000   0.25000
     Eigenvalues ---    0.25000   0.25000   0.25000   0.25442   0.34510
     Eigenvalues ---    0.34550   0.34642   0.35180   0.35214   0.35223
     Eigenvalues ---    0.35329   0.35340   0.36387   0.36488   0.37542
     Eigenvalues ---    0.41322   0.41402   0.41740   0.45044   0.45425
     Eigenvalues ---    0.46197   0.46645   0.48774   0.49797   0.50105
     Eigenvalues ---    0.51990   0.56449   0.79307   0.82125
 RFO step:  Lambda=-4.11722622D-04 EMin= 2.54949093D-03
 Linear search not attempted -- first point.
 Iteration  1 RMS(Cart)=  0.03536258 RMS(Int)=  0.00053185
 Iteration  2 RMS(Cart)=  0.00067265 RMS(Int)=  0.00000624
 Iteration  3 RMS(Cart)=  0.00000024 RMS(Int)=  0.00000624
 ITry= 1 IFail=0 DXMaxC= 1.92D-01 DCOld= 1.00D+10 DXMaxT= 3.00D-01 DXLimC= 3.00D+00 Rises=F
 Variable       Old X    -DE/DX   Delta X   Delta X   Delta X     New X
                                 (Linear)    (Quad)   (Total)
    R1        2.81991  -0.00070   0.00000  -0.00088  -0.00088   2.81904
    R2        3.03771  -0.00124   0.00000  -0.00248  -0.00248   3.03523
    R3        3.41799  -0.00080   0.00000  -0.00312  -0.00312   3.41487
    R4        2.80490  -0.00079   0.00000  -0.00096  -0.00096   2.80393
    R5        2.59759  -0.00221   0.00000  -0.00440  -0.00440   2.59319
    R6        2.52746  -0.00121   0.00000  -0.00206  -0.00205   2.52541
    R7        2.72305  -0.00237   0.00000  -0.00618  -0.00618   2.71687
    R8        2.67920   0.00002   0.00000   0.00023   0.00023   2.67943
    R9        2.55931  -0.00113   0.00000  -0.00203  -0.00203   2.55728
   R10        2.76625  -0.00301   0.00000  -0.00824  -0.00824   2.75801
   R11        2.57707  -0.00174   0.00000  -0.00344  -0.00344   2.57362
   R12        2.65695  -0.00223   0.00000  -0.00513  -0.00513   2.65182
   R13        2.65801  -0.00209   0.00000  -0.00485  -0.00485   2.65317
   R14        2.63526  -0.00116   0.00000  -0.00246  -0.00246   2.63279
   R15        2.05143  -0.00167   0.00000  -0.00472  -0.00472   2.04672
   R16        2.63946  -0.00018   0.00000  -0.00023  -0.00023   2.63922
   R17        2.05314  -0.00113   0.00000  -0.00321  -0.00321   2.04994
   R18        2.64193  -0.00044   0.00000  -0.00081  -0.00081   2.64112
   R19        2.05329  -0.00127   0.00000  -0.00360  -0.00360   2.04969
   R20        2.63313  -0.00133   0.00000  -0.00287  -0.00287   2.63026
   R21        2.05384  -0.00143   0.00000  -0.00406  -0.00406   2.04979
   R22        2.05127  -0.00064   0.00000  -0.00180  -0.00180   2.04947
   R23        2.03480  -0.00024   0.00000  -0.00065  -0.00065   2.03415
   R24        2.06411  -0.00100   0.00000  -0.00290  -0.00290   2.06121
   R25        2.06260  -0.00100   0.00000  -0.00289  -0.00289   2.05971
   R26        2.06478  -0.00106   0.00000  -0.00306  -0.00306   2.06172
    A1        2.00366  -0.00065   0.00000  -0.00585  -0.00585   1.99781
    A2        1.84351  -0.00019   0.00000  -0.00219  -0.00220   1.84130
    A3        2.00987   0.00052   0.00000   0.00442   0.00442   2.01430
    A4        1.87753   0.00020   0.00000  -0.00037  -0.00038   1.87715
    A5        1.86268   0.00040   0.00000   0.00384   0.00384   1.86651
    A6        1.85740  -0.00030   0.00000   0.00011   0.00011   1.85751
    A7        2.08754  -0.00574   0.00000  -0.02293  -0.02293   2.06461
    A8        2.04770   0.00190   0.00000   0.00766   0.00765   2.05535
    A9        2.30885  -0.00268   0.00000  -0.01064  -0.01065   2.29820
   A10        1.92658   0.00078   0.00000   0.00291   0.00291   1.92949
   A11        1.84378  -0.00060   0.00000  -0.00187  -0.00188   1.84191
   A12        1.90762  -0.00057   0.00000  -0.00171  -0.00172   1.90590
   A13        2.04803  -0.00028   0.00000  -0.00105  -0.00105   2.04698
   A14        1.91372   0.00054   0.00000   0.00200   0.00200   1.91572
   A15        2.32142  -0.00026   0.00000  -0.00095  -0.00095   2.32047
   A16        2.10930  -0.00098   0.00000  -0.00366  -0.00366   2.10564
   A17        2.09786  -0.00019   0.00000  -0.00052  -0.00052   2.09733
   A18        2.07603   0.00117   0.00000   0.00418   0.00419   2.08021
   A19        2.10121  -0.00038   0.00000  -0.00189  -0.00189   2.09932
   A20        2.08722  -0.00064   0.00000  -0.00422  -0.00422   2.08299
   A21        2.09476   0.00102   0.00000   0.00611   0.00611   2.10087
   A22        2.09924  -0.00019   0.00000  -0.00039  -0.00039   2.09885
   A23        2.08679   0.00014   0.00000   0.00045   0.00045   2.08724
   A24        2.09716   0.00005   0.00000  -0.00006  -0.00006   2.09710
   A25        2.08930  -0.00014   0.00000   0.00013   0.00012   2.08942
   A26        2.09696   0.00011   0.00000   0.00019   0.00019   2.09715
   A27        2.09693   0.00003   0.00000  -0.00032  -0.00032   2.09661
   A28        2.09891  -0.00021   0.00000  -0.00058  -0.00058   2.09833
   A29        2.09770   0.00004   0.00000  -0.00012  -0.00012   2.09758
   A30        2.08658   0.00017   0.00000   0.00070   0.00070   2.08727
   A31        2.10169  -0.00026   0.00000  -0.00146  -0.00146   2.10023
   A32        2.09230  -0.00042   0.00000  -0.00269  -0.00269   2.08961
   A33        2.08919   0.00068   0.00000   0.00415   0.00414   2.09334
   A34        1.83305  -0.00015   0.00000  -0.00129  -0.00129   1.83176
   A35        2.21353  -0.00034   0.00000  -0.00199  -0.00200   2.21153
   A36        2.23624   0.00049   0.00000   0.00315   0.00315   2.23938
   A37        1.90683  -0.00004   0.00000  -0.00031  -0.00031   1.90652
   A38        1.89796  -0.00010   0.00000  -0.00069  -0.00069   1.89727
   A39        1.89033   0.00004   0.00000   0.00032   0.00032   1.89065
   A40        1.92316   0.00005   0.00000   0.00012   0.00012   1.92328
   A41        1.91965   0.00002   0.00000   0.00024   0.00024   1.91989
   A42        1.92538   0.00004   0.00000   0.00031   0.00031   1.92569
    D1        0.77717  -0.00092   0.00000  -0.02634  -0.02633   0.75084
    D2       -1.26891  -0.00044   0.00000  -0.01987  -0.01988  -1.28879
    D3        3.02671  -0.00038   0.00000  -0.02166  -0.02167   3.00505
    D4       -1.07460   0.00036   0.00000   0.00406   0.00406  -1.07054
    D5        3.10890   0.00038   0.00000   0.00452   0.00451   3.11342
    D6        1.01627   0.00037   0.00000   0.00436   0.00435   1.02062
    D7        1.07315  -0.00040   0.00000  -0.00426  -0.00426   1.06889
    D8       -1.02653  -0.00038   0.00000  -0.00381  -0.00381  -1.03033
    D9       -3.11916  -0.00039   0.00000  -0.00397  -0.00397  -3.12313
   D10        3.06424   0.00001   0.00000   0.00002   0.00002   3.06426
   D11        0.96456   0.00003   0.00000   0.00047   0.00047   0.96503
   D12       -1.12808   0.00002   0.00000   0.00031   0.00031  -1.12776
   D13        3.00446  -0.00033   0.00000  -0.01537  -0.01537   2.98909
   D14       -0.14982  -0.00046   0.00000  -0.02283  -0.02283  -0.17264
   D15        3.12561  -0.00005   0.00000  -0.00161  -0.00166   3.12394
   D16       -0.00597   0.00008   0.00000   0.00438   0.00439  -0.00158
   D17       -3.12751   0.00007   0.00000   0.00437   0.00434  -3.12317
   D18       -0.01358  -0.00001   0.00000  -0.00016  -0.00017  -0.01375
   D19        0.00206  -0.00005   0.00000  -0.00266  -0.00267  -0.00061
   D20        3.11599  -0.00013   0.00000  -0.00719  -0.00718   3.10881
   D21        0.00788  -0.00009   0.00000  -0.00460  -0.00460   0.00327
   D22        3.13995   0.00007   0.00000   0.00346   0.00346  -3.13978
   D23       -0.00681   0.00006   0.00000   0.00302   0.00303  -0.00379
   D24        0.00279  -0.00001   0.00000  -0.00080  -0.00080   0.00200
   D25       -3.13991  -0.00000   0.00000  -0.00015  -0.00014  -3.14005
   D26       -3.13215  -0.00000   0.00000  -0.00025  -0.00025  -3.13239
   D27        0.00834   0.00001   0.00000   0.00041   0.00040   0.00874
   D28        0.00301  -0.00000   0.00000  -0.00032  -0.00032   0.00269
   D29       -3.11043   0.00010   0.00000   0.00441   0.00440  -3.10603
   D30        3.13833  -0.00002   0.00000  -0.00084  -0.00085   3.13748
   D31        0.02489   0.00009   0.00000   0.00388   0.00388   0.02877
   D32        3.14124  -0.00001   0.00000  -0.00028  -0.00028   3.14096
   D33       -0.00182   0.00003   0.00000   0.00152   0.00151  -0.00030
   D34        0.00074  -0.00002   0.00000  -0.00092  -0.00092  -0.00018
   D35        3.14087   0.00002   0.00000   0.00088   0.00087  -3.14144
   D36       -3.14067  -0.00000   0.00000  -0.00025  -0.00025  -3.14092
   D37        0.00112  -0.00000   0.00000  -0.00018  -0.00019   0.00093
   D38       -0.00016   0.00001   0.00000   0.00038   0.00038   0.00022
   D39       -3.14156   0.00001   0.00000   0.00045   0.00045  -3.14111
   D40       -0.00095   0.00002   0.00000   0.00093   0.00093  -0.00002
   D41        3.14056   0.00003   0.00000   0.00138   0.00138  -3.14124
   D42       -3.14107  -0.00002   0.00000  -0.00087  -0.00088   3.14124
   D43        0.00044  -0.00001   0.00000  -0.00042  -0.00042   0.00002
   D44        0.00056  -0.00001   0.00000  -0.00038  -0.00038   0.00018
   D45       -3.14136  -0.00000   0.00000  -0.00008  -0.00008  -3.14143
   D46       -3.14095  -0.00002   0.00000  -0.00083  -0.00083   3.14140
   D47        0.00032  -0.00001   0.00000  -0.00053  -0.00053  -0.00022
   D48        0.00002  -0.00000   0.00000  -0.00017  -0.00016  -0.00014
   D49       -3.14154  -0.00000   0.00000  -0.00003  -0.00003  -3.14156
   D50       -3.14125  -0.00001   0.00000  -0.00046  -0.00046   3.14148
   D51        0.00038  -0.00001   0.00000  -0.00032  -0.00033   0.00006
   D52       -0.00022   0.00000   0.00000   0.00016   0.00016  -0.00006
   D53        3.14118   0.00000   0.00000   0.00009   0.00009   3.14127
   D54        3.14134   0.00000   0.00000   0.00002   0.00002   3.14136
   D55       -0.00044  -0.00000   0.00000  -0.00005  -0.00005  -0.00049
         Item               Value     Threshold  Converged?
 Maximum Force            0.005741     0.000450     NO 
 RMS     Force            0.000931     0.000300     NO 
 Maximum Displacement     0.191980     0.001800     NO 
 RMS     Displacement     0.035289     0.001200     NO 
 Predicted change in Energy=-2.066387D-04
 Lowest energy point so far.  Saving SCF results.
 GradGradGradGradGradGradGradGradGradGradGradGradGradGradGradGradGradGrad

 Leave Link  103 at Thu Sep 24 04:41:21 2020, MaxMem=  2147483648 cpu:               0.1 elap:               0.0
 (Enter /prod/apps/gaussian/g16b1/l202.exe)
                          Input orientation:                          
 ---------------------------------------------------------------------
 Center     Atomic      Atomic             Coordinates (Angstroms)
 Number     Number       Type             X           Y           Z
 ---------------------------------------------------------------------
      1          8           0        2.617408   -1.478182   -1.055330
      2         16           0        3.267530   -0.430274   -0.215920
      3          7           0        2.504328    0.982963   -0.206918
      4          6           0        1.136435    0.982790   -0.097551
      5          7           0        0.526648    2.157332    0.088311
      6          8           0       -0.859111    1.861703    0.140272
      7          6           0       -1.035727    0.528550   -0.010737
      8          6           0       -2.406615    0.028376    0.013017
      9          6           0       -3.486213    0.908396    0.183989
     10          6           0       -4.791909    0.422831    0.204747
     11          6           0       -5.036830   -0.944018    0.055495
     12          6           0       -3.965506   -1.825248   -0.114924
     13          6           0       -2.659436   -1.344580   -0.136243
     14          6           0        0.172029   -0.081244   -0.166470
     15          6           0        3.238144   -1.076283    1.471476
     16          8           0        4.689805   -0.151612   -0.533841
     17          1           0       -3.294148    1.968058    0.299233
     18          1           0       -5.618092    1.113196    0.337283
     19          1           0       -6.053985   -1.320309    0.071753
     20          1           0       -4.147028   -2.888272   -0.231571
     21          1           0       -1.831558   -2.032579   -0.268474
     22          1           0        0.375738   -1.124220   -0.337928
     23          1           0        2.202926   -1.223607    1.781881
     24          1           0        3.729689   -0.359228    2.128899
     25          1           0        3.770476   -2.028539    1.483552
 ---------------------------------------------------------------------
                    Distance matrix (angstroms):
                    1          2          3          4          5
     1  O    0.000000
     2  S    1.491770   0.000000
     3  N    2.605729   1.606175   0.000000
     4  C    3.027706   2.559752   1.372258   0.000000
     5  N    4.346971   3.781626   2.318948   1.336388   0.000000
     6  O    4.966939   4.733836   3.493629   2.193456   1.417895
     7  C    4.296923   4.413555   3.574488   2.220846   2.259150
     8  C    5.352746   5.697253   5.007691   3.671012   3.625211
     9  C    6.669772   6.896738   6.003744   4.631810   4.203814
    10  C    7.752396   8.115375   7.329277   5.962399   5.595454
    11  C    7.752847   8.324662   7.787887   6.468788   6.369596
    12  C    6.658797   7.367018   7.053599   5.823674   6.006804
    13  C    5.357952   5.997601   5.664531   4.452727   4.739720
    14  C    2.953199   3.115508   2.563940   1.437705   2.280766
    15  C    2.632791   1.807069   2.756082   3.334488   4.440903
    16  O    2.515267   1.483776   2.484038   3.755483   4.801059
    17  H    6.975522   7.005212   5.903297   4.556122   3.831292
    18  H    8.745174   9.035630   8.141672   6.769765   6.237791
    19  H    8.745760   9.368328   8.867212   7.552156   7.443051
    20  H    6.958773   7.811380   7.695947   6.551187   6.885034
    21  H    4.551901   5.345170   5.281779   4.234459   4.821182
    22  H    2.380134   2.976391   2.998046   2.252982   3.312557
    23  H    2.878606   2.398743   2.985820   3.088343   4.136284
    24  H    3.553666   2.390986   2.959565   3.671928   4.555935
    25  H    2.842250   2.386548   3.678310   4.301879   5.476371
                    6          7          8          9         10
     6  O    0.000000
     7  C    1.353253   0.000000
     8  C    2.402509   1.459476   0.000000
     9  C    2.795062   2.487384   1.403281   0.000000
    10  C    4.188247   3.763843   2.425281   1.393215   0.000000
    11  C    5.033150   4.263997   2.804530   2.419166   1.396618
    12  C    4.827880   3.759631   2.425373   2.791394   2.416401
    13  C    3.687531   2.482096   1.403996   2.421159   2.790602
    14  C    2.220898   1.361902   2.587206   3.805909   5.003257
    15  C    5.214534   4.799835   5.933858   7.128361   8.266420
    16  O    5.941240   5.789471   7.119734   8.275636   9.527770
[...]
 Alpha  occ. eigenvalues --   -0.77056  -0.75562  -0.70544  -0.67616  -0.63898
 Alpha  occ. eigenvalues --   -0.60881  -0.57596  -0.55211  -0.54509  -0.52033
 Alpha  occ. eigenvalues --   -0.51508  -0.51039  -0.50731  -0.49684  -0.48266
 Alpha  occ. eigenvalues --   -0.46130  -0.44642  -0.43447  -0.42934  -0.42598
 Alpha  occ. eigenvalues --   -0.41024  -0.35914  -0.34199  -0.32822  -0.32354
 Alpha  occ. eigenvalues --   -0.30392  -0.29523  -0.29286  -0.26345  -0.25457
 Alpha  occ. eigenvalues --   -0.20726  -0.18291
 Alpha virt. eigenvalues --    0.08873   0.10007   0.11066   0.12419   0.13457
 Alpha virt. eigenvalues --    0.14129   0.14620   0.15262   0.16333   0.17788
 Alpha virt. eigenvalues --    0.17993   0.18164   0.18274   0.19590   0.20257
 Alpha virt. eigenvalues --    0.20461   0.21036   0.21175   0.21858   0.22109
 Alpha virt. eigenvalues --    0.22568   0.22753   0.23045   0.23456   0.23576
 Alpha virt. eigenvalues --    0.24812   0.25323   0.25683   0.25931   0.26359
 Alpha virt. eigenvalues --    0.26612   0.26959   0.27576   0.28653   0.29010
 Alpha virt. eigenvalues --    0.29255   0.29495   0.30059   0.30719   0.31638
 Alpha virt. eigenvalues --    0.31877   0.32364   0.33324   0.34362   0.34718
 Alpha virt. eigenvalues --    0.35513   0.36036   0.36282   0.36706   0.37268
 Alpha virt. eigenvalues --    0.38091   0.38443   0.39001   0.39082   0.39441
 Alpha virt. eigenvalues --    0.40062   0.40462   0.40718   0.42109   0.42543
 Alpha virt. eigenvalues --    0.42866   0.43311   0.43654   0.44251   0.44330
 Alpha virt. eigenvalues --    0.44566   0.45310   0.45521   0.45651   0.45841
 Alpha virt. eigenvalues --    0.46295   0.46690   0.46889   0.47474   0.47681
 Alpha virt. eigenvalues --    0.47949   0.48800   0.49383   0.49637   0.49964
 Alpha virt. eigenvalues --    0.50475   0.51255   0.51429   0.51880   0.52350
 Alpha virt. eigenvalues --    0.52546   0.53008   0.53145   0.54327   0.54581
 Alpha virt. eigenvalues --    0.54888   0.55712   0.56685   0.57001   0.57640
 Alpha virt. eigenvalues --    0.58257   0.58763   0.59226   0.59389   0.60249
 Alpha virt. eigenvalues --    0.61797   0.62679   0.63374   0.63612   0.64718
 Alpha virt. eigenvalues --    0.65503   0.65975   0.66602   0.67243   0.67349
 Alpha virt. eigenvalues --    0.67811   0.68601   0.68777   0.69241   0.69872
 Alpha virt. eigenvalues --    0.70893   0.70947   0.72121   0.72621   0.73321
 Alpha virt. eigenvalues --    0.74013   0.74333   0.74750   0.75257   0.75970
 Alpha virt. eigenvalues --    0.76292   0.76768   0.76908   0.77513   0.78316
 Alpha virt. eigenvalues --    0.78526   0.78851   0.79199   0.79355   0.80591
 Alpha virt. eigenvalues --    0.81165   0.81835   0.82111   0.82555   0.83395
 Alpha virt. eigenvalues --    0.84268   0.84587   0.85304   0.85617   0.86867
 Alpha virt. eigenvalues --    0.87494   0.88109   0.88773   0.89420   0.89968
 Alpha virt. eigenvalues --    0.91916   0.92538   0.93690   0.94082   0.94282
 Alpha virt. eigenvalues --    0.95724   0.96493   0.97513   0.98092   0.98819
 Alpha virt. eigenvalues --    0.99498   1.00108   1.00205   1.00720   1.01190
 Alpha virt. eigenvalues --    1.02124   1.02936   1.03394   1.03556   1.04596
 Alpha virt. eigenvalues --    1.05141   1.05696   1.06829   1.07129   1.07891
 Alpha virt. eigenvalues --    1.08301   1.08946   1.09474   1.10249   1.11090
 Alpha virt. eigenvalues --    1.11993   1.12630   1.13112   1.13718   1.14659
 Alpha virt. eigenvalues --    1.15290   1.16230   1.17071   1.18550   1.19203
 Alpha virt. eigenvalues --    1.19559   1.20654   1.22459   1.23464   1.24335
 Alpha virt. eigenvalues --    1.25762   1.26067   1.26691   1.27350   1.28697
 Alpha virt. eigenvalues --    1.29226   1.30343   1.30519   1.31131   1.31781
 Alpha virt. eigenvalues --    1.32902   1.33878   1.34560   1.35644   1.37706
 Alpha virt. eigenvalues --    1.39092   1.40835   1.42283   1.43721   1.44061
 Alpha virt. eigenvalues --    1.45185   1.46886   1.47821   1.49491   1.50526
 Alpha virt. eigenvalues --    1.52017   1.53462   1.54639   1.55153   1.56096
 Alpha virt. eigenvalues --    1.57800   1.58161   1.59867   1.60744   1.61005
 Alpha virt. eigenvalues --    1.62156   1.62715   1.62974   1.63883   1.64680
 Alpha virt. eigenvalues --    1.65985   1.66414   1.68096   1.68560   1.69959
 Alpha virt. eigenvalues --    1.70444   1.71492   1.71900   1.72175   1.73343
 Alpha virt. eigenvalues --    1.73599   1.75324   1.76499   1.77669   1.78105
 Alpha virt. eigenvalues --    1.79693   1.80472   1.81084   1.81241   1.82873
 Alpha virt. eigenvalues --    1.83868   1.84644   1.85274   1.86804   1.87994
 Alpha virt. eigenvalues --    1.89394   1.90671   1.91036   1.92100   1.93251
 Alpha virt. eigenvalues --    1.93896   1.94979   1.95225   1.96971   1.98959
 Alpha virt. eigenvalues --    1.99045   1.99733   2.01076   2.02039   2.02195
 Alpha virt. eigenvalues --    2.02772   2.04394   2.05034   2.06397   2.06467
 Alpha virt. eigenvalues --    2.07403   2.08149   2.10108   2.10720   2.11494
 Alpha virt. eigenvalues --    2.12675   2.13098   2.15042   2.15722   2.16961
 Alpha virt. eigenvalues --    2.17414   2.18942   2.19138   2.19444   2.21997
 Alpha virt. eigenvalues --    2.22101   2.23562   2.25037   2.26920   2.28109
 Alpha virt. eigenvalues --    2.29888   2.30484   2.33079   2.33585   2.34005
 Alpha virt. eigenvalues --    2.35419   2.36645   2.36830   2.38972   2.39610
 Alpha virt. eigenvalues --    2.40565   2.41939   2.42990   2.45203   2.45561
 Alpha virt. eigenvalues --    2.46335   2.47199   2.47838   2.48439   2.50617
 Alpha virt. eigenvalues --    2.51153   2.53133   2.54015   2.56365   2.56925
 Alpha virt. eigenvalues --    2.58010   2.61039   2.62911   2.66294   2.67789
 Alpha virt. eigenvalues --    2.71133   2.71648   2.74424   2.76782   2.78610
 Alpha virt. eigenvalues --    2.79670   2.84044   2.86424   2.86815   2.88112
 Alpha virt. eigenvalues --    2.88913   2.91015   2.92584   2.94909   2.96833
 Alpha virt. eigenvalues --    2.98122   2.99453   3.00290   3.04148   3.06992
 Alpha virt. eigenvalues --    3.08928   3.11298   3.14383   3.15355   3.15997
 Alpha virt. eigenvalues --    3.18860   3.20451   3.24315   3.25570   3.28699
 Alpha virt. eigenvalues --    3.33809   3.36023   3.40807   3.46249   3.48051
 Alpha virt. eigenvalues --    3.49636   3.55139   3.59973   3.64645   3.67063
 Alpha virt. eigenvalues --    3.74031   3.85384   3.90410   3.90896   3.92177
 Alpha virt. eigenvalues --    3.94317   3.95614   3.97287   3.97986   3.99677
 Alpha virt. eigenvalues --    4.02245   4.02425   4.03898   4.08858   4.10186
 Alpha virt. eigenvalues --    4.15397   4.18023   4.27015   4.39057   4.70219
 Alpha virt. eigenvalues --    4.98540
          Condensed to atoms (all electrons):
               1          2          3          4          5          6
     1  O    9.472401  -0.355774   0.076208   0.075583   0.000864  -0.001140
     2  S   -0.355774  14.189614  -0.109914  -0.436640   0.031458  -0.017700
     3  N    0.076208  -0.109914   8.766611  -0.589658  -0.070264  -0.074471
     4  C    0.075583  -0.436640  -0.589658  11.048230  -0.686814   0.745929
     5  N    0.000864   0.031458  -0.070264  -0.686814   8.644073  -0.783363
     6  O   -0.001140  -0.017700  -0.074471   0.745929  -0.783363  10.248617
     7  C   -0.025699  -0.115213  -0.021239  -0.882762  -0.289633  -1.077165
     8  C    0.009513  -0.063907  -0.054206   0.377052   0.066842   0.801907
     9  C    0.001785  -0.023328  -0.005902   0.120374  -0.177154  -0.285978
    10  C    0.000627  -0.005336  -0.008318   0.220192  -0.089005  -0.007963
    11  C   -0.000717   0.001189   0.002541  -0.048242   0.003586  -0.060773
    12  C   -0.002810   0.010651   0.001072  -0.111291   0.035928   0.047839
    13  C   -0.016123   0.034431   0.039380  -0.557237   0.204927  -0.268912
    14  C    0.005854   0.141179   0.382107  -3.691827   0.657639  -0.107026
    15  C    0.008438   0.353395   0.039155  -0.000777  -0.004502   0.004926
    16  O    0.007332  -0.242690  -0.001088   0.044961   0.002097   0.001638
    17  H   -0.000483   0.000426  -0.001172   0.030025  -0.026757  -0.092913
    18  H    0.000012  -0.000137  -0.000261   0.002365  -0.002063   0.005945
    19  H   -0.000018   0.000020   0.000051  -0.000730   0.000262  -0.000399
    20  H    0.000182   0.000104  -0.000133   0.001397   0.000306   0.001708
    21  H   -0.003229  -0.010521  -0.000237   0.029363   0.005336   0.007769
    22  H   -0.010977  -0.015527  -0.125905   0.315984  -0.101433   0.043867
    23  H    0.027931  -0.085058   0.006812   0.008042  -0.004716   0.001644
    24  H    0.019662  -0.041934   0.000571   0.026629  -0.006201   0.001015
    25  H    0.011651  -0.047077  -0.001176  -0.008592   0.001115   0.000184
               7          8          9         10         11         12
     1  O   -0.025699   0.009513   0.001785   0.000627  -0.000717  -0.002810
     2  S   -0.115213  -0.063907  -0.023328  -0.005336   0.001189   0.010651
     3  N   -0.021239  -0.054206  -0.005902  -0.008318   0.002541   0.001072
     4  C   -0.882762   0.377052   0.120374   0.220192  -0.048242  -0.111291
     5  N   -0.289633   0.066842  -0.177154  -0.089005   0.003586   0.035928
     6  O   -1.077165   0.801907  -0.285978  -0.007963  -0.060773   0.047839
     7  C   22.163212  -6.842644   0.512580  -0.780320   0.824945  -0.759292
     8  C   -6.842644  21.682376  -6.325787   1.747506  -4.152505   1.823770
     9  C    0.512580  -6.325787  18.989069  -4.344235   2.827302  -3.360482
    10  C   -0.780320   1.747506  -4.344235  12.172219  -3.150622   3.646683
    11  C    0.824945  -4.152505   2.827302  -3.150622   9.792465  -3.290764
    12  C   -0.759292   1.823770  -3.360482   3.646683  -3.290764  14.087320
    13  C    0.473416  -7.951734   0.686050  -3.617341   3.569099  -6.227317
    14  C   -8.216013   2.588520  -2.736975   0.125887  -0.510362   0.628057
    15  C   -0.047139   0.016363  -0.002788   0.002278  -0.001526   0.000525
    16  O    0.006338   0.002553   0.001058   0.000115  -0.000024  -0.000306
    17  H    0.308604   0.236014  -0.874922   0.384164  -0.081389   0.049151
    18  H   -0.019229  -0.110522   0.709682  -0.811378   0.290604  -0.220849
    19  H   -0.016187   0.067907  -0.114642   0.406745  -0.652732   0.332643
    20  H   -0.030158  -0.164082   0.104723  -0.266215   0.314334  -1.024528
    21  H   -0.264417   0.819533  -0.086615   0.100333  -0.134652   0.242514
    22  H    0.781686   0.039411   0.028295   0.017337  -0.032431   0.067928
    23  H    0.010647  -0.001681   0.004148   0.001391  -0.000385  -0.004759
    24  H    0.006191   0.000999   0.000345   0.000269  -0.000167  -0.000347
    25  H   -0.031336   0.004440  -0.001391   0.000035   0.000018   0.001195
              13         14         15         16         17         18
     1  O   -0.016123   0.005854   0.008438   0.007332  -0.000483   0.000012
     2  S    0.034431   0.141179   0.353395  -0.242690   0.000426  -0.000137
     3  N    0.039380   0.382107   0.039155  -0.001088  -0.001172  -0.000261
     4  C   -0.557237  -3.691827  -0.000777   0.044961   0.030025   0.002365
     5  N    0.204927   0.657639  -0.004502   0.002097  -0.026757  -0.002063
     6  O   -0.268912  -0.107026   0.004926   0.001638  -0.092913   0.005945
     7  C    0.473416  -8.216013  -0.047139   0.006338   0.308604  -0.019229
     8  C   -7.951734   2.588520   0.016363   0.002553   0.236014  -0.110522
     9  C    0.686050  -2.736975  -0.002788   0.001058  -0.874922   0.709682
    10  C   -3.617341   0.125887   0.002278   0.000115   0.384164  -0.811378
    11  C    3.569099  -0.510362  -0.001526  -0.000024  -0.081389   0.290604
    12  C   -6.227317   0.628057   0.000525  -0.000306   0.049151  -0.220849
    13  C   21.440436  -1.999098  -0.015161  -0.001545  -0.087152   0.075096
    14  C   -1.999098  18.564342   0.013826   0.031111  -0.086056   0.011999
    15  C   -0.015161   0.013826   4.637036  -0.056705  -0.000788   0.000080
    16  O   -0.001545   0.031111  -0.056705   9.371136  -0.000021   0.000003
    17  H   -0.087152  -0.086056  -0.000788  -0.000021   2.018239  -0.089464
    18  H    0.075096   0.011999   0.000080   0.000003  -0.089464   1.677812
    19  H   -0.080340   0.003490  -0.000047  -0.000000  -0.014270  -0.054161
    20  H    0.973261   0.043958   0.000124   0.000005   0.007399  -0.020870
    21  H   -1.167280   0.191307   0.002513   0.000282  -0.018060   0.010016
    22  H   -0.017245  -1.612829  -0.020827   0.002385   0.002056   0.000944
    23  H   -0.004688  -0.035554   0.375404   0.018836   0.000312  -0.000010
    24  H   -0.002887  -0.043706   0.336488   0.021154  -0.000149   0.000007
    25  H    0.002241   0.064968   0.307201   0.018399  -0.000054   0.000007
              19         20         21         22         23         24
     1  O   -0.000018   0.000182  -0.003229  -0.010977   0.027931   0.019662
     2  S    0.000020   0.000104  -0.010521  -0.015527  -0.085058  -0.041934
     3  N    0.000051  -0.000133  -0.000237  -0.125905   0.006812   0.000571
     4  C   -0.000730   0.001397   0.029363   0.315984   0.008042   0.026629
     5  N    0.000262   0.000306   0.005336  -0.101433  -0.004716  -0.006201
     6  O   -0.000399   0.001708   0.007769   0.043867   0.001644   0.001015
     7  C   -0.016187  -0.030158  -0.264417   0.781686   0.010647   0.006191
     8  C    0.067907  -0.164082   0.819533   0.039411  -0.001681   0.000999
     9  C   -0.114642   0.104723  -0.086615   0.028295   0.004148   0.000345
    10  C    0.406745  -0.266215   0.100333   0.017337   0.001391   0.000269
    11  C   -0.652732   0.314334  -0.134652  -0.032431  -0.000385  -0.000167
    12  C    0.332643  -1.024528   0.242514   0.067928  -0.004759  -0.000347
    13  C   -0.080340   0.973261  -1.167280  -0.017245  -0.004688  -0.002887
    14  C    0.003490   0.043958   0.191307  -1.612829  -0.035554  -0.043706
    15  C   -0.000047   0.000124   0.002513  -0.020827   0.375404   0.336488
    16  O   -0.000000   0.000005   0.000282   0.002385   0.018836   0.021154
    17  H   -0.014270   0.007399  -0.018060   0.002056   0.000312  -0.000149
    18  H   -0.054161  -0.020870   0.010016   0.000944  -0.000010   0.000007
    19  H    1.645920  -0.047277  -0.020566   0.000967   0.000015  -0.000004
    20  H   -0.047277   1.687632  -0.078423  -0.001181  -0.000124  -0.000002
    21  H   -0.020566  -0.078423   2.040115  -0.113510   0.002029   0.000660
    22  H    0.000967  -0.001181  -0.113510   2.498787  -0.025185  -0.002974
    23  H    0.000015  -0.000124   0.002029  -0.025185   0.940082  -0.065935
    24  H   -0.000004  -0.000002   0.000660  -0.002974  -0.065935   0.860247
    25  H   -0.000003   0.000039  -0.000059  -0.001755  -0.107080  -0.110120
              25
     1  O    0.011651
     2  S   -0.047077
     3  N   -0.001176
     4  C   -0.008592
     5  N    0.001115
     6  O    0.000184
     7  C   -0.031336
     8  C    0.004440
     9  C   -0.001391
    10  C    0.000035
    11  C    0.000018
    12  C    0.001195
    13  C    0.002241
    14  C    0.064968
    15  C    0.307201
    16  O    0.018399
    17  H   -0.000054
    18  H    0.000007
    19  H   -0.000003
    20  H    0.000039
    21  H   -0.000059
    22  H   -0.001755
    23  H   -0.107080
    24  H   -0.110120
    25  H    0.931359
 Mulliken charges:
               1
     1  O   -1.301073
     2  S    2.808292
     3  N   -1.250564
     4  C   -0.031557
     5  N   -0.412528
     6  O   -1.135186
     7  C    0.330826
     8  C    1.382363
     9  C    0.354790
    10  C    0.254950
    11  C    0.491206
    12  C    0.027470
    13  C    0.515725
    14  C    1.585202
    15  C    0.052507
    16  O   -1.227023
    17  H   -0.662740
    18  H   -0.455631
    19  H   -0.456644
    20  H   -0.502181
    21  H   -0.554201
    22  H   -0.717867
    23  H   -0.062117
    24  H    0.000190
    25  H   -0.034207
 Sum of Mulliken charges =  -1.00000
 Mulliken charges with hydrogens summed into heavy atoms:
               1
     1  O   -1.301073
     2  S    2.808292
     3  N   -1.250564
     4  C   -0.031557
     5  N   -0.412528
     6  O   -1.135186
     7  C    0.330826
     8  C    1.382363
     9  C   -0.307950
    10  C   -0.200682
    11  C    0.034562
    12  C   -0.474711
    13  C   -0.038476
    14  C    0.867334
    15  C   -0.043628
    16  O   -1.227023
 Electronic spatial extent (au):  <R**2>=           5332.4240
 Charge=             -1.0000 electrons
 Dipole moment (field-independent basis, Debye):
    X=            -12.1482    Y=             -4.3786    Z=              3.9913  Tot=             13.5160
 Quadrupole moment (field-independent basis, Debye-Ang):
   XX=           -155.2753   YY=           -118.7178   ZZ=           -108.5550
   XY=             -1.7992   XZ=             14.3309   YZ=             -3.3679
 Traceless Quadrupole moment (field-independent basis, Debye-Ang):
   XX=            -27.7593   YY=              8.7983   ZZ=             18.9610
   XY=             -1.7992   XZ=             14.3309   YZ=             -3.3679
 Octapole moment (field-independent basis, Debye-Ang**2):
  XXX=           -216.3893  YYY=            -36.3324  ZZZ=              1.2858  XYY=            -25.3087
  XXY=              1.3460  XXZ=             54.2117  XZZ=             26.6610  YZZ=              4.2313
  YYZ=              5.2155  XYZ=            -13.2512
 Hexadecapole moment (field-independent basis, Debye-Ang**3):
 XXXX=          -7056.9485 YYYY=          -1015.5440 ZZZZ=           -303.9853 XXXY=            -56.6497
 XXXZ=            179.7178 YYYX=            -23.5082 YYYZ=             -3.0299 ZZZX=              5.0444
 ZZZY=              1.7395 XXYY=          -1174.0004 XXZZ=          -1151.4693 YYZZ=           -222.0314
 XXYZ=            -20.3356 YYXZ=             21.3874 ZZXY=            -12.6751
 N-N= 1.164587266049D+03 E-N=-4.972442689130D+03  KE= 1.113740828690D+03
 Leave Link  601 at Thu Sep 24 05:58:05 2020, MaxMem=   262144000 cpu:               0.8 elap:               0.3
 (Enter /prod/apps/gaussian/g16b1/l9999.exe)
 1\1\GINC-PIRINEUS7\SP\RMP2-FC\Aug-CC-pVDZ\C10H9N2O3S1(1-)\UBAFAR01\24-
 Sep-2020\0\\#p mp2/aug-cc-pVDZ scf=(MaxCycle=2000,NoVarAcc,NoIncFock) 
 maxdisk=120GB geom=allcheck\\SM41_m1.a.8.pdb.xyz\\-1,1\O,0,2.637894743
 2,-1.5144577479,-1.0207395449\S,0,3.2796063017,-0.4419701227,-0.206588
 9389\N,0,2.4996593035,0.9633722412,-0.2098406307\C,0,1.1302345817,0.96
 47431686,-0.0967477333\N,0,0.5272608188,2.1404573103,0.1018662181\O,0,
 -0.8612846449,1.8531101843,0.1480684178\C,0,-1.0457231332,0.5223101828
 ,-0.0129078942\C,0,-2.4194483237,0.0277595662,0.0071282208\C,0,-3.4959
 756484,0.9097552748,0.1917735409\C,0,-4.8033404454,0.4283035616,0.2087
 833726\C,0,-5.0529443493,-0.9357802279,0.0418318913\C,0,-3.9851665786,
 -1.8188238151,-0.1424535887\C,0,-2.6774070542,-1.342450635,-0.15992958
 96\C,0,0.1587183891,-0.0932995099,-0.1730606657\C,0,3.2789259298,-1.05
 83942445,1.4915846649\O,0,4.6939309321,-0.1500504514,-0.5464337355\H,0
 ,-3.2983953952,1.9668689611,0.3207295786\H,0,-5.6277414825,1.118765513
 ,0.3523211611\H,0,-6.0714498759,-1.3087212055,0.0551402901\H,0,-4.1717
 773871,-2.8794510151,-0.2729269099\H,0,-1.8509643008,-2.0300003625,-0.
 3031719418\H,0,0.3600344552,-1.1351653419,-0.3513423352\H,0,2.24887692
 79,-1.2159825229,1.8143319564\H,0,3.7656798474,-0.3226541061,2.1317664
 886\H,0,3.8257963889,-2.0022446555,1.5148177072\\Version=ES64L-G16RevB
 .01\State=1-A\HF=-1114.9315622\MP2=-1117.3959207\RMSD=5.638e-09\PG=C01
  [X(C10H9N2O3S1)]\\@


 Everywhere is walking distance if you have the time.
                                    -- Steven Wright
 Job cpu time:       0 days  0 hours 58 minutes 18.1 seconds.
 Elapsed time:       0 days  0 hours 15 minutes 42.2 seconds.
 File lengths (MBytes):  RWF=  33577 Int=      0 D2E=      0 Chk=     17 Scr=      1
 Normal termination of Gaussian 16 at Thu Sep 24 05:58:07 2020.
